default_name
127288
  76.3047501  33.1089941  48.1596026  75.8310623  33.2557087  47.2797187
  75.7007445  33.4160789  48.9085863  76.6873703  32.1743363  48.1703809
  77.5107187  34.0381344  48.2084824  77.4039807  34.7836714  48.9964422
  78.8851922  33.3247046  48.3530107  79.6695028  34.0478244  48.1292809
  79.0942205  32.7671823  49.7535053  78.3105015  32.0435942  49.9777940
  80.0665751  32.2777353  49.8089034  79.0555135  33.5803219  50.4783535
  79.0438227  32.2603755  47.2707349  78.1389413  32.2710853  46.6631376
  79.1349535  31.2951531  47.7688732  80.2343190  32.4829874  46.3948534
  81.1396855  32.4719455  47.0017219  80.2890181  31.6917139  45.6471947
  80.1436742  33.4478793  45.8959877  77.6825600  34.9265552  47.0070466
  77.1928070  34.6820225  45.8977947  78.4827658  35.9307534  47.2482122
  79.0509667  35.9219306  48.0831788  78.5890799  37.0322269  46.3813937
  78.7083794  36.7033007  45.3490786  77.2938315  37.8609902  46.4877051
  76.4938155  37.1686236  46.7498160  77.4377949  38.5733579  47.3000516
  76.9247541  38.6002732  45.2335263  76.8746642  39.6664596  45.4545204
  77.6919788  38.4215501  44.4801827  75.6015835  38.1363712  44.7163228
  74.8218320  38.3908197  45.4341964  75.3922258  38.6251141  43.7647982
  75.5949953  36.7113335  44.5140721  76.3644844  36.1680099  44.8784693
  74.6058278  36.0784345  43.9167879  73.5760822  36.7687999  43.4298057
  73.5581560  37.7745496  43.5206151  72.8178996  36.2833717  42.9719649
  74.6636785  34.7639125  43.7589546  75.4662299  34.2525651  44.0973849
  73.9049519  34.2794804  43.3009609  79.8144408  37.8815904  46.8216052
  79.8206936  38.4417925  47.9194839  80.8097760  37.9960881  45.9365899
  80.7284966  37.5242538  45.0472837  81.9865155  38.7748371  46.1875541
  81.8558742  39.4118558  47.0623337  83.1283552  37.8192500  46.4518294
  82.8774090  37.4009420  47.4265826  83.0850753  37.0333962  45.6977334
  84.5432464  38.4059169  46.4970602  84.8957525  38.4734573  45.4678476
  84.6278350  39.7808167  47.1547571  84.2759055  39.7139760  48.1842117
  85.6620016  40.1251015  47.1464960  84.0060849  40.4865473  46.6038745
  85.4560764  37.4215120  47.2239456  85.4656041  36.4715169  46.6896067
  86.4677563  37.8252087  47.2643683  85.0875374  37.2639651  48.2375812
  82.2785506  39.6075837  44.9609419  82.7406170  39.0722126  43.9810529
  81.9472661  40.9150677  44.9951207  80.8198547  41.5306437  45.7144638
  81.1562699  41.8475414  46.7016320  80.0210430  40.7968119  45.8216542
  80.4169755  42.7016664  44.8307284  79.9930641  43.5087484  45.4282373
  79.6923381  42.3870597  44.0797127  81.6727727  43.1039832  44.2063443
  82.2577550  43.7077192  44.9001726  81.5349823  43.6529757  43.2748291
  82.3944594  41.7804127  43.9312851  82.0878730  41.3327730  42.9859166
  83.8737042  41.9789953  43.9303299  84.4554583  42.5005953  44.9252859
  84.4516313  41.5320387  42.8028158  83.8306016  41.2741681  42.0492083
  85.8703753  41.4512633  42.5756663  86.3878286  41.0632417  43.4530376
  86.1545793  40.5469637  41.3750905  85.5236964  40.8553655  40.5414386
  87.6215498  40.6471808  40.9666569  88.2530830  40.3384748  41.7997037
  87.8062507  39.9974925  40.1111504  87.8546018  41.6772577  40.6969763
  85.7862552  39.1009728  41.7185157  86.4888310  38.7674309  42.4822158
  84.7793682  39.1205268  42.1355236  85.8276460  38.1376545  40.5333192
  86.8344047  38.1172123  40.1160437  85.5531611  37.1372234  40.8678261
  85.1249430  38.4703099  39.7693501  86.3365998  42.8257468  42.2401905
  85.8430295  43.4016360  41.2649059  87.3552089  43.3054593  42.9633559
  87.7812670  42.7425907  43.6856804  87.9151871  44.6210217  42.6936948
  87.1265026  45.2672411  42.3083683  88.5438080  45.2877241  43.8804418
  89.5191790  44.8482642  44.0893090  88.7136674  46.7678979  43.5478482
  87.7386005  47.2081858  43.3393007  89.1698856  47.2810199  44.3944125
  89.3539724  46.8728718  42.6720105  87.6863343  45.1057591  45.1099965
  87.5745467  44.0423358  45.3215067  88.1601268  45.5968895  45.9599443
  86.7044849  45.5465129  44.9373447  89.0129256  44.5646482  41.7161073
  89.0773664  45.3850207  40.8277283  89.9732683  43.6869383  41.9601836
  90.0649514  43.2574781  42.8697205  91.0184492  43.4368158  40.9659825
  90.5918220  43.4533558  39.9630792  92.1171715  44.5394504  41.0583358
  91.6975432  45.3794210  41.6119248  92.9533229  44.1184175  41.6166207
  92.6126036  45.0277003  39.6810529  91.8067360  44.9705723  38.7250949
  93.8029841  45.4671061  39.5746293  91.6294466  41.9883884  41.0208015
  91.5958373  41.2715160  42.0564392  92.1930002  41.6073994  39.8787382
  92.1226871  42.2357924  39.0911611  92.8878574  40.3487363  39.6937468
  92.7295487  39.6949065  40.5513855  92.3398628  39.6554481  38.4416575
  92.8013264  38.6683790  38.4125850  91.2661359  39.5495570  38.5965696
  92.5975004  40.3837467  37.1033026  93.6449737  40.6851780  37.0970031
  92.4227614  39.6623203  36.3051095  91.7107396  41.6143196  36.8824505
  90.7255037  41.2751780  36.5624628  91.6211497  42.1478444  37.8287191
  92.2907456  42.5410039  35.8335585  91.6257720  43.3963322  35.7138750
  93.2681781  42.8857652  36.1709965  92.4358679  41.8386670  34.5276912
  91.5302064  41.5194993  34.2146272  92.8234236  42.4740810  33.8449397
  93.0523493  41.0463158  34.6382774  94.3823438  40.6544207  39.5406308
  94.7694030  41.4825649  38.6825985  95.2077063  40.1154357  40.4389675
  94.8600226  39.5852093  41.2251452  96.6445989  40.3824722  40.3631968
  96.8283007  41.0229245  39.5005418  97.2066790  41.0725133  41.6155156
  98.1806082  41.3346504  41.2021811  96.6697974  41.9822699  41.8842179
  97.3965591  40.2153948  42.8499938  96.3009149  39.7835059  43.5969442
  95.2989941  39.9630389  43.2070441  96.4679060  39.1311818  44.8243969
  95.5941366  38.8068489  45.3895846  97.7581619  38.8926315  45.3272363
  97.9402840  38.2291473  46.5487306  97.1130940  37.9773084  46.9657838
  98.8540456  39.3258017  44.5967875  99.8628668  39.1246370  44.9572219
  98.6646047  40.0237383  43.3925406  99.5226826  40.4313189  42.8580496
  97.3388149  39.1160743  40.0732494  97.7483156  38.4225502  40.9796840
  97.4177476  38.7758937  38.7990643  97.1553207  39.3901862  38.0415181
  97.9276060  37.4844472  38.4762262  97.1947653  36.7146619  38.7180408
  98.2242162  37.4217599  36.9882001  97.3576968  37.8363516  36.4730719
  99.0912201  38.0576817  36.8092928  98.5034344  36.0299962  36.4647617
  99.1660947  35.5265939  37.1687277  97.5580925  35.4904596  36.4070454
  99.1567972  36.0611393  35.0839571  99.5325995  37.0715590  34.9229490
  99.9926452  35.3617614  35.1020675  98.2063574  35.6869727  33.9534012
  98.7890525  35.1353362  33.2156587  97.4461484  35.0318653  34.3788608
  97.5481112  36.8494166  33.2968663  98.2523474  37.4563584  32.9021857
  96.9375897  36.5201464  32.5627379  97.0077762  37.3604656  33.9802155
  99.1781027  37.3658116  39.2684248 100.0935487  38.1567800  39.1409350
  99.1916797  36.3433462  40.0995524  98.4109826  35.7037830  40.0599253
 100.2937403  36.0235330  40.9726727 101.2344973  36.2637481  40.4773222
 100.2092888  36.8143157  42.2593986 100.5883882  37.8133486  42.0441868
  99.1645998  36.8803586  42.5633121 101.0203191  36.1977665  43.3757041
 100.7582190  35.0456496  43.7845172 101.9251051  36.8857872  43.8707906
  99.9684522  34.6062136  41.2547068  98.8358768  34.2075028  41.0514024
 100.9410894  33.8138857  41.6995311 101.8644073  34.1998067  41.8360898
 100.7274644  32.3956104  42.0079554 101.6409058  31.8251299  42.1761099
  99.8216485  32.2318413  43.2201337 100.3286558  32.6115813  44.1071740
  98.8987793  32.7901051  43.0628000  99.4950656  30.7549977  43.4148154
  98.9875958  30.3746403  42.5283034 100.4174711  30.1961158  43.5726799
  98.4176607  30.5436955  44.8537901  98.2139670  28.7755429  44.8304317
  99.1874224  28.2957695  44.9319258  97.5720173  28.4722821  45.6574953
  97.7575488  28.4742914  43.8875471 100.0760172  31.8350401  40.7608185
 100.4440239  32.2519471  39.6589607  99.0796258  30.9708608  40.9120149
  98.7896207  30.6034187  41.8069913  98.3726149  30.5332705  39.7301282
  99.0444359  30.2204556  38.9308144  97.6602692  29.7350115  39.9385640
  97.6098885  31.7735357  39.2799564  97.6474989  32.1776145  38.1221992
  96.9256964  32.3876419  40.2442902  96.9581012  31.9903146  41.1722882
  96.1476591  33.6034900  40.0397897  96.7849074  34.3486763  39.5636478
  94.9297083  33.3567804  39.1441669  94.3347410  32.5482847  39.5689597
  94.0880255  34.6006480  39.0462832  94.6822196  35.4095148  38.6211155
  93.2269644  34.4078934  38.4063469  93.7444620  34.8866545  40.0403984
  95.3681568  33.0029293  37.8334643  94.6051986  32.8481949  37.2717239
  95.6452349  34.1071217  41.3787565  95.6782898  33.3766841  42.3618788
  95.1510966  35.3365356  41.4233611  95.1953088  35.9669177  40.6354759
  94.5687300  35.8367346  42.6921252  93.8817058  35.0838653  43.0784991
  95.6445986  36.1548662  43.8022440  96.0235282  37.1602554  43.6186571
  95.0782065  36.0743441  45.2250107  94.6994781  35.0690452  45.4095096
  95.8653566  36.3030429  45.9434758  94.2666153  36.7936278  45.3347937
  96.7943741  35.1824406  43.7159263  97.2637105  35.2600598  42.7352119
  97.5271524  35.4159311  44.4883366  96.4243325  34.1675995  43.8617605
  93.7415892  37.0783979  42.4199754  94.0117020  37.8527042  41.4680123
  92.7977470  37.2816876  43.3423490  92.8609982  36.7432011  44.1944822
  91.6893330  38.1565596  43.1786958  91.8828603  38.9957831  42.5106012
  90.5186676  37.3476375  42.6203788  90.7593696  36.2897759  42.7256910
  89.2182875  37.6430172  43.3382502  88.9766707  38.7006755  43.2329827
  88.4185112  37.0431721  42.9039183  89.3224259  37.3981015  44.3952616
  90.3829288  37.6077431  41.1281074  91.3014968  37.3108079  40.6219804
  89.5476451  37.0298748  40.7325457  90.2022238  38.6692346  40.9587484
  91.3437706  38.8212341  44.5064561  91.3494156  38.1981645  45.5624194
  90.9280544  40.0685444  44.4050310  90.7849476  40.4487613  43.4803392
  90.6198066  40.9161438  45.5601208  90.9588838  40.4633301  46.4918319
  91.3584595  42.2130351  45.3585822  91.3831835  42.3390532  44.2761741
  90.8076270  43.0395232  45.8075823  92.7603516  42.1985326  45.8920962
  92.9674680  41.2235452  46.3332347  93.7484810  42.4649697  44.7624393
  93.5422725  43.4400498  44.3210827  94.7643869  42.4529494  45.1572702
  93.6463783  41.6927043  44.0000211  92.8249077  43.2336836  47.0290293
  92.1148009  42.9613140  47.8098383  93.8319592  43.2542867  47.4455914
  92.5737511  44.2196717  46.6380729  89.1332310  41.2914506  45.7341752
  88.4529512  41.6189430  44.7647691  88.7126768  41.5186530  46.9608248
  89.2176960  41.2288111  47.7860802  87.4686213  42.2163201  47.1335371
  87.5777057  43.1921910  46.6603819  86.7023647  41.6434836  46.6112265
  87.0486409  42.4086988  48.5512285  87.8395358  42.2004556  49.4689246
  85.8371770  42.9507322  48.7090099  85.4535576  43.5177325  47.9664157
  85.0292351  42.7444119  49.9134362  85.6720125  42.3828226  50.7160504
  84.3525893  44.0322143  50.3733899  85.1311631  44.7699150  50.5676060
  83.7136083  44.3837844  49.5633271  83.5137526  43.8343948  51.6334782
  82.5431497  43.4397032  51.3330628  84.0219839  43.1057945  52.2650988
  83.3161783  45.1308127  52.4114151  82.9838984  45.8986080  51.7127166
  82.5424438  44.9625648  53.1604992  84.6059035  45.5928714  53.1034127
  84.9874492  44.7388171  53.6629793  85.3112976  45.8542396  52.3146130
  84.4361464  46.7594506  54.0276818  83.7828767  46.5173219  54.7589220
  85.3281025  46.9964620  54.4379741  84.0830097  47.5510696  53.5092872
  83.9525722  41.7469096  49.6365550  83.2650460  41.8343109  48.6125707
  83.6942018  40.9226320  50.6466471  84.0890994  41.1373099  51.5511186
  82.8846734  39.7147248  50.5137899  82.8080480  39.4101339  49.4700217
  83.5686243  38.5897945  51.3042987  84.5687677  38.6730579  50.8789993
  83.5905656  38.9050692  52.3474768  83.0967971  37.1299726  51.2206433
  83.9459293  36.5010434  50.9532046  82.5245009  36.6690498  52.5517726
  81.6749813  37.2972583  52.8196706  82.1972152  35.6327395  52.4678337
  83.2904576  36.7462579  53.3234264  82.1174927  36.8756819  50.0893184
  82.5889749  37.1214982  49.1378047  81.8263432  35.8252852  50.0893121
  81.2328592  37.4973808  50.2272064  81.4761461  39.9629408  51.0493957
  81.2775351  39.9871119  52.2696819  80.5178469  40.1662497  50.1402697
  80.7144393  40.0066098  49.1625346  79.2210738  40.7830287  50.5043141
  79.2997196  41.2009285  51.5079444  78.8089811  41.9142809  49.5275066
  78.3132343  41.4250860  48.6890421  78.0888929  42.5313688  50.0648850
  79.9584881  42.8058450  48.9980567  80.8294392  42.1578351  49.0961797
  79.7859527  43.0246655  47.9442786  80.2104457  44.1305292  49.7666678
  79.3474030  44.6047351  50.5564785  81.2706715  44.7548450  49.5108787
  78.0342777  39.7811732  50.7074461  77.1813642  40.0151854  51.5469096
  78.0185779  38.6527344  50.0059168  78.5961028  38.5350074  49.1857310
  77.0985509  37.5653257  50.3728958  76.4666007  37.9027695  51.1944004
  76.1968106  37.1360510  49.2035525  75.6417050  38.0116458  48.8669657
  76.8376319  36.7804943  48.3966897  75.2712975  36.0945583  49.5764994
  74.7313693  35.8597072  48.8182630  77.8708805  36.3549170  50.8957543
  78.5850957  35.6955345  50.1496925  77.6896391  36.0478044  52.1754490
  77.4232786  36.7689117  52.8305487  77.8650653  34.6772854  52.6801957
  77.1913057  34.5636161  53.5294463  77.5578303  34.0032671  51.8805674
  79.2780733  34.3161287  53.1170232  80.1324568  35.1800982  53.2777542
  79.4699435  33.0309301  53.4100767  78.7066762  32.3818712  53.2826211
  80.7229533  32.5244820  53.9423190  81.3785375  33.3601395  54.1872373
  80.4874834  31.6918494  55.2195511  79.7262257  32.1893536  55.8204467
  80.1306432  30.7043583  54.9269313  81.6754225  31.5582426  55.9792779
  81.4958290  31.0366091  56.7649270  81.3933681  31.6841368  52.8753396
  80.7417952  31.1222072  51.9957910  82.7068348  31.6047258  52.9633406
  83.1943459  32.0124174  53.7483373  83.4911163  31.0767599  51.8677857
  82.9491787  30.3741275  51.2347687  84.0531171  32.2158658  51.0034902
  83.2210480  32.7776759  50.5790720  84.9233848  33.1482986  51.8333994
  85.7559861  32.5872619  52.2577973  85.3094191  33.9463010  51.1991515
  84.3290174  33.5801916  52.6385670  84.7722574  31.6492735  49.7777714
  85.8453345  31.6818995  49.9662966  84.4583100  30.6137831  49.6462569
  84.4575487  32.4327675  48.5268243  84.7716572  33.4683256  48.6574189
  84.9887417  31.9964296  47.6809269  83.3846317  32.4002110  48.3373805
  84.5796047  30.0930806  52.3380281  85.5749581  30.4768417  52.9740815
  84.3188168  28.8078552  52.0727371  83.5478085  28.5873862  51.4587020
  85.0961334  27.7050702  52.6314045  85.4430177  27.9729006  53.6294212
  84.2395447  26.4143478  52.7337004  84.0101359  26.0676609  51.7260898
  84.8181081  25.6527414  53.2565007  82.6254818  26.5250362  53.6158466
  82.2877546  25.2495814  53.4483540  86.2721429  27.4848039  51.6901323
  86.1572347  27.8155524  50.4984081  87.4194946  27.0394625  52.2471000
  87.4456297  26.8965572  53.2465971  88.6714770  26.7973519  51.4624673
  88.9268115  27.7040437  50.9140028  89.8590410  26.4189883  52.3683447
  90.0509902  27.2277876  53.0733968  89.6219734  25.5076898  52.9173749
  91.0987961  26.1875421  51.5109858  90.9077536  25.3785158  50.8059467
  91.3367730  27.0986134  50.9619702  92.2741782  25.8130577  52.4075700
  92.4661272  26.6218555  53.1126237  92.0371103  24.9017585  52.9565981
  93.5139337  25.5816138  51.5502102  93.3228919  24.7725884  50.8451701
  93.7519105  26.4926858  51.0011982  94.6469239  25.2206335  52.4144587
  94.4267823  24.3761986  52.9229535  95.4680084  25.0673504  51.8466344
  94.8243856  25.9703448  53.0675586  88.4205850  25.6953958  50.4376590
  87.7073296  24.7313447  50.7307909  88.9010064  25.9012012  49.2099081
  89.4784983  26.7125171  49.0414775  88.6245441  24.9896191  48.0776061
  89.2401307  25.3714229  47.2631257  89.0119144  24.0242683  48.4033996
  87.1781543  24.8052471  47.5703009  86.9274983  23.8831314  46.7791984
  86.2490053  25.7020092  47.9601726  86.5627956  26.5248745  48.4546700
  84.7774874  25.5420064  47.7059223  84.4971358  24.5052552  47.8920653
  83.9633451  26.4538876  48.6585949  84.1920201  26.1960948  49.6926886
  84.2264633  27.4960872  48.4777945  82.4732116  26.2544588  48.4029496
  82.2436758  26.5125123  47.3691109  82.2092308  25.2125210  48.5840071
  81.6371766  27.1345999  49.3210357  82.1791835  27.8800363  50.1340502
  80.3116136  27.0465873  49.1892790  79.7105854  27.6092567  49.7743172
  79.9158472  26.4177362  48.5051615  84.3891133  25.9049467  46.2678121
  84.2035893  27.0687472  45.9853051  84.2179770  24.9246260  45.3717821
  84.2673411  23.9565493  45.6554896  83.9567080  25.2275495  43.9370327
  84.8878431  25.5121493  43.4470433  83.3829586  24.0099870  43.2227084
  82.7046621  23.5187100  43.9203185  82.8185046  24.3771968  42.3655919
  84.4345349  23.0122639  42.7487865  85.3189151  23.1114338  43.3781813
  84.0291156  22.0054167  42.8487665  84.8411072  23.2297595  41.3038866
  86.0430555  23.2908261  40.9820294  83.8410406  23.3486704  40.4133739
  84.0532666  23.4949103  39.4368108  82.8820192  23.2912250  40.7249495
  82.9712792  26.3674894  43.7880991  82.0100501  26.4296587  44.5478206
  83.2227967  27.2630550  42.8215966  84.0050371  27.1019087  42.2033482
  82.4029251  28.4764149  42.6135333  81.3967912  28.2967610  42.9923714
  82.9896209  29.6930287  43.3390150  83.9880320  29.7545728  42.9060175
  82.4158629  30.5751219  43.0547381  83.0981168  29.6257681  44.8570673
  83.7114653  28.7687481  45.1353140  83.7343851  30.8975291  45.3899890
  83.1213173  31.7549996  45.1125162  83.8077577  30.8402118  46.4760056
  84.7314152  31.0114879  44.9644956  81.7555510  29.3628558  45.5592112
  81.3478406  28.4106190  45.2199226  81.9096864  29.3278974  46.6376923
  81.0561114  30.1634234  45.3184320  82.3218643  28.8207723  41.1622246
  82.9214433  28.1486042  40.3124657  81.6207984  29.9090561  40.8775508
  81.1200977  30.3973505  41.6062255  81.5425004  30.4264902  39.5224493
  82.3460937  30.0375660  38.8970893  80.1976966  30.0850130  38.8624902
  79.3995829  30.4465560  39.5108732  80.0571393  30.7219308  37.4765922
  80.8546921  30.3604860  36.8274635  79.0912979  30.4530643  37.0488520
  80.1252634  31.8061352  37.5658199  80.0411188  28.5707705  38.7693340
  80.0722710  28.1395186  39.7699106  79.0863823  28.3318402  38.3008362
  80.8526446  28.1572163  38.1705856  81.7025267  31.9189581  39.5664630
  81.6029922  32.5327792  40.6346252  81.9951483  32.4922602  38.4021661
  82.0149917  31.9324798  37.5617189  82.3152202  33.8969960  38.2971078
  81.8547683  34.4594524  39.1093430  83.8093478  34.0572713  38.3875695
  84.1614209  33.4024802  39.1846845  84.2319408  33.7314263  37.4371273
  84.2432041  35.4699745  38.6709923  83.6183154  36.1797189  38.1288873
  84.1895500  35.6812650  39.7389716  85.9119439  35.6369488  38.1306397
  85.6688127  35.4292355  36.3491930  84.9993886  36.2063291  35.9802814
  86.6292720  35.5057520  35.8395225  85.2311458  34.4503521  36.1533964
  81.8141894  34.4971697  36.9947428  82.1177207  34.0102857  35.8906740
  81.0636404  35.5770604  37.1316423  81.2112026  36.2342239  37.8842782
  79.9551999  35.7666870  36.2896308  79.6145445  34.8075420  35.8996385
  78.8076767  36.4129456  37.0696048  79.0412649  36.3089075  38.1291858
  78.7937818  37.4697993  36.8032081  77.4305018  35.7959953  36.7865034
  76.9039415  35.7959313  37.7408802  76.9346848  36.4808918  36.0986195
  77.3984561  34.1070393  36.0814674  76.0203591  34.2659846  34.9372358
  76.2414521  35.0447172  34.2073095  75.8648040  33.3185816  34.4211632
  75.1183017  34.5311368  35.4886774  80.3850508  36.5502524  35.0764724
  81.5471834  36.6319112  34.7881363  79.4480898  37.2287202  34.4432627
  79.6681133  38.6660593  34.6349759  80.7381167  38.8568721  34.7173383
  79.1710322  38.9856109  35.5508886  79.0603478  39.2918918  33.4011916
  79.6708928  40.1381013  33.0861308  78.0519629  39.6370886  33.6294469
  79.0346903  38.2332860  32.3728991  79.9637374  38.1359078  31.8112159
  78.2114688  38.4192435  31.6830979  78.7721167  36.9594914  33.1633145
  77.7143420  36.8629353  33.4080345  79.2322464  35.7146299  32.3642917
  78.4797648  35.2135568  31.4976625  80.4297572  35.2081103  32.6590643
  80.9305739  35.5405510  33.4707078  81.0793904  34.2190847  31.8010042
  80.6575755  34.2422201  30.7961977  82.5624222  34.5542851  31.7140592
  83.0274326  34.3800283  32.6843680  83.0215750  33.9038209  30.9696299
  82.8050297  35.9998752  31.3117684  81.9123847  36.6703305  30.7908301
  84.0140006  36.4889805  31.5605761  84.2295749  37.4442964  31.3135963
  84.7125548  35.9034875  31.9956862  80.8993236  32.7606972  32.2665872
  81.4245688  31.8213434  31.6541495  80.1830504  32.5911993  33.3723477
  79.8176201  33.4035719  33.8483841  79.8749976  31.2869933  33.9093843
  79.3602067  31.4011103  34.8633586  78.9640154  30.4818746  32.9482521
  79.2230877  30.8184419  31.9444078  79.2568723  29.4388124  33.0680696
  77.4688610  30.6131208  33.1543509  76.9639113  30.0442195  32.3736602
  77.2188967  30.1931364  34.1286368  77.0191643  32.0555435  33.0972932
  75.9301240  32.0443938  33.0529551  77.3395994  32.5224150  34.0286642
  77.5710316  32.8542988  31.9087574  77.3556850  33.9007542  32.1247609
  78.6495590  32.6967568  31.9163933  77.0291325  32.5035136  30.5707170
  76.0298155  32.6498358  30.5632971  77.4602445  33.0882387  29.8690483
  77.2289464  31.5339975  30.3701876  81.1410551  30.4992848  34.0840399
  81.1339674  29.3313164  33.7892356  82.2594145  31.1138042  34.4441708
  82.3403633  32.1180474  34.5151788  83.4658870  30.3039271  34.6375929
  83.4474143  29.4784491  33.9260145  84.7551294  31.0968097  34.4319902
  84.4438525  32.1388010  34.5058814  85.5605062  30.9075455  35.1416713
  85.3338827  30.9215526  33.0761132  86.1729879  29.8770662  32.7674978
  86.5089009  29.1915672  33.4288247  86.4623743  29.9199379  31.4777848
  87.1238133  29.1756811  31.0342996  85.8323522  30.9517471  30.9400648
  85.0923269  31.5749000  31.9123241  84.4661793  32.4297097  31.6567056
  83.4689372  29.6267994  35.9986726  83.4248167  30.2955692  37.0401899
  83.5088486  28.2924185  35.9724478  83.2794170  27.8060825  35.1174989
  83.8720803  27.5019556  37.1401486  83.1094441  27.6230308  37.9094509
  83.9866338  26.0198901  36.7961570  84.3458750  25.9210909  35.7718115
  84.7033226  25.5617655  37.4777573  82.6901468  25.3013452  36.9164635
  81.6273333  25.9046489  37.1575636  82.7526491  23.9958080  36.7440482
  81.9120712  23.4398708  36.8108495  83.6408209  23.5576172  36.5459563
  85.1868905  27.9537839  37.6859235  86.0168212  28.5093818  36.9538886
  85.4148510  27.6142029  38.9426258  84.7172102  27.1041906  39.4653918
  86.6423160  27.9498326  39.5973489  87.5102521  27.5311983  39.0879065
  86.8071556  29.4751080  39.6750449  86.6744706  29.8852519  38.6739076
  85.7971556  30.1048539  40.6175019  85.9295367  29.6955163  41.6190102
  85.9477098  31.1840854  40.6438309  84.7880467  29.8877338  40.2672738
  88.2072385  29.8240669  40.1025513  88.9186147  29.4244887  39.3797903
  88.3124701  30.9077459  40.1541807  88.4061472  29.3930709  41.0837641
  86.6037763  27.3754173  40.9860230  85.5705648  27.4234115  41.6319614
  87.6917968  26.7740228  41.4384047  88.4730884  26.5689653  40.8320763
  87.7550604  26.3171417  42.8387755  86.7609302  26.3617268  43.2835413
  88.2997484  24.8647930  42.9819443  87.6371786  24.1745762  42.4597362
  89.2984651  24.8064436  42.5492085  88.3625481  24.4926525  44.4440208
  89.0253418  25.1821948  44.9668369  87.3640560  24.5503251  44.8773644
  88.8964957  23.0689494  44.5843667  90.1440190  22.9298619  44.6936443
  88.0517549  22.1340689  44.5809577  88.6118668  27.3149908  43.5859896
  89.6101198  27.8300723  43.0392465  88.1839868  27.6562100  44.8013468
  87.2558931  27.4120537  45.1161945  89.0770020  28.3280429  45.7375778
  89.3787344  29.2930453  45.3303590  88.4696459  28.5521101  47.1386814
  88.0733975  27.6081014  47.5127589  89.5422241  29.0711323  48.0991401
  89.9386454  30.0154175  47.7259423  89.1036945  29.2260320  49.0849384
  90.3493203  28.3421240  48.1715577  87.3031682  29.5250939  47.0858779
  86.5272698  29.1277622  46.4314994  86.8975218  29.6615609  48.0883386
  87.6469907  30.4847215  46.6998703  90.2478460  27.4149778  45.9344392
  90.0609860  26.2139410  46.1922762  91.4471110  27.9652748  45.7405559
  91.5519936  28.7528793  45.1170352  92.6370366  27.4227041  46.3699040
  92.4865817  26.3635171  46.5786747  93.8651980  27.5739919  45.4585937
  94.1697706  28.5986732  45.6715797  94.6173550  26.8847175  45.8423394
  93.7266060  27.3866564  43.9415375  93.2665662  28.2705036  43.4996343
  95.1160023  27.1841045  43.3438205  95.5765212  26.3001116  43.7849301
  95.0320933  27.0496348  42.2654060  95.7332226  28.0576831  43.5535820
  92.8092998  26.2355089  43.5708289  91.8137647  26.4188718  43.9750408
  92.7505461  26.1520306  42.4856189  93.2039355  25.3078117  43.9852437
  92.8598441  28.1367234  47.7124894  92.6906610  27.5341413  48.7818831
  93.1264262  29.4434479  47.6474515  92.8263215  29.9754766  46.8430996
  93.8477835  30.1436037  48.7138414  93.9186138  29.4680030  49.5662768
  94.8485670  30.3691733  48.3455344  93.1833355  31.4331177  49.1596077
  92.9477604  32.3438579  48.3554673  93.0035576  31.5523965  50.4650752
  93.3747255  30.8557202  51.0951354  92.2622972  32.6369913  51.0178600
  91.9967289  33.3840817  50.2699104  91.0063500  32.1187258  51.6797925
  91.2766397  31.3930104  52.4468526  90.2406385  33.2772358  52.3215476
  89.9695846  34.0031864  51.5549798  89.3365115  32.8968143  52.7968734
  90.8694669  33.7583306  53.0706949  90.1934550  31.3675215  50.6247552
  90.0862937  32.0349934  49.7697123  90.7782161  30.4951547  50.3329844
  88.8311440  30.9255224  51.0899032  88.2455970  31.7974456  51.3814243
  88.3228202  30.4011230  50.2807609  88.9375195  30.2576083  51.9446984
  93.1013812  33.3787574  52.0139222  93.1887415  32.9899160  53.1812266
  93.7272191  34.4512490  51.5266259  93.5039807  34.7492945  50.5877793
  94.7609517  35.2060763  52.2772348  95.1771437  34.5562197  53.0470203
  95.9575955  35.7216537  51.3390037  95.3703716  36.5008794  50.8531286
  96.6205238  36.1737275  52.0767403  96.8288934  34.9489744  50.2422199
  97.3655703  34.1634317  50.7741986  96.0353917  34.3299769  49.0787655
  95.4987801  35.1150245  48.5459924  96.7220292  33.8313158  48.3946845
  95.3223171  33.6043666  49.4700642  97.9461433  35.8252842  49.6379450
  98.6213629  36.1508181  50.4292765  98.5032427  35.2472934  48.9006064
  97.5041129  36.6976006  49.1565178  94.1056366  36.4212577  52.9800715
  94.7655664  37.4607552  53.1231473  92.9001735  36.2145514  53.4875754
  92.5087449  35.2834987  53.4827112  92.1200081  37.2799852  54.0611990
  91.7005298  37.9082122  53.2754077  90.9722924  36.6858387  54.8761055
  90.1764451  36.4110293  54.1838585  91.3436211  35.7910623  55.3756955
  90.4652971  37.5914901  55.8437109  89.7490913  37.1743557  56.3281157
  92.9450670  38.1284704  54.9660948  93.6319187  37.6625935  55.8617954
  92.8776762  39.4126519  54.6483459  92.2974746  39.6841476  53.8674774
  93.5658267  40.4388094  55.3717515  93.3466021  41.4182689  54.9466646
  93.1041524  40.4226174  56.8113948  92.0951629  40.0124469  56.8538166
  93.7838943  39.7715023  57.3610311  93.1139913  41.7865363  57.4265486
  94.2142408  42.3584950  57.5639653  92.0228149  42.2941369  57.7537268
  95.0183832  40.0698446  55.2707826  95.4305616  39.4286199  54.3126239
  95.7967220  40.4346914  56.2744511  95.4656796  41.0004089  57.0428741
  97.1745256  40.0452449  56.2625132  97.6545438  40.2468599  55.3048947
  97.9773173  40.7351356  57.3664540  97.9928151  41.8102182  57.1874110
  97.5140663  40.5348616  58.3325746  99.4070658  40.1989005  57.3669786
 100.2478049  40.7997555  56.6460538  99.6448544  39.1935380  58.0882987
  97.1597376  38.5314899  56.4368723  97.9247368  37.8088102  55.8134622
  96.2655227  38.0612815  57.2985304  95.6579032  38.7034588  57.7869014
  96.1761251  36.6190284  57.6301629  97.1447764  36.1421399  57.7797996
  95.3218502  36.4258306  58.9184168  95.7764893  37.0026202  59.7238461
  93.8828743  36.8894820  58.7107127  93.4273945  36.3127889  57.9056884
  93.3161754  36.7399406  59.6297286  93.8757697  37.9473630  58.4481506
  95.3552600  34.9873194  59.4083854  96.3831582  34.7037137  59.6344274
  94.7472166  34.8952566  60.3083339  94.9593993  34.3299764  58.6342437
  95.5998660  35.7728376  56.4723492  94.9744883  36.3057897  55.5587915
  95.8673683  34.4676199  56.4807345  96.6907397  34.1205825  56.9516103
  95.0224594  33.5125235  55.7694182  94.4181930  34.0342138  55.0272589
  95.8897274  32.4599884  55.0476031  95.5797283  32.4815999  54.0028386
  96.9179986  32.8124716  55.1283124  95.7994807  31.0330809  55.5744016
  96.8103455  30.6420479  55.6899286  95.3205000  31.0948969  56.5515686
  94.9940251  30.1019023  54.6710973  95.4694947  28.9751497  54.4099629
  93.8786670  30.4778810  54.2410398  94.0950497  32.8970864  56.8140920
  94.4572746  32.8328212  57.9826853  92.8694303  32.5462866  56.4197081
  92.4637543  32.9730727  55.5991108  92.0539819  31.5854354  57.1827585
  92.6858455  31.0115502  57.8606253  90.9434724  32.2836146  58.0116737
  90.4473275  31.5338824  58.6279870  91.5290981  33.3878916  58.9171507
  92.0250364  34.1382808  58.3014714  90.7254933  33.8574452  59.4844582
  92.2509271  32.9489036  59.6058837  89.9678917  32.8497221  57.1306824
  89.2825990  33.2806980  57.6466611  91.4243122  30.5570400  56.2196697
  91.5207230  30.7008603  54.9995182  90.8609306  29.4863025  56.7765228
  90.8519491  29.3954137  57.7823846  90.2856840  28.3905411  55.9688914
  90.9230086  28.2050197  55.1043115  90.1756191  27.0907314  56.7869894
  90.3377101  27.3453091  57.8343746  89.1680147  26.6943283  56.6616977
  91.1782510  26.0535789  56.3626535  92.3866060  26.3822607  56.3577096
  90.7589571  24.9192168  56.0298934  88.9115206  28.7602532  55.4258759
  88.5990914  28.4767103  54.2713866  88.0678145  29.3092601  56.2920141
  88.3110893  29.3501871  57.2714230  86.7904698  29.8624803  55.8758760
  86.7520660  29.9456752  54.7897347  85.5987196  28.9939617  56.3480336
  84.7258519  29.2508908  55.7478755  85.8985962  27.4941079  56.1995028
  86.7711230  27.2363159  56.7997859  85.0398721  26.9158469  56.5405399
  86.0977997  27.2648063  55.1526793  85.2934644  29.2835300  57.7204557
  84.5541342  28.7413375  58.0050931  86.6608840  31.2372420  56.4783341
  87.2804109  31.5340038  57.4902007  85.8311463  32.0715258  55.8784342
  85.3035848  31.7880781  55.0651473  85.6915900  33.4388763  56.3474432
  85.6748263  33.5174586  57.4344773  86.8314776  34.3333436  55.8045754
  87.7889896  33.8693603  56.0411962  86.7079034  34.4996465  54.2995343
  85.7507707  34.9640250  54.0621518  87.5179796  35.1316339  53.9355716
  86.7661718  33.5227648  53.8195253  86.8641867  35.6797852  56.5117156
  87.0234285  35.5264294  57.5790610  87.6761992  36.2837749  56.1068308
  85.9164002  36.1953085  56.3566758  84.3434228  33.9725670  55.9145786
  83.8499250  33.6172546  54.8447076  83.7529745  34.8151503  56.7632134
  84.2851604  35.1640182  57.5475403  82.3525219  35.2306004  56.6333527
  81.8007454  34.5780675  55.9567119  81.6906443  35.1818262  58.0040752
  82.2265658  35.8374136  58.6904377  80.6554407  35.5126196  57.9202336
  81.7155331  34.1604878  58.3840063  82.2968696  36.6467420  56.0373328
  83.3341076  37.2921027  55.9172002  81.0918762  37.1303885  55.6516051
  79.7837106  36.6216681  56.0892117  79.6767607  36.7719209  57.1634957
  79.7138840  35.5577000  55.8629485  78.8086676  37.4426681  55.2913802
  77.8731818  37.5358103  55.8430051  78.6188795  36.9557661  54.3348195
  79.4499330  38.7526860  55.0958718  79.2324206  39.3864041  55.9556327
  79.1292340  39.2560025  54.1837730  80.9606707  38.4590900  55.0306868
  81.3518089  38.3907972  54.0155783  81.6970184  39.5319132  55.7786756
  81.9618494  39.3958938  56.9727980  81.9334230  40.6430683  55.1037444
  81.6781133  40.7121749  54.1289929  82.5658334  41.7980798  55.7379610
  82.0932438  42.7110385  55.3756563  82.4403225  41.7287423  56.8184880
  84.0366911  41.8471599  55.4175552  84.5244338  42.8137943  54.8318872
  84.7256027  40.7559769  55.7012972  84.2691675  39.9500308  56.1040591
  86.1498945  40.7400093  55.5843574  86.5774589  41.5521902  56.1722775
  86.7159125  39.4137625  56.0979953  86.1778751  38.6067647  55.6006326
  87.7694773  39.3716552  55.8217198  86.5790209  39.2573557  57.6245924
  86.7505937  40.2568127  58.0242789  85.5632554  38.9411369  57.8619216
  87.5767092  38.2797556  58.2504542  87.1227241  37.4170861  59.0500233
  88.8070226  38.4037998  57.9894101  86.6293058  41.0751055  54.1563569
  85.8365787  41.2612218  53.2079844  87.9383885  41.2578367  54.0611116
  88.5054276  41.0402260  54.8680884  88.5984934  41.7481005  52.8713250
  87.8629410  42.0104531  52.1109086  89.4125591  43.0016750  53.2193377
  89.7387604  42.8741230  54.2515307  90.2845068  43.1030551  52.5731727
  88.5918119  44.2673244  53.1250946  87.8879027  44.4786950  52.1372934
  88.7266603  45.1516062  54.1182520  88.1985610  46.0123295  54.0991115
  89.3560405  44.9550452  54.8833306  89.5244838  40.6695225  52.3381773
  90.7058889  40.6334818  52.6745224  89.0127394  39.8667917  51.4217266
  88.1173656  40.0719268  51.0018163  89.7236346  38.7125083  50.9710274
  90.3680036  38.3305690  51.7628671  88.7460433  37.6445841  50.5932771
  88.1711926  38.1236729  49.8007370  89.3068454  36.8067339  50.1790210
  87.8044148  37.1402614  51.6644350  88.2313662  36.2166224  52.0552091
  87.5748120  38.1193650  52.8118686  87.1474133  39.0431399  52.4219082
  86.8880260  37.6785294  53.5344264  88.5247372  38.3368879  53.3001577
  86.4846157  36.7722807  51.0033228  86.6550019  35.9946956  50.2587227
  85.7892704  36.4055016  51.7583522  86.0626028  37.6526139  50.5185368
  90.5459078  39.0203946  49.7401445  90.0485147  39.6035875  48.7673176
  91.7749309  38.5359393  49.7376223  92.3336110  38.5194617  50.5788740
  92.3684844  38.0556131  48.5122395  91.8774898  38.5248335  47.6596811
  93.8676110  38.3904806  48.4610834  94.3305156  37.8308714  49.2738910
  94.2301690  38.0100517  47.5061355  94.2298594  39.8697075  48.5904547
  93.8045617  40.3951696  47.7354037  93.7790693  40.2463290  49.5086304
  95.7627057  40.1064308  48.6323615  96.1872701  39.4569346  49.3978670
  96.1757831  39.8390132  47.6597596  96.1099244  41.5674212  48.9512282
  95.5450563  42.1849589  48.2528932  95.7637214  41.7589036  49.9668941
  97.5558895  41.9006260  48.8495837  97.8767859  41.7236721  47.9084076
  97.6932921  42.8756485  49.0744205  98.0794404  41.3288120  49.4969031
  92.1434953  36.5285331  48.4187704  92.1696174  35.8001821  49.4386157
  91.8807967  36.0578836  47.2031255  91.9778500  36.6658450  46.4024614
  91.5195656  34.6640273  46.9729980  91.7835064  34.0267888  47.8170131
  90.0065575  34.4988971  46.6523604  89.7927629  34.9939452  45.7050908
  89.6269456  33.0174894  46.5512867  89.8400376  32.5218383  47.4983994
  88.5640863  32.9287628  46.3264348  90.2063472  32.5467810  45.7570407
  89.1008184  35.2372195  47.6731678  89.6673489  36.1047609  48.0115695
  88.2242708  35.5705036  47.1175731  88.6576196  34.4215110  48.8760474
  89.5336704  34.0882438  49.4324356  88.0302079  35.0363083  49.5213984
  88.0905938  33.5539846  48.5384387  92.2588397  34.1718019  45.7598167
  92.0478569  34.6887003  44.6539929  93.0973653  33.1557404  45.9456229
  93.4262665  32.9050697  46.8670823  93.6571710  32.4534600  44.7971713
  93.8671003  33.1804341  44.0126093  94.9592083  31.7023628  45.1334161
  95.4956053  32.3013575  45.8693392  94.6751055  30.7490541  45.5790483
  95.8736852  31.4477453  43.9102100  95.5838688  30.4858628  43.4872569
  95.6705808  32.2379167  43.1873824  97.3678672  31.4302159  44.2398505
  97.6274160  30.4302840  44.5875136  97.9199603  31.6514269  43.3264183
  97.7553089  32.4028110  45.2715096  97.9984200  33.3249023  44.9387274
  97.8330838  32.1569403  46.5837157  97.5426413  30.9513533  47.0735698
  97.2594524  30.2104091  46.4483452  97.6071480  30.7845858  48.0676157
  98.1790751  33.1353943  47.4187520  98.3805306  34.0564937  47.0566860
  98.2383742  32.9516970  48.4101337  92.6394355  31.5141629  44.1671900
  92.0596441  30.6572669  44.8308164  92.4745411  31.6850889  42.8583713
  93.1006354  32.3272318  42.3938740  91.4826830  30.9753381  42.0491141
  90.7859063  30.4348577  42.6898030  90.6899615  31.9932234  41.2085624
  91.4295150  32.7810101  41.0652030  90.4551634  31.5366714  40.2470375
  89.4160639  32.5929147  41.8135793  88.6812016  31.7977536  41.9392656
  89.7023627  33.2387310  43.1658719  90.4368471  34.0343540  43.0409097
  88.7810076  33.6560388  43.5721474  90.0940657  32.4878462  43.8520505
  88.7793894  33.5807988  40.8317114  88.5253515  33.0622651  39.9072186
  87.8751385  34.0003286  41.2726494  89.4838842  34.3839236  40.6154327
  92.1873663  30.0279182  41.0850944  93.2392782  30.3892221  40.5551491
  91.6081345  28.8437494  40.8224567  90.8406331  28.5179980  41.3924804
  92.0534362  27.9945651  39.6907710  92.8741210  28.4827123  39.1651401
  92.5314653  26.6486893  40.1897573  93.4792030  26.8104662  40.7032948
  91.7907322  26.2842424  40.9015108  92.7228321  25.6181525  39.0840206
  92.6219951  26.1274671  38.1256202  93.7291443  25.2089259  39.1733030
  91.7062232  24.4874472  39.1670025  90.7214164  24.9012166  38.9500935
  91.9626885  23.7456110  38.4106930  91.6880877  23.8257181  40.5429501
  92.3229738  24.4119386  41.2073037  90.6626247  23.8434466  40.9120170
  92.1792825  22.4120005  40.5027610  93.1296331  22.3953910  40.1612093
  92.1487009  22.0184294  41.4324203  91.5908607  21.8685258  39.8875422
  90.9477557  27.7310476  38.7255574  89.9772490  27.1063441  39.1033356
  91.1386737  28.0789757  37.4555821  92.0399352  28.3983694  37.1302906
  90.0367829  28.0065174  36.4903854  89.5356975  27.0453065  36.6047800
  89.3325347  28.8105185  36.7041984  90.5180388  28.1417952  35.0719353
  91.7115269  28.3172786  34.8489427  89.6112466  27.9902238  34.1025354
  88.6823606  27.6586169  34.3200371  89.9736431  28.1790583  32.6801975
  90.9749412  27.8022182  32.4716485  88.9359507  27.5172985  31.6680188
  87.9276930  27.7514873  32.0095922  89.1248627  28.0385466  30.2326284
  90.1328079  27.8043024  29.8901713  88.3981942  27.5626855  29.5741378
  88.9775977  29.1184139  30.2153410  88.9985155  25.9540048  31.7054785
  89.4692383  25.6968237  32.6543614  87.9629397  25.6139173  31.7102605
  89.7499845  25.2765936  30.5660096  90.7858289  25.6158571  30.5608728
  89.7228949  24.1957217  30.7041447  89.2795313  25.5329529  29.6167712
  90.1635895  29.6936838  32.4388101  90.8641645  30.0835405  31.5057852
  89.6447908  30.5328832  33.3475104  89.1092256  30.1700334  34.1231452
  89.7539835  32.0022794  33.1958902  90.3581750  32.2442745  32.3215389
  88.3581679  32.6151568  33.0126355  87.7303342  31.8518040  32.5530525
  87.9769557  32.8481787  34.0068578  88.3381414  33.8790341  32.1498266
  87.5267806  34.5300490  32.4753632  89.2940749  34.3636562  32.3484007
  88.2054012  33.6107732  30.6536952  87.0687360  33.3376194  30.1946022
  89.2222109  33.7312947  29.9302489  90.4967094  32.6971402  34.3617052
  89.9226456  32.8482026  35.4708706  91.7282477  33.1876667  34.0733978
  91.9755345  33.3095468  33.1017529  92.7908686  33.3867543  35.1053246
  92.3459008  33.5114271  36.0925224  93.6900546  32.1694454  35.1303179
  94.2380861  32.1386555  34.1886105  94.3925139  32.2889956  35.9551565
  92.9121652  30.8670484  35.3091587  92.4303766  30.6914583  34.3473121
  93.6162392  30.0607747  35.5148322  91.8362388  30.9108289  36.4256369
  92.2014958  30.9828156  37.6147547  90.6140232  30.8257194  36.1217744
  93.6192218  34.7118290  35.0433732  94.2983494  35.0855538  35.9741629
  93.5148452  35.4255184  33.9522939  93.6200218  34.9631517  33.0605236
  93.2932549  36.8615630  33.9618080  92.7640168  37.1505871  34.8698121
  94.6366265  37.6045088  33.9192217  94.4933316  38.4956171  34.5303614
  95.3495899  36.9403294  34.4077388  95.1809478  38.0134789  32.5329625
  94.5539596  38.7395453  32.0154547  96.0859356  38.5049039  32.8901706
  95.5720306  36.8492888  31.5357260  94.8178609  36.6297074  30.5375160
  96.7173817  36.3001036  31.6133166  92.4281450  36.7990140  32.6653446
  92.0836471  35.6946091  32.2703902  91.9600487  37.9315410  32.2026576
  92.3234014  38.8145342  32.5318949  90.9160096  37.9500076  31.2216222
  91.0225105  38.8487586  30.6141657  90.9522186  36.7407292  30.3080612
  91.8684127  36.8010647  29.7206540  90.9842801  35.8533038  30.9401594
  89.7494300  36.6533643  29.3681511  90.0883681  36.1025540  28.4907517
  88.9574421  36.0928464  29.8648140  89.2154118  38.0137803  28.9382359
  90.0222974  38.9514019  28.8078427  87.9875717  38.1479439  28.7617179
  89.5808545  37.9738486  32.0445908  88.5105084  37.7061314  31.5223613
  89.6745136  38.2763995  33.3438571  90.6092986  38.4126855  33.7012120
  88.5559382  38.4285128  34.2620752  87.6343750  38.2008391  33.7263652
  88.6851357  37.4981832  35.4748794  87.7074005  37.3561650  35.9352760
  89.2224319  36.1678549  35.0181295  90.2004221  36.3090127  34.5580095
  89.3173463  35.5003290  35.8745763  88.5390441  35.7297959  34.2906788
  89.6188462  38.0316836  36.5575515  90.5937291  38.1987322  36.0995133
  89.2131456  38.9821624  36.9041012  89.7672507  37.0974758  37.7218370
  90.1733649  36.1468711  37.3761179  90.4435906  37.5354814  38.4558769
  88.7927803  36.9302994  38.1807046  88.6711491  39.8888125  34.6538113
  89.7577871  40.3280357  34.9643235  87.5880278  40.6398345  34.6583022
  86.6748251  40.2512910  34.4707009  87.6846116  42.0565882  34.9584261
  88.7208445  42.3380584  35.1457630  87.1747213  42.8484807  33.7707451
  86.1586772  42.4723588  33.6512213  87.1407730  43.8885204  34.0951907
  87.9052327  42.7564613  32.4483192  88.8190070  43.3469832  32.5146613
  88.2547889  41.3226859  32.1115290  87.3414245  40.7316029  32.0445562
  88.7785507  41.2906589  31.1561502  88.8964588  40.9118887  32.8910197
  87.0287231  43.3663395  31.3740844  86.8282307  44.4098245  31.6170685
  87.5387832  43.3092686  30.4124801  86.0874930  42.8194382  31.3185512
  86.8807902  42.5046452  36.1357353  85.9473633  41.8476644  36.5348738
  87.2344398  43.6412778  36.7038562  88.6202717  44.1911820  36.7488486
  88.7505470  44.9075350  35.9376970  89.3353902  43.3768869  36.6321093
  88.7001295  44.8328286  38.1024617  89.3735607  45.6894524  38.0744389
  89.0579257  44.1140017  38.8395988  87.2738501  45.2581476  38.4076235
  86.9756560  46.2096446  37.9673591  87.1481505  45.3036674  39.4893939
  86.4193330  44.1266617  37.8295868  86.3902879  43.3051718  38.5454143
  84.9773367  44.5819457  37.5102232  84.6839776  45.2642474  36.4845611
  84.0982428  44.2288811  38.4476486  84.4355773  43.8976094  39.3401528
  82.6642641  44.3010837  38.2379681  82.1553340  44.3274243  39.2015010
  82.4225833  45.2027576  37.6752303  82.1950807  43.1148807  37.4755133
  81.3125915  43.2306448  36.6226255  82.9746857  42.0462769  37.6017152
  83.9753233  42.1262745  37.4902517  82.4217635  40.7490646  37.8896654
  81.3889028  40.7309926  37.5418560  83.1967555  39.5830413  37.2081810
  84.2101562  39.4943894  37.5996642  82.6488052  38.6621946  37.4079106
  83.3219764  39.6949480  35.7029040  82.5745944  40.6234604  34.9632920
  81.8384347  41.2403345  35.4786899  82.7634892  40.7648222  33.5789739
  82.1954104  41.5148626  33.0286772  83.6709742  39.9524360  32.9107689
  83.8009643  40.0375533  31.8319003  84.4205377  39.0201867  33.6335502
  85.1457209  38.3921512  33.1160747  84.2430184  38.8908887  35.0176149
  84.8252394  38.1575615  35.5756021  82.4730882  40.5700107  39.3958969
  83.0509932  41.3954582  40.1373970  81.9947033  39.3829736  39.7746855
  81.9038234  38.7066990  39.0300427  81.6694279  38.9604380  41.1416082
  82.3113887  39.4976903  41.8397094  80.1841584  39.2491659  41.4789579
  79.8052730  38.4361979  42.0983362  80.0308278  40.5608511  42.2193129
  80.4090999  41.3744080  41.6003331  78.9774557  40.7328285  42.4405182
  80.5953805  40.5210149  43.1508667  79.3579487  39.3188449  40.1930542
  79.7082548  40.1904279  39.6401262  79.5811893  38.4153848  39.6255835
  77.8644863  39.4240127  40.4056379  77.6404155  40.3275365  40.9726801
  77.3616522  39.4679213  39.4395483  77.5133503  38.5524939  40.9581398
  81.8646648  37.4289289  41.1461312  81.7988568  36.7924768  40.1061240
  82.1354863  36.8345920  42.2854606  82.4373713  37.3395679  43.1064138
  82.0001518  35.4038859  42.3754312  82.3065389  34.9413063  41.4372168
  82.8666921  34.8707394  43.4783340  82.6463458  35.4907223  44.3473381
  82.6269722  33.8316109  43.7038252  84.3341433  34.9860830  43.1367731
  84.5270826  35.9797861  42.7325090  85.1893971  34.7685529  44.3782866
  84.9973358  33.7748148  44.7828800  86.2432848  34.8551716  44.1138655
  84.9404594  35.5197866  45.1278053  84.7167073  34.0124833  42.0343239
  84.1325846  34.2280693  41.1396604  85.7779550  34.1170505  41.8086688
  84.5143554  32.9930494  42.3628163  80.5418118  35.1224598  42.6620049
  79.8201461  36.0139653  43.1102978  80.0709482  33.9201137  42.3538160
  80.6164468  33.2631301  41.8144617  78.7187108  33.5352694  42.7522643
  78.4561327  34.0756889  43.6617140  77.6646297  33.8497947  41.6700292
  77.7853660  33.1413865  40.8504685  76.6725824  33.7339803  42.1065258
  77.6936715  35.5199561  40.9077961  76.6638393  35.3178347  40.0907950
  78.6801636  32.0699895  43.0707056  79.1901143  31.2405407  42.3157864
  78.0740978  31.7666365  44.2114396  78.0333558  32.4726055  44.9325827
  77.4930408  30.4378144  44.4978895  78.2816720  29.7313844  44.7569582
  76.5094884  30.5405591  45.6898346  77.0846378  30.5146529  46.6153784
  76.0060568  31.5033686  45.6023438  75.4646930  29.4171184  45.7057587
  75.8356431  28.2772856  46.0492222  74.2693030  29.6763338  45.3940408
  76.7616106  29.8605370  43.2610283  75.9031712  30.5256039  42.6734121
  77.0711872  28.6070145  42.8956110  78.1577203  27.7817827  43.4575080
  77.9866921  27.6416690  44.5248495  79.1097476  28.2905950  43.3063361
  78.0668480  26.5065097  42.6909030  77.4697567  25.7931536  43.2589735
  79.0706305  26.1065462  42.5475466  77.4299611  26.8287854  41.3809403
  76.8148934  26.0108960  41.0056434  78.2086319  27.0602256  40.6541619
  76.5537338  28.0730828  41.6271896  76.7664391  28.8258415  40.8681051
  75.0331574  27.7329367  41.6085886  74.4307058  27.6468709  40.5297546
  74.4086451  27.6089388  42.7763869  74.9145916  27.7158041  43.6439682
  72.9958430  27.2135439  42.8385650  72.7880453  26.4689662  42.0701098
  72.6646937  26.6131019  44.2013891  72.5611741  27.3785116  44.9704996
  71.7150563  26.0926145  44.0773658  73.7032666  25.6191407  44.6485507
  74.6374366  25.3069092  43.9026400  73.5967370  25.1711525  45.8942859
  74.2670094  24.5026518  46.2463390  72.8459420  25.5010323  46.4838510
  72.0692402  28.3824966  42.5049053  71.6055377  28.4952546  41.3704404
  71.8091944  29.2565612  43.4768936  71.9027512  28.9938432  44.4476282
  71.3192897  30.5905182  43.1677754  70.7352914  30.5546123  42.2481256
  70.4314463  31.1405401  44.2909971  70.6060321  30.5495800  45.1900995
  70.6998303  32.1795775  44.4819719  68.9425057  31.0758564  43.9448787
  68.3157884  29.9943096  43.9222719  68.3693175  32.2350516  43.6646596
  67.3880302  32.2654515  43.4274871  68.9157300  33.0841278  43.6892326
  72.5182335  31.4787899  42.9170497  73.2494414  31.8206277  43.8429541
  72.8306792  31.6524455  41.6354510  72.3459306  31.1050365  40.9387003
  73.9053877  32.5414658  41.1945489  74.5665884  32.7587756  42.0334109
  74.7372076  31.8872427  40.0659906  75.4569183  32.6753708  39.8446994
  75.2518304  31.0457551  40.5298462  74.0696292  31.4233496  38.7627975
  73.3497345  30.6436941  39.0117746  73.3580306  32.5584372  38.0394708
  74.0774158  33.3383206  37.7897394  72.9028830  32.1783250  37.1248910
  72.5836142  32.9724651  38.6851956  75.1071473  30.7892975  37.8482729
  75.5563322  29.9308695  38.3477063  74.6276229  30.4622914  36.9256545
  75.8818431  31.5198376  37.6153426  73.3117324  33.8896611  40.7574188
  72.1274732  34.1399214  40.9648530  74.1359162  34.7548766  40.1705006
  75.0331509  34.4389982  39.8309565  73.8144449  36.1715429  40.0578294
  73.1293212  36.4662861  40.8527075  75.0909671  37.0005800  40.1815123
  75.7449876  36.8509081  39.3224694  74.8652355  38.0619072  40.2850971
  76.0675828  36.5492029  41.6418885  77.0451238  37.4262590  41.4319256
  73.0978476  36.4654139  38.7501990  73.3515911  35.8093898  37.7336163
  72.1134345  37.3652841  38.8198736  71.8754307  37.7760159  39.7113627
  71.3828319  37.8134584  37.6312405  71.1390534  36.9462048  37.0176100
  70.0712613  38.5461234  37.9940761  70.2524856  39.4834334  38.5201055
  69.5460865  38.7494899  37.0608379  69.1351506  37.7506804  38.8472972
  68.7279254  36.4754107  38.5122137  69.0189219  35.9779022  37.6828127
  67.9070311  36.0210612  39.4424180  67.4844697  35.0189954  39.3688996
  67.7517264  36.9636124  40.3579363  68.4805782  38.0675316  39.9928137
  68.4473921  38.9692049  40.6043570  72.3028154  38.7752594  36.9494398
  73.1936221  39.3240638  37.5964354  72.0824996  39.0001150  35.6569937
  71.3787340  38.4722039  35.1608857  72.9047042  39.9407908  34.8997146
  72.9749379  40.8894206  35.4319437  74.3097529  39.3763752  34.7226206
  75.0332194  40.1853473  34.8239103  74.4920380  38.6279465  35.4938058
  74.4421382  38.7912657  33.4692842  75.3305400  38.4407190  33.3720266
  72.2647573  40.2912898  33.5450632  71.0316899  40.2796344  33.4214553
  73.0880788  40.6110786  32.5489764  74.0761735  40.4188653  32.6315735
  72.6036650  41.2416084  31.3185515  73.1897346  40.9242430  30.4560547
  71.5518677  41.0131420  31.1464327  72.7588857  42.7244980  31.4958513
  73.3837361  43.1266293  32.4474028  72.1506128  43.5332208  30.6194139
  71.4146588  43.1513548  30.0426564  72.6414366  44.9132113  30.3204833
  73.2151762  45.2863802  31.1688152  73.5550137  44.9244489  29.0577393
  74.1795325  45.8089741  29.1830012  74.1688935  44.0295170  29.1594673
  72.9052115  44.9469041  27.6535592  72.2131984  45.7877325  27.6063757
  73.6915731  45.0820886  26.9109539  72.1448589  43.6399977  27.3632666
  72.4297900  43.2797178  26.3747770  72.4210237  42.8986911  28.1131312
  70.6685505  43.8244395  27.3962497  70.3176674  44.6024063  26.8561127
  69.7833509  43.0485258  28.0590510  70.1709364  41.9976838  28.7844175
  71.1518840  41.7655746  28.8474024  69.4815732  41.4392341  29.2671306
  68.4834639  43.3391431  28.0082052  68.1679506  44.1368487  27.4750849
  67.8199879  42.7603132  28.5030327  71.5962445  46.0505827  30.2432767
  71.9561059  47.2093949  30.0903189  70.3089131  45.7045576  30.3010121
  70.0436452  44.7355097  30.1976758  69.2531681  46.6920207  30.5413888
  69.7112472  47.6739845  30.4230251  68.0012135  46.6019894  29.5878553
  67.3599110  45.7818969  29.9107787  67.2210458  47.9045320  29.6383264
  67.8615995  48.7250793  29.3150732  66.3568455  47.8368764  28.9775089
  66.8841233  48.0875515  30.6586634  68.3693377  46.3773214  28.2119051
  67.5767845  46.3300291  27.6722541  68.7732609  46.4430739  31.9245893
  68.8082454  45.3078796  32.3871645  68.2827154  47.5059755  32.5692895
  68.5006906  48.4203868  32.1999140  67.5375069  47.4229451  33.8682522
  66.7298854  46.6980532  33.7663777  68.4577057  46.9823210  35.0522744
  67.9268461  46.7367657  35.9720515  68.9930717  46.1021078  34.6963137
  69.4941403  47.9955096  35.4144529  70.6610737  48.0730182  34.6942885
  70.8387665  47.3650514  33.8847775  71.5918825  49.0235536  34.9839635
  72.5244172  49.0531112  34.4203980  71.3615653  49.9416984  35.9794282
  72.1028970  50.7062691  36.2117188  70.1985035  49.8907141  36.6760242
  70.0103913  50.6137778  37.4696822  69.2564526  48.9287408  36.3829162
  68.3115294  48.9079888  36.9258613  66.7786442  48.7343636  34.2399979
  67.1083876  49.8407071  33.7770353  65.7869126  48.5556839  35.1199456
  65.6479822  47.6195870  35.4728201  64.9301900  49.6153933  35.6228286
  64.9307862  50.4667426  34.9421648  63.5040300  49.0805222  35.7340880
  63.6201087  48.2094336  36.3789365  62.8313952  49.7955530  36.2077900
  62.9172935  48.6431205  34.3843351  63.1255119  49.3724694  33.3793728
  62.1527494  47.6282777  34.3572161  65.3929654  50.0304472  37.0052649
  65.7570202  49.1820159  37.8338507  65.3185765  51.3099864  37.3084656
  65.0649819  52.0343145  36.6518546  65.6865795  51.6940146  38.6263295
  65.1861025  51.0242241  39.3256168  67.1718216  51.5663895  38.8184198
  67.6866051  52.2379078  38.1312799  67.4299479  51.8292977  39.8442611
  67.4775370  50.5392788  38.6192192  65.2516333  53.0571788  38.9347544
  64.9470441  53.8529029  38.0375261  65.3061375  53.3274961  40.2290321
  65.8708625  52.7164308  40.8015565  64.6691681  54.4559229  40.8573164
  63.9429905  54.9047908  40.1796122  63.9391140  53.9951204  42.1209145
  63.5396897  53.0084972  41.8861081  64.7085857  53.9020446  42.8873022
  62.8261727  54.8803599  42.6302166  63.2744453  55.7104695  43.1761750
  62.2514099  55.2676458  41.7889323  61.8663417  54.1261150  43.5788162
  62.2136618  53.0924977  44.1651395  60.6401136  54.6439118  43.7116054
  59.9686191  54.1949380  44.3179214  60.3913581  55.4814787  43.2049459
  65.7970715  55.3565446  41.2373313  66.6255488  55.0035871  42.0710612
  65.7814997  56.5580731  40.6961181  64.9004250  56.9743172  40.4305102
  66.9883402  57.2776888  40.4067424  67.8631882  56.9135234  40.9453737
  67.2400590  57.1760219  38.8914885  66.4011319  56.6371345  38.4511454
  67.3802333  58.5530358  38.2110057  68.2193050  59.0923644  38.6505327
  67.5562051  58.4154465  37.1441393  66.4643944  59.1258312  38.3567579
  68.4760160  56.3026974  38.6390271  69.3222800  56.8214447  39.0894038
  68.3062561  55.3622033  39.1631950  68.7786775  56.0172723  37.1619670
  68.9490199  56.9573318  36.6372087  69.6693065  55.3933635  37.0870204
  67.9329944  55.4980921  36.7109992  66.8763940  58.7422771  40.8881013
  66.4064324  59.6037292  40.1555479  67.3420767  59.0515837  42.0904818
  67.8172664  58.3835279  42.6803933  67.1325429  60.4065477  42.6050401
  66.7201776  61.3380002  42.2171610  67.1311018  60.4702073  44.1302176
  66.2443444  61.0454445  44.3964178  67.1224908  59.1630373  44.8745122
  68.0092447  58.5874008  44.6091611  67.1223465  59.3552459  45.9474317
  66.2296315  58.5979161  44.6070390  67.4841852  61.7760614  44.8048923
  66.7781839  62.5472868  44.4968734  67.4361376  61.6513436  45.8866671
  68.4931923  62.0724991  44.5183087  68.1931310  61.3761212  42.1094865
  69.3262044  61.3434291  42.5271140  67.7504971  62.3133909  41.3039887
  66.7736621  62.2923808  41.0481540  68.5636777  63.3751604  40.7920805
  69.4919933  63.0114770  40.3515539  67.7703464  64.1427821  39.7422042
  66.7906659  64.3872730  40.1527536  68.4702152  65.3918195  39.3572650
  69.4498578  65.1480927  38.9461711  67.8832948  65.9212655  38.6067238
  68.5927685  66.0256960  40.2354908  67.5377435  63.2411442  38.5423784
  66.5634441  62.7743031  38.6869498  67.5030940  63.8894229  37.6668021
  68.5872972  62.1659383  38.3338116  68.6222083  61.5169422  39.2088460
  68.3330538  61.5751253  37.4538119  69.5618592  62.6320623  38.1887005
  68.9332565  64.3323809  41.8920957  68.0558473  65.0023370  42.4769932
  70.2188944  64.3710565  42.2128844  70.8706715  63.7469739  41.7592249
  70.7157045  65.2399573  43.2610070  69.8478074  65.5614317  43.8367744
  71.6847532  64.5027051  44.1737445  71.8216112  65.0798274  45.0882390
  71.1464169  63.1408363  44.5166201  71.0097237  62.5629215  43.6026015
  71.8502630  62.6252849  45.1700021  70.1885610  63.2459132  45.0261003
  73.0002341  64.2715730  43.4947216  72.8387354  63.6464621  42.6165101
  73.4110763  65.2326289  43.1854002  73.9637887  63.5912852  44.4220834
  73.5538136  62.6298857  44.7314879  74.9123858  63.4330078  43.9090425
  74.1261527  64.2160520  45.3003796  71.3876390  66.5005691  42.7847952
  71.2657205  67.5424636  43.4053536  72.1292850  66.3957567  41.7003909
  72.2212809  65.5287428  41.1905646  72.8100638  67.5579381  41.1972122
  72.4493015  68.4659516  41.6803903  74.2784169  67.3979672  41.5063518
  74.3332075  66.9681515  42.5065297  74.6650738  66.6813003  40.7817933
  75.1052631  68.6606190  41.4554506  75.2815088  68.9128956  40.4097955
  74.5462679  69.4650351  41.9335073  76.4339135  68.4798364  42.1620761
  77.2859893  69.3761944  42.0642889  76.6386325  67.4382125  42.8164788
  72.6894030  67.7296646  39.7338855  73.0919641  66.8652460  38.9968150
  72.1315083  68.8379311  39.3020802  71.6092699  69.4470175  39.9155785
  72.1022115  69.1050464  37.8902572  73.1203162  69.0687091  37.5026471
  71.2765912  68.1193439  37.1481315  71.6726167  67.1155550  37.3019853
  70.2332238  68.1497966  37.4620697  71.2864939  68.3588772  35.6896434
  70.8924849  69.5586224  35.1428506  70.5715657  70.3577086  35.6706497
  71.0030691  69.4901098  33.8307488  70.7265116  70.3392669  33.2058110
  71.4694761  68.2960289  33.5131010  71.6582490  67.5717366  34.6599552
  72.0454021  66.5543199  34.6044845  71.7292486  70.5133903  37.5521523
  70.8203470  71.0664440  38.1152540  72.4435043  71.0880807  36.6168178
  73.2392612  70.6018148  36.2289830  72.2064958  72.4498842  36.2041180
  72.1275303  72.9923807  37.1462227  73.4064390  72.9807846  35.4370574
  74.3117190  72.8235476  36.0234395  73.4933422  72.4534571  34.4870713
  73.2232724  74.4719652  35.1754185  72.3183744  74.6299630  34.5886501
  73.1367537  75.0000550  36.1250173  74.4272395  75.0046469  34.4057831
  75.3325202  74.8474087  34.9921635  74.5141405  74.4773200  33.4557968
  74.2440729  76.4958283  34.1441466  73.3391747  76.6538272  33.5573791
  74.1575573  77.0239161  35.0937452  75.4046173  77.0092973  33.4022669
  75.4847102  76.5203878  32.5221235  75.2833083  77.9968996  33.2289869
  76.2431692  76.8633757  33.9459916  70.9528522  72.7076117  35.4204962
  70.3924998  73.7818738  35.4732615  70.5418816  71.7379685  34.6372292
  71.0070982  70.8421510  34.6028222  69.4072366  71.9564544  33.7639054
  68.8631814  72.8471369  34.0782108  69.8755392  72.1535945  32.3294467
  69.0120774  72.4292180  31.7240009  70.6018196  72.9662795  32.3168071
  70.4743314  70.9717765  31.7943391  70.7555060  71.1362589  30.8912964
  68.5029085  70.7358537  33.8972640  68.0385254  70.4726582  35.0149462
  68.3977009  69.9037270  32.8424197  69.1458577  69.8707348  32.1647234
  67.2626676  68.9684844  32.6803280  66.8028531  68.7249061  33.6381064
  66.1684301  69.5060896  31.6982518  66.1151779  68.8332574  30.8423538
  64.7899513  69.5879426  32.3713582  64.8423013  70.2610039  33.2271318
  64.0581333  69.9653779  31.6571553  64.4899507  68.5956066  32.7080601
  66.5531492  70.8448269  31.0968811  66.1196469  71.6287638  31.7178638
  67.6400841  70.9232064  31.1198718  66.0644406  71.0034751  29.6671218
  64.9774802  70.9256695  29.6433917  66.3668050  71.9786258  29.2853417
  66.4979160  70.2201101  29.0453998  67.6001207  67.6390785  32.0532113
  67.0768624  67.3607702  30.9494925  68.1031909  66.7075082  32.8596921
  68.3536317  66.9141499  33.8160801  68.3615928  65.3185858  32.3381531
  68.9829311  65.3761150  31.4444371  69.0044122  64.3492154  33.3486126
  69.7356901  63.7394325  32.8180490  69.6830862  65.0782039  34.4753168
  68.9522997  65.6878852  35.0066740  70.1222665  64.3560879  35.1636263
  70.4673073  65.7197766  34.0734700  67.9630916  63.3863695  33.8809970
  67.0709714  63.9484550  34.1571896  67.7126118  62.6694590  33.0990771
  68.4774132  62.6634516  35.0667120  68.7276893  63.3797217  35.8492840
  67.7143213  61.9770533  35.4336554  69.3693317  62.1007272  34.7911716
  67.1211414  64.5518972  31.8021129  66.0887448  64.5130332  32.4458152
  67.3280359  63.7648521  30.7439646  68.2584402  63.4161792  30.5626511
  66.3006736  63.5440903  29.7381158  65.4277287  63.0386973  30.1512070
  65.8760440  64.9385869  29.2509411  64.9691490  65.2333746  29.7789001
  66.6734949  65.6466571  29.4763489  65.5254079  65.1277050  27.5340501
  65.2226605  66.4213228  27.5956564  66.7444866  62.5060821  28.6188111
  67.8765146  62.5246136  28.1607999  65.8508338  61.5464046  28.2635553
  64.5232218  61.9416091  27.7208540  64.6417233  62.8492401  27.1290233
  63.8473643  62.1370079  28.5534013  64.0839515  60.7562742  26.8863891
  64.3978936  60.8838726  25.8504074  63.0003803  60.6449081  26.9260434
  64.7656882  59.5844682  27.5242814  64.8976582  58.8370844  26.7419130
  64.2533433  59.1335115  28.3741287  66.1367168  60.1277274  27.9655436
  66.5798201  59.6671364  28.8485010  67.0604802  60.0034058  26.8350454
  66.8781506  60.6686441  25.8297614  68.0083397  59.1170264  26.9426554
  67.9593475  58.3464063  27.5936882  69.1856400  59.2319727  26.0984751
  69.6486178  58.2467346  26.0431884  68.8507540  59.5317210  25.1054486
  70.2247859  60.2450897  26.6026066  71.1450078  60.6367801  25.8617481
  70.0683161  60.6517314  27.8679084  69.1474813  60.5990341  28.2794732
  71.1662717  61.1807831  28.6850514  71.6080368  62.0381887  28.1773128
  70.6772333  61.6327774  30.0884339  69.8444844  62.3280282  29.9823454
  70.3132961  60.6905796  30.4982061  71.7148120  62.2253632  31.0264779
  72.2971988  63.4690874  30.7223765  72.0106884  63.9663538  29.7956956
  73.2236420  64.0674179  31.5778983  73.6637009  65.0319041  31.3244886
  73.5475511  63.4428461  32.8046150  74.5109582  64.0836193  33.5910986
  74.8442524  64.8908208  33.1924253  72.9481137  62.2011936  33.1561926
  73.1947016  61.7096723  34.0973099  72.0306367  61.6101354  32.2759176
  71.5485747  60.6694071  32.5418999  72.1902957  60.0995302  28.8380184
  71.8975943  58.9677988  29.3132015  73.4088515  60.4913023  28.4983005
  73.5528659  61.3451785  27.9784403  74.5189765  59.6622863  28.7395122
  74.2008066  58.6349006  28.9165597  75.4029011  59.6868563  27.5419753
  74.8936061  60.5115256  27.0433388  76.4678993  59.9078862  27.6128607
  75.2263103  58.4566463  26.7262106  74.4664425  58.4800053  25.7633351
  75.6452231  57.3150104  27.2900065  75.5533268  56.4437590  26.7874372
  76.0508630  57.3312406  28.2148273  75.2677877  59.9885871  30.0079114
  75.4148233  61.1680267  30.3593638  75.6795533  58.9383439  30.7304564
  75.3974519  58.0072255  30.4592802  76.4851510  59.0958883  31.9559890
  77.2507739  59.8472623  31.7627068  75.6178012  59.5710730  33.1198726
  74.8519535  58.8248289  33.3312892  76.2402317  59.7125550  34.0034242
  75.1413392  60.5154398  32.8567103  77.1888843  57.8103853  32.3279921
  76.9125257  56.7754170  31.7704290  78.0908094  57.8998949  33.2931916
  78.2410443  58.7946788  33.7369151  78.8019406  56.7313831  33.8250174
  78.9591530  55.9605963  33.0705168  80.1812258  57.0809020  34.4780945
  80.0050446  57.5732208  35.4344844  81.0077334  55.8124681  34.7022763
  81.1847276  55.3198107  33.7462100  81.9626962  56.0760533  35.1568852
  80.4652560  55.1368658  35.3636246  80.9868883  58.1339006  33.6847603
  80.4125832  59.0580314  33.6195077  81.9310470  58.3286308  34.1934294
  81.1862076  57.7589505  32.6808753  77.9918143  56.1804810  34.9592111
  77.3142019  56.9234048  35.6429265  78.1943942  54.9144931  35.2545565
  78.9564566  54.4024848  34.8335960  77.3407360  54.2280456  36.1623536
  76.7663791  54.9438503  36.7504326  76.3593117  53.3307035  35.3832070
  75.4822098  53.9619201  35.2405282  76.8233686  53.1307081  34.4174155
  75.9344930  52.0021890  36.0326038  76.7867472  51.3230148  36.0546481
  75.4512504  52.2522607  37.4477638  74.5986566  52.9310319  37.4264958
  75.1518815  51.3078413  37.9022426  76.2553056  52.6979481  38.0333903
  74.8462156  51.3491199  35.2153755  75.2153174  51.1526637  34.2087632
  74.5532334  50.4097031  35.6841600  73.9831611  52.0127576  35.1622635
  78.1710060  53.4042915  37.0703085  78.6808612  52.3815948  36.6807880
  78.2778790  53.7943120  38.3124744  77.8294626  54.6260194  38.6692445
  79.1152934  53.0177473  39.2186611  79.8218688  52.4172106  38.6457683
  79.8963033  53.9387005  40.1399611  79.2056055  54.5679066  40.7013303
  80.5074044  53.3617402  40.8340593  80.8161119  54.8527112  39.4245440
  82.1461220  54.9621065  39.7567714  82.6023175  54.4642267  40.5078380
  82.7200120  55.8215465  38.9335934  83.7783599  56.0604336  39.0381481
  81.8114827  56.2564568  38.0723608  80.6018224  55.6957778  38.3826449
  79.7128429  55.9683364  37.8138494  78.3080610  52.0778792  40.0314125
  77.7598759  52.4817149  41.0371276  78.3516955  50.8127809  39.6980851
  78.8986557  50.4788583  38.9174254  77.6923432  49.8527326  40.5217106
  77.0798210  50.3413785  41.2794315  76.8285284  48.9556277  39.6822984
  77.4610559  48.3555975  39.0281018  76.0191014  48.0457820  40.5708644
  75.3859363  48.6451231  41.2250760  75.3947475  47.3977097  39.9558154
  76.6905273  47.4357102  41.1750986  75.9457084  49.8208846  38.8133949
  75.5470375  50.6209682  39.4371164  76.5690583  50.2491296  38.0284486
  74.8134009  49.0606055  38.1925676  74.1893027  48.6324256  38.9769548
  74.2147845  49.7350024  37.5802389  75.2113238  48.2605850  37.5682885
  78.7740270  48.9954957  41.0983439  79.5302941  48.3935791  40.3665409
  78.8761863  48.9666183  42.4111022  78.3756147  49.6574129  42.9517779
  79.8644284  48.1463041  43.0882759  80.0917179  48.6146201  44.0459391
  79.4129109  46.7100735  43.3424621  80.2714042  46.1928695  43.7709344
  78.5710336  46.6485901  44.0320724  79.0215257  45.9485444  42.1229716
  79.5156573  44.6955137  41.8535554  80.1830523  44.2060592  42.4324491
  78.9839930  44.2456729  40.7342506  79.2617170  43.2683302  40.3395742
  78.1467229  45.1557504  40.2790454  78.1364395  46.2207208  41.1413809
  77.4819488  47.0709896  40.9495836  81.2308405  48.2575121  42.4537423
  81.6777835  49.3474003  42.1552500  81.8786791  47.1302802  42.2123230
  81.4830967  46.2274317  42.4325013  83.1796457  47.1738738  41.6008365
  83.8452614  47.8126633  42.1813561  83.8173683  45.7969154  41.4710074
  84.8557099  45.9193157  41.1628434  83.7672491  45.0602698  42.7696080
  82.7291311  44.9370708  43.0782058  84.2289574  44.0801585  42.6499991
  84.3070352  45.6253100  43.5295166  83.1439565  45.0515612  40.4564570
  83.5470956  44.1840401  40.3759192  83.0698604  47.7365651  40.2172862
  83.8920946  48.5143178  39.8066871  82.0425307  47.3543934  39.4921879
  81.3618529  46.7033085  39.8566949  81.9111361  47.7863544  38.1168602
  82.8285213  47.5691744  37.5697438  80.7711333  47.0628070  37.4509934
  81.0004048  46.0056235  37.3172144  79.8508083  47.1645160  38.0261083
  80.4095468  47.7030946  35.8178834  79.4077200  46.8673268  35.5595551
  81.7377827  49.2564368  37.8870531  81.2735479  49.9626314  38.7371745
  82.1295774  49.6876553  36.6954439  82.5818293  49.0424416  36.0635683
  82.0247041  51.0562886  36.3044149  81.1330798  51.4656022  36.7793545
  83.2922479  51.8640131  36.7822139  84.0859426  51.1614555  37.0363039
  83.7689349  52.7862340  35.6932933  82.9758840  53.4894338  35.4389689
  84.6441529  53.3360665  36.0393835  84.0326185  52.2023038  34.8114795
  82.9839283  52.7714579  38.0128321  83.4515650  53.7314710  37.7942195
  81.9005004  52.8902526  38.0259206  83.4595772  52.2716460  39.3823109
  84.5430372  52.1530458  39.3701377  83.1822964  52.9942885  40.1497758
  82.9919740  51.3118256  39.6018378  81.8083375  51.1530195  34.7999417
  82.7696420  51.2624555  34.0365293  80.5702071  51.0002906  34.3549078
  79.8028298  50.7896145  34.9768780  80.3130147  51.0189067  32.9262985
  81.2572094  51.1698334  32.4030235  79.6794305  49.7234896  32.4255356
  80.2213678  48.8928959  32.8777714  78.6435996  49.7083473  32.7645416
  79.7192254  49.5881911  30.8966377  78.7241989  49.9122716  30.5916871
  80.4653765  50.2608638  30.4737086  79.9747232  48.1371200  30.3799062
  81.0453759  47.5247799  30.7194006  79.1462239  47.6434910  29.5608889
  79.4909351  52.1804296  32.4994042  78.6900840  52.6730138  33.2267695
  79.7600168  52.6580740  31.3044561  80.4678740  52.2216670  30.7312315
  79.0732440  53.7995969  30.7824929  79.0812237  54.6081224  31.5134663
  79.7628138  54.2839498  29.5132905  80.7620912  54.6149757  29.7960728
  79.8403325  53.4283551  28.8424339  79.0402473  55.4084657  28.8124570
  78.2393113  55.7462108  29.4701276  79.7386571  56.2275744  28.6410399
  78.4529002  54.9617885  27.4909458  79.2611627  54.6501011  26.5805329
  77.1974024  54.9378605  27.3546784  77.6803443  53.3394438  30.5021097
  77.4595400  52.1450056  30.3396632  76.7287768  54.2672874  30.5682263
  77.0001880  55.2305950  30.7041445  75.2861034  53.9421517  30.5427840
  75.0627808  53.1257104  29.8560163  74.7597566  53.5575891  31.9642170
  75.3745629  52.7429230  32.3468809  74.8172594  54.7296854  32.9269369
  74.2022780  55.5446323  32.5451510  74.4424776  54.4183861  33.9019917
  75.8483767  55.0689307  33.0259890  73.3581832  53.0175572  31.8877802
  73.3445272  52.1290418  31.2565467  73.0135735  52.7569942  32.8885053
  72.6992049  53.7746881  31.4628081  74.4448572  55.0972128  29.9502609
  74.9063391  56.2599261  29.8290371  73.2358480  54.7371772  29.5342945
  72.9714870  53.7666131  29.6249470  72.2593271  55.6719976  28.9822286
  72.5759324  56.7020178  29.1462977  72.1476945  55.4295305  27.4793035
  73.1088162  55.7217119  27.0562498  72.0096281  54.3550944  27.3583703
  71.0393259  56.1626932  26.7631907  70.0958022  55.9380830  27.2605980
  71.2404512  57.2317395  26.8323847  70.9485374  55.7529095  25.2825301
  71.9819417  55.3035008  24.7100580  69.8346349  55.8753922  24.6885164
  70.9281857  55.3860737  29.6423612  70.6073122  54.2349340  29.9336595
  70.1698475  56.4148781  29.9572032  70.4911336  57.3713270  29.9115944
  68.8504053  56.1623737  30.4723419  68.7713685  55.1153690  30.7649742
  68.4941134  57.0461431  31.6543480  67.6612244  56.5935317  32.1924366
  69.6790263  57.1999836  32.5926888  70.5122162  57.6529888  32.0553979
  69.3986746  57.8373085  33.4313308  69.9775175  56.2201840  32.9655091
  68.0318687  58.4102730  31.1899542  68.7723205  58.7893240  30.4855735
  67.0778255  58.2809476  30.6789004  67.8644961  59.4031535  32.3338391
  68.8183018  59.5333574  32.8451136  67.5314927  60.3623055  31.9373097
  67.1238079  59.0249795  33.0384420  67.9296185  56.3439785  29.3023811
  67.8643401  57.4029158  28.6876969  67.3343817  55.2281839  28.9284340
  67.1285102  54.5304308  29.6290458  66.9398162  54.9658795  27.5643557
  67.6418963  55.4483150  26.8843273  66.9205004  53.4585737  27.2625060
  66.3773609  53.2803457  26.3344248  68.3190026  52.9617088  27.1226820
  68.8626716  53.1391829  28.0505972  68.3057549  51.8930111  26.9086523
  68.8126112  53.4891141  26.3064131  66.2724341  52.7413888  28.3198129
  66.2693233  51.8034446  28.1152369  65.5645735  55.4703275  27.2902009
  65.3408429  56.0530726  26.2252024  64.5991010  55.0666815  28.1337260
  64.4013921  54.0835070  28.2536365  63.6893124  56.0393771  28.7495806
  64.1800195  56.9873501  28.5290069  62.2746720  56.0565223  28.1208432
  61.7672649  55.1172739  28.3409578  61.7014411  56.8848347  28.5372627
  62.3579016  56.1795458  27.0410112  63.6267066  55.9172566  30.2629834
  64.1255242  54.9526764  30.8895607  63.2599069  57.0659096  30.8136005
  63.5192524  57.9116183  30.3261416  62.6030322  57.1875412  32.0921771
  62.8969223  56.3677343  32.7476498  63.0078173  58.5121399  32.7521016
  62.2747398  58.6586437  33.5453439  63.9933093  58.3602222  33.1923590
  63.0373660  59.7504743  31.8490453  63.8949325  59.6415102  31.1851120
  61.7690003  59.9515631  31.0151312  60.9110131  60.0610748  31.6784290
  61.8729946  60.8489767  30.4052666  61.6188146  59.0879864  30.3672268
  63.2470949  60.9520266  32.7091563  64.1923221  60.8564905  33.2434950
  63.2714021  61.8459050  32.0858652  62.4309492  61.0324578  33.4271647
  61.0545570  57.0542144  31.9538706  60.4663836  57.3050239  30.8608516
  60.4464457  56.7091602  33.1050839  60.8249188  57.1223712  33.9453899
  59.2197199  55.8627580  33.2219436  58.8724938  55.5504396  32.2370627
  59.4011764  54.6003637  34.1369558  59.6330584  54.9083194  35.1565117
  58.1051797  53.8139304  34.1293877  57.8728615  53.5052114  33.1101618
  58.2113240  52.9315635  34.7604683  57.2981854  54.4387538  34.5120821
  60.5908649  53.7362664  33.7305850  61.1929347  54.3334154  33.0457305
  61.1611192  53.5404885  34.6386492  60.2259511  52.4142427  33.0652156
  59.6560393  52.6092381  32.1567679  61.1362823  51.8705052  32.8127364
  59.6242215  51.8163119  33.7496863  58.1083477  56.6402181  33.9270292
  57.1513519  57.0809143  33.3162094  58.2542105  56.7539221  35.2327479
  59.1084448  56.4375878  35.6689998  57.2819343  57.3450117  36.0362783
  56.5814857  57.9097488  35.4210198  56.5242883  56.2931745  36.7791935
  56.5309899  55.3375242  36.2549924  56.9036896  56.1543453  37.7915577
  54.8046151  56.7514943  36.9526700  54.4370932  55.6619341  37.6210147
  57.9799865  58.1883265  37.0116552  58.6833144  57.6916492  37.8633913
  57.6898986  59.4654388  36.9678443  57.2126477  59.8439055  36.1621807
  58.0539320  60.3727034  38.0412764  59.1300114  60.5443945  38.0672479
  57.3617378  61.6880061  37.7748425  57.1955012  61.6613506  36.6979237
  56.4082747  61.8213660  38.2859426  58.2759005  62.8339639  38.1125482
  58.8022692  62.5893757  39.0351605  59.3063539  63.1065799  36.9868270
  58.7807050  63.3517084  36.0639489  59.9455526  63.9417836  37.2731145
  59.9183403  62.2181939  36.8308034  57.3894419  64.0246994  38.4947292
  56.7744725  63.7592745  39.3546488  58.0171077  64.8792490  38.7474780
  56.7455059  64.2834863  37.6542088  57.6407765  59.8268900  39.4323793
  56.8633032  58.9226193  39.4756425  58.2064145  60.3199286  40.5461399
  59.1227116  60.7424079  40.5013040  57.5878713  60.1217526  41.8797784
  56.5102303  60.2695572  41.9500828  57.9449395  58.7592529  42.5305247
  57.0259930  58.1809791  42.6266284  58.9516570  57.9748707  41.7149607
  59.8710994  58.5523494  41.6188093  59.1671361  57.0300510  42.2139445
  58.5422840  57.7769028  40.7243427  58.2968593  58.8687794  44.0279830
  57.4460951  59.2781666  44.5726890  58.5360277  57.8797689  44.4188235
  59.1575475  59.5259309  44.1523557  57.8265212  61.2208967  42.8841362
  58.9724688  61.6395444  43.0978185  56.7461913  61.6539565  43.5432783
  55.8410658  61.2630722  43.3240596  56.8105118  62.7658429  44.4949397
  57.5744109  63.4720771  44.1696849  55.4633339  63.5090929  44.5959795
  55.3999416  64.2899678  43.8381437  54.7180224  62.7411594  44.3888827
  55.1943275  64.1296264  46.0079879  56.1040669  64.7821792  46.6035657
  54.0224034  64.0228960  46.4902738  57.3003632  62.2645675  45.8522059
  57.0198492  61.1227566  46.3038759  58.1253186  63.1169343  46.4479822
  58.2088710  64.0552881  46.0838250  58.9670202  62.7357453  47.5652012
  59.3410396  61.7221763  47.4206797  60.1754670  63.6981610  47.6756975
  59.7823894  64.7146119  47.6552825  60.6501850  63.5120238  48.6390749
  61.1925743  63.5301764  46.5731718  61.4065367  62.4689942  46.4458408
  60.7816982  63.9311750  45.6466282  62.4686859  64.2633419  46.9168308
  62.2142385  65.3058320  47.1080634  62.8767472  63.8172214  47.8237829
  63.5144362  64.1896410  45.7955389  63.4069199  63.2053271  45.3398341
  63.2418231  64.9567462  45.0707418  64.9485943  64.3909797  46.2260748
  65.2015371  63.6800042  46.8973672  65.5543856  64.3243413  45.4206704
  65.0485289  65.3031789  46.6479809  58.1520825  62.7177281  48.8566735
  58.2650707  61.8171233  49.6678663  57.3158815  63.7131946  49.0298540
  57.2432893  64.4708219  48.3659032  56.5227455  63.7716472  50.2089607
  57.1552545  63.9102719  51.0857815  55.5683844  64.9409884  50.1117123
  55.2201397  64.9865581  49.0798459  54.7266569  64.7243194  50.7694731
  56.1827819  66.2775531  50.4985993  56.7159304  66.1650795  51.4426349
  56.8819357  66.5869194  49.7216962  55.0896957  67.3390454  50.6533529
  55.1610443  68.0172671  49.8030449  54.1258682  66.8304438  50.6318961
  55.2164623  68.1360059  51.9528348  56.0806727  67.7497016  52.4932143
  55.3922633  69.1777464  51.6845627  53.9927673  68.0426146  52.8296480
  53.8299394  67.0774415  53.0787015  54.1370488  68.5869487  53.6680889
  53.1919365  68.4009187  52.3292608  55.7471323  62.4547652  50.4396764
  55.7864463  61.8911946  51.5302847  55.1003229  61.9428036  49.3864974
  55.1935224  62.3874919  48.4844633  54.1511435  60.8263171  49.5190886
  53.7772372  60.7948064  50.5424656  52.9348549  60.9783791  48.5469054
  52.4972158  59.9882760  48.4193626  52.2126585  61.6344226  49.0328470
  53.2782347  61.5119891  47.2743581  52.4891912  61.5778968  46.7315263
  54.8326201  59.4609354  49.3513047  54.9623496  58.7112414  50.3202779
  55.3368071  59.1892592  48.1358634  55.6879466  59.9555264  47.5794148
  55.4044890  57.8102898  47.5651732  56.4489706  57.5328911  47.4230203
  54.9349932  57.1127109  48.2587558  54.6787336  57.7354399  46.2127988
  54.6564246  56.6727085  45.5132322  54.0547870  58.8604601  45.8628255
  54.2953092  59.7428743  46.2913037  53.0276463  58.8465599  44.8769072
  52.3678770  58.0003483  45.0685569  52.1858107  60.1396992  44.8842199
  51.5521808  60.1150715  45.7707897  52.8752750  60.9810256  44.9542849
  51.3077496  60.2996589  43.6310246  51.9582736  60.6646099  42.8362101
  50.9488451  59.3023117  43.3768883  50.1203048  61.2417776  43.7878725
  49.5262690  61.5537336  42.7302474  49.7752898  61.6652961  44.9380054
  53.7301759  58.6972733  43.5814534  54.3241408  59.6433530  43.0918913
  53.6912993  57.5078461  43.0124995  53.4517174  56.6664797  43.5172791
  54.0397387  57.3925993  41.6172486  55.0945707  57.6292210  41.4778253
  53.7927868  55.9878733  41.1300878  53.1842705  55.4851482  41.8818022
  53.2316914  56.0606059  40.1984323  55.0613700  55.1941370  40.8944857
  54.8624473  54.4674022  40.1068392  55.8349618  55.8864984  40.5623809
  55.5376703  54.4625873  42.1565674  55.8527453  55.2012290  42.8936122
  54.7094518  53.8791526  42.5587582  56.7163415  53.5251638  41.8333765
  57.5650104  54.1604655  41.5798940  56.9379785  52.9703577  42.7450597
  56.4587526  52.5552303  40.7040589  56.2537815  53.0691293  39.8590770
  57.2776200  51.9820082  40.5592399  55.6726610  51.9661658  40.9389250
  53.2471348  58.3643035  40.7696761  52.3492007  59.0234707  41.2415987
  53.6339918  58.5070283  39.5248503  54.2854670  57.8794988  39.0755327
  53.1160346  59.5842731  38.7737526  52.6015187  60.2753337  39.4414410
  54.2010351  60.3257870  38.0629692  54.9181748  60.7246162  38.7804266
  54.7152434  59.6649265  37.3651488  53.6071291  61.3887073  37.3522644
  54.2866939  61.8811426  36.8861110  52.1685679  59.1073672  37.7631208
  52.1713739  57.9533372  37.3763718  51.4620303  60.0534728  37.1926247
  51.7894373  61.0089212  37.1973620  50.2183488  59.7605559  36.5253061
  49.7263702  58.9047852  36.9875968  49.3000784  60.9732532  36.6434195
  49.7237419  61.7712955  36.0337171  48.3250677  60.6915444  36.2458088
  49.1398959  61.4655225  38.0931993  48.2183543  62.0455772  38.1421741
  49.0488704  60.5853900  38.7297394  50.3065388  62.3230553  38.5752613
  50.9382080  61.7273278  39.2342013  50.8881454  62.6503292  37.7134463
  49.7943397  63.5320282  39.3258921  48.8306407  63.2974669  39.7779605
  50.5050802  63.8027633  40.1066928  49.6347633  64.6759178  38.3804347
  48.9758873  64.4254091  37.6570899  49.2927076  65.4826357  38.8827336
  50.5277194  64.8937049  37.9617495  50.5561143  59.5088152  35.1219622
  50.5224726  58.3799432  34.6440395  51.1475904  60.5369722  34.5607963
  51.1279912  61.4345732  35.0234275  51.7424611  60.4557687  33.2719205
  51.2478160  59.7127043  32.6463961  51.6501273  61.8432484  32.5652753
  52.6146752  62.0787364  32.1155053  50.5349256  61.8143482  31.4385406
  49.5699472  61.5793639  31.8876493  50.4818464  62.7893093  30.9540485
  50.7852481  61.0544735  30.6982503  51.3524113  62.8701021  33.5360665
  51.2969645  63.7209926  33.0950320  53.2103694  59.9437264  33.3547317
  53.7768767  59.7434418  34.4400817  53.7498955  59.6320231  32.1752764
  53.1170560  59.5029248  31.3987797  55.2017634  59.5732257  31.9123669
  55.6616228  58.8220333  32.5545028  55.4741406  59.1970836  30.4397000
  54.4933480  59.0557945  29.9856267  55.9564976  60.0688033  29.9975048
  56.3279785  57.9667393  30.1920256  57.3619310  58.2086228  30.4380653
  55.9776735  57.1663111  30.8437182  56.2435998  57.5059168  28.7200226
  55.3028933  57.8565154  28.2954628  57.0758693  57.9415905  28.1671977
  56.3034281  56.0611057  28.5887003  55.6515102  55.6346595  27.9458582
  57.1268381  55.2640842  29.2893648  58.0524493  55.7627583  30.1105804
  58.1443224  56.7631373  30.2149890  58.6570836  55.1376235  30.6241205
  57.0621293  53.9410170  29.1383978  56.3927936  53.5412179  28.4963304
  57.6827386  53.3445747  29.6667910  55.7203602  60.9304216  32.0787599
  54.9977064  61.8822433  31.8026931  57.0183660  61.0311605  32.3617044
  57.8639313  60.1001379  33.1312955  58.6409211  59.6804563  32.4923475
  57.2579088  59.2932291  33.5432831  58.4169458  60.9995881  34.1947739
  59.4636891  60.7410280  34.3546930  57.8569583  60.8309812  35.1146038
  58.2656376  62.4400543  33.7223027  59.2802647  62.8210867  33.6063494
  57.7018307  63.1031597  34.3784373  57.5852247  62.3542357  32.3599410
  56.7944864  63.0889147  32.2080260  58.5858160  62.4656650  31.2570474
  59.3334484  61.5219566  31.0124125  58.5452707  63.5862998  30.5463127
  57.7891241  64.2374144  30.7024901  59.4866915  63.8597636  29.4459975
  59.4326783  62.9983894  28.7802527  59.0166812  65.1163964  28.6693056
  57.9872072  64.9764427  28.3396159  59.0737812  65.9888890  29.3201484
  59.9145235  65.3287894  27.4550598  60.9441622  65.4692857  27.7840063
  59.8575872  64.4568414  26.8034718  59.4521715  66.5649527  26.6910207
  58.4226969  66.4250009  26.3613321  59.5092735  67.4374447  27.3418637
  60.3022771  66.8030321  25.5031487  61.0630546  66.1646875  25.3192109
  60.1101725  67.8191753  24.6668179  59.1300883  68.7009281  24.8424526
  58.5059017  68.6071886  25.6309347  59.0145030  69.4602157  24.1865396
  60.9344127  67.9388211  23.6298927  61.6776603  67.2675091  23.4994193
  60.8133061  68.7004424  22.9776927  61.0190255  63.9820862  29.9182103
  61.9460844  63.9115516  29.0850352  61.2463598  64.0576967  31.2445512
  60.4804822  63.8709253  31.8759365  62.5602519  64.3456285  31.8153679
  63.2510635  63.5239280  31.6264583  63.0962176  65.5713089  31.1769485
  64.0678057  65.8458861  31.5877078  63.1898741  65.4050539  30.1037814
  62.2287698  66.7320828  31.3453214  62.2422007  67.4479397  32.5317271
  62.8712957  67.1010916  33.3515050  61.4830065  68.5720027  32.6825932
  61.5110778  69.1346195  33.6157465  60.6876867  68.9895240  31.6597494
  60.0697759  69.8805935  31.7705707  60.6664112  68.2736293  30.4706123
  60.0420710  68.6209919  29.6474242  61.4229054  67.1370787  30.3262091
  61.3757908  66.5651176  29.3995265  62.5364481  64.6379095  33.3115428
  61.5464432  65.0394902  33.8552230  63.6679000  64.5981279  33.9462695
  64.5545380  64.4941196  33.4738771  63.6734737  64.7970310  35.3465511
  63.1434550  65.4111908  36.0745532  64.1698569  63.5090741  36.0526933
  63.4046586  63.2836309  36.7954894  64.4223982  62.3106911  35.2271982
  65.1878742  62.5352381  34.4844155  64.7636178  61.4950449  35.8646863
  63.5023455  62.0161078  34.7223959  64.7813772  63.6069056  37.4080924
  64.0583794  64.0331798  38.1035539  65.0706120  62.6129387  37.7493732
  65.6630765  64.2462636  37.3641762  64.6819404  65.8720743  35.5945246
  65.8418320  65.6446118  35.2444143  64.3214606  66.9439123  36.3393001
  63.3384514  67.1005095  36.5103838  65.3179441  67.9591915  36.8780615
  66.1663888  68.0324452  36.1977126  64.6795954  69.3383079  37.0114894
  64.1380287  69.3383097  37.9574306  65.4992858  70.0549559  37.0627061
  63.7352943  69.7291532  35.8878589  64.2738511  70.3886667  35.2073449
  63.4445357  68.8213983  35.3591412  62.4622190  70.4536238  36.4126358
  61.6425983  70.1868975  35.7454192  62.2591963  70.0644186  37.4103334
  62.5934078  71.9890466  36.4770032  61.7094451  72.3723142  36.9867253
  63.4805019  72.2175976  37.0677043  62.7119275  72.6368963  35.1226743
  61.8898293  72.4255953  34.5753114  62.7942316  73.6373507  35.2341065
  63.5312032  72.2822057  34.6503597  65.9573984  67.5928255  38.2563137
  65.9439377  66.4500462  38.7047280  66.5365067  68.5735006  38.9241122
  66.4974017  69.5361662  38.6210527  67.3266191  68.2511161  40.1224150
  68.0311895  67.4538077  39.8858159  68.1276492  69.4901388  40.6288837
  68.4025635  70.0431361  39.7307104  67.4163661  70.0753133  41.2117620
  69.3963792  69.2228263  41.4795095  69.1656368  68.9446713  42.5078522
  69.9144010  68.3990940  40.9883674  70.3328261  70.4546419  41.4986783
  71.0419887  70.7356688  40.5293169  70.2611116  71.2210635  42.5565870
  70.8489903  72.0395527  42.6242289  69.6182045  70.9906581  43.3006873
  66.4026982  67.7383475  41.1680953  65.2051304  67.8037416  41.0102948
  66.9508871  67.3704999  42.3054462  67.8800278  66.9763724  42.3436623
  66.2056951  67.5299362  43.5698856  66.7773214  67.1005579  44.3926716
  65.9580512  69.0438249  43.8702511  66.2594798  69.5403870  42.9479355
  64.9036536  69.2430584  44.0616974  66.8089590  69.5844235  45.0504134
  66.7001862  68.9791957  46.1524660  67.5023986  70.6641342  44.8909385
  64.8387023  66.8345414  43.5214942  63.9570806  67.1852242  44.3488000
  64.7624921  65.7613718  42.6795946  65.6526637  65.3308932  42.4737255
  63.5157163  65.1579268  42.0701274  62.6586184  65.3121043  42.7256514
  63.2363800  65.8274991  40.7444297  63.1753115  66.8930757  40.9655999
  64.1166263  65.6340633  40.1313644  61.9862322  65.3934322  39.9889019
  62.0547991  64.3535674  39.6694011  61.1299912  65.5133376  40.6526610
  61.7733358  66.2750369  38.7487962  62.6486776  67.0438488  38.3944789
  60.6596116  66.1422824  38.0794564  60.4954475  66.7101299  37.2604931
  59.9677806  65.4724003  38.3839712  63.7289874  63.6594914  41.8148142
  64.8281399  63.2431717  41.6490831  62.6953300  62.8426111  41.8069539
  61.7505710  63.1890714  41.8935277  62.8978720  61.3748624  41.6508587
  63.9541270  61.1530365  41.4984850  62.3939275  60.5636662  42.8593601
  61.3069858  60.6338345  42.9009948  62.8057169  59.0945797  42.7393582
  63.8926202  59.0235681  42.6981330  62.4385648  58.5419805  43.6041899
  62.3796693  58.6703838  41.8301591  62.9174984  61.1347922  44.1565592
  62.5783328  62.1651343  44.2636288  62.5451915  60.5416166  44.9918016
  64.0072094  61.1102197  44.1513640  62.1399900  60.8678132  40.4428644
  61.1296855  61.4463505  40.0824543  62.6401007  59.8100557  39.7936869
  63.5077329  59.4078666  40.1185832  61.9551410  59.1708060  38.6318052
  60.8867865  59.3796555  38.6874819  62.4881241  59.6986299  37.2962335
  61.9675759  59.2232273  36.4648966  62.3579304  60.7791251  37.2355716
  64.3056792  59.3800826  37.0187339  64.3669026  59.9574255  35.8221450
  62.2509336  57.7089961  38.7101157  63.0078029  57.2714557  39.5873889
  61.6279998  56.9436716  37.8269166  60.8907062  57.3268033  37.2527148
  61.9868365  55.5180095  37.6497104  62.8895237  55.3044326  38.2221087
  60.8674030  54.5194163  38.0565619  60.6777858  53.8291194  37.2345912
  61.3133198  53.7334104  39.2887709  61.5026922  54.4230415  40.1113568
  60.5298633  53.0322216  39.5762268  62.2259385  53.1834976  39.0589404
  59.5787630  55.2958109  38.3104668  59.8527969  56.1185787  38.9708146
  59.2757154  55.6934610  37.3418926  58.4380414  54.5274360  38.9151246
  58.7402037  54.1298421  39.8839987  57.5820299  55.1894933  39.0455995
  58.1631236  53.7047225  38.2550771  62.2755899  55.3647016  36.2027107
  61.6974139  56.0781910  35.3952862  63.3289767  54.6331495  35.8890471
  63.8144675  54.0536574  36.5588134  63.8313780  54.7024527  34.5835847
  63.0198749  54.7694573  33.8589660  64.6898481  55.9113231  34.4495603
  65.5122918  55.8544080  35.1626151  65.0903490  55.9627435  33.4371102
  64.0963448  56.8031755  34.6506881  64.5735789  53.4814095  34.2778443
  64.9903632  52.7645112  35.1995626  64.6048831  53.1758303  32.9785143
  64.1087090  53.7691623  32.3290008  65.2856878  52.0162771  32.4612734
  65.5539109  51.3520418  33.2828250  64.3954845  51.2547961  31.4914817
  63.4272228  51.1254647  31.9750536  64.2777201  51.8769657  30.6042746
  64.9531842  49.8771311  31.0822285  65.9312952  50.0586766  30.6367615
  65.0740873  49.3059082  32.0026572  64.0717431  49.0732613  30.0860283
  64.6415576  48.9392882  29.1665384  63.8659393  48.0994958  30.5304659
  62.7931726  49.7209977  29.7577719  62.8520872  50.5848270  29.2377458
  61.5907792  49.2759093  30.1158787  61.4697648  48.1173774  30.7595442
  62.2938342  47.5751577  30.9763561  60.5544117  47.7856872  31.0282633
  60.4965785  49.9810367  29.7980639  60.5886606  50.8478039  29.2878330
  59.5847279  49.6425487  30.0701909  66.5715315  52.4200878  31.7611926
  66.6733980  53.5116364  31.1968782  67.5521476  51.5198914  31.7935890
  67.3172392  50.5419492  31.8860367  68.9600068  51.8856542  31.6852427
  69.0688112  52.8389547  31.1680590  69.5510163  52.0225668  33.0964449
  68.8761082  51.4559952  33.7380016  70.5152532  51.5166410  33.0475956
  69.7405641  53.4227136  33.6694533  70.1807604  54.0605477  32.9029705
  68.4402905  53.9943239  34.1016559  67.9996742  53.3572383  34.8685183
  68.5989163  54.9935500  34.5072245  67.7663012  54.0524385  33.2469855
  70.6674085  53.4077924  34.8738938  71.6423492  53.0204552  34.5779885
  70.7811122  54.4214832  35.2580862  70.2444210  52.7707220  35.6506317
  69.7202780  50.7710978  30.9186498  69.6601055  49.6102177  31.3286666
  70.4156557  51.1201482  29.8144004  70.2735641  52.0425846  29.4283690
  71.3168955  50.1671506  29.0738185  71.2310892  49.1784185  29.5245349
  70.9528968  50.0595967  27.5700193  70.9498404  51.0714803  27.1648263
  71.7386702  49.4780699  27.0878505  69.5874952  49.3964465  27.3049997
  69.3309837  48.8449280  28.2095052  68.8733116  50.2069095  27.1594199
  69.5394088  48.4496490  26.0979425  69.8683267  47.4628019  26.4235877
  68.5083367  48.3916473  25.7491940  70.3898294  48.8846917  24.9821595
  71.2087557  48.3234344  24.7965541  70.1713666  49.9623243  24.2254119
  69.1151574  50.7481189  24.4296416  68.4630547  50.5302877  25.1695143
  68.9713462  51.5580888  23.8436665  71.0092979  50.2425520  23.2369724
  71.8023656  49.6410976  23.0655191  70.8507228  51.0561983  22.6599695
  72.7992356  50.5167794  29.2204080  73.2676868  51.5627595  28.7758148
  73.5338407  49.5863635  29.7891572  73.0858975  48.7565374  30.1508683
  74.9750374  49.6887897  29.8914846  75.2730685  50.7085147  30.1352830
  75.5141237  48.7397515  30.9898022  76.5010571  49.0831014  31.2999207
  74.5946382  48.7257435  32.1750968  73.6075631  48.3820333  31.8658306
  74.9913457  48.0529463  32.9354035  74.5159797  49.7320602  32.5864849
  75.6518489  47.4001394  30.4766092  75.9865136  46.8251717  31.1687161
  75.6096961  49.2722077  28.5658370  75.5142030  48.1105292  28.1693522
  76.3446508  50.1731036  27.9253269  76.5083317  51.0874391  28.3219356
  76.8425365  49.9020941  26.5613938  75.9491049  49.7001623  25.9705446
  77.5487226  51.1287166  25.9770313  78.4503752  51.3380484  26.5526202
  77.8180813  50.9333687  24.9390595  76.8811104  51.9891195  26.0228571
  77.7562377  48.6639599  26.4596842  78.3546608  48.4192932  25.3894912
  77.8665730  47.8989272  27.5523004  77.6544506  48.2843393  28.4614543
  78.2906043  46.5015563  27.4733961  78.3283768  46.2219289  26.4205519
  79.2894083  46.4297934  27.9039074  77.3648733  45.5425444  28.2075436
  76.2806468  45.1922165  27.6952027  77.8422801  45.0439733  29.3559514
  78.7300509  45.3809512  29.7000564  77.1397006  44.0166088  30.1329515
  76.0654711  44.2009905  30.1213920  77.4032697  42.5904667  29.5868363
  77.9918291  42.6891521  28.6747184  78.1617422  41.6796629  30.5978566
  77.5735418  41.5801241  31.5101131  78.3156145  40.6951294  30.1561371
  79.1275032  42.1255716  30.8357046  76.1556226  41.9898357  29.2536829
  76.3071295  41.1048599  28.9138832  77.5929425  44.0804604  31.5498269
  78.7655228  44.3285897  31.8339945  76.6842507  43.7882458  32.4414456
  75.7876868  43.4128963  32.1668818  76.9173476  44.0376934  33.8257128
  77.9392843  44.3877283  33.9713845  75.9291577  45.1249165  34.2986733
  74.9456602  44.8832996  33.8956170  75.8474036  45.2167388  35.8007712
  76.8304960  45.4588013  36.2045480  75.1386223  45.9964733  36.0795973
  75.5138825  44.2614453  36.2060825  76.3443609  46.4944129  33.7953108
  76.2126992  46.5003069  32.7133075  75.6748074  47.2268294  34.2462695
  77.7798442  46.8481890  34.1313317  78.4500615  46.1164282  33.6802942
  78.0107830  47.8398904  33.7423653  77.9121701  46.8429485  35.2132569
  76.7390012  42.7191951  34.5483834  76.5849474  41.6922610  33.9008536
  76.8558136  42.7184726  35.8743172  77.5736684  43.2707351  36.3212959
  76.0698022  41.7837298  36.7076940  75.2448733  41.3730434  36.1255185
  76.9455668  40.6355204  37.1870733  76.8268729  40.4578799  38.2559301
  76.7373828  39.7154056  36.6410437  78.6943605  40.9843694  36.9297719
  79.1405026  39.8367851  37.4326693  75.2663223  42.4339575  37.8922066
  75.7779748  42.6026061  39.0238193  73.9769609  42.6997918  37.6115783
  73.6284180  42.4180692  36.7064542  73.0556812  43.3453761  38.5355191
  73.5367350  44.1889932  39.0304904  71.8629278  43.8569209  37.7583928
  71.5618096  43.0038934  37.1503046  71.0455092  44.1347474  38.4237793
  72.1988245  45.0266431  36.8558539  73.2782095  45.0781460  36.7131084
  71.5152405  44.8378348  35.5032929  70.4357265  44.7867033  35.6451864
  71.7562976  45.6789065  34.8532232  71.8651143  43.9129449  35.0447435
  71.8222603  46.3542297  37.5308874  72.3758067  46.4577389  38.4641460
  72.0707771  47.1828951  36.8678230  70.7526311  46.3653652  37.7403355
  72.5255620  42.4164398  39.5974969  72.4930512  41.2061269  39.4011894
  72.0710046  43.0146312  40.7046896  72.5384037  43.8518974  41.0219004
  70.9372484  42.5117686  41.4881257  70.4539584  41.6964136  40.9498635
  71.4017181  41.9916988  42.8475228  71.8851869  42.8250205  43.3573580
  70.5072010  41.6995564  43.3976064  72.3648191  40.8100508  42.7788882
  73.1575979  41.0916347  42.0858420  72.7846332  40.6780275  43.7760969
  71.7275783  39.5015969  42.3180961  70.5017316  39.2896544  42.5689932
  72.4937285  38.6924805  41.7039263  69.9228780  43.6186689  41.7068711
  70.2545331  44.7870658  41.6516298  68.6896335  43.2471215  42.0185674
  68.4204443  42.2747600  41.9722055  67.6720997  44.2346716  42.4117018
  67.7989293  45.1341168  41.8091972  66.2339620  43.7073510  42.2145775
  65.5383173  44.5433679  42.2870665  66.0860671  43.0357357  40.8393117
  66.7811191  42.1992764  40.7662488  65.0657793  42.6711191  40.7202883
  66.3063157  43.7600370  40.0551059  65.9225073  42.7530516  43.2269918
  65.0277270  42.4300864  43.0979103  67.8839930  44.5886174  43.8568833
  68.2763956  43.7517808  44.6434338  67.6115685  45.8291964  44.1728922
  67.1791527  46.4557161  43.5091235  67.7929081  46.2803568  45.5005545
  68.8400061  46.1834825  45.7874349  67.3945525  47.7293459  45.6141046
  67.7817573  48.2632040  44.7462525  66.3109480  47.8401248  45.6544699
  67.9399736  48.4214330  46.8197833  68.5468077  47.7272413  47.8276381
  68.6416838  46.6443071  47.7479385  69.0319026  48.3758206  48.9263691
  69.5296816  47.8124162  49.7156043  68.8937416  49.7306816  49.0371490
  69.2771371  50.2500340  49.9154319  68.2745154  50.4332565  48.0457307
  68.1550991  51.5135530  48.1281893  67.8029796  49.7762538  46.9455177
  67.3079011  50.3321972  46.1493242  66.7399203  45.4146192  46.0793810
  66.0166809  44.7936789  45.3255648  66.6898974  45.2941823  47.3933374
  67.3328732  45.8021195  47.9838298  65.6996101  44.4455570  48.0261622
  65.6263925  44.6061912  49.1017713  64.3165337  44.6389155  47.4086752
  63.9708200  45.6545316  47.6013027  64.3718471  44.4723965  46.3328909
  63.3401389  43.6440542  48.0271640  63.6849678  42.6281362  47.8345387
  63.2839378  43.8102718  49.1029499  61.9588294  43.8371638  47.4104649
  61.6131155  44.8527801  47.6030902  62.0141438  43.6706428  46.3346812
  60.9824346  42.8423032  48.0289561  61.3272632  41.8263850  47.8363321
  60.9262327  43.0085239  49.1047401  59.6509439  43.0284473  47.4344969
  59.7027166  42.8740460  46.4377123  59.0042816  42.3695572  47.8441209
  59.3310515  43.9696264  47.6132418  66.1492345  43.0423892  47.8020774
  66.3656063  42.3087375  48.7478826  66.3208135  42.6596330  46.5487002
  66.1469560  43.2745424  45.7665498  66.7919412  41.3176364  46.2755575
  66.1077254  40.5942796  46.7190695  66.8689642  41.0600737  44.7842165
  65.9672702  41.4602436  44.3206313  67.7406002  41.5884793  44.3980324
  66.9885854  39.5983755  44.4652946  67.2640672  38.8112397  45.3881548
  66.8026744  39.2310461  43.2927498  68.1693445  41.2567947  46.8895635
  68.5505983  40.2820272  47.5112450  68.8986897  42.3442430  46.7055748
  68.4856360  43.1007409  46.1790799  70.2311856  42.5287936  47.2426984
  70.3080039  41.9996706  48.1925547  71.2951659  42.0030378  46.3103510
  70.8876902  41.7684125  45.3269823  72.0869682  42.7450253  46.2073769
  71.9337992  40.7710134  46.8070738  72.5444076  40.7662152  48.0343469
  72.5610340  41.6825539  48.6243866  73.1302013  39.6258504  48.5219317
  73.6147509  39.6329014  49.4982834  73.1049812  38.4720416  47.7756058
  73.5702347  37.5625943  48.1557961  72.4901812  38.4673870  46.5454915
  72.4670443  37.5563695  45.9474848  71.9035284  39.6166183  46.0705022
  71.4084342  39.6145789  45.0994319  70.3686913  44.0098511  47.3702204
  69.6163826  44.7248648  46.7227662  71.3301978  44.4778333  48.2469296
  72.2778897  43.9819051  49.3227364  73.2944268  43.9321913  48.9325040
  71.9717826  42.9932427  49.6647071  72.1189891  45.0305183  50.3866019
  73.1107451  45.3663130  50.6895225  71.6117199  44.5809517  51.2402231
  71.3151821  46.1498926  49.8192134  71.7793198  47.1017947  50.0772008
  70.2718612  46.1576532  50.1346826  71.4010955  45.9240442  48.3267957
  70.5777435  46.3191678  47.7317604  72.7031031  46.5067641  47.8326281
  72.7075338  47.3632616  46.9685550  73.8111436  46.0217313  48.3540400
  73.7762046  45.2981696  49.0578418  75.1040951  46.5793903  48.0044820
  75.1043906  47.6534159  48.1904072  76.2035709  45.9424320  48.8366966
  77.0883624  45.8896010  48.2023053  76.3959868  46.6152279  49.6724129
  75.8793722  44.5632406  49.3647613  75.0418123  44.1597070  48.7957667
  76.7477359  43.9162629  49.2403974  75.5028586  44.5885799  50.8232141
  75.5861475  45.6210522  51.4740074  75.0941428  43.4500437  51.3464841
  74.8295061  43.4116084  52.3204408  75.0474682  42.6212828  50.7710901
  75.4479389  46.4756505  46.5442890  76.2599759  47.2211009  46.0323559
  74.8410251  45.5247006  45.8816156  74.1767491  44.9275916  46.3530999
  75.1116339  45.2786457  44.4887434  76.0322834  45.7793646  44.1891033
  75.2705863  43.8117052  44.2612249  74.3112263  43.4228304  43.9198979
  76.0164218  43.6761368  43.4779940  75.7060455  43.0610514  45.5112629
  76.4372832  43.6754560  46.0365241  74.8292333  42.9205413  46.1433699
  76.4338243  41.4591140  45.1460440  76.0547496  41.2301656  43.3859147
  76.5065257  42.0367627  42.8085081  76.4553697  40.2741551  43.0487972
  74.9743712  41.2418871  43.2418792  74.0223892  45.7944450  43.5845233
  74.1144956  45.6765423  42.3591232  73.0129285  46.4140934  44.1810615
  72.9395770  46.4076105  45.1883732  71.9819489  47.1205293  43.4132997
  72.2644088  47.0255200  42.3648299  71.0500687  46.5828278  43.5881592
  71.7717809  48.6002168  43.7401383  70.7952970  49.1973563  43.3013757
  72.5706028  49.1486981  44.6425310  73.1556397  48.5900259  45.2472761
  72.5950512  50.5769340  44.8003995  71.6579538  50.9783712  44.4146587
  72.7624825  51.0357433  46.2663840  72.3626240  52.0486075  46.3145346
  72.1397319  50.3709896  46.8650360  74.2005322  51.0253008  46.8168138
  74.8620073  50.6666261  46.0282049  74.4698906  52.0484712  47.0788643
  74.3439432  50.1262376  48.0527996  73.8199095  49.1958959  47.8338201
  75.4073960  49.9227536  48.1783456  73.8224934  50.6739009  49.3000862
  73.3742378  51.5783605  49.2666320  73.8983331  50.0439800  50.4737941
  73.4055422  50.6215652  51.5750213  72.9769706  51.5341104  51.5142950
  73.4642661  50.1425104  52.4622404  74.4584941  48.8302192  50.5549431
  74.8251881  48.3900031  49.7231706  74.5116911  48.3606085  51.4475431
  73.7315007  50.9758012  43.9619751  74.5801933  50.1766398  43.6557447
  73.6167510  52.1465906  43.4127713  72.8608611  52.7678460  43.6633136
  74.5623121  52.5925015  42.4720802  75.5761652  52.3717773  42.8059691
  74.3150685  51.8697723  41.1727038  75.1963297  51.9218765  40.5333581
  74.0728060  50.8259391  41.3722564  73.1892226  52.4230872  40.3877268
  73.3504227  53.5271433  39.6136599  74.3096999  54.0436881  39.5809704
  72.2978027  53.9905844  38.8711408  72.4598698  54.8505476  38.2212961
  71.0495651  53.3936361  38.9313703  70.2143011  53.7799707  38.3472644
  70.8760556  52.3211006  39.7260752  69.8968272  51.8520100  39.8218150
  71.9593168  51.8136343  40.4269662  71.8457066  50.9106915  41.0268720
  74.4089074  54.0587187  42.2355571  73.3108863  54.6002690  42.3563993
  75.4378989  54.6583470  41.6912564  76.2344596  54.1379401  41.3524835
  75.4478466  56.0624332  41.5520869  74.4946678  56.5085480  41.8358663
  76.5340179  56.6472200  42.4257341  76.1126415  56.8594226  43.4083389
  77.7110478  55.6783889  42.5737500  78.1332666  55.4660620  41.5915340
  78.4751772  56.1283437  43.2075844  77.3635262  54.7503075  43.0276160
  76.9740123  57.8701330  41.8737026  77.6638422  58.2417718  42.4283373
  75.7292870  56.3120602  40.1197798  76.7757326  55.9594478  39.6501978
  74.8122151  56.9280923  39.3999259  73.8417666  56.9686133  39.6768505
  75.2131140  57.6169227  38.1701826  75.6335270  56.8865019  37.4789247
  74.0562774  58.3090301  37.4949881  73.3152749  58.4806404  38.2757342
  74.3966677  59.2666509  37.1010377  73.4320669  57.4943482  36.3752383
  74.1577351  57.3577926  35.5734533  73.0231697  56.1649003  36.9056997
  72.2971085  56.3006319  37.7072675  72.5744518  55.5762328  36.1055599
  73.8981219  55.6430069  37.2932383  72.2326820  58.1782250  35.7462055
  72.5385186  59.1372822  35.3281472  71.8294749  57.5486819  34.9529837
  71.4671542  58.3407273  36.5049275  76.2030687  58.6639298  38.5215014
  76.1465412  59.1694200  39.6265395  77.0809570  59.0136483  37.5758693
  76.9633670  58.6428616  36.6437807  78.2283584  59.9074247  37.8344472
  77.9304655  60.7148733  38.5033163  79.3575655  59.1257119  38.4888214
  78.9125060  58.2531563  38.9670138  80.0292530  58.8008610  37.6942097
  80.1347419  59.9177094  39.5115153  81.1977399  59.8143376  39.2936843
  79.8475238  60.9658653  39.4279863  79.8599791  59.4325234  40.9092338
  80.2777910  60.1501691  41.6152910  78.7809373  59.3707191  41.0504724
  80.4489182  58.1062255  41.1787475  79.9347814  57.3044909  40.8426159
  81.5938370  57.8982362  41.8488835  82.3325803  58.9312931  42.2793493
  82.0267168  59.8767917  42.0988502  83.1914812  58.7591602  42.7821009
  82.0227071  56.6478747  42.0758581  81.4819240  55.8632268  41.7412218
  82.8844949  56.4966346  42.5803845  78.6736975  60.4841720  36.4918036
  78.6694522  59.7898521  35.5038766  78.8477876  61.7887767  36.4002755
  78.7209253  62.3897037  37.2020809  79.1815129  62.4132592  35.1018441
  79.7369958  61.7000048  34.4929056  77.9022691  62.8412266  34.3242214
  77.2264920  61.9957083  34.1956778  77.4318204  63.5876508  34.9642440
  78.2152468  63.4734199  32.9311375  78.5971398  62.7498534  31.9695709
  78.0043406  64.6900051  32.7790089  80.0788323  63.6017997  35.3807960
  79.8786835  64.3066255  36.3910540  81.0958352  63.8054802  34.5366578
  81.1346887  63.3309328  33.6459308  82.1527431  64.7678264  34.8575822
  82.9815159  64.6528944  34.1589940  81.6187275  66.2089737  34.7549427
  80.7766530  66.2620202  35.4450122  82.4240598  66.8489893  35.1153870
  81.1745909  66.6802487  33.3744357  82.0848492  66.9429705  32.8354478
  80.6737646  65.8588710  32.8619801  80.2356193  67.9036579  33.4244484
  80.2367776  68.6785746  32.4522834  79.5218520  68.1168477  34.4400986
  82.5921465  64.5419439  36.3229721  82.7276831  65.5058260  37.0798388
  82.6099820  63.2886243  36.7811519  82.2213802  62.5353573  36.2319007
  83.1915151  62.9672949  38.0900872  83.3043833  61.8839218  38.1308620
  84.1749230  63.4361011  38.1251427  82.3776576  63.4281988  39.2982386
  82.5270746  62.8591620  40.3948847  81.4281970  64.3500701  39.0720884
  81.4405239  64.8868745  38.2166420  80.3300818  64.5861196  40.0310631
  80.7539224  64.8613930  40.9968182  79.4077263  65.6951745  39.5740048
  79.3153014  65.6112415  38.4911788  78.4366302  65.5170963  40.0359144
  79.8835266  67.0672455  39.9282706  79.0553479  67.6396336  40.3461138
  80.6820460  66.9928217  40.6664643  80.4070236  67.7680074  38.6849132
  81.4960508  67.7239330  38.6981822  80.0331307  67.2384578  37.8086251
  79.9580387  69.2249350  38.6281733  80.5393262  69.7254410  37.8537709
  78.9025109  69.2406048  38.3566686  80.1481742  69.9355441  39.9321074
  81.1262463  69.9215124  40.1836584  79.8372561  70.8923147  39.8425533
  79.6092849  69.4721758  40.6497334  79.4566399  63.3893927  40.2013281
  79.2243537  62.6305916  39.2688047  78.7871923  63.3733975  41.3326676
  79.1060900  63.9258912  42.1157094  77.6193949  62.5102490  41.5217838
  77.6983737  61.6427282  40.8665974  77.5255907  62.0181600  42.9834661
  77.2577279  62.8656496  43.6144266  76.5011081  60.9357989  43.1400133
  76.7685616  60.0877277  42.5096614  76.4652774  60.6166161  44.1816167
  75.5232346  61.3146432  42.8427911  78.8135329  61.4964437  43.3822782
  78.7665001  61.1875391  44.2900041  76.3447740  63.2202085  41.1168876
  75.9744937  64.2364941  41.6815302  75.6614988  62.6211451  40.1718405
  75.9214033  61.6882202  39.8851346  74.5938435  63.2620073  39.4898166
  74.4075042  64.2783652  39.8367942  74.9211671  63.2857973  38.0200212
  75.9888938  63.4666071  37.8960540  74.5516597  61.9505429  37.3709566
  73.4839221  61.7692478  37.4941200  74.7940163  61.9829170  36.3087344
  75.1134107  61.1468142  37.8469347  74.2197252  64.4558880  37.3472180
  73.1452189  64.3252306  37.4755373  74.5359479  65.3719951  37.8460672
  74.5446962  64.5479191  35.8674917  74.2283192  63.6322944  35.3678550
  74.0204334  65.3985906  35.4320543  75.6190491  64.6790566  35.7383849
  73.2045340  62.5809003  39.7235224  72.1608524  63.1495125  39.3496415
  73.2063216  61.3754678  40.3322023  74.1041144  60.9444470  40.5003939
  71.9811358  60.6470648  40.7648163  71.3252243  61.3107154  41.3282407
  71.2253563  60.1276056  39.5615730  71.8661808  59.4543285  38.9922383
  70.3378547  59.5891533  39.8940040  70.9267389  60.9645443  38.9303357
  72.3483271  59.4543787  41.6631144  73.4604822  58.9460849  41.6289914
  71.3851992  58.9512748  42.4152468  70.5754694  59.4967771  42.6738280
  71.5522899  57.6276675  43.0190683  72.2131303  57.0551540  42.3682093
  72.1397495  57.6726322  44.4278264  71.6230493  56.9599000  45.0705814
  73.6052476  57.3072925  44.3463862  74.1227359  58.0198993  43.7041261
  74.0428798  57.3339451  45.3443183  73.7077275  56.3043809  43.9319404
  72.0107085  59.0533129  45.0326652  72.8120285  59.1725347  45.7618930
  72.1387937  59.7803692  44.2307407  70.6999066  59.2747491  45.6969200
  70.5712998  58.5483088  46.4993193  70.6675563  60.2824423  46.1111750
  69.8980644  59.1561409  44.9681669  70.3046940  56.7894783  43.0123319
  69.1877033  57.3026857  43.1382561  70.5090583  55.4881357  42.8373499
  71.3739778  55.0745796  43.1551310  69.5179896  54.6192417  42.1942426
  68.5243264  55.0316599  42.3692964  69.7167897  54.5940968  41.1228204
  69.5682909  53.2012898  42.7401218  70.6603898  52.6303651  42.8373233
  68.4180650  52.6873132  43.2180825  67.6217304  53.2951838  43.3463159
  68.2705221  51.2693944  43.5541840  69.2312829  50.8727758  43.8824089
  67.2375576  51.0663241  44.6894491  66.3000689  51.4617676  44.2985035
  67.1532308  49.9863965  44.8108797  67.5419152  51.7219964  46.0706508
  68.1932779  51.0231056  46.5954166  68.0927348  52.6367125  45.8515749
  66.3022311  52.0612780  46.9742145  66.5470972  51.7266121  47.9822514
  66.1961945  53.1460889  46.9678124  64.9559682  51.4026797  46.5183390
  64.8032459  51.7597736  45.4998792  65.1626091  50.3325960  46.5004585
  63.7185646  51.6596983  47.3293575  63.5266668  52.6511660  47.3456937
  62.9370922  51.1722957  46.9148221  63.8597172  51.3284924  48.2730087
  67.7875917  50.6319230  42.2488206  67.1117722  51.3001753  41.4434779
  68.2304268  49.3970409  41.9771035  68.9274517  48.9522297  42.5571024
  67.7837639  48.7018583  40.7796248  67.3587796  49.3873984  40.0464656
  68.8504890  47.8238857  40.0767502  69.0438474  48.2681765  39.1003705
  70.1524888  47.7093493  40.8465516  69.9599908  47.2646843  41.8229319
  70.8487843  47.0800814  40.2922096  70.5856164  48.7008634  40.9784674
  68.3003513  46.4484152  39.7357657  67.4452550  46.5538224  39.0680818
  69.0740598  45.8587263  39.2440933  67.9867049  45.9450305  40.6502768
  66.5901166  47.8843601  41.1488876  66.4852082  47.3376439  42.2620968
  65.6524222  47.8501677  40.2248774  65.8390984  48.2145669  39.3015873
  64.3298752  47.3259453  40.5022751  64.2030919  47.1603541  41.5721372
  63.2834953  48.3316300  40.0378332  63.4993638  48.4800110  38.9797770
  62.2801018  47.9206710  40.1492527  63.3682118  49.6641523  40.7634795
  64.4104939  49.9787564  40.8161409  62.5580690  50.7157047  40.0175271
  61.5155173  50.4019994  39.9648611  62.6243731  51.6675166  40.5445552
  62.9535544  50.8314175  39.0084174  62.9029345  49.4974441  42.2118932
  63.5397652  48.7714591  42.7173553  62.9659418  50.4560293  42.7269134
  61.8712436  49.1459409  42.2244735  64.1234171  46.0000383  39.8040011
  63.9897263  44.9853148  40.4542580  64.0717570  46.0378397  38.4680006
  64.1399210  46.9326640  38.0045974  63.9001469  44.8383599  37.6418994
  63.6698649  43.9885834  38.2845107  62.7518097  45.0117152  36.6218079
  62.1339028  45.8385571  36.9719832  63.2075323  45.2778993  35.6680978
  61.8761323  43.7582175  36.4397590  62.5377203  42.8925832  36.4069035
  61.2211286  43.6815224  37.3076242  61.0263389  43.8023301  35.1589705
  60.7835781  44.8445853  34.9519194  61.6267474  43.4005942  34.3427491
  59.7333873  42.9934073  35.2868496  59.2642966  42.9261045  34.3052566
  59.9805305  41.9923493  35.6402649  58.7921897  43.6386406  36.2431039
  58.5627169  44.5660949  35.9155820  57.9488854  43.0868068  36.3095660
  59.2265070  43.7007141  37.1528370  65.1996831  44.5777148  36.9138892
  66.2391632  45.1527048  37.2378747  65.1521730  43.6691858  35.9601918
  64.3375047  43.0787107  35.8721351  66.2423183  43.4716773  35.0378514
  66.8349337  44.3828970  34.9567052  67.1628590  42.3229749  35.5464345
  66.5500137  41.4563945  35.2983250  68.0457655  42.3378967  34.9074090
  67.6054211  42.2366432  37.0451202  67.5280453  43.2424123  37.4580878
  66.7675816  41.2612062  37.9041647  66.8448427  40.2550770  37.4920560
  67.1424043  41.2638165  38.9276890  65.7241018  41.5762056  37.8991113
  69.0818192  41.8606430  37.1111844  69.6736736  42.6188333  36.5983927
  69.3953395  41.7991333  38.1533086  69.2332374  40.8948252  36.6291394
  65.5781590  43.1299334  33.6931267  64.7368117  42.2588410  33.6206302
  65.8692587  43.8821835  32.6530043  66.6197487  44.5570224  32.6911692
  65.0240956  43.8561338  31.4678913  64.1275308  43.2516664  31.6053323
  64.5999614  45.2943003  31.1324554  65.5027263  45.8873230  30.9860348
  63.7368374  45.3656404  29.8785920  62.8336028  44.7731899  30.0244363
  63.4630826  46.4025708  29.6838252  64.2955786  44.9722584  29.0293802
  63.8523777  45.8684210  32.3237026  64.5044582  45.8679320  33.1971399
  63.5439563  46.8900452  32.1017568  62.9715296  45.2598270  32.5282042
  65.7501855  43.1138641  30.3278882  67.0030974  43.1575253  30.2615281
  64.9757253  42.3861247  29.4594230  64.4207827  42.9401063  28.2023326
  64.8259861  43.9391108  28.0413964  63.3354135  42.9977175  28.2845126
  64.8734655  41.9418322  27.1313242  65.4647121  42.4736810  26.3858959
  63.9903315  41.5144390  26.6564446  65.6847894  40.8742299  27.8173599
  66.7559967  41.0669998  27.7585927  65.4716922  39.8840727  27.4145226
  65.2178443  40.9570310  29.2817534  64.2595348  40.4566424  29.4208662
  66.2452723  40.3577575  30.2325005  65.8612702  39.8253561  31.2702323
  67.4475268  40.4736785  30.0053675  47.4648607  40.1538223  66.5875112
  48.2428840  39.5108444  66.5506311  46.9998915  40.1525234  65.6909052
  46.9371493  39.9768334  67.4303013  48.0111074  41.5343635  66.7466603
  47.6984225  42.1580346  65.9091869  47.4847967  42.1657619  68.0565393
  47.5291446  41.4358558  68.8648521  48.1271109  43.0129290  68.2970397
  46.0239777  42.6725124  67.9256164  45.7662123  43.7359708  67.3500383
  45.0694879  41.8952964  68.4348723  44.1029945  42.1821946  68.3742106
  45.3166581  41.0226712  68.8793190  49.5458568  41.5723344  66.6265953
  50.1709349  40.5625786  66.2285192  50.1086352  42.7785090  66.7681378
  49.5387657  43.5324433  67.1244120  51.4899164  43.0844057  66.3459465
  52.0529193  42.1575464  66.2361343  51.4989894  43.8375524  64.9808484
  52.2719168  43.3357345  64.3987305  50.5541303  43.7991375  64.4387546
  51.8981038  45.3102166  65.0597140  51.2372735  46.1906872  65.9100644
  50.4356418  45.8154570  66.5462159  51.5885331  47.5352546  65.9546059
  51.1029693  48.1971631  66.6716872  52.5496964  48.0338692  65.0939517
  52.8029399  49.0939187  65.1101612  53.1901071  47.1832425  64.2110376
  53.9587146  47.5676993  63.5405634  52.8516240  45.8356149  64.1800016
  53.3311075  45.1696365  63.4625978  52.2107251  43.8833343  67.4491553
  51.5552180  44.3925885  68.3677045  53.5470653  43.9204150  67.3893067
  54.0286493  43.5192235  66.5973335  54.3511204  44.4426722  68.5014587
  53.8850536  44.1532975  69.4433414  55.7754435  43.9059253  68.4784067
  55.7019239  42.8243045  68.3653110  56.3057404  44.3249235  67.6232308
  56.5369365  44.2319266  69.7572502  55.9321973  44.1624782  70.8579860
  57.7292041  44.5871945  69.6604837  54.3624035  45.9790364  68.5396778
  55.0293287  46.6485675  67.7334714  53.6351560  46.5218507  69.5125965
  53.1732736  45.9264716  70.1851200  53.3920368  47.9862088  69.5839156
  53.1410092  48.3883486  68.6024025  52.2460218  48.3500243  70.5802056
  51.5597115  49.0263222  70.0705984  51.4728382  47.1064566  71.0716532
  52.1584487  46.4298611  71.5818064  50.6875648  47.4154185  71.7615715
  51.0261033  46.5952750  70.2188801  52.7795329  49.0625581  71.7037498
  52.0686132  49.2819387  72.3104340  54.6261023  48.8450068  69.9327312
  54.5820496  50.0655683  69.8358665  55.7181444  48.2007011  70.3459663
  55.6833999  47.2015699  70.4895939  56.9770042  48.9064412  70.6458279
  56.7610644  49.8946729  71.0518664  57.7936408  48.1201287  71.6784553
  58.8293220  48.4569815  71.6338043  57.3888890  48.3220200  72.6701790
  57.7385286  46.7264104  71.4203608  58.2564674  46.2582429  72.0792678
  57.8390033  49.1336816  69.3912999  58.7393154  49.9658989  69.4037226
  57.5033726  48.4176367  68.3215145  56.7414936  47.7576929  68.3856539
  58.2852368  48.4600679  67.0785612  59.3185466  48.3070445  67.3899355
  57.8793591  47.3078506  66.1272324  57.9631970  46.3561453  66.6519490
  56.8498082  47.4520666  65.7996249  58.8025535  47.3017628  64.9134370
  58.7189136  48.2530407  64.3879129  60.2430104  47.0993568  65.3714139
  60.3275412  46.1480017  65.8966537  60.9033177  47.0949281  64.5041911
  60.5292088  47.9102645  66.0412045  58.4027944  46.1669184  63.9764494
  57.3732443  46.3111364  63.6488412  59.0623723  46.1621175  63.1086734
  58.4866301  45.2152128  64.5011655  58.2234520  49.8291224  66.3452089
  59.2524177  50.3435144  65.8775813  57.0219852  50.4161871  66.2345853
  55.6963128  49.8901933  66.5872499  55.4657666  50.1425383  67.6222720
  55.6885861  48.8068106  66.4675786  54.7897505  50.5804302  65.6099291
  53.7982150  50.6935429  66.0482919  54.7176808  49.9884998  64.6975006
  55.4175768  51.9021682  65.3375310  55.1103777  52.6012437  66.1153621
  55.1664264  52.3137760  64.3599819  56.9252730  51.6531652  65.4276400
  57.3906540  51.4630533  64.4604914  57.6152779  52.8411250  66.0999128
  58.1471391  53.6921964  65.4067100  57.6218524  52.8829319  67.4339615
  57.1668641  52.1452059  67.9524645  58.2175906  53.9868341  68.1796994
  57.9681027  54.9437329  67.7212240  57.6998685  53.9871401  69.6369340
  56.6106379  54.0220755  69.6155678  58.1571023  52.7335673  70.4001204
  59.2463017  52.6981844  70.4223082  57.7743851  52.7687831  71.4201138
  57.7753000  51.8435796  69.8998711  58.1761243  55.1482702  70.3164531
  57.8529110  55.1451253  71.2204020  59.7670810  53.9679939  68.2029703
  60.4108954  54.9812180  68.5146078  60.3428175  52.8126270  67.8841837
  59.7600556  51.9974055  67.7580812  61.7982775  52.6436179  67.8197017
  62.2849259  53.4124744  68.4198119  62.2082299  51.2647746  68.3616264
  63.2189640  51.0462766  68.0169899  62.1972600  51.3060313  69.4507901
  61.3313244  50.2500355  67.9205932  61.6154314  49.4047872  68.2761751
  62.3758438  52.8761156  66.4147266  63.5775947  52.7021392  66.2043269
  61.5143818  53.2293981  65.4575224  60.5303900  53.1238972  65.6593365
  61.9070822  53.6600631  64.1066246  61.0500167  53.5944763  63.4363737
  62.3966629  55.0828381  64.1233297  63.2314655  55.1400864  64.8218472
  62.7194530  55.4326268  63.1427409  61.3770695  56.0446965  64.6018145
  60.6378866  56.8236527  63.7440722  60.7279612  56.8183316  62.7381110
  59.8037537  57.5681148  64.4438175  59.1393617  58.2735781  63.9448149
  59.9582753  57.2801823  65.7229063  60.9276198  56.3190999  65.8470951
  61.1900504  55.9338397  66.8323899  62.9255330  52.7789050  63.4369981
  63.9340880  53.2534647  62.8916158  62.6320850  51.4826740  63.4388291
  61.7617795  51.1611889  63.8379721  63.5774381  50.4872423  62.9503332
  64.5415318  50.6432735  63.4343548  63.1119270  49.0393221  63.2313248
  63.1869690  48.4606625  62.3106610  63.9780538  48.3904885  64.3132197
  63.9031528  48.9683694  65.2343836  63.6323371  47.3727447  64.4942627
  65.0164953  48.3675297  63.9827463  61.7499374  49.0404749  63.6678143
  61.4683779  48.1390099  63.8401089  63.8562715  50.6588048  61.4493448
  64.9004917  50.2212747  60.9649971  62.9340942  51.3116117  60.7396174
  62.0998204  51.6064169  61.2266251  63.0441965  51.6071162  59.3089012
  63.2272465  50.6937361  58.7429254  61.7302826  52.2278743  58.8247827
  61.7988564  52.2874028  57.7385722  60.9170060  51.5566577  59.1007345
  61.4584434  53.6144423  59.3926347  60.8207149  53.7825057  60.6236351
  60.5125251  52.8984886  61.1818754  60.5796942  55.0369323  61.1340946
  60.0983261  55.1569461  62.1046529  60.9410236  56.1496606  60.4002030
  60.7004251  57.4105084  60.8840996  60.2751486  57.4071523  61.7447553
  61.5593177  56.0165365  59.1787705  61.8411397  56.8981715  58.6031001
  61.8221517  54.7571170  58.6837139  62.3226327  54.6429993  57.7221547
  64.1913609  52.5734004  58.9520909  64.4114204  52.8754111  57.7711289
  64.8813073  53.0796732  59.9700585  64.6685807  52.7733129  60.9086692
  65.9082598  54.0662629  59.7927330  65.7403740  54.6411936  58.8820364
  65.8723616  55.0103058  60.9737712  65.3417473  54.4640192  61.7535908
  66.9031765  55.1782758  61.2857115  65.1942149  56.3399140  60.7403829
  64.1242034  56.1931209  60.5933179  65.4236406  57.2204146  61.9712268
  66.4934827  57.3680468  62.1186762  64.9411686  58.1864491  61.8225696
  64.9998807  56.7346566  62.8501848  65.7278694  57.0357018  59.4873258
  65.5511249  56.4036922  58.6170244  65.2153480  57.9884028  59.3539692
  66.7980114  57.2116023  59.5966615  67.2803109  53.4249281  59.6854788
  68.2557511  54.0590975  59.3523443  67.3604525  52.1689310  60.0507888
  66.5358479  51.6289140  60.2710348  68.6477416  51.5226071  60.1471335
  68.7021669  50.7753180  59.3554922  69.4118542  52.2822226  59.9821620
  68.9005550  50.8532890  61.4702876  68.3298652  51.1733649  62.4978623
  69.7896880  49.8726706  61.4480201  70.5009003  49.8277816  60.7322956
  69.7296573  48.8064886  62.4223251  68.6939653  48.4778878  62.5087127
  70.5774116  47.6291132  61.9292546  71.6188150  47.9401085  61.8464232
  70.5004406  46.8037438  62.6370265  70.2168776  47.3047850  60.9530754
  70.1986077  49.2335520  63.8091933  69.5308205  49.0160099  64.8279890
  71.3841461  49.8286272  63.8364356  71.9657107  49.8159087  63.0107721
  71.9016927  50.4637154  65.0314312  71.1076349  50.5172534  65.7762164
  73.0532006  49.5969451  65.5973074  72.6838287  48.5930818  65.8068833
  73.8598945  49.5414704  64.8663713  73.5772401  50.2255624  66.8864745
  73.0343120  49.8654474  67.9649678  74.5154758  51.0598735  66.7804619
  72.4075206  51.9088134  64.7763741  73.0683518  52.1905134  63.7806948
  72.0430541  52.8111250  65.6810242  71.3719846  52.5702362  66.3963826
  72.6346584  54.1060601  65.7187802  73.3017649  54.2370855  64.8667823
  71.5529484  55.1742651  65.6580795  71.3288305  55.4648518  66.6844468
  71.9712564  56.0266589  65.1227822  70.2781519  54.7221894  64.9710289
  70.5446956  53.9619414  64.2368094  69.6272408  54.2836716  65.7274143
  69.4034401  56.0664840  64.1424999  68.1539242  55.0295555  63.3806894
  67.5937080  54.5060845  64.1554377  67.4733511  55.6492583  62.7968321
  68.6342679  54.3022540  62.7261639  73.3229667  54.2276451  67.0546764
  72.9150521  53.5870158  68.0069861  74.3517893  55.0597147  67.1384506
  74.7381398  55.4621188  66.2964865  74.9794974  55.4041646  68.4318627
  75.3238576  54.5016290  68.9367833  76.1898514  56.3543377  68.2346441
  76.9438598  55.8606711  67.6215669  75.8591169  57.2666729  67.7382983
  76.7827073  56.7000624  69.5796708  76.0293701  57.1942108  70.1931864
  77.1141150  55.7882103  70.0764542  77.9740630  57.6353247  69.3855483
  77.7403343  58.8734572  69.3858390  79.1064888  57.1027056  69.2388208
  73.9390574  56.0731552  69.3315967  73.2366221  56.9736236  68.9311753
  73.8470908  55.6119189  70.5766948  74.4477280  54.8565490  70.8746053
  72.8067516  56.0798159  71.5008899  72.1190319  56.7383774  70.9703829
  72.0086485  54.9007410  72.0813189  72.6322342  54.4424268  72.8489048
  71.1141602  55.3192434  72.5426719  71.6000791  53.8308053  71.0432232
  70.6596228  53.3902493  71.3742116  71.4418438  54.3604537  70.1037907
  72.6511291  52.7084012  70.8332093  73.4330095  52.4297438  71.7785018
  72.6953264  52.0837054  69.7308192  73.4215668  56.9683562  72.5777718
  74.5963116  56.8062239  72.9855139  72.6267036  57.9146923  73.0568663
  71.6650217  57.9675361  72.7527697  73.1046201  58.9055290  74.0224684
  74.1074401  58.6423317  74.3588885  73.1530141  60.2869403  73.3814575
  72.1605997  60.4006612  72.9452461  73.3592851  61.1314881  74.0389462
  74.1176066  60.3743542  72.2658617  73.8774851  59.6782951  71.1115093
  72.9503710  59.1165897  70.9972888  74.7778666  59.6873362  70.1264955
  74.5723630  59.1677579  69.1905962  75.9817898  60.3627525  70.2971577
  76.7131711  60.3464985  69.4891249  76.2560416  61.0405638  71.4558859
  77.1854800  61.5941254  71.5893544  75.3389171  61.0108189  72.4479015
  75.5538007  61.4894663  73.4033184  72.1496626  58.9122716  75.1991521
  70.9783358  59.2628201  75.0513708  72.6740584  58.5030843  76.3666014
  73.6044985  58.1101936  76.3707748  71.9227960  58.5114590  77.6135889
  70.9171352  58.1333601  77.4297775  72.6010734  57.6142389  78.6625331
  72.6604680  56.5935880  78.2845872  73.6058771  57.9856020  78.8639260
  71.8925391  57.5413183  79.9939847  72.3784499  56.7735227  81.0458778
  73.2165765  56.2100963  81.0319435  71.5522001  56.9100316  82.0662100
  71.7500165  56.3864218  83.0015177  70.5780430  57.7151514  81.7213912
  70.7509549  58.1316999  80.4383523  70.0295503  58.8107863  79.9839094
  71.7560804  59.9779238  78.0973544  72.6588022  60.5679356  78.7311600
  70.5938475  60.5320280  77.7921329  70.0267160  60.1574156  77.0450541
  70.0982949  61.6936611  78.5201399  69.0240160  61.7358140  78.3405647
  70.2821512  61.4979352  79.5765430  70.7152188  63.0348222  78.1502796
  70.5628625  63.5211865  77.0229476  71.5345516  63.5944753  79.0412050
  72.5120330  63.6111107  78.7875266  71.1290724  64.2110471  80.3418156
  70.2109825  63.7765017  80.7372652  72.2672429  63.9033434  81.3050992
  72.1427897  64.5434143  82.1785520  72.1737090  62.8593277  81.6040687
  73.6679055  64.1396954  80.6876212  74.2902374  64.5261021  81.4947729
  74.0326275  63.1576211  80.3866061  73.7317478  65.1106272  79.4737710
  73.3896662  64.6013631  78.5728108  73.1015277  65.9801393  79.6605083
  75.0940241  65.5606805  79.2641560  75.5987771  65.1787416  78.4771068
  75.7093396  66.4464002  80.0438228  76.9937860  66.7176808  79.8420079
  77.4947268  66.2509935  79.0994707  77.4636611  67.3894065  80.4320092
  75.0431349  67.0692918  81.0263025  74.0654861  66.8656285  81.1773794
  75.5218881  67.7394147  81.6109643  70.8859299  65.7215014  80.5308171
  70.8749267  66.2028996  81.6643353  70.8038830  66.4631727  79.4499064
  70.6370185  66.0428273  78.5468198  71.0215620  67.9154393  79.5130518
  71.5413936  68.1742895  80.4354785  71.8656999  68.4417339  78.2961619
  72.8652195  68.6782479  78.6610208  71.9681234  67.4009070  77.1355508
  70.9689540  67.1642328  76.7698386  72.5622227  67.8192248  76.3230513
  72.4447528  66.4920623  77.5028738  71.2791691  69.6464153  77.7790504
  71.7992198  69.9623710  77.0365415  69.6828867  68.6519654  79.5809783
  68.9511581  68.6814215  78.5851633  69.3440408  69.2089354  80.7591404
  69.7589707  68.8639776  81.6129182  68.2759155  70.2135099  80.8598355
  67.9377630  70.4827194  79.8591966  67.0656420  69.6732958  81.6629176
  67.5611730  69.1392880  82.4737097  66.4597176  70.4794833  82.0764601
  66.1471220  68.6839813  80.8720618  66.0476583  69.0509471  79.8505219
  66.7272064  67.2592870  80.8505845  66.8265358  66.8914435  81.8718209
  66.0598471  66.6030915  80.2918899  67.7068252  67.2724623  80.3728044
  64.6727991  68.6605092  81.3404549  64.2389398  69.6539185  81.2264220
  64.1106682  67.9476602  80.7371669  64.6285980  68.3633890  82.3882454
  68.8175445  71.5157869  81.4107899  69.6679945  71.5109376  82.2699530
  68.3565020  72.6411490  80.8408094  67.5674140  72.5575544  80.2159482
  68.8220363  73.9760482  81.1902931  69.8482750  73.9016447  81.5500116
  68.7860650  74.9671363  79.9911737  67.8368704  75.3670097  79.6344805
  69.3587405  75.7627157  80.4678248  69.5572913  74.5517555  78.7799850
  70.8927437  74.2064128  78.8323218  71.4328542  74.1183671  79.6812201
  71.3407536  74.0126504  77.6006773  72.3603747  73.6676121  77.4291537
  70.3690281  74.3045752  76.7519497  69.2570912  74.6920412  77.4640561
  68.3636470  75.0293349  76.9386119  67.8069743  74.5831409  82.1490661
  66.5873283  74.4954312  81.9077866  68.3012669  75.2010695  83.2038662
  69.2982545  75.3011830  83.3307222  67.4155326  75.6275150  84.2923541
  66.6604241  74.8602060  84.4630794  68.1979110  75.8520150  85.6070764
  69.2257558  76.0630479  85.3119502  67.7867320  76.7144367  86.1317294
  68.1728110  74.6148820  86.5460321  67.1549160  74.3987694  87.2515859
  69.1913005  73.8951591  86.5982254  66.5659192  76.8656936  83.8991760
  66.9215529  77.6301570  82.9752181  65.4290546  77.0112090  84.5741947
  65.2714764  76.5023984  85.4323207  64.3220996  77.7665540  84.0067491
  64.2102569  77.5337935  82.9477813  63.0328121  77.3985949  84.7239123
  62.8606521  78.0607768  85.5724259  62.2452716  77.5440844  83.9845120
  63.0213757  75.9324802  85.2054036  64.1114320  75.3979100  85.5327599
  61.9222194  75.3442104  85.3191537  64.5945906  79.2903596  83.9576145
  65.3881268  79.8776886  84.7318670  63.9563232  79.9052806  82.9818235
  63.5039202  79.2982995  82.3132393  64.0211461  81.3614225  82.6817693
  63.3771201  81.5745552  81.8285964  63.5598552  82.2329216  83.8817661
  64.0551025  81.9230816  84.8019990  63.8830809  83.2396704  83.6170360
  61.9873640  82.2222009  84.0981326  61.2858649  81.5057423  83.3600837
  61.4698048  82.8686714  85.0623221  65.3607870  81.8165061  82.0981272
  65.5068155  82.9763398  81.7197909  66.2966863  80.8699040  81.9352189
  66.0931710  79.9267462  82.2337726  67.6231108  81.1564381  81.4120037
  68.0919700  81.9459103  81.9993739  68.5092368  79.8945183  81.4853736
  69.5188883  80.1750412  81.1853568  68.5202886  79.5514119  82.5199054
  68.0438276  78.8605553  80.6539569  68.6245819  78.1002669  80.7332391
  67.5893928  81.6975486  79.9651521  66.5560448  81.6442922  79.2696259
  68.7163460  82.2968038  79.5425985  69.4267881  82.5668595  80.2077612
  68.8806980  82.7017385  78.1562896  67.9771068  82.4367752  77.6072754
  69.1227282  84.1909539  78.0014447  69.8432451  84.5720892  78.7251093
  69.4444428  84.4569644  76.9945494  67.5906516  85.1000607  78.2940282
  68.1064984  86.3096318  78.0946842  69.9461565  81.8813931  77.4881066
  71.1157190  81.9239843  77.8555445  69.5134057  81.1237742  76.4880440
  68.5429811  81.1859827  76.2150869  70.3718231  80.2012693  75.7700772
  71.3847887  80.2375097  76.1709345  69.8382636  78.7861923  75.9253360
  68.9714576  78.7085436  75.2690456  70.6233255  78.1187212  75.5700049
  69.4440157  78.3963106  77.3251453  68.8449164  79.1114028  77.8889041
  68.8619373  77.4908463  77.1536195  70.6430595  78.0447410  78.1277546
  70.8043600  76.9051437  78.5618711  71.5782055  78.9531673  78.1741745
  72.4211977  78.7792081  78.7025719  71.4548288  79.8261783  77.6814970
  70.4140443  80.5698048  74.2795897  69.4727751  81.1414942  73.7246668
  71.4877794  80.1598045  73.6368723  72.3476371  80.0098519  74.1450634
  71.5358619  80.1550528  72.1914659  70.6054219  80.4633963  71.7147010
  72.6694845  81.0463603  71.6746897  73.2569712  81.3699328  72.5339100
  73.5794788  80.3296098  70.6761432  72.9927472  80.0061255  69.8163729
  74.3636387  81.0103726  70.3448491  74.0315450  79.4607585  71.1545105
  72.0670352  82.3383670  71.0999423  71.5152559  82.8614008  71.8810168
  72.8669672  82.9794196  70.7294563  71.3910466  82.0918041  70.2811951
  71.4846571  78.7131892  71.6833799  72.2686266  77.8533617  72.0947333
  70.4750229  78.4253605  70.8889471  69.7477822  79.1071903  70.7266868
  70.3475266  77.1038800  70.2523289  71.2144031  76.4898755  70.4965068
  69.0996510  76.4411344  70.7755590  68.2364410  76.8909616  70.2850242
  69.1125867  74.9513688  70.5071485  69.9753197  74.5007393  70.9977863
  68.1985315  74.5034689  70.8970069  69.1732378  74.7756818  69.4331119
  68.9999209  76.6547313  72.2759763  69.8555933  76.1610086  72.7365882
  69.0573627  77.7274559  72.4605345  67.7150276  76.1056729  72.8757565
  67.6570981  75.0328384  72.6919901  67.7067514  76.2907521  73.9498963
  66.8588669  76.5992845  72.4159343  70.2946981  77.2033733  68.7149066
  69.6339379  78.0630814  68.1777856  71.0622434  76.3498170  68.0050857
  71.8569342  75.2423532  68.5684698  71.4039195  74.8865996  69.4938440
  72.8761508  75.5735931  68.7674086  71.7908783  74.2319484  67.4728450
  70.8815997  73.6359459  67.5508998  72.6594790  73.5740568  67.5013524
  71.7928025  75.0639239  66.2326265  71.3889898  74.4808589  65.4049373
  72.7719850  75.4554328  65.9569054  70.8657830  76.1918707  66.5600956
  71.0866683  77.1541770  66.0982791  69.4713598  75.7553312  66.1713654
  68.8960653  74.9627785  66.8680479  68.9425299  76.2607642  65.0735301
  69.4584345  76.9559856  64.5533291  67.6748741  75.7671979  64.5115256
  67.2113014  75.0056440  65.1386103  66.6717531  76.9307885  64.3233794
  67.0923858  77.6547335  63.6254746  65.3470147  76.4045209  63.7738328
  64.9255168  75.6808137  64.4714633  64.6509209  77.2335691  63.6464236
  65.5180773  75.9231579  62.8109576  66.4381652  77.7026767  65.6202215
  67.3819743  78.1214690  65.9694198  65.7276439  78.5094940  65.4404860
  66.0379191  77.0287844  66.3776995  67.9037725  75.2554898  63.1531584
  68.2709787  76.0763636  62.3127046  67.6061971  73.9645612  62.8907228
  67.2644972  73.3330335  63.6010137  67.7648652  73.4418562  61.4867182
  68.7261764  73.8009592  61.1192609  67.7185114  71.9170691  61.3290293
  66.6976797  71.7854894  60.9702973  68.4171557  71.7175233  60.5165162
  67.9821068  70.9501531  62.4726695  67.3749341  71.2553490  63.3249005
  67.6381341  69.5071819  62.0918772  68.2452833  69.2010982  61.2399492
  67.8412134  68.8495523  62.9370889  66.5827436  69.4424407  61.8271888
  69.4268496  71.0132338  62.9248774  69.6580512  72.0228360  63.2645075
  69.5829500  70.3104556  63.7433130  70.0803584  70.7518544  62.0925877
  66.7064725  73.9023777  60.5473765  65.5481819  73.7661933  60.8393453
  67.1060046  74.2644624  59.3755067  68.3092985  73.6731933  58.7959492
  68.1338308  72.6242752  58.5570306  69.1403393  73.7515370  59.4969003
  68.5153486  74.5311005  57.5512390  68.6704770  73.8788169  56.6918437
  69.3950133  75.1587700  57.6937954  67.2503536  75.3889174  57.3839108
  66.8818313  75.2681054  56.3652377  67.3979904  76.4484252  57.5930666
  66.2514918  74.7998847  58.3683648  65.6050514  75.5441271  58.8334630
  65.3691330  73.6939630  57.6865143  65.7039515  72.4502708  57.6277568
  64.2113729  74.1049549  57.2605953  63.9399186  75.0770433  57.2987549
  63.3002271  73.1466204  56.5905488  62.6335456  73.7075334  55.9355589
  64.0395345  72.0849151  55.7494356  64.4396588  71.3948200  56.4922468
  63.2435401  71.5938839  55.1896309  65.1381107  72.4966806  54.8035997
  64.8980276  73.4475056  54.3277922  66.0565274  72.6016857  55.3811694
  65.3638888  71.4460891  53.7117074  66.4805936  70.9472501  53.5190414
  64.2828724  71.0803053  53.0102348  64.3698414  70.3911352  52.2770346
  63.3857785  71.4953514  53.2177453  62.5449297  72.2926554  57.5575579
  61.7003477  71.5108377  57.0991811  62.9011109  72.2573711  58.8360992
  63.6870384  72.7575599  59.2262639  62.1145063  71.4309638  59.7136129
  61.7133368  70.5941620  59.1418395  62.9066513  70.8720255  60.9174075
  63.0008640  71.6467049  61.6783904  62.1799770  69.6783649  61.5001139
  62.0857838  68.9030267  60.7397986  62.7426554  69.2883427  62.3482743
  61.1876036  69.9831731  61.8323617  64.2972206  70.4551251  60.4873340
  64.8273299  71.3179294  60.0840290  64.8418338  70.0638192  61.3466219
  64.2250033  69.6830709  59.7212936  61.0157996  72.3101361  60.1784565
  61.2813437  73.3564527  60.7237207  59.7889009  71.9556946  59.8807892
  59.6005693  71.1174593  59.3497599  58.6717712  72.7640908  60.3006734
  59.0232237  73.4923243  61.0316019  58.0054904  73.5250323  59.1232411
  58.5421842  73.2476593  58.2159797  56.9751000  73.1758596  59.0563524
  58.0187635  75.0453046  59.2778823  56.9714820  75.3441464  59.2332056
  58.4048569  75.2250266  60.2812436  58.9783286  76.0365715  58.0781761
  60.5142645  75.1323096  57.8264293  60.2920807  74.1396595  57.4347930
  61.1412087  75.6707771  57.1157293  61.0408990  75.0381466  58.7761085
  57.6835378  71.8585643  60.9174038  57.1332077  71.0249519  60.2634021
  57.5104295  71.9889693  62.2193047  57.9572085  72.7560010  62.7011244
  56.7040478  71.0885845  62.9807400  55.7119818  71.0346967  62.5324093
  57.3054352  69.6632265  63.0236657  56.6009346  69.0153422  62.5021064
  58.2406560  69.7060688  62.4654304  57.5736170  69.1012853  64.4304321
  58.5359274  69.4887890  64.7649473  56.7863032  69.4667951  65.0897055
  57.6074176  67.2900403  64.4898657  56.3389120  66.9931736  65.7043114
  55.3938067  67.4061265  65.3516858  56.2297952  65.9201206  65.8616375
  56.6157043  67.4713338  66.6439124  56.6926309  71.7162226  64.3568851
  57.6460892  72.4340438  64.7264170  55.5902608  71.5918822  65.0749614
  54.7506474  71.1574570  64.7194006  55.5399699  72.2121181  66.3662534
  56.4027975  72.8737724  66.4426823  54.2668624  73.0184319  66.5476767
  53.4006609  72.3571051  66.5266477  54.3306196  73.7129500  67.8684510
  55.1963672  74.3748523  67.8900669  53.4228545  74.2979825  68.0161002
  54.4192335  72.9735804  68.6644280  54.1582139  74.0931389  65.4235965
  53.5944906  74.9224603  65.8508468  55.1777786  74.4170107  65.2145647
  53.4845298  73.6350571  64.1111325  52.4647043  73.3114526  64.3193055
  53.4648550  74.4640251  63.4036552  54.0479915  72.8060009  63.6830244
  55.7404924  71.0963633  67.3361415  54.9566998  70.1467273  67.3432651
  56.8595502  71.1133170  68.0397267  57.3957804  71.9626754  68.1453060
  57.3631705  69.8945267  68.6659151  56.8903474  69.0141121  68.2307054
  58.8573321  69.8088229  68.4287211  58.8979625  70.1374805  67.3902451
  59.3461506  70.5485187  69.0627610  59.5734396  68.4692531  68.5660378
  60.0340417  68.1961994  67.6166232  60.6568160  68.5993288  69.6396248
  60.1968959  68.8719303  70.5894989  61.1773720  67.6478605  69.7483924
  61.3687138  69.3709511  69.3465362  58.6373486  67.2774555  68.8341537
  57.9296974  67.1782553  68.0110568  59.2261836  66.3640728  68.9184553
  58.0922348  67.4447472  69.7631119  57.0555880  69.9219023  70.1665385
  57.1279943  70.9977674  70.7963644  56.6468951  68.7901982  70.7240623
  56.7119511  67.9134341  70.2269186  56.1443189  68.7736101  72.0845799
  56.0546069  69.7893383  72.4697386  54.8119454  68.0769969  72.1904934
  54.9209964  67.0323469  71.8990922  54.3181095  68.1535712  73.6311570
  54.2083645  69.1979848  73.9231449  53.3543918  67.6508705  73.7126493
  55.0380701  67.6666740  74.2889465  53.7920798  68.6864901  71.2252079
  53.2422131  69.4601337  71.7611398  54.3398297  69.1377378  70.3978960
  52.8134528  67.6519573  70.6819253  52.2649653  67.2005764  71.5086759
  52.1119627  68.1362273  70.0025923  53.3625826  66.8781788  70.1454337
  57.0903485  67.9984151  72.9713277  57.5732041  66.9380090  72.5855515
  57.3761074  68.5412207  74.1585522  57.2165113  69.9456365  74.5257105
  56.1608882  70.2144293  74.4868449  57.7757648  70.5699514  73.8288852
  57.7795799  70.0012549  75.9307835  57.1392797  70.6233925  76.5561311
  58.7835937  70.4248047  75.9050286  57.8092391  68.5813937  76.4180858
  56.8392788  68.2777863  76.8119114  58.5794348  68.3938030  77.1662220
  58.1133800  67.8156074  75.1693170  59.1717317  67.8785278  74.9162734
  57.7050077  66.3599642  75.2720349  56.5016971  66.0474932  75.3753951
  58.6912399  65.4662411  75.1820403  59.6395176  65.7793931  75.0310282
  58.4457214  64.0304276  75.2956411  59.3289686  63.5781371  75.7466477
  57.5898249  63.8921073  75.9562529  58.1649819  63.3523295  73.9820136
  58.2906773  62.1300243  73.8843315  57.7589948  64.1336404  72.9690843
  57.6847164  65.1312724  73.1080533  57.4526904  63.5960533  71.6526133
  56.7584183  62.7621542  71.7560436  56.8184153  64.6481294  70.7563237
  55.8602234  64.9433739  71.1838727  57.4776489  65.5149532  70.7101994
  56.6035589  64.1095246  69.3727318  57.5481016  64.1850387  68.8339948
  56.2976504  63.0645871  69.4239917  55.5702221  64.8701247  68.6270988
  54.7052022  64.2685147  67.9378942  55.6438498  66.2058382  68.7189598
  54.9691425  66.7802534  68.2342757  56.3736786  66.6314367  69.2724190
  58.7331481  63.1591018  70.9997768  59.7504417  63.7824666  71.1825227
  58.6817349  62.1144595  70.1942682  57.8750881  61.5084284  70.1479369
  59.8519131  61.7311133  69.4909349  60.7207918  62.2241604  69.9268862
  60.0758759  60.2401342  69.5258907  59.5742565  59.8265161  70.4007612
  59.5117878  59.5783934  68.2481937  60.0132886  59.9911997  67.3728723
  59.6819619  58.5025769  68.2901310  58.4417127  59.7740372  68.1791759
  61.4796830  59.9933423  69.6313346  61.6372794  59.0466533  69.6546516
  59.8508588  62.3053331  68.0677025  58.8180497  62.4296905  67.4424901
  61.0301011  62.7008023  67.5874935  61.8557887  62.5769397  68.1558220
  61.1823898  63.3132623  66.2655408  60.2474718  63.2092240  65.7149016
  61.5339211  64.8132533  66.3617006  60.5787673  65.2612394  66.6357239
  62.2487009  64.9590785  67.1715926  62.0708309  65.4889862  65.0695513
  62.9462027  64.9314935  64.7363442  61.0242841  65.5175957  63.9458385
  60.1487450  66.0753519  64.2781607  61.4489295  65.9997675  63.0653345
  60.7313771  64.4980001  63.6953776  62.5816147  66.8944689  65.3529030
  63.3908634  66.8474816  66.0816062  62.9504770  67.3406331  64.4293342
  61.7698220  67.5032596  65.7509802  62.3079529  62.6078137  65.4861184
  63.4654003  62.7300711  65.8506368  61.9630172  61.9381267  64.3666303
  60.6480051  61.6052714  63.8128320  60.2079600  62.4976726  63.3677693
  60.0018061  61.2420135  64.6119375  60.9584166  60.5225189  62.7752340
  60.8952558  60.9383861  61.7696674  60.2520618  59.6980060  62.8718918
  62.3228031  60.0827601  63.0884586  62.7870772  59.7409394  62.1634142
  62.4308737  59.3145043  63.8540978  62.9777884  61.3656030  63.5488002
  63.8692639  61.1900641  64.1509263  63.3250783  62.3341696  62.3776211
  62.4535761  63.1198459  61.9060296  64.5980413  62.3209156  61.9659675
  65.2682820  61.7055167  62.4043291  65.0632359  63.2213016  60.9553869
  64.2407840  63.6272027  60.3663909  65.7357354  64.3383239  61.6635406
  66.0259527  63.9593932  62.6434817  66.6129982  64.7376789  61.1545951
  64.7140550  65.4286511  61.8306535  63.7682349  64.9742948  62.1257561
  65.1457254  66.4408983  62.8918008  66.0913059  66.8960424  62.5971484
  64.3844758  67.2151911  62.9870400  65.2696183  65.9342296  63.8488994
  64.4815516  66.0609931  60.4284471  64.1178244  65.2975023  59.7407816
  63.7437967  66.8595020  60.5072030  65.4198952  66.4696640  60.0534827
  65.9849944  62.5546656  59.9307803  66.5942563  61.5119118  60.2152510
  66.0233544  63.1014913  58.7161746  65.2813422  63.7204117  58.4221426
  67.0085939  62.6989914  57.7373421  67.8896324  62.3526854  58.2776591
  66.5554243  61.6027359  56.7984134  65.5079979  61.7869066  56.5595026
  67.1536072  61.6796619  55.8904708  66.7034969  60.2062943  57.3864717
  67.7262288  60.1125173  57.7516102  66.0081168  60.0525398  58.2116432
  66.4598068  59.1263427  56.3355494  67.3137176  58.8795159  55.4714326
  65.2933293  58.5157473  56.3698361  65.0847052  57.7937071  55.6951247
  64.6128475  58.7723807  57.0706820  67.5291600  63.8904147  57.0103603
  66.7793759  64.6999452  56.4297657  68.8415897  64.0644442  57.1443268
  69.3991199  63.3888646  57.6471704  69.4876990  65.3055720  56.6964245
  68.7441142  66.0004219  56.3060856  70.1913841  65.9578065  57.8687826
  70.9799469  65.2868007  58.2093986  70.6270882  66.9166633  57.5879701
  69.1778970  66.1689443  58.9980233  68.6322428  65.2353480  59.1349915
  69.8258079  66.5659922  60.2967540  70.3713055  67.4998103  60.1606840
  69.0589613  66.7015848  61.0594214  70.5171690  65.7846098  60.6122880
  68.1803408  67.2400756  58.5806343  67.6603191  66.9208468  57.6774345
  67.4563764  67.3946226  59.3806918  68.7089244  68.1729247  58.3844432
  70.3958467  65.0649898  55.4981575  71.1212161  64.0643179  55.4174663
  70.2718924  65.9412968  54.5020584  69.7515270  66.7969017  54.6334330
  70.9002455  65.7016524  53.1953660  71.4104340  64.7384880  53.1843509
  69.8298349  65.6901396  52.1407453  69.1609334  66.5487106  52.2001250
  70.3354792  65.6902524  51.1751244  68.9758032  64.4866548  52.1700544
  68.4341817  64.0163051  53.3718462  68.6429823  64.5573308  54.2947727
  67.6503098  62.8912627  53.3988332  67.2326915  62.5238446  54.3362230
  67.3887941  62.2130922  52.2028001  66.8265642  61.2798768  52.2360630
  67.8399122  62.7188942  50.9701173  67.5744255  62.2363008  50.0295214
  68.6348891  63.8509477  50.9664224  69.0018393  64.2561435  50.0234145
  71.9129506  66.8107854  52.8375961  73.0347276  66.5241358  52.3510118
  71.5475318  68.0425252  53.1674583  70.6364715  68.2370255  53.5576354
  72.4126650  69.1620141  52.8500530  72.8942242  68.9918887  51.8871111
  71.6264089  70.4372206  52.7741411  71.2727044  71.0493382  53.6037823
  72.4304581  70.9590786  52.2552297  70.5039614  70.3319388  51.8175486
  69.2821222  69.8414826  52.2130937  69.0188871  69.6627519  53.1716668
  68.5248812  69.6467087  51.1530682  67.4874202  69.3285482  51.2557695
  69.2502167  69.9021857  50.0801326  70.5123529  70.2722866  50.4715181
  71.2839660  70.4530649  49.7231642  73.5505472  69.2402221  53.8183411
  73.3782292  69.0287362  55.0275169  74.7663162  69.4684481  53.2747167
  75.0586223  69.9910438  51.9395901  74.3590551  70.7911129  51.6975250
  74.9645686  69.1920157  51.2041943  76.4639236  70.4789552  52.0737725
  76.4660245  71.5340488  52.3474002  76.9939656  70.3477321  51.1304076
  77.0672288  69.6395066  53.1428319  77.8800690  70.1975330  53.6075860
  77.4314752  68.6610656  52.8296588  75.9306436  69.4764256  54.1229950
  76.0008695  68.5232209  54.6469868  75.8260243  70.5982634  55.1309974
  76.3927689  70.4160103  56.2172466  75.0572475  71.6847984  54.8292016
  74.7353408  71.8463280  53.8856002  74.7365146  72.6885612  55.8576299
  75.6825586  73.1656741  56.1134879  73.7074267  73.7878740  55.5084431
  73.0284133  73.8413931  56.3594283  74.2750291  74.7157765  55.4382674
  72.9352891  73.5944886  54.2799357  72.5238076  72.5864799  54.3319184
  72.1270623  74.3086016  54.1220938  73.8657588  73.6681632  53.1252392
  73.9806517  72.7258827  52.3539700  74.6345169  74.7632309  53.0527429
  75.2869676  74.8688214  52.2890281  74.5580263  75.4780767  53.7621413
  74.2398661  72.0450791  57.1263288  74.8899927  72.1657724  58.1699061
  73.0865493  71.3628796  57.0260582  72.5788313  71.3985435  56.1536765
  72.4855728  70.6424780  58.1498948  72.2875425  71.3304185  58.9718565
  71.1580671  70.0029239  57.7142056  71.4152727  69.1969345  57.0269462
  70.7084656  69.5829046  58.6139514  70.1421056  70.9674563  57.0271448
  69.6173781  71.4915999  57.8259159  70.7350497  71.6801411  56.4539110
  69.1001676  70.2776526  56.0835628  69.2198748  69.0575911  55.7489671
  68.1404686  70.9822501  55.6774813  73.4703805  69.6002794  58.7133296
  73.7304719  69.5825062  59.9018538  74.0313572  68.7822553  57.8292794
  73.8462434  68.9485868  56.8504198  74.8998876  67.6699220  58.1883525
  74.4499338  66.8853035  58.7966409  75.3521725  67.0664025  56.8794436
  75.5907525  67.8793508  56.1936638  76.5710886  66.1776659  57.0539624
  76.3331237  65.3641638  57.7393002  76.8617621  65.7649204  56.0879135
  77.3945390  66.7650900  57.4601201  74.1946922  66.3324162  56.2540313
  73.3761356  67.0294317  56.0744863  74.5109901  65.8928233  55.3080855
  73.8583005  65.5431871  56.9263846  76.1385408  68.0989041  59.0066181
  76.6526340  67.3388798  59.8599762  76.5948514  69.3296619  58.7711656
  76.2112373  69.8716564  58.0101258  77.6470017  69.9348653  59.5946955
  78.4904965  69.2510414  59.6895668  78.1462422  71.2522277  58.9257528
  78.4214273  71.0092913  57.8994224  77.3087811  71.9498952  58.9213897
  79.2675455  71.8546550  59.5920849  79.5211996  72.6569095  59.1298652
  77.1488744  70.2715964  60.9708605  77.7601397  69.8820162  61.9991149
  76.0461658  71.0063239  61.0014442  75.6476233  71.2843628  60.1160304
  75.4645422  71.5141360  62.1885229  76.0941714  72.2483470  62.6911166
  74.1833368  72.2166809  61.6993969  74.2893768  73.2585024  62.0018248
  74.2121190  72.1498669  60.6118273  72.8731389  71.6822390  62.1984792
  72.0992694  71.8643386  61.4527805  72.9620273  70.6102708  62.3747888
  72.4187738  72.4957359  63.7301215  73.8391927  73.5812150  64.0926878
  73.9731454  74.2902418  63.2757198  73.6541354  74.1254801  65.0187709
  74.7402891  72.9774805  64.2005353  75.2573189  70.4099665  63.2628145
  75.4996384  70.6218693  64.4300049  74.8390809  69.2372174  62.8232118
  74.7953866  69.1305778  61.8198085  74.5598981  68.0914274  63.6423493
  73.9419675  68.2852977  64.5190906  73.8451478  67.0640638  62.7566508
  74.4424837  66.8935608  61.8609846  73.6604600  65.7459090  63.5030209
  73.0627870  65.9155384  64.3986290  73.1514216  65.0303699  62.8572778
  74.6350667  65.3489460  63.7870347  72.5275476  67.6173734  62.2503712
  72.7120240  68.5184903  61.6655132  72.0367371  66.8724618  61.6240236
  71.8852410  67.8595415  63.0970693  75.8325926  67.3750527  64.1052208
  76.0184678  67.0865264  65.3034232  76.6987371  67.0788823  63.1341622
  76.4518080  67.2750364  62.1746577  77.9485464  66.3700922  63.3964926
  77.7195734  65.3658845  63.7531963  78.8307819  66.2555203  62.1248229
  78.1700184  66.4391825  61.2776163  79.5669467  67.0566231  62.1911221
  79.5623279  64.8930265  61.9270603  80.4725494  64.9185993  62.5261793
  78.9038053  64.1090099  62.3009160  79.9245042  64.6016734  60.4519601
  79.6634906  65.4793789  59.8606869  80.9998724  64.4328671  60.3955047
  79.2295805  63.4248037  59.8855542  78.6750869  62.8677510  60.5198479
  79.2804159  63.0647745  58.5953198  79.9853812  63.7832699  57.7157958
  80.4847818  64.6050723  58.0245672  80.0154210  63.5010721  56.7464860
  78.6353307  61.9732689  58.1778504  78.1082647  61.4187274  58.8372328
  78.6772511  61.7069247  57.2045046  78.6927963  67.0386638  64.5630542
  79.1845514  66.3412726  65.4775034  78.7182137  68.3699721  64.5580267
  78.3766386  68.8707660  63.7501708  79.2938840  69.1402399  65.6581745
  80.1863754  68.6474717  66.0438399  79.6761409  70.4974723  65.1558789
  78.7594282  70.9094879  64.7340019  80.0464044  71.1613493  65.9370782
  80.7255585  70.4112979  64.0513191  80.3936835  70.1592783  62.8892708
  82.0101278  70.5119703  64.4303336  82.7433273  70.4611669  63.7375585
  82.2370719  70.6380222  65.4064012  78.3957502  69.2865401  66.8861000
  78.8740987  69.4086453  68.0045391  77.0907200  69.2926669  66.6595594
  76.7473574  69.2762722  65.7098580  76.1163602  69.3377327  67.7479205
  76.2740779  70.2452883  68.3306445  74.7132761  69.3355550  67.2389291
  74.6986788  69.7485402  66.2303016  74.2623471  68.3432326  67.2312311
  73.9270308  70.2400758  68.1661343  74.0329015  69.8588346  69.1817855
  74.4149806  71.6861962  68.1121477  74.3089816  72.0683027  67.0968361
  73.8214435  72.2961366  68.7931670  75.4632798  71.7277637  68.4078525
  72.4732185  70.1546051  67.7838509  72.1302808  69.1249331  67.8851850
  71.8863187  70.7986023  68.4387688  72.3490943  70.4783163  66.7504568
  76.2905448  68.1417183  68.6671557  76.1809269  68.2785235  69.8840095
  76.5962561  66.9891661  68.0851857  76.6007661  66.9045466  67.0787472
  76.8058355  65.8002547  68.8715497  75.9166541  65.6519720  69.4843040
  77.0401600  64.6142593  68.0626888  77.9861565  64.6942839  67.5271637
  77.0952472  63.4248437  69.0167129  76.1493641  63.3438890  69.5522987
  77.2701470  62.5109018  68.4490677  77.9056398  63.5688079  69.7313018
  75.9038694  64.4567787  67.0777474  75.5891364  65.4498060  66.7569037
  76.2717063  63.8972347  66.2176858  74.7359043  63.7331661  67.6827791
  74.3672033  64.2923865  68.5426814  73.9415292  63.6411688  66.9421011
  75.0497740  62.7398153  68.0034658  77.9142681  65.9498313  69.8988992
  77.8135155  65.4213580  70.9977235  78.9715632  66.6258334  69.5215744
  79.0665700  67.0198609  68.5964714  80.0704072  66.7504825  70.4274345
  80.3970572  65.7674870  70.7667260  81.2228889  67.4250757  69.7218376
  81.0135509  68.4933789  69.6670175  82.1269792  67.2621574  70.3085049
  81.4232517  66.8775924  68.3232727  80.6373406  67.2928400  67.6923892
  82.3966246  67.1765130  67.9343076  81.3293408  65.3725022  68.2824912
  80.9203479  64.7944450  67.2841998  81.6759081  64.7344538  69.3875733
  81.6332724  63.7258491  69.4191986  81.9816638  65.2586438  70.1949392
  79.7078089  67.4883859  71.6669150  80.0889893  67.0820782  72.7499245
  78.9544843  68.5619287  71.5270403  78.7099105  68.9322051  70.6197485
  78.6019716  69.3310889  72.6986807  79.3340419  69.0354169  73.4501794
  78.7632218  70.8279941  72.4209681  79.7678146  71.0221978  72.0452322
  78.0307609  71.1409829  71.6768988  78.5432068  71.6109027  73.7110348
  77.5385917  71.4175520  74.0871528  79.2756461  71.2987698  74.4554861
  78.7038267  73.1019768  73.4344045  79.7084185  73.2961814  73.0586668
  77.9713645  73.4149647  72.6903366  78.4838136  73.8848847  74.7244725
  77.4791991  73.6915338  75.1005918  79.2162546  73.5727528  75.4689207
  78.6386388  75.3221820  74.4578181  77.9597485  75.6117031  73.7683362
  78.4929265  75.8406986  75.3122234  79.5696114  75.5016195  74.1096926
  77.2339239  68.9935125  73.2722169  77.0328624  67.9203472  73.8143639
  76.3052782  69.9235932  73.1439664  76.5697605  70.7646155  72.6511887
  74.9579705  69.8303033  73.6699322  74.9717223  69.6682267  74.7477268
  74.2424174  71.1430300  73.3845845  74.6942653  71.5692742  72.4889012
  73.1910655  70.9280482  73.1934252  74.3543783  72.1202016  74.5128480
  74.3906848  71.6754120  75.6734208  74.3918311  73.3345926  74.2412956
  74.0510230  68.7462925  73.1601755  73.2072176  68.2409295  73.8771787
  74.1688103  68.4291339  71.8967284  74.8813306  68.8280630  71.3023633
  73.1896426  67.5089639  71.2922752  73.5064708  67.2990033  70.2706903
  73.0439435  66.1664922  72.0511181  72.5820236  66.4225917  73.0046077
  72.3473767  65.5738703  71.4580801  74.2878408  65.3742394  72.2971688
  74.9034930  65.3901335  71.3978243  74.8392781  65.8248981  73.1223511
  73.9411916  63.9458546  72.6443663  73.4460504  63.4857786  71.7892264
  74.8607551  63.4041393  72.8658318  73.0578024  63.8567847  73.7984235
  72.0737807  63.9921262  73.6154389  73.4463191  63.6075028  75.0580855
  74.7332404  63.4415987  75.3772883  75.4405663  63.5034527  74.6589818
  74.9927387  63.2551042  76.3354010  72.5351824  63.5282853  76.0196771
  71.5582708  63.6558427  75.7972520  72.8228436  63.3408041  76.9695195
  71.7549784  68.0276300  71.1190209  70.8897743  67.3154499  70.6152974
  71.4947284  69.2577764  71.5598335  72.2439485  69.8055714  71.9581915
  70.1621952  69.8578693  71.4816734  69.4675372  69.1169502  71.0859610
  69.5661154  70.4427891  72.8256260  68.7544702  71.1206816  72.5614399
  69.0472402  69.3764332  73.7499433  69.8584799  68.6983792  74.0149577
  68.6514913  69.8394842  74.6538602  68.2550597  68.8172868  73.2520418
  70.5314382  71.2239810  73.5204585  70.1441799  71.5655590  74.3297519
  70.1585633  71.0091810  70.5341639  71.0750027  71.8760513  70.5525094
  69.1170862  71.0094572  69.7137010  68.4516338  70.2528798  69.7834361
  68.8665331  72.0568069  68.7463967  69.5856337  72.8626397  68.8934579
  68.9962328  71.5490178  67.3400787  68.7013465  72.3664657  66.6821120
  70.0035831  71.2216094  67.0828841  68.1038229  70.4297265  67.0424068
  68.2519888  69.2269593  67.7113553  68.9222867  69.1662321  68.5687425
  67.5691684  68.1284287  67.3057054  67.7230026  67.1663627  67.7944433
  66.6759138  68.2364409  66.2674720  66.1325845  67.3537245  65.9302703
  66.4652998  69.4500200  65.6539792  65.7266236  69.5413118  64.8576605
  67.1828773  70.5384204  66.0445187  67.0215115  71.5006432  65.5585265
  67.4418182  72.5273515  68.9505179  66.7115468  71.9194019  69.7185016
  67.0650859  73.5702314  68.2307026  67.6469105  73.8730941  67.4626833
  65.8548337  74.3116606  68.5078191  65.3817416  73.9938765  69.4369565
  66.2300658  75.7621105  68.6314190  66.6968103  76.0973949  67.7052257
  65.3351355  76.3545054  68.8218616  66.9307109  75.8876142  69.4569155
  64.8174125  74.1128888  67.3672697  65.1483864  74.1809669  66.1649874
  63.5757360  73.8473534  67.7617572  63.3493930  73.7825098  68.7439301
  62.5194858  73.6734075  66.8078388  62.8252722  73.7272973  65.7629993
  61.9333784  72.3333359  67.0620871  61.5659001  72.2834424  68.0870601
  60.7915715  72.1011318  66.1079349  61.1583853  72.1504195  65.0826938
  60.3583145  71.1179058  66.2913893  60.0304321  72.8667711  66.2581512
  63.0366719  71.2843349  66.9499689  63.8133138  71.4930559  67.6857440
  62.6182136  70.2949832  67.1348348  63.4674167  71.3148654  65.9491554
  61.4913057  74.7467322  67.0418148  61.0977111  74.9850309  68.1956424
  61.0040444  75.3721707  65.9620551  61.3052670  75.0963649  65.0383151
  60.1783553  76.5678624  66.0920228  60.0970443  76.8398612  67.1444032
  60.7919875  77.7585323  65.3199952  60.7570714  77.4331181  64.2802906
  60.1533645  78.6324926  65.4482690  62.2646909  78.1282363  65.7015679
  62.9017196  77.2804160  65.4495839  62.7564833  79.3640703  64.9724036
  62.1201821  80.2124712  65.2242678  63.7824930  79.5787114  65.2712917
  62.7206767  79.1903568  63.8969308  62.5135749  78.3418863  67.1834071
  62.2718190  77.4293042  67.7282441  63.5620170  78.5932131  67.3437360
  61.8858882  79.1568003  67.5439947  58.7051930  76.3173954  65.7350130
  58.4027040  75.6956502  64.7583844  57.8301709  76.8947326  66.5361998
  58.1412749  77.2024558  67.4464854  56.4506906  77.0821862  66.1896393
  56.0478207  76.2497590  65.6126992  55.6348951  77.2393816  67.4375822
  56.0205794  78.0750406  68.0215529  54.5956797  77.4320098  67.1710755
  55.6944546  76.3255476  68.0287330  56.3571556  78.3482893  65.2860315
  56.8660228  79.4443318  65.6095589  55.8551098  78.1314438  64.0985728
  55.7229438  77.1854568  63.7703350  55.4438850  79.2184308  63.2396035
  55.7404260  80.1803847  63.6577031  56.1382084  79.0390134  61.8777057
  56.0285586  78.0326971  61.4734735  55.5228253  79.7303279  61.3019558
  57.5972662  79.4647662  61.7895314  58.6392213  78.5678542  62.0601540
  58.4032333  77.5627358  62.4096481  59.9570895  78.9479903  61.8875189
  60.7721278  78.2576947  62.1050197  60.2361358  80.2264244  61.4022938
  61.5217483  80.6647857  61.2749951  62.1696669  80.0115064  61.5489063
  59.2254112  81.0943182  61.0614173  59.4502395  82.0817516  60.6582696
  57.9206674  80.7042966  61.2342053  57.1093064  81.3679525  60.9352834
  53.9065701  79.0836803  63.0846410  53.4421491  78.0559776  62.5600285
  53.1225481  80.1408186  63.3941409  53.3673552  80.7695153  64.1457453
  51.8492726  80.3918143  62.6439297  51.2373483  79.4905003  62.6797196
  51.0347398  81.5659575  63.2353053  50.4129410  81.1866228  64.0462126
  51.7281530  82.3099761  63.6273697  50.1966793  82.1726279  62.2308156
  49.7023571  82.8969975  62.6213716  52.2995040  80.6925505  61.1786610
  53.1638473  81.5288742  60.9992442  51.7116667  80.0937515  60.1619722
  50.9411061  79.4504267  60.2736362  52.2150787  80.3409410  58.8189269
  53.2432607  79.9881008  58.7386479  51.3753363  79.6325750  57.7693763
  51.4048052  78.5571990  57.9448682  50.3447781  79.9821783  57.8312407
  51.9001719  79.9112643  56.3681746  52.8834949  80.6294812  56.2017971
  51.2403107  79.3398579  55.3580747  51.5471481  79.4923485  54.4079709
  50.4372735  78.7576815  55.5486071  52.2178921  81.8131584  58.5565209
  52.9886375  82.3168630  57.7641686  51.3426491  82.5144254  59.2336135
  50.7027324  82.0743298  59.8793083  51.2669751  83.9440638  59.0639479
  51.0876798  84.1730498  58.0134633  50.1180026  84.5343166  59.8986507
  49.1742210  84.0876996  59.5857471  50.3566216  84.2355443  61.3749367
  51.3000651  84.6822683  61.6887089  49.5425443  84.6536821  61.9670004
  50.3980538  83.1568276  61.5257846  50.0601859  86.0436346  59.6883156
  49.8896649  86.2576999  58.6332323  49.2459932  86.4624925  60.2797104
  51.0035190  86.4910389  60.0014496  52.5602470  84.6240496  59.4930554
  52.8697810  85.7200579  59.0436118  53.3214254  83.9830475  60.3644306
  53.0535659  83.0815458  60.7327312  54.5161492  84.6179621  60.8970652
  54.1571364  85.5142286  61.4029460  55.1918840  83.7153248  61.9251962
  54.4706878  83.4346295  62.6927804  55.5647368  82.8176243  61.4320283
  56.3553746  84.4612571  62.5697882  57.0772614  84.7418955  61.8028316
  55.9832135  85.3588994  63.0635861  57.0573595  83.5928162  63.6039605
  56.6675439  82.4485590  63.8256787  58.0967876  84.1404008  64.2379667
  58.5979719  83.6069733  64.9339343  58.3772319  85.0855988  64.0187567
  55.5207155  85.0489355  59.8577777  56.0886616  86.1303361  59.9777854
  55.7499529  84.2369487  58.8401474  55.3054821  83.3339265  58.7559096
  56.7066048  84.6320131  57.8196150  56.8923193  83.7970683  57.1439846
  56.1882828  85.8127833  57.0044284  55.2585046  85.5328468  56.5092039
  56.0062573  86.6597183  57.6659931  57.2152048  86.1971029  55.9662425
  58.1451789  86.4776281  56.4607670  57.3974250  85.3507583  55.3039767
  56.6964033  87.3789707  55.1503006  56.9715956  88.5343444  55.5709933
  56.0298533  87.1151371  54.1141042  58.0258041  84.9918464  58.4763387
  58.6052678  86.0352596  58.1929244  58.4648825  84.1156727  59.3710140
  57.8108985  83.4017391  59.6585955  59.7346801  84.2237473  60.0903637
  59.9517347  83.1627491  60.2139334  60.7979086  84.8350583  59.2004485
  60.7827658  84.3456422  58.2266200  60.5992756  85.8994071  59.0747243
  62.1682217  84.6464082  59.8425369  62.1842811  85.1359832  60.8162716
  62.3677736  83.5822190  59.9681655  63.2382636  85.2616378  58.9469209
  63.2231203  84.7722238  57.9730916  63.0396305  86.3259866  58.8211990
  64.5845231  85.0972548  59.5393436  64.6657237  84.6223207  60.4270054
  65.6922964  85.5463708  58.9562195  65.6660700  86.1810824  57.7877359
  64.7845714  86.3329945  57.3187124  66.5277723  86.5082507  57.3747836
  66.8508615  85.3441753  59.5773031  66.8672746  84.8618269  60.4645295
  67.7089367  85.6739071  59.1588744  59.7911256  84.8731534  61.4569249
  60.8285760  84.7962423  62.1025653  58.7148470  85.4874710  61.9177688
  57.8580365  85.5597583  61.3879108  58.7513007  86.0623633  63.2435622
  59.7247598  86.4298075  63.5683101  57.7374037  87.1820997  63.3882804
  58.0341804  88.0246451  62.7636685  56.7556227  86.8266424  63.0754606
  57.6765668  87.6225928  64.8313206  57.3793848  86.7806366  65.4565354
  58.6579409  87.9786412  65.1447429  56.6563063  88.7493531  64.9769479
  55.4663681  88.4199395  65.2282152  57.0766125  89.9287363  64.8355334
  58.3965015  84.8988690  64.1307417  57.3147450  84.8461071  64.6791578
  59.2970857  83.9401497  64.2601689  60.1945330  83.9803706  63.7985739
  58.9997901  82.7659127  65.1218351  57.9838644  82.3957777  64.9840157
  59.9637449  81.6332488  64.8703103  60.9850739  81.9861131  65.0133974
  59.7597601  80.8203304  65.5671993  59.8439455  81.2736770  63.8483243
  59.1387393  83.2288642  66.5600959  60.0676004  84.0013194  66.8636877
  58.1958836  82.8384442  67.4226881  57.4717155  82.1936021  67.1400955
  58.0624909  83.5144196  68.7380678  58.9686142  84.0868936  68.9363435
  56.8361465  84.4883681  68.7784740  55.9714962  83.9337566  68.4139397
  56.6772069  84.7639758  69.8210087  57.0240039  85.7777926  67.9234506
  58.0890729  85.9515032  67.7699793  56.5534696  85.5427253  66.9687554
  56.3862069  87.0749276  68.4840455  56.7711697  88.1800865  68.0836403
  55.3802819  86.9365284  69.3540419  54.9368824  87.7563003  69.7432363
  55.0684553  86.0128501  69.6180188  58.1119436  82.5454373  69.9018236
  58.6648775  82.8754856  70.9532803  57.7677298  81.2896319  69.6480033
  57.3409536  81.0683497  68.7597491  57.9344699  80.1959624  70.6421189
  58.6902829  80.4949057  71.3683963  56.5978840  79.8679876  71.4118284
  55.9028077  79.2795509  70.8129040  56.8784116  79.3035555  72.3011094
  55.8214906  81.1024114  71.9008878  55.0536189  81.8819129  71.0164312
  55.0082730  81.5930075  69.9663943  54.3543055  83.0122674  71.4634876
  53.7997143  83.6260868  70.7537305  54.3683266  83.3480128  72.8042979
  53.8274104  84.2253999  73.1588418  55.0771387  82.5598941  73.7014314
  55.0737748  82.8161185  74.7608831  55.7938588  81.4411960  73.2529142
  56.3398647  80.8223748  73.9649801  58.4509862  78.9312254  69.9442965
  58.4474702  78.8219930  68.7103999  58.8890730  77.9730627  70.7506948
  58.8802570  78.1208492  71.7497848  59.3948174  76.6842478  70.2382752
  58.6167580  76.2645687  69.6006294  60.2780130  76.9017457  69.6376426
  59.7578819  75.6762005  71.2963403  59.4587325  75.8754273  72.4580728
  60.5658182  74.7055764  70.9305073  61.0187358  74.7401383  70.0284151
  60.8343011  73.5414387  71.8072960  60.7883211  73.7509062  72.8759907
  59.7792465  72.5056453  71.4707166  60.0728832  71.9775562  70.5635233
  59.6387797  71.5130690  72.6105791  59.3446889  72.0403949  73.5180688
  58.8785022  70.7740061  72.3578672  60.5921417  71.0110583  72.7754628
  58.5345424  73.1963113  71.1745713  57.8551666  72.5531781  70.9590980
  62.2556140  72.9845012  71.5482413  62.6730738  72.8095516  70.4011472
  63.0020112  72.7281418  72.6251536  62.7007777  73.0284521  73.5412166
  64.2998457  72.0889924  72.5025661  64.8369657  72.5083836  71.6518532
  65.1845801  72.2485007  73.7790351  66.1494047  71.7711834  73.6076232
  65.3960974  73.7203645  74.0880585  64.4316779  74.1982882  74.2600573
  66.0144583  73.8196405  74.9801758  65.8941750  74.2010143  73.2460401
  64.5882715  71.6048295  74.9176923  65.1548948  71.7207406  75.6839188
  64.0762919  70.6262886  72.1642814  63.1940014  69.9741777  72.7269508
  64.8520276  70.1191855  71.2086719  65.4307400  70.7275407  70.6473384
  64.8994048  68.7113540  70.9529733  64.2804849  68.1313224  71.6375174
  64.4378133  68.4511725  69.5540094  65.0540120  69.0181189  68.8561765
  64.5255772  67.3872521  69.3338475  63.3970413  68.7582999  69.4512200
  66.3205508  68.2459877  71.1152554  67.2595178  68.8756435  70.6387112
  66.4806087  67.1278486  71.7810958  65.6478693  66.5788276  71.9399046
  67.7668470  66.5812175  72.2195608  68.5669232  67.3141555  72.1157379
  67.6249807  66.2223857  73.6885614  67.3030535  67.1439225  74.1735687
  66.8161784  65.4924939  73.7231567  68.8346163  65.6689689  74.4100934
  69.2852434  64.7373477  74.0678686  69.5283371  66.4920286  74.2385603
  68.5300318  65.5680604  75.8811838  68.8583279  66.5263870  76.6329569
  67.7571293  64.6511892  76.2281793  68.0106240  65.3068420  71.4711780
  67.1368990  64.4385247  71.4861399  69.1765725  65.1672324  70.8201854
  69.8134914  65.9420879  70.7017260  69.4242127  63.9597435  70.0751581
  68.4568730  63.5983236  69.7262615  70.3441861  64.1422750  68.9000410
  71.3789368  64.1812123  69.2404457  70.1635221  62.9515854  67.9478852
  69.1290524  62.9122633  67.6066713  70.8245919  63.0688061  67.0891963
  70.4084691  62.0271129  68.4708105  69.9864138  65.4476195  68.1722961
  69.3483611  65.1812065  67.3296730  69.4228369  66.0625706  68.8739482
  71.1828473  66.2226892  67.6722392  71.7466996  65.6085092  66.9701328
  70.8451408  67.1297055  67.1708662  71.8211769  66.4898714  68.5144084
  69.8209174  62.7976501  70.9805301  70.7553451  62.8831074  71.7715281
  69.0657758  61.7036002  70.8722211  68.2629850  61.7113269  70.2593862
  69.3387039  60.4839344  71.6491455  70.1073329  60.6895401  72.3941521
  68.0794887  60.0013460  72.3671981  68.2629792  59.2947143  73.1765819
  67.8044508  60.9693408  72.7860539  66.9322106  59.4808207  71.4821759
  66.8650080  58.1518869  71.1136604  67.6801391  57.4900022  71.4061831
  65.7986706  57.6558697  70.3919691  65.7889384  56.6160054  70.0653356
  64.7200558  58.4730990  70.1241269  63.6399523  58.0005590  69.3812384
  63.7470523  57.0882683  69.1022133  64.7282421  59.7842404  70.5558446
  63.8784206  60.4362521  70.3538925  65.8166782  60.2665959  71.2442792
  65.8152717  61.2906235  71.6177300  69.8691325  59.3238429  70.8198553
  70.2288149  58.2776835  71.3719461  69.8374134  59.4773205  69.5088223
  69.4688347  60.3234193  69.0984983  70.3233026  58.4419585  68.6244976
  71.1512536  57.8731892  69.0476971  69.2140908  57.4881211  68.2746442
  68.3812336  58.0418332  67.8412253  69.5776066  56.7561431  67.5534197
  68.8784999  56.9742082  69.1754058  70.8343064  59.1272233  67.3927058
  70.3178248  60.1649413  67.0201360  71.8525431  58.5683328  66.7598706
  72.2993271  57.7287047  67.0997355  72.3836733  59.1932182  65.5736228
  71.5907850  59.5880232  64.9383619  73.2495834  60.3432102  66.0366737
  72.5936319  61.1626770  66.3304440  73.7407754  59.9368452  66.9208106
  74.2831627  60.8502104  65.0810532  74.0290388  60.9589868  63.7375716
  73.0573892  60.6455489  63.3557951  74.9790119  61.4548662  62.8757772
  74.7684644  61.5292243  61.8088927  76.1858957  61.8627449  63.3627191
  77.1480039  62.3505051  62.5170745  76.8690276  62.3624368  61.5985815
  76.4530546  61.7818591  64.6973010  77.4167602  62.1068670  65.0894003
  75.5000412  61.2879200  65.5465658  75.6984557  61.2354482  66.6170696
  73.1595988  58.2142839  64.7367620  73.7636536  57.2982689  65.2647160
  73.1366154  58.4045818  63.4279547  72.6004329  59.1646866  63.0344470
  73.8774934  57.5525498  62.5289050  74.7613150  57.1629370  63.0340392
  73.0290502  56.3932180  62.0817182  72.1726451  56.3285703  62.7529039
  72.6821617  56.6047260  61.0702674  73.7746406  55.0857817  62.0929112
  74.6624851  55.1933391  62.7160199  73.1273494  54.3161635  62.5133919
  74.1847788  54.6898321  60.6997147  74.5023050  55.5725661  60.1446860
  75.0070105  53.9758342  60.7470589  73.0736082  54.0736982  59.9975154
  72.7200179  54.5351387  59.1715942  72.4969423  52.9486589  60.3878847
  71.4903574  52.4460946  59.6927410  71.1644291  52.9235677  58.8645561
  71.0522028  51.5871349  59.9932547  72.9234530  52.3323066  61.4816376
  73.6876240  52.7243688  62.0130791  72.4822032  51.4735920  61.7782966
  74.2483395  58.3986299  61.3510784  73.4571194  59.2106125  60.9213050
  75.4430103  58.2002073  60.8153769  76.0541589  57.4970492  61.2054606
  75.9250132  58.9845584  59.6761207  75.1204924  59.6037002  59.2792470
  77.1045894  59.9020538  60.0733463  76.7766611  60.6055275  60.8386482
  77.9216512  59.2956080  60.4641577  77.5799694  60.6645248  58.8597763
  77.9085146  59.9616799  58.0941602  76.7635262  61.2716008  58.4686518
  78.7448383  61.5705774  59.2520474  79.9052099  61.0874438  59.1641790
  78.4631834  62.7371900  59.6358258  76.3747719  58.0379729  58.5747193
  77.4869722  57.5913080  58.6036827  75.5129846  57.7855564  57.5949834
  74.5397187  58.0276118  57.7144075  75.8728222  56.9423565  56.4948585
  76.8469045  56.4983600  56.7001143  74.8668874  55.8213497  56.2559926
  75.4255461  55.0666437  55.7024417  74.6367807  55.4441677  57.2524286
  73.5743336  56.1333934  55.5222280  73.0491894  56.7847573  56.2208334
  73.7157401  56.6553159  54.5758135  72.7451515  54.8612822  55.2863486
  72.1753392  54.3311919  56.3012063  72.7823877  54.3319566  54.1261134
  76.2706784  57.7187809  55.2576304  75.6288840  58.7035363  54.8202715
  77.3576544  57.2531013  54.6658883  78.0495967  56.7354278  55.1886976
  77.6671654  57.6204367  53.2545763  76.8136686  58.1519553  52.8337077
  78.9152649  58.5231980  53.1418171  79.2242826  58.4700411  52.0978911
  78.5705535  59.5323904  53.3672164  80.1066154  58.1756347  54.0462781
  79.7838961  57.5176088  54.8530960  80.8440527  57.6603515  53.4308340
  80.7595471  59.4118494  54.6570445  81.2703391  60.2591640  53.9401990
  80.7114544  59.5292782  55.9848632  81.1305568  60.3313518  56.4333413
  80.2561551  58.8155848  56.5357223  77.7634380  56.3963000  52.3528719
  78.6770081  56.2853941  51.5454496  76.7284512  55.5769632  52.3657045
  75.9292420  55.7857267  52.9468945  76.7284205  54.3268004  51.6120721
  77.7367043  53.9146016  51.5726367  75.8143243  53.3125855  52.2846464
  74.8671887  53.8277431  52.4447905  75.6536405  52.4509158  51.6367220
  76.3556897  52.8561269  53.5892651  77.1060503  53.6657686  54.2285290
  76.0800099  51.6781879  53.9389528  76.3170353  54.5638584  50.1843131
  77.1128137  54.3337313  49.2419930  75.0852571  55.0682236  50.0363128
  74.4900953  55.1885908  50.8434024  74.5335076  55.3856089  48.7085259
  74.4395942  54.4595504  48.1413442  73.1648973  56.0558070  48.7776740
  73.0295874  57.0736829  49.1433503  72.9213450  56.0163313  47.7159660
  72.1630697  55.2200346  49.4727532  71.6341190  54.0963655  48.8188451
  71.8847669  53.9185034  47.7730723  70.7882495  53.2044284  49.5002656
  70.3351382  52.3707069  48.9638896  70.5268680  53.3844017  50.8646231
  69.8607758  52.6986793  51.3882698  71.1230399  54.4478885  51.5565892
  70.9316302  54.5858092  52.6207510  71.9715004  55.3394814  50.8724913
  72.4870239  56.1290881  51.4191690  75.5646381  56.2445758  48.0377027
  75.8043172  56.0417142  46.8666924  76.2707944  57.0948772  48.8018936
  76.1782235  57.0840245  49.8075835  77.2016740  58.0688548  48.1944368
  78.0613834  58.1816109  48.8549555  77.5319804  57.6759195  47.2328761
  76.5537292  59.4473917  47.9761423  76.8249460  60.1802251  47.0014466
  75.7101165  59.8272922  48.9014668  75.0209414  59.1954611  49.2834700
  75.7523112  61.1732288  49.4027095  76.6960335  61.6459683  49.1306715
  74.5743146  62.0611645  48.9276263  74.9068350  62.6619973  48.0811451
  73.3832623  61.2055551  48.5068545  73.0498639  60.6047399  49.3530030
  72.5694441  61.8515810  48.1775352  73.6783414  60.5481982  47.6889856
  74.1865118  63.0709133  50.0438885  73.8402280  62.4803474  50.8920748
  75.0999400  63.5987217  50.3180542  73.1122938  64.0820006  49.6563936
  72.1983563  63.5549185  49.3825277  72.9116905  64.7413781  50.5008336
  73.4580678  64.6732916  48.8085050  75.6958895  60.8662977  50.8760146
  75.2681049  59.7623175  51.2807677  76.2962522  61.7355899  51.6743239
  76.7798734  62.5322697  51.2850796  76.3253418  61.5444443  53.1497595
  76.4885263  60.4842359  53.3432228  77.4144680  62.3515769  53.8811405
  77.0756590  62.4266748  54.9144207  78.3118566  61.7344135  53.8375157
  77.7327220  63.7581143  53.3423121  78.1254699  63.6107054  52.3362701
  76.8073534  64.3317569  53.2900986  78.7663584  64.5267526  54.1896590
  78.7151846  65.7967994  54.1755319  79.6447009  63.8677707  54.8357204
  74.9674865  61.9243650  53.6588285  74.3137065  62.8348529  53.0980286
  74.4600742  61.0926714  54.5330638  75.0304947  60.3550313  54.9211450
  73.0634262  61.2134882  54.9945794  72.5686114  62.1563582  54.7616548
  72.2676857  60.0402731  54.3581476  72.9817244  59.2694791  54.0681034
  71.2444314  59.4493304  55.3050470  70.5297266  60.2194699  55.5951898
  70.7178348  58.6340117  54.8090104  71.7481044  59.0685213  56.1935272
  71.6331408  60.4679008  53.0268199  72.4163503  60.9680671  52.4571556
  71.3410479  59.5511816  52.5145631  70.4245063  61.3900148  53.1466840
  70.7159498  62.3072086  53.6584615  70.0517848  61.6325580  52.1515203
  69.6406478  60.8903235  53.7158713  73.1774925  61.0857599  56.5003992
  73.9626454  60.2749872  56.9797984  72.4467525  61.9168358  57.2476100
  71.9144230  62.6594603  56.8172222  72.4369123  61.8142772  58.6750993
  73.0142786  60.9387332  58.9720340  73.0349382  63.0502294  59.3578885
  72.3890283  63.9122437  59.1910622  73.1459212  62.7878221  60.8250034
  73.7920969  61.9261662  60.9926551  73.5703990  63.6613832  61.3197863
  72.1563242  62.5842611  61.2341028  74.4105918  63.3888503  58.8203393
  74.3438905  63.5909636  57.7513195  74.7946359  64.2707449  59.3330494
  75.0842250  62.5487711  58.9894134  71.0050964  61.5980889  59.1500225
  70.1050320  62.4032363  58.8638011  70.7978863  60.4679826  59.8347280
  71.5467873  59.7975727  59.9337092  69.5174864  60.1541875  60.4198106
  68.7870821  60.8802105  60.0627401  69.0275159  58.7603256  60.0692000
  69.3598142  58.1091270  60.8776662  67.9387426  58.8120239  60.0691946
  69.4976376  58.2140882  58.7679466  68.8224873  58.5259340  57.9710620
  70.5025200  58.5791401  58.5556953  69.5170029  56.7048926  58.8496464
  70.4080204  56.4054647  59.4014885  68.6285523  56.3821393  59.3924034
  69.5325917  56.0547501  57.4654922  70.0769661  56.7222713  56.7975308
  70.0715146  55.1114507  57.5540781  68.1679013  55.7985480  56.9101595
  67.6685103  56.6725564  56.8275905  68.2501102  55.3703792  55.9991089
  67.6634568  55.1796863  57.5287426  69.6473682  60.2841215  61.9425413
  70.5884064  59.7712941  62.5427105  68.7275553  61.0267800  62.5420435
  68.1255803  61.6173624  61.9862217  68.7125867  61.1898011  63.9677710
  69.2161886  60.3387886  64.4263145  69.4210852  62.4899330  64.4253874
  69.6825118  62.4023200  65.4799392  70.6562667  62.7106261  63.6251204
  70.3955752  62.7988063  62.5704332  71.1452080  63.6269551  63.9558440
  71.3339740  61.8679839  63.7621193  68.5453861  63.7100539  64.2666352
  67.6427438  63.5905377  64.8658470  69.0886101  64.5938275  64.6012268
  68.2718640  63.8276730  63.2180875  67.3208937  60.9938365  64.5625906
  66.3013613  61.1386033  63.8949378  67.3116181  60.6009994  65.8266294
  68.1838460  60.3316022  66.2587670  66.1018642  60.5478964  66.6269672
  65.2330506  60.8051903  66.0211106  65.9189725  59.1365387  67.1644474
  66.7425891  58.9482350  67.8531394  64.9771625  59.1236460  67.7130162
  65.8969920  58.0749625  66.1124556  65.0841522  58.2749400  65.4143144
  66.8455795  58.0786903  65.5755479  65.6885895  56.7298405  66.7519409
  66.4396684  56.5556149  67.5224115  64.6942535  56.6701273  67.1944674
  65.8223497  55.6842656  65.6749328  65.2531258  56.0344739  64.8138644
  66.8786223  55.6260379  65.4122604  65.3408679  54.3492453  66.0716204
  64.3620115  54.4028971  66.3146456  65.4621191  53.7054975  65.3028636
  65.8684831  54.0243687  66.8692271  66.2351234  61.5183149  67.7860491
  66.9985561  61.2686418  68.6832419  65.4839294  62.6133079  67.7448320
  64.9484793  62.8217812  66.9142109  65.4437467  63.5605466  68.8462372
  66.2794014  63.3481944  69.5130857  65.5932739  64.9570202  68.3202142
  64.7588716  65.1876292  67.6578757  65.6008298  65.6605558  69.1527289
  66.5289498  65.0392713  67.7671819  64.1662005  63.4555317  69.6567409
  63.1898752  62.9154469  69.1966559  64.1882122  63.9883410  70.8682651
  65.0527466  64.3800519  71.2135796  63.0262298  64.0112709  71.7383014
  62.1098868  63.7708679  71.1992084  63.2271356  63.0017322  72.8846462
  63.4668067  62.0306283  72.4515003  64.3407915  63.4284580  73.8089522
  64.1016052  64.3993370  74.2428700  64.4544210  62.6931221  74.6054885
  65.2719964  63.5016216  73.2471661  61.9501077  62.8044488  73.6824908
  62.0141438  63.4271477  74.5748170  61.1158846  63.1388859  73.0657873
  61.7290721  61.3506839  74.0917694  62.5627242  61.0156589  74.7089260
  60.8019579  61.2693649  74.6591719  61.6644673  60.7273964  73.1998956
  62.8449415  65.4232404  72.2844440  63.7932366  66.0283003  72.7523743
  61.6406235  65.9671350  72.1650332  60.8923304  65.4559684  71.7190898
  61.3582578  67.3103183  72.6692615  62.0214232  68.0093237  72.1596516
  60.3228642  67.5513307  72.4284868  61.5614761  67.4420021  74.1775810
  61.0832903  66.5947412  74.9637001  62.2577527  68.5063285  74.5849643
  62.5915290  69.1861793  73.9167610  62.6193974  68.6775474  75.9793184
  62.2461892  67.8216712  76.5417158  64.1219189  68.7836409  76.1954299
  64.4871293  69.5138378  75.4732573  64.2623333  69.1701726  77.2048738
  64.8972448  67.4833341  76.0380169  64.4932109  66.9859188  75.1562939
  65.9350924  67.7611703  75.8542190  64.8287669  66.5395612  77.2278276
  65.8369497  66.2194846  77.4909197  64.3810144  67.0604342  78.0741777
  64.0166449  65.3437848  76.9246879  63.1284548  65.5163269  76.4758594
  64.3666970  64.0747753  77.1849789  65.5367957  63.7769042  77.7569508
  66.1784659  64.5172817  78.0023088  65.7743262  62.8127099  77.9413645
  63.5244412  63.0919030  76.8764709  62.6341866  63.3086272  76.4515268
  63.7792638  62.1336623  77.0686657  61.9684087  69.8837692  76.6471550
  61.2206307  69.7267962  77.5979297  62.2802992  71.0820711  76.1931882
  62.8950764  71.1977830  75.4002449  61.7995000  72.2934512  76.8894843
  61.0285249  72.0302623  77.6136585  62.9350734  72.9419370  77.6148754
  63.5077083  73.5354525  76.9021849  62.5259975  73.5954874  78.3853485
  63.8336593  71.9198187  78.2510260  63.3108684  71.0938434  78.7332660
  64.4470336  71.5347672  77.4364038  64.7179713  72.5631789  79.2444982
  65.3229026  73.5731460  78.9422223  64.7158079  72.0633889  80.4716519
  65.3056708  72.4733609  81.1816422  64.1243048  71.2747593  80.6913990
  61.1290834  73.3007199  75.9826545  61.4824001  73.4710001  74.8202287
  60.2061840  74.0423177  76.5430754  59.8699665  73.8287821  77.4712239
  59.5908429  75.1471536  75.8237912  59.6235558  74.9560698  74.7511701
  58.1465335  75.3048875  76.2426508  58.1470481  75.6085236  77.2895052
  57.7208129  76.1024558  75.6337609  57.3110261  74.0426252  76.0811824
  57.3032863  73.7557037  75.0296516  57.7593004  73.2437798  76.6719432
  55.8848303  74.2813470  76.5516062  55.5706287  75.2792269  76.2456455
  55.2298371  73.5389765  76.0955696  55.7690210  74.1793027  77.9978649
  55.5799032  73.2576548  78.3651508  55.8755942  75.1957920  78.8540271
  56.1104261  76.4341912  78.4637561  56.2165638  76.6390015  77.4804517
  56.1829521  77.1715637  79.1501390  55.7596796  74.9526096  80.1312029
  55.5927943  74.0086513  80.4493100  55.8374130  75.7095359  80.7953708
  60.3698472  76.4324715  76.0538587  60.7771284  76.7343869  77.1674269
  60.4908322  77.2137491  74.9981348  60.2173633  76.8862891  74.0826655
  61.1093911  78.5083791  75.1027290  61.0921661  78.8311957  76.1436863
  62.5678991  78.4805119  74.6215233  63.0273975  79.4688683  74.6321150
  63.1160381  77.8183666  75.2917525  62.7576729  77.9194028  73.1920519
  62.5402775  78.7187882  72.0582653  62.2371380  79.7582512  72.1836569
  62.7078399  78.1969728  70.7919891  62.5605051  78.8315953  69.9181199
  63.0630927  76.8674501  70.6307009  63.1015955  76.4419943  69.6279024
  63.3655673  76.0860711  71.7212520  63.7170062  75.0629657  71.5876620
  63.2212190  76.6064207  72.9930016  63.4680723  75.9971040  73.8624247
  60.3686489  79.6212555  74.3854285  59.5779199  79.3671980  73.4787817
  60.7359581  80.8452724  74.7545835  61.3743330  80.9205732  75.5336257
  60.3215657  82.0633958  74.0848527  59.4302578  81.8814291  73.4843883
  60.0002011  83.1218551  75.1198299  59.7508425  82.5819956  76.0333238
  60.9221219  83.6835135  75.2705018  58.8577779  84.0947753  74.7705885
  59.2425008  84.8500359  74.0852634  58.0612292  83.5335950  74.2820306
  58.2972533  84.7878996  76.0427803  57.9353993  84.0056361  76.7100318
  59.1227486  85.3173728  76.5185061  57.1627275  85.7718485  75.7483204
  56.3186255  85.2109912  75.3470332  56.8702482  86.2472968  76.6845383
  57.5788250  86.8251958  74.7605717  57.8494722  86.3848711  73.8928368
  56.8059376  87.4533268  74.5926536  58.3607053  87.3452942  75.1324049
  61.4850825  82.5554822  73.2483112  62.6317620  82.5965470  73.6957682
  61.1825336  82.9372191  72.0155975  60.2440002  82.8027989  71.6674803
  62.1731869  83.5471487  71.1247221  63.1515436  83.0719574  71.1962098
  61.7207948  83.5125047  69.6724180  60.6768841  83.8215311  69.6190102
  62.5754340  84.4545343  68.8216019  63.6194884  84.1458426  68.8741450
  62.2375928  84.4167318  67.7859693  62.4788431  85.4729878  69.1977990
  61.7614841  82.0665141  69.1783474  61.0954163  81.4551125  69.7871526
  61.4391651  82.0283437  68.1377932  62.7789278  81.6835302  69.2572933
  62.3953264  84.9930212  71.5295402  61.4687742  85.7523701  71.6938240
  63.6466219  85.3584860  71.6753448  64.3776929  84.6633071  71.6267560
  64.0290877  86.7521210  71.8931824  63.2075900  87.3447217  72.2957557
  65.1314466  86.7175209  72.9009853  66.0025314  86.2379913  72.4544856
  65.4125985  87.7000933  73.2799380  64.6122496  85.8593592  74.0499669
  63.9397070  85.1166130  73.6208803  65.7021101  85.1602017  74.8319439
  66.3748310  85.9023701  75.2617481  65.2546677  84.5698470  75.6315546
  66.2632930  84.5038653  74.1668149  63.7958087  86.7415918  74.9638880
  62.9611395  87.1681869  74.4076117  63.4129894  86.1491980  75.7949236
  64.4231153  87.5451316  75.3497756  64.5200756  87.3644151  70.5785677
  63.8370304  88.1945661  69.9583157  65.6632222  86.8550968  70.0875110
  66.1445807  86.1552325  70.6339388  66.2108462  87.2119996  68.7858454
  65.5360674  87.8813895  68.2522821  67.5180763  87.9177772  68.9976767
  67.7728266  87.8071720  70.0517014  68.2608682  87.4023131  68.3888606
  67.5007263  89.3590461  68.6416725  67.1663802  89.4464779  67.6079080
  66.8170346  89.9052457  69.2915425  68.8639677  89.9276837  68.7695910
  69.7815976  89.1565024  69.1685455  69.0005399  91.1374704  68.5019266
  66.5358995  85.9922160  67.8999349  66.9005596  84.9330086  68.3976384
  66.6044972  86.2430379  66.6066118  66.3302125  87.1583276  66.2793321
  67.0834926  85.2687134  65.6233533  67.4238860  84.3566658  66.1136600
  65.9348071  84.9220555  64.7007923  65.3736620  85.8511068  64.6003972
  66.3667255  84.6530983  63.7368377  65.0097622  83.8237572  65.1606811
  64.7364889  83.9900118  66.2026897  63.7550680  83.8267326  64.3012287
  64.0275135  83.6600620  63.2590707  63.0852406  83.0332017  64.6325002
  63.2519139  84.7890710  64.3952568  65.7146609  82.4837335  65.0731865
  66.6004394  82.4964101  65.7082732  65.0401154  81.6952950  65.4070343
  66.0107551  82.2950597  64.0412807  68.2212381  85.8288104  64.7643307
  67.9977496  86.6949276  63.8898504  69.4177644  85.2772181  64.9567486
  69.5346716  84.5911032  65.6886491  70.6037122  85.6251193  64.1152609
  70.4444278  86.5663926  63.5892075  71.8278938  85.7798617  65.0440533
  72.2290920  84.7791150  65.2041943  72.5584535  86.3813574  64.5031416
  71.5311034  86.4323764  66.3959264  72.2738817  87.2128575  66.5609434
  70.5393908  86.8812675  66.3402037  71.5743320  85.4362073  67.5526724
  70.8771207  85.7611464  68.3249483  71.2763796  84.4544151  67.1846943
  72.9137458  85.3305280  68.1427747  73.4257743  84.4806730  67.9539028
  73.4895128  86.2670179  68.9090136  74.6979166  86.0570515  69.4107609
  75.1799508  85.1917220  69.2134084  75.1313130  86.7633187  69.9882156
  72.8667235  87.4084363  69.1862976  71.9427386  87.5789495  68.8157880
  73.3204504  88.0997898  69.7661777  70.9172349  84.5205581  63.0748873
  70.7034383  83.3814850  63.3528469  71.3434800  84.9057941  61.8721075
  71.5342570  85.8845685  61.7117818  71.4018171  83.9839143  60.7211408
  71.0710908  82.9820553  60.9949983  70.4904525  84.5126521  59.5705688
  70.9799435  84.3187860  58.6161502  69.1050075  83.8055264  59.5954706
  68.6146807  83.9993354  60.5494713  68.4858863  84.1895289  58.7847116
  69.2423444  82.7315516  59.4697035  70.3055974  85.9483725  59.6825350
  69.7432579  86.2553131  58.9675790  72.8423529  83.6606017  60.2216867
  73.2822760  84.1336164  59.1512127  73.5408518  82.7984201  60.9697050
  73.2516673  82.5652978  61.9089205  74.7836555  82.2032474  60.4546590
  75.6463143  82.8584362  60.5756828  75.0927863  80.8482595  61.1342425
  75.2809862  81.0082292  62.1958873  74.2416207  80.1781382  61.0136002
  76.3255445  80.2250599  60.4880584  76.1379230  80.0643557  59.4264214
  77.1772896  80.8944444  60.6087100  76.6636064  78.8871973  61.1301818
  75.9753840  78.4435615  62.0466843  77.7283589  78.2437758  60.6458944
  77.9963650  77.3517801  61.0365578  78.2610222  78.6519312  59.8910565
  74.5489922  82.0657679  58.9162792  73.4319578  81.6725894  58.4822804
  75.4869470  82.5635626  58.0915374  76.3625569  82.9257956  58.4410999
  75.2347545  82.6239275  56.6373733  74.2425594  83.0389452  56.4601491
  76.2599733  83.4972616  55.9313417  75.9954368  83.5710073  54.8765046
  76.2465481  84.4909629  56.3790888  77.5471352  82.9458562  56.0538298
  78.1806936  83.5089859  55.6031762  75.2605352  81.2554761  56.0202971
  75.2135686  81.1374041  54.8183207  75.5254971  80.2555490  56.8613577
  75.9327727  80.5116380  57.7494142  75.4255954  78.8067541  56.5206830
  75.7309937  78.6499088  55.4861635  76.3643660  77.9471853  57.4609320
  76.4745762  76.9346130  57.0727952  77.3247700  78.4604778  57.4134441
  75.8833793  77.8862513  58.9343270  74.9698281  77.1112654  59.1934449
  76.4644447  78.5432976  59.8312686  73.9551182  78.2380178  56.4675340
  73.7225035  76.9981031  56.5695538  72.9940441  79.1275058  56.1909810
  73.2177694  80.1100291  56.1224675  71.6284498  78.7226510  55.9844457
  71.0536434  79.5618974  55.5928305  71.5955010  77.8971058  55.2734683
  71.0104817  78.2696021  57.2976281  69.8656371  77.8254956  57.3183699
  71.7742812  78.3629399  58.3848877  72.7090491  78.7371608  58.3057238
  71.3089938  77.9461281  59.6940098  70.3519261  77.4248265  59.6748985
  72.3456184  77.0733152  60.3713459  73.3347323  77.4508610  60.1120910
  72.1850369  77.0760706  61.8608999  71.1962629  76.6981904  62.1209637
  72.9467080  76.4387858  62.3101502  72.2951415  78.0932429  62.2368475
  72.3028647  75.6636020  59.7645890  71.5260665  75.6986723  59.0007465
  73.2732768  75.5216437  59.2889341  72.0294087  74.5070674  60.7120416
  71.0588914  74.6480973  61.1877586  72.0268420  73.5714305  60.1528670
  72.8061011  74.4710703  61.4759480  71.0616883  79.1650892  60.5503128
  71.8488970  80.1082174  60.5682487  69.9873394  79.0957026  61.3500708
  69.3222026  78.3457480  61.2265367  69.7649866  80.0514594  62.4455201
  70.1598078  81.0283480  62.1664070  68.3024285  80.1919071  62.7376352
  67.8381720  79.2196501  62.5724639  68.2007035  80.4689773  63.7869132
  67.6282234  81.2167277  61.8846439  67.3554621  82.0182179  62.5711681
  68.2572771  81.6180039  61.0900554  66.3847691  80.6677758  61.2758663
  65.8040970  79.6933705  61.7950081  66.0165121  81.2014342  60.1034545
  65.1816779  80.8703251  59.6413722  66.5754075  81.9324182  59.6870415
  70.3823152  79.6062670  63.7265876  70.4059053  78.4719532  64.0077010
  70.8373529  80.5730887  64.5147669  71.0846462  81.4700112  64.1217335
  71.0740299  80.3518273  65.9432292  70.7301994  79.3502799  66.2016524
  72.5799975  80.4791863  66.3358652  72.5850019  81.0322078  67.2751423
  72.9164966  79.4579054  66.5143414  73.5220133  81.1597543  65.3380383
  72.9131404  81.6337219  64.5681492  74.1046785  81.9196764  65.8587318
  74.4933275  80.1729944  64.6599037  74.7832792  79.1023934  65.2156317
  75.0123869  80.5345164  63.4599816  75.6526217  79.9158153  62.9831064
  74.7563020  81.4207753  63.0488040  70.1806772  81.3623028  66.7079580
  70.0809956  82.5463788  66.3587577  69.3849608  80.8081831  67.6137288
  69.5966719  79.8637583  67.9024145  68.2313294  81.4720395  68.2114722
  67.9870659  82.3837524  67.6662986  67.0421439  80.5293004  68.1383768
  67.2681349  79.6152783  68.6875505  66.1687617  81.0104976  68.5785505
  66.8351561  80.2848061  67.0965142  68.4803682  81.8473171  69.6917274
  68.7908390  80.9512121  70.4940078  68.3545048  83.1539417  70.0036317
  68.2908539  83.8251942  69.2516557  68.4269350  83.6398123  71.3346034
  69.1600669  83.0525002  71.8874879  68.8340451  85.0929441  71.3871147
  69.3856007  85.3053464  70.4712703  67.9176584  85.6829057  71.4038628
  69.6981032  85.4572812  72.5996802  69.0775198  85.3929112  73.4934551
  70.5111215  84.7346447  72.6696784  70.2868268  86.8875960  72.4812823
  71.3571208  86.7794884  72.3055479  69.8218478  87.3540680  71.6127791
  70.0574436  87.7697956  73.7213203  70.3701216  88.7827174  73.4677013
  68.9891162  87.7632807  73.9374990  70.8123049  87.3019667  74.9251262
  71.8022916  87.3083392  74.7251623  70.6218396  87.9181709  75.7023747
  70.5224090  86.3635473  75.1605589  67.0935354  83.3717917  72.0511308
  66.0126279  83.7600282  71.5885941  67.1797102  82.6381175  73.1574188
  68.0382485  82.5886615  73.6871033  66.0520230  81.7841765  73.5727924
  65.0778564  82.1915525  73.3023421  66.1867559  80.3695517  72.9531750
  66.9315211  80.4162887  72.1586691  66.6072017  79.3326131  73.9804718
  65.8626389  79.2849702  74.7751147  66.6886710  78.3572955  73.5006606
  67.5724287  79.6104311  74.4038575  64.8912737  79.9670071  72.2670023
  64.6615741  80.6807283  71.4758372  65.0014464  78.9715488  71.8368579
  64.0806299  79.9597166  72.9956341  65.9560035  81.7591384  75.0944130
  66.9418944  81.4593009  75.7722320  64.7898890  82.1520499  75.6226577
  64.0778487  82.5591468  75.0332766  64.5633593  82.1257608  77.0625807
  65.4976955  81.9233329  77.5861626  64.0307628  83.4699754  77.5232139
  64.8267616  84.1901756  77.3340132  63.1793507  83.6929630  76.8801945
  63.6068318  83.5582532  78.9654082  63.5060678  82.5587789  79.3884905
  64.3657630  84.1115647  79.5185555  62.2635955  84.2898960  79.1091064
  61.9363997  85.1953538  78.3327643  61.4777113  83.8822670  80.0940783
  60.5817998  84.3258918  80.2377476  61.7779090  83.1296518  80.6970320
  63.6536729  80.9429761  77.4454814  62.5084406  80.8395357  76.9939993
  64.1846778  80.0474086  78.2799703  65.1202164  80.1763791  78.6380672
  63.4439837  78.8763266  78.7005359  63.1156257  78.2988874  77.8363344
  64.2319478  77.9888961  79.6265330  64.2931903  78.4564988  80.6092321
  63.5418796  76.6263507  79.7516840  63.4806804  76.1579001  78.7693860
  64.1162251  75.9879082  80.4229658  62.5372015  76.7627100  80.1518430
  65.6561005  77.8664439  79.1182647  66.1383519  78.8347936  79.2518054
  66.1623652  77.1212995  79.7319057  65.7360491  77.4612631  77.6681592
  65.2303654  78.2062178  77.0538088  66.7812814  77.3915160  77.3669552
  65.2543763  76.4927240  77.5339088  62.1781716  79.2569394  79.4438901
  62.2181080  80.0829291  80.3743520  61.0640891  78.6475971  79.0644484
  61.0586063  78.0700390  78.2358979  59.8214812  78.8002547  79.8076531
  59.7978601  79.7793357  80.2861315  58.6188158  78.6830737  78.8784193
  58.6883275  77.6844826  78.4470457  57.7024009  78.7627023  79.4631784
  58.5991297  79.7288364  77.7496595  59.5276398  79.6709470  77.1816641
  57.4281226  79.4516414  76.8313005  56.4991598  79.5098141  77.3985243
  57.4110183  80.1906887  76.0302904  57.5297945  78.4545391  76.4028729
  58.5242351  81.1695522  78.2684521  59.3916781  81.3760924  78.8953359
  58.5135031  81.8598986  77.4250020  57.6142006  81.2984348  78.8543918
  59.7405856  77.7346880  80.8729927  59.7890401  76.5686274  80.5775370
  59.5233225  78.1618791  82.1515194  58.9823496  79.5004899  82.4587236
  58.0474508  79.6463509  81.9176237  59.7010705  80.2606860  82.1527152
  58.7883461  79.4632933  83.9397449  57.7208165  79.5389762  84.1465100
  59.3036256  80.3201082  84.3738610  59.3626662  78.1640294  84.4650446
  58.6617915  77.8265245  85.2285655  60.3705514  78.1809349  84.8797507
  59.3109720  77.2380232  83.2768476  60.0593296  76.4461161  83.2461513
  57.9251315  76.6279758  83.1701073  56.9939254  77.3295591  82.7591195
  57.7580676  75.3452016  83.5270862  58.5489785  74.7284638  83.6462239
  56.4081823  74.7866471  83.6894364  55.7601693  75.1905334  82.9115841
  56.4032166  73.2514824  83.5854628  56.6251383  73.0069962  82.5466767
  57.2104726  72.8915456  84.2233369  55.0846974  72.5785335  83.9994300
  55.3010905  71.5860982  84.3948375  54.6927181  73.2094011  84.7972129
  54.0455850  72.4663686  82.8808441  54.3790865  71.9578433  81.7880199
  52.8711662  72.8414082  83.1168669  55.8703428  75.2569180  85.0350226
  56.4108373  74.9360777  86.1114464  54.7751686  76.0262454  84.9358523
  54.3370607  76.1748927  84.0380412  54.2842375  76.7740103  86.0692883
  55.1124405  76.9865252  86.7453183  53.6470485  78.1088794  85.6361883
  53.5447306  78.7583149  86.5055926  54.2868517  78.5905818  84.8967867
  52.0103478  78.0097806  84.8915307  51.8697489  79.3169424  84.6903877
  53.3440237  75.8708097  86.9002725  52.2892685  75.3980924  86.4422760
  53.8209278  75.5615667  88.1090096  54.6682115  76.0066060  88.4317318
  53.1884959  74.5723145  88.9717813  52.3511231  74.0669125  88.4906629
  54.1560400  73.5099376  89.5162476  53.8198891  73.1936862  90.5037124
  54.1956167  72.3079006  88.5855921  54.5321448  72.6233049  87.5979839
  54.8847767  71.5626944  88.9828662  53.1983336  71.8748949  88.5079115
  55.5356336  74.1015928  89.7810375  55.4529254  74.9035242  90.5146364
  56.1969125  73.3250212  90.1654155  55.9449985  74.4999250  88.8526773
  52.5071246  75.2121323  90.1659954  53.0881736  76.0134555  90.9222310
  51.2579407  74.7455821  90.3340416  50.9771048  73.9980488  89.7156367
  50.3082601  75.1858721  91.3775383  50.6622102  76.1161583  91.8218197
  48.9011071  75.4253515  90.7857259  48.6150776  74.3989935  90.5557788
  48.3189778  75.7825739  91.6352067  48.6274001  76.3183878  89.5659769
  48.5629037  75.7020656  88.6692674  47.3164308  77.0561373  89.7677573
  47.3803262  77.6730722  90.6640874  47.1193535  77.6907915  88.9037693
  46.5067895  76.3351220  89.8805327  49.7333119  77.3211905  89.2773474
  50.6654125  76.7897140  89.0854603  49.4672499  77.9145136  88.4025446
  49.8611886  77.9792382  90.1368355  50.1411479  74.0748959  92.4209306
  50.1395558  72.8891652  92.0560385  49.9799774  74.4573755  93.6982365
  49.7289270  75.8361683  94.1307061  48.8568077  76.2239106  93.6042422
  50.5980439  76.4500261  93.8942459  49.5019186  75.7117746  95.6063119
  48.4832403  76.0376910  95.8164834  50.2059599  76.3738531  96.1103746
  49.7161912  74.2934712  96.0180930  48.8835714  74.0391354  96.6739563
  50.6566144  74.0813774  96.5267383  49.6274064  73.4834930  94.7305241
  50.3275716  72.6486699  94.6999101  48.2152757  72.9705208  94.4779132
  47.6633699  73.2298469  93.4058256  47.6265596  72.2380472  95.4235563
  48.1331554  71.9264274  96.2398609  46.2254575  71.8360947  95.2805172
  46.0709589  71.4124503  94.2881691  45.8341601  70.7861495  96.3280603
  46.2213006  69.8172515  96.0126904  46.2814276  71.0622105  97.2829646
  44.4263300  70.7081471  96.4711471  44.2079550  70.0456905  97.1307405
  45.3372078  73.0735425  95.4226342  45.7661774  74.0873376  95.9785960
  44.0995653  72.9808440  94.9647508  43.8163068  72.1822442  94.4151125
  43.1492133  74.0536442  95.1553388  43.5592713  74.9912329  94.7800004
  41.8779703  73.7239560  94.3652267  41.0159943  73.8415971  95.0219292
  41.7304336  74.6485246  93.1638018  42.5918752  74.5310966  92.5063608
  40.8210274  74.3949320  92.6190357  41.6726703  75.6821253  93.5050255
  41.9580504  72.3659196  93.8875101  41.1639072  72.1538180  93.3915768
  42.8523265  74.3096119  96.6455105  42.4275097  75.4139317  97.0272768
  43.1150770  73.3092629  97.4856058  43.5604903  72.4689399  97.1456594
  42.7187970  73.3622581  98.8840216  41.9177054  74.0888607  99.0196688
  42.2165361  71.9942632  99.3313243  42.9811887  71.2616428  99.0731132
  42.0949059  72.0255027 100.4140663  40.8981807  71.5996953  98.6847394
  41.0906733  71.3748341  97.6356994  40.5308859  70.7043246  99.1862450
  39.6448973  72.8986578  98.7939873  38.6109667  72.5029386  97.3803435
  38.2052659  71.4979163  97.4962572  37.7921697  73.2195903  97.3164488
  39.2069188  72.5507437  96.4689397  43.8361563  73.8259608  99.8209769
  43.5789865  74.3229193 100.8931689  45.0749614  73.6246615  99.4247239
  45.2187867  73.0907738  98.5795153  46.2430063  74.0639641 100.1692198
  46.3545676  73.4828163 101.0845998  47.4853758  73.8593849  99.3073344
  47.4726511  74.5796304  98.4892979  48.3727458  74.0210715  99.9193245
  47.5097604  72.5437486  98.7781081  48.2959103  72.4302482  98.2389552
  46.2163059  75.5075674 100.6685449  47.0911715  75.8982040 101.4242871
  45.2330776  76.2950319 100.2428564  44.5197606  75.9111926  99.6395774
  45.1478263  77.7211128 100.6063442  46.1156191  78.1087661 100.9244656
  44.6663290  78.5359762  99.3953785  43.6939518  78.1654566  99.0708822
  44.5797302  79.5860406  99.6746018  45.3833466  78.4351434  98.5806284
  44.1636420  77.8972049 101.7811496  44.3086102  78.7411370 102.6454874
  43.1448933  77.0770009 101.7436974  43.2113882  76.2744081 101.1341710
  41.9394532  77.2555344 102.5064725  41.8185259  78.1394575 103.1326960
  40.7954851  77.2230826 101.4741195  41.2200052  77.4516870 100.4965603
  40.0887090  75.8633810 101.4187636  39.6635048  75.6342839 102.3959109
  39.2922293  75.8973178 100.6754137  40.8072830  75.0906494 101.1455625
  39.8652415  78.3908308 101.6693447  40.4196433  79.3216395 101.5496118
  39.0659123  78.3468961 100.9295865  39.4357896  78.3505190 102.6703676
  41.8022978  76.1176003 103.5520687  40.8629639  76.1293981 104.3685909
  42.7620355  75.1890880 103.5327901  43.5919861  75.3487702 102.9798137
  42.6480141  73.9225946 104.2676994  41.6792581  73.4592808 104.0807471
  43.7509382  72.9633906 103.7929500  43.6731459  72.9172903 102.7067077
  44.6997284  73.4231568 104.0695584  43.6838443  71.5564009 104.3657401
  44.6779419  71.1093371 104.3679340  43.3224679  71.6424548 105.3904859
  42.7436740  70.6457673 103.5942382  42.8854642  70.4675765 102.3880697
  41.8001942  70.0397443 104.2986883  41.1472726  69.4227639 103.8370282
  41.7378878  70.1973114 105.2943750  42.7680377  74.1333297 105.7652704
  43.7476611  74.6734983 106.2550559  41.7696685  73.6610179 106.4841929
  40.9351740  73.3335399 106.0189227  41.8288356  73.5756431 107.9325563
  41.8844809  74.5733092 108.3680618  40.5568895  72.8771659 108.4602435
  40.6346950  71.9092262 107.9651292  40.5994607  72.7366836 109.5403141
  39.2273811  73.5373531 108.0837037  39.1498032  73.5109026 106.9967893
  37.9961560  72.8546834 108.7018062  38.0727980  72.8811544 109.7887856
  37.0936089  73.3796201 108.3888352  37.9479695  71.8186219 108.3666121
  39.2737870  75.0362171 108.3986630  40.0776785  75.5029140 107.8294075
  38.3230609  75.4947641 108.1267151  39.4536800  75.1787043 109.4642308
  43.0380928  72.7606781 108.3362529  43.2777210  71.7246376 107.7418317
  43.8045323  73.2476050 109.3138282  43.5868295  74.1374919 109.7390413
  45.0419352  72.5738709 109.7094221  45.6131631  72.3192452 108.8166939
  45.9072271  73.4630119 110.6069410  45.2379946  73.9788528 111.2955158
  46.5720047  72.8076500 111.1696767  46.7383386  74.4924846 109.8360320
  46.0138151  75.1270797 109.3256834  47.3133847  75.0928110 110.5410351
  47.6848640  73.8688679 108.8063316  48.7658990  73.3750498 109.2007691
  47.3691692  73.9141044 107.5933327  44.7819765  71.2243220 110.3612105
  45.5604374  70.2900827 110.1754479  43.6862624  71.1164543 111.1086355
  43.0976686  71.9207434 111.2722685  43.3508035  69.8571897 111.7892938
  44.1984563  69.5356149 112.3944167  42.1311742  70.0265281 112.7046112
  42.0880129  69.1717170 113.3795441  42.2620899  70.9402649 113.2843060
  40.9235161  70.1055257 111.9641975  40.1844408  70.2107765 112.5677617
  43.1146509  68.6938464 110.8083074  43.3590595  67.5331379 111.1545015
  42.6514303  69.0147152 109.5952572  42.4755843  69.9867917 109.3849131
  42.3108200  68.0159404 108.5868885  42.0836632  67.0615254 109.0618527
  41.0811687  68.4777356 107.8062221  41.4299190  69.3489438 107.2517234
  40.7794121  67.6988781 107.1059193  39.8803001  68.8739544 108.6798944
  40.1399161  69.7727973 109.2391634  38.6419864  69.1431547 107.8323165
  38.3814659  68.2445610 107.2730695  37.8107810  69.4208674 108.4804478
  38.8471069  69.9567775 107.1365838  39.5900982  67.8036959 109.7233054
  40.4619869  67.6748992 110.3646486  38.7361604  68.1077596 110.3286455
  39.3641056  66.8611722 109.2246317  43.4834070  67.7173008 107.6400557
  43.4003504  66.8003002 106.8222468  44.5803256  68.4502372 107.7976239
  44.5864832  69.2509919 108.4131345  45.8117568  68.1147768 107.0842898
  45.6878525  68.3310617 106.0231735  47.0003304  68.9317988 107.6166898
  46.8895208  69.1309459 108.6825983  47.8832839  68.3140107 107.4528885
  47.1913238  70.2504125 106.8950387  47.4888581  71.2711424 107.5201211
  47.0871888  70.2260954 105.5696532  47.2059961  71.0785154 105.0411035
  46.8897630  69.3553158 105.0975656  46.1685192  66.6345311 107.2381701
  46.5481206  65.9684851 106.2681101  46.0233066  66.1279433 108.4603531
  45.7379307  66.7498001 109.2032892  46.4001429  64.7586874 108.8087592
  47.4340046  64.5686966 108.5204322  46.2682314  64.5538318 110.3202600
  45.2578319  64.8366997 110.6155189  46.4268740  63.4972398 110.5360051
  47.2824051  65.3924528 111.1039152  48.2463309  64.8884163 111.0339509
  47.3459519  66.3660402 110.6179199  46.9131132  65.5802469 112.5701314
  46.5546667  64.6222888 112.9468690  47.8185482  65.8650298 113.1060285
  45.8430903  66.6411929 112.7831326  46.1923503  67.3304293 113.5519441
  45.7054652  67.1817391 111.8466667  44.5450847  66.0418448 113.2059946
  44.6722987  65.5412774 114.0739512  43.8626279  66.7747887 113.3369378
  44.2210656  65.4034726 112.4935399  45.6488005  63.6991632 107.9971128
  46.0603227  62.5440289 107.9694526  44.5874239  64.0942141 107.2993610
  44.3102773  65.0654039 107.2904439  43.7638077  63.1346504 106.5774775
  44.0264916  62.1186267 106.8720825  42.2924817  63.3700254 106.8989514
  41.9156737  64.2499694 106.3775941  41.6908282  62.5024377 106.6280180
  41.9889072  63.6613527 108.6593581  40.6723663  63.8150471 108.5498308
  43.9783015  63.1990261 105.0687173  43.3602343  62.4401985 104.3186275
  44.8247087  64.1258455 104.6474043  45.3945674  64.6345128 105.3081750
  44.9003639  64.5004475 103.2299535  43.8930827  64.5544657 102.8169573
  45.5840211  65.8721541 103.0440080  46.0146661  66.1429487 104.0080176
  46.3833022  65.7299454 102.3166659  44.6547860  66.9916111 102.5681222
  43.6722956  66.9001010 103.0311983  45.1220511  67.9224774 102.8894525
  44.4767526  67.0327104 101.0436571  44.1009592  66.0334948 100.4237365
  44.6854438  68.2089068 100.4452216  44.5810160  68.2880786  99.4437586
  44.9466737  69.0134926 100.9970385  45.6155626  63.4392140 102.4024251
  45.3417224  63.3041980 101.2075422  46.5016143  62.6692504 103.0399637
  46.8399781  62.9236557 103.9569627  47.0521442  61.4743243 102.4056747
  47.0795875  61.6117997 101.3247277  48.4694966  61.1076264 102.9157717
  48.3855403  60.5678955 103.8590332  49.1777082  60.2262842 101.8857876
  49.2624554  60.7655486 100.9423299  50.1733941  59.9710628 102.2485165
  48.6027199  59.3132347 101.7314232  49.2871860  62.3765534 103.2063025
  49.0921453  63.0731317 102.3909261  48.9056756  62.7931727 104.1384922
  50.7829516  62.1480292 103.3292943  51.1652880  61.7318234 102.3972581
  51.2802313  63.0960859 103.5342349  50.9788181  61.4518622 104.1448233
  46.0934699  60.2959114 102.6326586  45.6192652  60.0567622 103.7478283
  45.8117430  59.5788667 101.5475638  46.1374197  59.9019733 100.6477659
  45.0492999  58.3270276 101.6026293  44.5956415  58.2103397 102.5868433
  43.9443929  58.3398455 100.5563162  44.3135159  58.0306589  99.5784352
  43.1492316  57.6653157 100.8738507  43.3223003  59.6716087 100.3727907
  42.7895021  60.3502974 101.4645057  42.8264460  59.8823721 102.4482643
  42.2219590  61.5943794 101.3155397  41.8003791  62.1175783 102.1738136
  42.1890985  62.1799391 100.0658722  41.7416479  63.1657371  99.9390247
  42.7251811  61.5146682  98.9711284  42.6954443  61.9789575  97.9854046
  43.2937232  60.2703353  99.1293106  43.7234352  59.7543400  98.2707092
  45.9384589  57.1034906 101.3270071  46.9952431  57.2257295 100.6842335
  45.4846571  55.9044675 101.7572739  44.9158813  55.6794165 103.0984581
  43.8670234  55.9760600 103.0985968  45.4626309  56.2791077 103.8261492
  45.0999644  54.1915985 103.3207602  44.2152182  53.7893299 103.8142205
  45.9735132  54.0273410 103.9516590  45.2953276  53.5837157 101.9714386
  44.3184091  53.4106203 101.5200328  45.8713835  52.6585082 101.9556205
  46.0361226  54.6705332 101.2021145  47.1080303  54.6427079 101.3979154
  45.7925884  54.6022001  99.6963089  44.7113320  54.9367338  99.2186763
  46.8033005  54.1693194  98.9552014  47.6468413  53.8352883  99.3990049
  46.7745566  54.2539088  97.4934283  46.4194669  55.2389539  97.1906138
  48.1663364  54.0371400  96.9099310  48.8943173  54.0176764  97.7209577
  48.1871100  53.0844093  96.3808066  48.4885438  55.0810415  96.0129371
  49.3660178  54.9337460  95.6524606  45.7589974  53.2758590  96.8526076
  45.3863969  52.2426883  97.4387409  45.3164259  53.6542041  95.6603680
  45.7586544  54.4477470  95.2189804  44.1887122  53.0236365  94.9806186
  43.3471007  52.9312699  95.6671007  43.7456326  53.8768098  93.7664234
  42.6692764  53.7347597  93.6695806  43.9524454  54.9140502  94.0299776
  44.4254004  53.5435219  92.4367438  45.4978049  53.4560342  92.6110864
  44.0365680  52.5892768  92.0813175  44.1686622  54.6146482  91.3924172
  44.3509263  54.1993990  90.4012326  43.1315970  54.9426291  91.4632960
  45.0902557  55.7987390  91.6218518  44.9451744  56.1536812  92.6421792
  46.1193447  55.4615304  91.4978942  44.8149255  56.8997714  90.6733425
  43.8615268  57.2126715  90.7883395  45.4455324  57.6672341  90.8561973
  44.9497188  56.5712013  89.7278418  44.5138613  51.5989972  94.5237875
  45.5312339  51.3660752  93.8892874  43.6035628  50.6459854  94.7921369
  42.5629548  50.6923847  95.8389964  42.1705049  51.7061474  95.9187987
  42.9933034  50.3936402  96.7948472  41.5390269  49.7159850  95.3430040
  40.8318537  50.2281809  94.6905775  41.0048961  49.2851432  96.1898694
  42.3014340  48.6658821  94.6034329  41.6921363  48.3144937  93.7707375
  42.5728761  47.8209520  95.2362930  43.5782271  49.3548741  94.0667157
  44.4957655  48.8194415  94.3107103  43.4742625  49.5233647  92.5437672
  42.8587054  50.4849328  92.0895872  44.0730877  48.6068185  91.7859583
  44.5191257  47.8091990  92.2160194  44.2514098  48.8102877  90.3344919
  44.3350290  49.8667935  90.0797322  45.5020463  48.0636541  89.7796435
  45.6632369  48.3638579  88.7442718  46.7389030  48.4034789  90.6057672
  46.5786330  48.1031247  91.6412390  47.6020665  47.8730933  90.2035978
  46.9209068  49.4773460  90.5635088  45.2901173  46.5545466  89.7271307
  44.4437345  46.3283340  89.0786201  46.1865456  46.0746854  89.3343849
  45.0883577  46.1803168  90.7307969  42.9793216  48.4841197  89.5240600
  42.5230116  47.3328895  89.4336700  36.1001168  50.6348797  92.7239938
  35.2413902  51.1657281  92.7537901  37.0446959  50.8998116  91.6315674
  38.0618910  50.9148501  92.0229585  36.9502209  49.8078379  90.5465674
  37.5622909  50.1155658  89.6987625  37.3447034  48.8801236  90.9610908
  35.6140684  49.6022628  90.1150591  35.5968497  48.9177678  89.4421773
  36.7639779  52.2830894  91.0288825  37.5645297  52.8083327  90.2282439
  35.5881448  52.8186944  91.3751132  34.8968923  52.2089764  91.7880458
  35.1950260  54.1877170  91.0423539  36.0863658  54.8096006  90.9594487
  34.4263886  54.2435352  89.7000295  34.8672880  54.9667762  89.0140051
  34.6211976  53.2341861  89.3375878  32.9407065  54.4694653  89.7798618
  32.4302489  55.7234504  90.0800440  33.1234938  56.5392140  90.2850822
  31.0725298  55.9471126  90.1215318  30.6827541  56.9225411  90.4125920
  30.2055699  54.9310519  89.7877802  28.8605713  55.1578007  89.8329644
  28.6397380  56.0507859  90.1075730  30.6833023  53.6919797  89.4151640
  29.9973424  52.8910938  89.1392270  32.0469492  53.4714432  89.3939517
  32.4379885  52.5062040  89.0722348  34.4510741  54.7977439  92.2354871
  34.3130825  56.0252843  92.2948235  34.0753089  53.9737654  93.2305343
  33.9811881  52.9856303  93.0439072  33.7365312  54.4640649  94.5723424
  32.9625178  55.2271140  94.4901323  33.2193168  53.3362572  95.4751674
  32.5195479  53.7989735  96.1710957  32.6814321  52.6467607  94.8244949
  34.2843278  52.5709431  96.2580365  34.8522807  51.9591247  95.5571737
  34.9494546  53.2940933  96.7300133  33.6643920  51.6752437  97.3289181
  34.4082127  50.9320559  97.6161489  33.4237129  52.2991539  98.1896788
  32.4017959  50.9694685  96.8439186  31.6138126  51.7154377  96.7404149
  32.6124577  50.5267777  95.8703964  31.9576821  49.9068463  97.7859500
  31.7620134  50.3169119  98.6879809  31.1220446  49.4670576  97.4276265
  32.6875359  49.2152899  97.8816695  34.9664700  55.1287456  95.1905099
  34.8513573  56.1017021  95.9561278  36.1400376  54.6007660  94.8254188
  36.1556218  53.7489493  94.2829571  37.4097107  55.1790646  95.2380399
  37.4679063  55.1782373  96.3264846  38.5851388  54.3948924  94.6895614
  38.4135858  53.3889037  95.0725177  38.7585322  54.3491532  93.6144137
  39.8435976  54.8711448  95.3009182  40.2961636  54.5835465  96.5580201
  39.7081466  53.8743104  97.1405318  41.4501327  55.2875599  96.8223295
  42.0033904  55.2176139  97.6644180  41.7321456  56.0931809  95.7486217
  42.7878495  56.9805631  95.5446461  43.5350711  57.0903355  96.3305905
  42.8182930  57.6640874  94.3578400  43.6275563  58.3688377  94.1667382
  41.8294343  57.4796477  93.3763669  41.8626357  58.0304439  92.4363559
  40.7827690  56.5922333  93.5741537  40.0650979  56.4512115  92.7659695
  40.7243336  55.8792404  94.7809861  37.5276620  56.6342213  94.8136056
  38.0852176  57.4407178  95.5468129  36.9960758  56.9745675  93.6450614
  36.6430244  56.2621564  93.0222255  37.0174720  58.3544474  93.1753333
  37.9470464  58.8302152  93.4878004  36.9231786  58.4202446  91.6450685
  36.1595226  57.6859581  91.3886470  36.6664977  59.3813490  91.1995427
  38.1739206  57.9738434  90.9960635  38.4726405  56.7138186  90.5993117
  37.6838057  55.9679600  90.6969551  39.7610849  56.6551657  90.1419935
  40.2154311  55.8355604  89.7652758  40.3300564  57.8927434  90.2649485
  41.6040949  58.3283584  89.9333228  42.3031955  57.6094920  89.5060197
  41.9046194  59.6425590  90.1653658  42.8946589  60.0219181  89.9123670
  40.9658761  60.5163309  90.7229647  41.2143611  61.5605521  90.9125872
  39.6948634  60.0818338  91.0502782  38.9991457  60.7994346  91.4851652
  39.3596606  58.7468469  90.8093840  35.9574704  59.2038970  93.8245121
  36.1448848  60.4040323  93.9905158  34.8462280  58.5883227  94.2109568
  34.6305689  57.6486030  93.9100957  33.8580027  59.3025558  94.9992783
  33.7078414  60.2923507  94.5681671  32.5121327  58.5739440  95.0320007
  32.7163458  57.5033351  95.0181212  32.0174896  58.8368571  95.9670435
  31.6014578  58.9352462  93.8535755  30.7508851  59.5032041  94.2304715
  32.1736898  59.5543898  93.1626965  31.0789353  57.7190159  93.0990139
  29.8909996  57.6151264  92.8045961  31.9717742  56.7985621  92.7767755
  31.6812099  55.9710301  92.2759116  32.9402290  56.9272374  93.0329771
  34.4089701  59.5409870  96.3915435  34.2112424  60.6224617  96.9612850
  35.1179337  58.5375992  96.9090032  35.1128799  57.6399319  96.4461132
  35.8413922  58.6615922  98.1695425  35.1247744  58.9574343  98.9357250
  36.4718042  57.3233162  98.5782199  35.6936577  56.5644176  98.6598290
  37.1984415  57.0183748  97.8251535  37.1709555  57.4808059  99.9243286
  37.9495994  58.2392659  99.8433784  36.4448165  57.7853062 100.6780553
  37.7973697  56.1510218 100.3304129  37.0192244  55.3921220 100.4120205
  38.5240078  55.8460824  99.5773469  38.4965192  56.3085120 101.6765231
  39.2751626  57.0669725 101.5955741  37.7703791  56.6130091 102.4302480
  39.1003428  55.0266878 102.0679601  39.7735454  54.7445680 101.3698868
  39.5633851  55.1309917 102.9594826  38.3789466  54.3238442 102.1434413
  36.9179181  59.7714967  98.0930631  36.8906963  60.7337274  98.8681766
  37.8331828  59.6230743  97.1344832  37.8358502  58.7507812  96.6253693
  38.8490080  60.6327349  96.7943912  39.6625590  60.6115029  97.5195003
  39.4321699  60.3235730  95.3823087  39.7427030  59.2787436  95.3823882
  38.6065793  60.4566463  94.6831723  40.6087368  61.2052120  94.9557727
  41.8351351  61.1334652  95.6159042  41.9553502  60.4077670  96.4202734
  42.8884011  61.9612568  95.2674536  43.8348065  61.9039485  95.8051658
  42.7401999  62.8499713  94.2313527  43.7898468  63.6764873  93.9083241
  44.5586810  63.5423723  94.4673472  41.5477133  62.9151080  93.5357910
  41.4350416  63.6172436  92.7097092  40.4972432  62.0886684  93.8886411
  39.5637561  62.1237753  93.3269744  38.2833357  62.0530881  96.8023613
  38.7974067  62.9383270  97.4971794  37.2247370  62.2606885  96.0227096
  36.8685219  61.5120758  95.4458308  36.5893704  63.5762310  95.9232953
  37.3331173  64.3057833  95.6028374  35.4388312  63.5839464  94.9257332
  35.8519200  63.3577571  93.9427300  34.7433838  62.7967602  95.2169218
  34.7023932  64.9182593  94.8725060  34.2469303  65.1797735  95.8276315
  35.4584376  65.6602908  94.6158189  33.6396288  64.9317287  93.8153497
  33.7790486  65.5911509  92.8017263  32.6040616  64.1308897  94.0078890
  31.8592576  64.1008100  93.3263733  32.5631883  63.5533769  94.8354817
  36.0761308  64.0809353  97.2658506  36.2129337  65.2684647  97.5667674
  35.4741930  63.1875101  98.0572900  35.3273080  62.2438749  97.7285399
  34.8753486  63.5788019  99.3368103  34.3063800  64.4800997  99.1086962
  33.9149605  62.5194049  99.8844860  33.1586779  62.2908951  99.1335405
  34.4715169  61.6138957 100.1261434  33.2369486  63.0500744 101.1431814
  33.9926176  63.2783890 101.8948047  32.6797763  63.9553868 100.9022029
  32.2804591  61.9949764 101.6886363  31.5241772  61.7664646 100.9376910
  32.8370167  61.0894687 101.9302949  31.6024458  62.5256479 102.9473308
  32.3581141  62.7539636 103.6989543  31.0452725  63.4309574 102.7063501
  30.6804546  61.5086016 103.4731141  31.1966126  60.6697870 103.6968789
  30.2314085  61.8600624 104.3067405  29.9799020  61.2972074 102.7769549
  35.9300570  63.9766296 100.3590555  35.6940473  64.8921528 101.1439170
  37.0860645  63.3062321 100.3377925  37.2251882  62.5783376  99.6515612
  38.1376253  63.5283355 101.3414890  37.6308262  63.8473901 102.2522349
  38.9011908  62.2236321 101.6345462  38.1972294  61.4524845 101.9473865
  39.4213475  61.8964069 100.7342902  39.9153903  62.4671556 102.7470749
  40.6200164  63.2379109 102.4347623  39.3958996  62.7939861 103.6478597
  40.6715895  61.1750429 103.0373034  39.9676289  60.4038942 103.3501420
  41.1917470  60.8478198 102.1370475  41.6670023  61.3735538 104.1144051
  41.7488490  62.2894555 104.5321665  42.4586752  60.4009525 104.5573514
  42.4096689  59.1695265 104.0572624  41.7558197  58.9534758 103.3184097
  43.0265261  58.4560929 104.4186475  43.3181546  60.6898346 105.5303586
  43.3528159  61.6259713 105.9079121  43.9322324  59.9717484 105.8872330
  39.1184711  64.6328540 100.9478767  39.5399227  65.4095319 101.7956072
  39.4820825  64.7020817  99.6672205  39.1271983  64.0297221  99.0023227
  40.4208945  65.7182750  99.1919942  41.2929590  65.7455214  99.8453398
  40.8867196  65.4051662  97.7665894  41.1746800  64.3541585  97.7429078
  40.0350199  65.5629968  97.1049270  42.0611548  66.2657425  97.2992389
  41.6675025  67.2299998  96.9777634  42.7319403  66.4117309  98.1459008
  42.8284748  65.6202173  96.1478527  43.1085367  64.6104291  96.4478393
  42.1679254  65.5714755  95.2821749  44.0799254  66.4072579  95.7869031
  43.8046054  67.4563044  95.6782706  44.7964344  66.3026930  96.6016302
  44.6952933  65.9215514  94.5190799  44.0316713  66.0187577  93.7639266
  45.5202639  66.4672000  94.3146510  44.9508738  64.9496160  94.6196742
  39.8343172  67.1312811  99.1982324  40.4904875  68.0893473  99.6051166
  38.6042358  67.2532248  98.7379951  38.0892476  66.4352711  98.4450135
  37.9668078  68.5571503  98.6007286  38.7146055  69.3479646  98.6599779
  37.2780024  68.6492459  97.2772141  36.5458174  67.8496364  97.1648351
  36.7793236  69.6138102  97.1821604  38.1988509  68.5385388  96.1391562
  39.2638373  69.3856823  96.0423425  39.4402665  70.1277758  96.8209758
  40.1040363  69.3053920  94.9773288  40.9479096  69.9901030  94.8927750
  39.8868242  68.3539052  94.0012510  40.5702351  68.2920967  93.1543572
  38.8245132  67.4918659  94.0891229  38.6354734  66.7505020  93.3127572
  38.0004546  67.5725363  95.1667201  37.1720785  66.8721075  95.2729860
  36.9743700  68.8169786  99.6977643  35.9994038  69.5542117  99.5009263
  37.2362024  68.2587901 100.8719289  38.0584796  67.6864416 100.9999010
  36.3307998  68.4227305 101.9938120  35.3577093  67.9967137 101.7494684
  36.8780134  67.7121364 103.2262093  36.8684977  66.6421787 103.0183649
  37.8907195  68.0228391 103.4830948  36.0453610  67.9172609 104.4483136
  36.1689417  69.0306961 105.2531900  36.8342989  69.7757905 105.1040799
  35.2881930  68.9617714 106.2339030  35.2309139  69.7498234 106.9847639
  34.5912807  67.8474863 106.0911718  35.0346800  67.1837158 104.9719016
  34.5669861  66.2454068 104.6736738  36.0966471  69.8833493 102.3290243
  34.9520301  70.3320788 102.5018675  37.1865964  70.6328619 102.3906880
  38.0906827  70.2240497 102.2020087  37.1337333  72.0333328 102.8310206
  36.4455905  72.1358007 103.6701028  38.5235506  72.4932025 103.2791519
  39.2807348  72.2225249 102.5432817  38.5448174  73.5707449 103.4420937
  39.0458496  71.7416733 104.8340901  40.2279280  72.3485301 104.8916548
  36.5639143  73.0040314 101.7946735  36.7167493  74.2240106 101.9410944
  35.9327818  72.4784537 100.7457179  35.9796859  71.4832140 100.5801967
  35.1791071  73.2983671  99.8100429  35.8333826  73.9989523  99.2911951
  34.4961788  72.4149634  98.7771407  33.8306250  71.7139845  99.2808934
  33.9183119  73.0357532  98.0924582  35.2495186  71.8612071  98.2168440
  34.1391717  74.1004459 100.5530852  33.7987610  75.2203380 100.1577014
  33.6462535  73.5285367 101.6555812  33.9073988  72.5843681 101.9014432
  32.5984798  74.1718341 102.4196720  31.8043494  74.4753705 101.7375270
  31.9948694  73.2462539 103.4993635  31.4329769  73.7821459 104.2643444
  31.3158929  72.6155705 102.9254912  33.0267353  72.3535250 104.1869810
  33.8638846  72.8170585 104.9599717  32.8767826  71.0533433 104.0099615
  33.5267865  70.4101245 104.4387554  32.1127972  70.7082826 103.4466142
  33.0159728  75.5124661 102.9927204  32.1548186  76.3128531 103.3621822
  34.3328709  75.7542803 103.0184591  34.9514811  75.0208534 102.7030137
  34.9259333  77.0112337 103.4838309  34.3221653  77.4268788 104.2905542
  36.3232788  76.7797910 103.9982597  36.8639842  76.4626094 103.1065575
  36.6783288  77.7628977 104.3073560  36.5612995  75.7851371 105.1121249
  37.1780303  74.9568822 104.7632153  37.2852355  76.5215097 106.2189339
  36.6688821  77.3496834 106.5686988  37.4773632  75.8377689 107.0457872
  38.2314947  76.9080788 105.8404392  35.2867417  75.1719150 105.6468651
  34.7701261  74.6474982 104.8430027  35.5279470  74.4677749 106.4431741
  34.6420854  75.9578049 106.0404313  34.9848322  78.0241125 102.3520600
  35.2252044  79.2158391 102.5692764  34.7711271  77.5311787 101.1344043
  34.4882108  76.5662597 101.0395932  34.8578537  78.3414796  99.9383308
  35.2917914  79.3133581 100.1733829  35.6942441  77.6856677  98.8248584
  36.3059944  78.4582564  98.3590597  36.5869819  76.5895301  99.3565487
  35.9758702  75.8162971  99.8221161  37.1582492  76.1554288  98.5359947
  37.2720141  77.0046771 100.0957945  34.8178261  77.1553526  97.8177668
  35.3390964  76.7462487  97.1231363  33.4845729  78.5024467  99.3550320
  32.5159634  78.0939617  99.9260948  33.4199156  79.0772475  98.1704737
  34.2630901  79.3942921  97.7137037  32.1456225  79.3304269  97.5179774
  31.3277660  79.1311833  98.2104453  32.0605931  80.8026449  97.0652279
  31.2896081  80.8751854  96.2981431  31.7723508  81.4040981  97.9273593
  33.2926134  81.2816205  96.5446807  33.1921807  82.1980396  96.2769326
  31.9099875  78.4010303  96.3206540  31.2335606  78.7836182  95.3452776
  32.4971572  77.2135431  96.3315590  33.2648066  77.0278949  96.9611212
  32.1519429  76.1897464  95.3301693  31.1426829  76.3538222  94.9525815
  33.1253250  76.2743313  94.1666701  34.1418472  76.5692588  94.4270537
  33.1428008  75.2944851  93.6894951  32.6658751  77.2118888  93.1685635
  31.5022234  77.1529908  92.4559747  30.8635218  76.2884415  92.6368464
  31.3891549  78.2386818  91.6365923  30.6490091  78.4119151  90.9715556
  32.4713742  79.0409678  91.8431049  32.8071221  80.2211493  91.2502120
  32.1253159  80.6605630  90.5220948  33.9860975  80.7760915  91.6135439
  34.3045916  81.7068495  91.1441283  34.8191537  80.1798234  92.5886951
  35.7589557  80.6483235  92.8808924  34.4790475  79.0211928  93.1831897
  35.1720942  78.5795951  93.8992752  33.2876190  78.4164508  92.8142095
  32.0327572  74.7609749  95.8463821  32.4916143  74.4426164  96.9357365
  31.4274930  73.8696255  95.0368276  30.6516644  74.1824694  93.8203328
  31.3003779  74.6838687  93.1020920  29.8244440  74.8415224  94.0838751
  30.1836448  72.8436064  93.3363569  30.8745079  72.4650127  92.5830482
  29.1889592  72.9393283  92.9009958  30.1555143  71.9696861  94.5327022
  30.3412030  70.9344781  94.2464100  29.2043364  72.0349873  95.0609975
  31.2859712  72.4711101  95.4304204  31.0318783  72.4629458  96.4903584
  32.5332155  71.6205997  95.2001426  33.3859306  71.9912989  94.4231703
  32.5749092  70.4675800  95.8571382  31.8856259  70.3124937  96.5788972
  33.6227783  69.4367181  95.6516973  34.5927120  69.8207656  95.9676648
  33.2962822  68.1858881  96.4811324  32.3456141  67.7829167  96.1319284
  34.0843413  67.4511674  96.3160614  33.1983242  68.5008483  97.9735926
  34.0449823  69.1402391  98.2234931  32.2702276  69.0518610  98.1256579
  33.2101179  67.2780616  98.8642365  33.5725584  66.4181774  98.3009115
  33.8636800  67.4536673  99.7187063  31.8677146  66.9833683  99.3551082
  31.6188274  67.3672935 100.2555281  30.9589338  66.2643618  98.6972890
  31.2469403  65.7128958  97.5233766  32.1651189  65.8382040  97.1216977
  30.5463817  65.1708972  97.0380367  29.7550951  66.0845605  99.2286778
  29.5364615  66.4930638 100.1261322  29.0637886  65.5401504  98.7328839
  33.8052501  69.0836245  94.1843027  34.9294540  69.0358581  93.6954959
  32.6922152  68.8709886  93.4840683  31.7986196  68.9700735  93.9442515
  32.7095563  68.4173961  92.0804451  33.4006367  67.5793225  91.9902248
  31.3104134  67.9616512  91.5876482  31.3633112  67.6252048  90.5522232
  30.9598591  67.1439411  92.2173798  30.2485136  69.0326147  91.6398898
  29.3650006  69.2226850  92.6245902  29.3723523  68.4926370  93.4339576
  28.6213346  70.3336249  92.3861651  27.8927286  70.6922342  92.9866918
  28.9783285  70.8530523  91.1797881  28.4575346  71.9343214  90.4810809
  27.6530800  72.5098569  90.9390223  28.9862428  72.2072567  89.2656571
  28.5822752  73.0249574  88.6687686  30.0364673  71.4648086  88.7609639
  30.4959607  71.7273910  87.8080653  30.5384441  70.3668407  89.4458485
  31.3651184  69.8116490  89.0025964  29.9909984  70.0485781  90.6732450
  33.2430924  69.4506059  91.1163109  33.5921725  69.1021448  89.9768953
  33.3196235  70.7107000  91.5505157  32.8898787  71.0111406  92.4137388
  33.9399055  71.7217930  90.6967083  33.7789433  71.4373979  89.6568478
  33.3935659  73.0886778  90.9054403  32.3128051  73.0254280  90.7787328
  33.6198128  73.5397695  91.8715814  33.9847594  73.9450050  89.7953705
  34.6447507  73.3251847  89.1884644  32.8881211  74.5299744  88.9161868
  32.2279524  75.1503347  89.5223463  33.3370299  75.1377988  88.1306099
  32.3131088  73.7212021  88.4652449  34.8759858  75.0069055  90.4212434
  35.6762232  74.5252758  90.9831620  35.3070102  75.6287719  89.6366408
  34.2842890  75.6287127  91.0930690  35.4348038  71.7092311  90.8609377
  36.1711135  71.5649240  89.8982121  35.8825914  71.8490210  92.0965574
  35.2422578  72.0692407  92.8459408  37.2884155  71.7555164  92.4038674
  37.8228057  72.5896426  91.9491589  37.5070241  71.8007857  93.9105532
  36.8157240  71.1216000  94.4094621  38.5295509  71.4571389  94.0669049
  37.3509627  73.1784151  94.4791761  38.3739996  74.0920909  94.4038026
  39.3019457  73.7903921  93.9180111  38.2485668  75.3724138  94.9271781
  39.0911930  76.0628407  94.8898462  37.0653303  75.7663264  95.4921356
  36.9250613  77.0506561  95.9980230  37.7193288  77.5809905  95.9006367
  36.0191688  74.8745807  95.5497798  35.0719310  75.1754793  95.9973298
  36.1696687  73.5882483  95.0368698  35.3372920  72.8855343  95.0748457
  37.8618944  70.4619436  91.7932675  39.0562663  70.3700541  91.4934570
  36.9893177  69.4873742  91.5764856  36.0478294  69.5580701  91.9352352
  37.4058783  68.2349526  90.9872688  38.3776460  67.9783875  91.4090996
  36.4488597  67.0685654  91.2217789  35.7966510  67.3036612  92.0628812
  35.8457437  66.9143753  90.3270295  37.1880645  65.8765044  91.5100184
  36.5784646  65.1493713  91.6558447  37.7402443  68.3989200  89.5260604
  38.6397859  67.7468766  89.0431986  37.0757468  69.3172207  88.8403361
  36.3610695  69.8488283  89.3164969  37.3617430  69.6372208  87.4269204
  37.3907111  68.7219152  86.8357557  36.2736222  70.5455263  86.8655042
  36.4258302  71.4656836  87.4296342  36.5358816  70.7128268  85.8208365
  34.8292834  70.1326341  86.9599201  34.4313197  70.3531651  87.9504209
  34.0635372  70.9305204  85.9175348  34.4606551  70.7101490  84.9266601
  33.0085410  70.6589735  85.9542233  34.1714142  71.9955268  86.1230208
  34.6665972  68.6280018  86.7501778  35.2307029  68.0912178  87.5129014
  33.6121204  68.3621876  86.8244921  35.0407416  68.3556487  85.7632944
  38.6697964  70.4094983  87.1913748  38.9420107  70.8329640  86.0833685
  39.3966375  70.7283705  88.2564464  38.9930716  70.6247255  89.1764962
  40.7398625  71.3462176  88.1435230  41.0756333  71.3323574  87.1066214
  40.6774382  72.7955983  88.6164963  40.3995684  72.8951452  89.6657713
  41.7213448  73.0820776  88.4888694  39.7886923  73.7098828  87.7635669
  38.4160939  73.5652954  87.7390257  37.9763480  72.7240288  88.2747435
  37.5956028  74.4609968  87.0527755  36.5148233  74.3201426  87.0661033
  38.1392744  75.5425804  86.4037385  37.3304054  76.4382905  85.6753228
  36.3998667  76.2029785  85.6933678  39.5050731  75.7085309  86.4376276
  39.9561303  76.5513544  85.9138945  40.3111000  74.8084677  87.1350921
  41.3875786  74.9704871  87.1902601  41.8144183  70.5331514  88.8849961
  42.8874605  71.0295651  89.2399874  41.4986698  69.2687011  89.1539912
  40.6220383  68.9135695  88.7997341  42.3575947  68.3625746  89.9090321
  43.0327631  68.9443579  90.5365471  41.5450165  67.4399368  90.7969403
  40.8382796  68.0100206  91.3999549  40.9977475  66.7939584  90.1104212
  42.4254346  66.5801664  91.7165994  43.4389670  67.0935610  92.2605729
  42.0563095  65.4090590  91.9417307  43.1280863  67.5124748  88.9278344
  42.5572944  66.6246277  88.3091866  44.4300672  67.7636972  88.8344640
  44.8109897  68.5202337  89.3846003  45.3256985  67.0398267  87.9413357
  45.1692619  67.3877891  86.9202829  46.7575376  67.3360172  88.3398756
  46.9321518  66.9850610  89.3569497  47.4379539  66.8257388  87.6581500
  46.9338032  68.4105856  88.2915805  45.0713427  65.5303614  87.9561270
  44.8986023  64.9045353  86.9192102  45.0129938  64.9714510  89.1503270
  45.0917862  65.5392884  89.9818628  44.8709469  63.5330943  89.3087403
  45.7007219  63.0196124  88.8230356  44.8728864  63.1673518  90.7994001
  43.9324464  63.5298586  91.2144430  44.8994962  62.0792139  90.8572607
  46.0388644  63.7480814  91.5976654  46.1056103  64.8148111  91.3838114
  45.8065825  63.6034068  92.6527548  47.3653626  63.0840272  91.2763113
  48.4109700  63.6208359  91.6992850  47.3709628  62.0196395  90.6181614
  43.5616558  63.0490095  88.6432196  43.5443059  62.0413908  87.9092437
  42.4824552  63.7991196  88.8473421  42.5257854  64.6098709  89.4480952
  41.1848972  63.4222939  88.2821001  40.9620094  62.3736078  88.4787665
  40.0604432  64.2830551  88.8771593  40.2521732  65.3280954  88.6337863
  38.6900632  63.8666502  88.3085333  38.4974135  62.8217838  88.5519259
  37.9101824  64.4906154  88.7450565  38.6918985  63.9925932  87.2258350
  40.0638862  64.1506554  90.3090153  39.3613600  64.6883447  90.6817718
  41.1774604  63.5073452  86.7609572  40.8497072  62.5450495  86.0852955
  41.5493187  64.6703223  86.2399603  41.8482914  65.4004283  86.8705631
  41.5869525  64.9357870  84.8102046  40.5767837  65.0003015  84.4058580
  42.2917446  66.2643539  84.5729435  43.2629626  66.1354840  85.0506752
  42.4270291  66.3583373  83.4954626  41.6273579  67.5165091  85.1094804
  41.3971468  67.3681165  86.1645081  42.5388857  68.7176240  84.9557141
  42.7691807  68.8669391  83.9008359  42.0411262  69.6046637  85.3475009
  43.4628200  68.5462936  85.5080652  40.3266452  67.7348075  84.3649335
  39.6725847  66.8759723  84.5156200  39.8381302  68.6334214  84.7416928
  40.5317839  67.8523582  83.3008851  42.3728424  63.8687196  84.0843361
  41.9032588  63.3296584  83.0907439  43.5650474  63.5647892  84.5907061
  43.9123765  64.1101102  85.3666486  44.4404779  62.5355850  84.0160984
  44.7093747  62.8131826  82.9969157  45.7194505  62.3861664  84.8342110
  45.4555699  62.4119381  85.8914726  46.1687290  61.4221087  84.5957966
  46.7189567  63.5026013  84.5314546  47.0197376  63.3641466  83.4929643
  46.1653878  64.4366558  84.6274011  48.1851409  63.5763484  85.5659231
  48.8502559  61.9161708  85.3686665  49.0741941  61.7364815  84.3171617
  49.7631938  61.8177938  85.9560055  48.1168716  61.1870836  85.7131671
  43.6970589  61.2008605  83.8877052  43.8002607  60.5163256  82.8575837
  42.9317491  60.8667749  84.9249653  43.0297979  61.3679463  85.7963510
  42.1030076  59.6677073  84.9068414  42.6956860  58.8472409  84.5022844
  41.5963104  59.2696804  86.2694645  41.9787684  60.0478261  86.9300055
  40.5078256  59.2504857  86.3236146  42.1411106  57.9398215  86.6965474
  43.3281169  57.9080003  87.0669045  41.4296524  56.9168060  86.5679686
  40.9849978  59.7242688  83.8631394  40.7561071  58.7656202  83.1583075
  40.3086935  60.8548335  83.7549881  40.4787720  61.6024427  84.4124478
  39.2655734  61.0474722  82.7330235  38.5165156  60.2609585  82.8247174
  38.5727000  62.4065218  82.9006768  39.3560020  63.1323476  83.1191124
  38.1146756  62.6448595  81.9407242  37.5109933  62.4579568  83.9978105
  36.6188138  61.9401783  83.6456427  37.8979577  61.9529746  84.8828831
  37.1577070  63.8943748  84.3482059  36.4085674  63.8953632  85.1399684
  38.0538224  64.4083228  84.6959617  36.6184207  64.6201566  83.1883860
  36.3624769  64.0789971  82.3749129  36.4605902  65.9408978  83.1478122
  36.7937418  66.6636444  84.2162042  37.1594048  66.2049361  85.0383826
  36.6791217  67.6669736  84.1991077  35.9646442  66.5465940  82.0603185
  35.7042586  65.9965547  81.2542439  35.8534701  67.5504186  82.0516445
  39.8521038  60.9332240  81.3316333  39.2132847  60.4009918  80.4337162
  41.0733741  61.4269433  81.1566104  41.5095779  61.9385550  81.9103205
  41.8001192  61.2987794  79.8938283  41.1266416  61.5834722  79.0854490
  43.0360862  62.2058610  79.8722346  43.5957197  62.0783346  80.7988671
  43.9134477  61.8385287  78.7004369  43.3546117  61.9662550  77.7733507
  44.7914348  62.4843242  78.6867421  44.2288437  60.7993353  78.7937189
  42.6033184  63.6569899  79.7228697  42.2843358  63.7836118  78.6883081
  41.7497108  63.7988823  80.3856820  43.6682902  64.6762523  80.0491353
  44.5220895  64.5352751  79.3863744  43.2652646  65.6798369  79.9131664
  43.9874662  64.5505439  81.0837483  42.2194461  59.8391676  79.6674759
  42.0885906  59.3284495  78.5599278  42.7046194  59.1728279  80.7149908
  42.9126339  59.6560191  81.5771715  43.0664526  57.7570763  80.6073892
  43.9101633  57.6596493  79.9241913  43.4558172  57.1563452  81.9492936
  42.9698198  57.7400369  82.7310927  43.0848492  56.1318100  81.9777607
  44.9622762  57.1571881  82.1775204  45.4349820  56.6762569  81.3211587
  45.2947813  58.1932936  82.2409848  45.3521031  56.4200824  83.4526209
  44.6106041  56.6417184  84.2201857  45.3522315  55.3497322  83.2465872
  46.7313171  56.8427463  83.9423370  47.2011547  55.9657497  84.3875674
  47.3038433  57.1574507  83.0698268  46.6988463  57.9534550  84.9442781
  46.1687400  57.6618920  85.7530290  47.6419732  58.1818739  85.2243434
  46.2639072  58.7663329  84.5317777  41.9744215  56.9277722  79.9410389
  42.2412719  56.2051673  78.9950055  40.7516167  57.0546079  80.4150168
  40.5886504  57.6815824  81.1899003  39.6120586  56.2887491  79.8857499
  39.7545292  55.2232859  80.0662756  38.3244119  56.7383267  80.5920083
  38.2963040  57.8262748  80.5313612  37.4926648  56.3216729  80.0239446
  38.2095962  56.3071385  82.0524179  38.0139893  55.2350576  82.0743576
  39.1617569  56.5123024  82.5417029  37.0878140  57.0456731  82.7890381
  37.5419182  57.8115202  83.4178200  36.4481331  57.5197677  82.0446310
  36.2513168  56.1073229  83.6546977  35.3290399  55.8856388  83.1177042
  36.8174403  55.1870757  83.7987408  35.9234833  56.6995795  84.9786733
  35.3985278  57.5520866  84.8454325  35.3713193  56.0442270  85.5132087
  36.7779435  56.9046765  85.4766010  39.4133136  56.4292746  78.3725298
  39.1273690  55.4504588  77.6901508  39.5908111  57.6359747  77.8456868
  39.7747831  58.4345707  78.4360240  39.5320469  57.8438962  76.3853171
  38.5921684  57.4343125  76.0152241  39.6146427  59.3322501  75.9817858
  40.6647808  59.6093085  76.0742405  39.3191547  59.3746892  74.9334606
  38.7623753  60.3002969  76.7879972  38.6776931  59.8777779  77.7892002
  39.2442378  61.2763026  76.8456471  37.3703270  60.4806814  76.2195222
  36.9117468  61.6108144  76.0147377  36.6685206  59.3705923  76.0095121
  35.7338541  59.4315932  75.6316513  37.0734658  58.4716991  76.2288559
  40.6940050  57.1339007  75.7130429  40.5086292  56.4344841  74.7372308
  41.8972279  57.3186182  76.2520300  41.9706586  57.8842477  77.0855589
  43.1240224  56.6822010  75.7264203  43.3036894  57.0243402  74.7072247
  44.3431453  57.0407773  76.5860088  43.9113833  56.9111024  77.5784126
  45.0636800  56.2450313  76.3970167  45.0446597  58.3875307  76.5109436
  44.4454751  59.1400494  77.0235781  46.4182814  58.2833272  77.1836391
  47.0182464  57.5312780  76.6712304  46.9232690  59.2478611  77.1310802
  46.2913700  57.9966467  78.2275779  45.1558006  58.8631796  75.0685270
  44.1583299  58.9638710  74.6407269  45.6612464  59.8285313  75.0416586
  45.7274872  58.1380658  74.4893176  43.0448539  55.1595018  75.7735114
  43.7798635  54.4740832  75.0647418  42.1896898  54.6458809  76.6568810
  41.6867899  55.2807826  77.2602803  42.0013488  53.2133698  76.8504182
  42.9782918  52.7300833  76.8396560  41.3030933  52.8763955  78.1714483
  41.8535805  53.3738483  78.9699493  40.2922371  53.2810239  78.1209940
  41.2369940  51.3678722  78.4579538  40.6385541  50.9097802  77.6704754
  42.2545970  50.9799010  78.4125165  40.6262898  51.0368884  79.8192440
  39.5400624  51.0820877  79.7407200  40.9276291  50.0297699  80.1073524
  41.0600830  51.9704654  80.8570780  40.3611942  52.6024655  81.2207119
  42.2971954  52.0355356  81.3531110  43.2392979  51.1933921  80.9366304
  43.0178164  50.4977946  80.2386403  44.1716154  51.2535722  81.3203778
  42.5975678  52.9559634  82.2672478  41.8873574  53.6015786  82.5817034
  43.5342341  53.0042772  82.6419754  41.2283683  52.6173351  75.6848223
  41.3622087  51.4282422  75.3871887  40.3477648  53.4594408  75.1628037
  40.2660902  54.3708551  75.5902995  39.4814759  53.1445792  74.0507826
  38.9287413  52.2304236  74.2673538  38.4889461  54.2627805  73.7991650
  39.0459382  55.1926157  73.6839890  37.9554331  54.0425252  72.8745291
  37.4925384  54.4074894  74.9359219  37.0795843  53.4217273  75.1500310
  38.0328524  54.7720761  75.8095560  36.3732581  55.3592224  74.6050792
  35.6481999  55.7787582  75.5294835  36.2246249  55.6868714  73.4132368
  40.3854796  52.9287597  72.8864071  40.1640006  52.0554660  72.0672135
  41.4336897  53.7285884  72.8186602  41.5057614  54.5586901  73.3894807
  42.4092198  53.5312133  71.7693185  41.8976129  53.4522378  70.8100894
  43.3828443  54.6792515  71.7026433  43.7263892  55.0269399  72.6769065
  44.2439123  54.4632716  71.0701761  42.6639127  55.8252115  71.0690551
  41.7259767  55.7375844  70.0922938  41.4800087  54.7370642  69.7365428
  41.2786598  56.9769532  69.7569963  40.5858803  57.1830261  69.0515247
  41.9249465  57.9009217  70.5277289  41.8115560  59.2710012  70.5492181
  41.1054239  59.7485206  69.8699160  42.5955465  59.9460593  71.4250899
  42.5350048  61.0335017  71.4687208  43.4721001  59.2900527  72.2666249
  44.0950263  59.8477071  72.9659703  43.5861058  57.9353380  72.2504785
  44.2990401  57.4688423  72.9303367  42.8011954  57.2109635  71.3651174
  42.9712316  52.1282995  71.9931165  43.3733400  51.4523720  71.0617965
  42.9648634  51.7035823  73.2551041  42.9051260  52.4304825  73.9537792
  43.2320330  50.3458311  73.6953518  42.7452658  50.1457770  74.6498858
  42.6725420  49.3752946  72.6466985  41.7407596  49.7892870  72.2613534
  43.4025233  49.3118934  71.8397241  42.4189602  48.0036608  73.2003004
  42.7180723  47.7715828  74.3910215  41.9072006  47.1590867  72.4378729
  44.5284709  49.7538362  74.1644614  45.6295665  50.1318879  73.7983651
  44.2776977  48.7886051  75.0364326  43.3328169  48.8152655  75.3922258
  45.2085957  47.8688483  75.6387741  44.7016893  47.2891410  76.4101914
  45.7731284  46.9101615  74.6029433  46.2441799  47.5091651  73.8235818
  46.5285421  46.2998143  75.0978437  44.7218546  46.0083081  73.9816311
  44.0556889  46.6278859  73.3812584  45.2516194  45.3108690  73.3327651
  43.9064054  45.2302046  75.0035565  43.5536858  45.7867693  76.0645078
  43.5996707  44.0502042  74.7333068  46.2961053  48.4366681  76.4908730
  47.2506929  47.7395292  76.7976709  46.1799672  49.6748172  76.9233366
  45.4537198  50.3411514  76.7027400  47.2951776  50.1163268  77.7609649
  48.1790207  50.1903866  77.1273754  46.9924622  51.5014752  78.3431921
  46.7995349  52.2030629  77.5316177  46.1151622  51.4416268  78.9872906
  48.1646593  52.0185988  79.1647901  49.1839360  51.3436121  79.2909214
  48.0175891  53.2214799  79.7248538  48.7655567  53.6113299  80.2804267
  47.1590280  53.7361694  79.5904347  47.6177143  49.1250299  78.8941892
  48.1368381  49.5144950  79.9463710  53.1828570  52.0848511  83.5326940
  53.7708025  52.8160637  83.9065223  52.3405616  52.3946910  82.3661805
  52.4011610  51.5853062  81.6386345  50.8651450  52.5596145  82.8003259
  50.8474987  52.8259205  83.8571461  50.4248710  53.3670800  82.2152975
  50.1154685  51.3644642  82.5993732  49.2080176  51.5050751  82.8793039
  52.8512035  53.6319569  81.5766371  53.5868370  53.4830056  80.6071311
  52.5061256  54.8381311  82.0523576  51.8589427  54.8645224  82.8273138
  52.9311758  56.1207349  81.4494275  53.8930842  55.9948840  80.9524435
  51.8971991  56.5953106  80.4086494  52.1745952  57.6400333  80.2682746
  52.0730899  56.0458112  79.4838722  50.4131268  56.5067256  80.7807343
  50.1231894  55.4563436  80.8078411  50.1472911  57.1404065  82.1362264
  50.4365690  58.1909856  82.1097574  49.0861222  57.0621260  82.3726447
  50.7282459  56.6232512  82.8998640  49.5213101  57.1386015  79.7153763
  49.6666123  56.6225008  78.7663626  48.4775388  57.0545473  80.0179942
  49.7819871  58.1906493  79.5998689  53.1690790  57.1315735  82.5966404
  53.3064048  56.7095634  83.7530690  53.3724343  58.4399723  82.2789593
  52.9498603  59.2613139  81.1249328  51.8992833  59.0646987  80.9110853
  53.5527483  58.9957787  80.2565342  53.1925072  60.6772554  81.5818334
  52.2488544  61.1095939  81.9145523  53.5830998  61.2580980  80.7462734
  54.1809426  60.6120367  82.6909917  54.0060881  61.4288054  83.3912871
  55.2152491  60.6429885  82.3484255  53.8973183  59.2743123  83.3721420
  54.8028570  58.7983622  83.7483993  52.8999480  59.4500717  84.5192885
  51.6869763  59.3213371  84.3293356  53.4362792  59.7227426  85.7125803
  54.4428349  59.7609753  85.7866289  52.6365345  59.9949854  86.9190567
  51.6498702  59.5445388  86.8109339  53.3157907  59.4043751  88.1850043
  54.0191632  60.1496237  88.5564487  52.5354889  59.2398212  88.9280730
  54.0042616  58.1822566  87.9416973  54.4003306  57.8700112  88.7585400
  52.5154549  61.5129675  87.1172765  51.5273565  62.0081623  87.6571142
  53.5629471  62.2030956  86.6961526  54.3837059  61.6997362  86.3910563
  53.6097674  63.6428865  86.7076005  53.2821702  64.0241223  87.6747812
  55.0497110  64.1104700  86.4584701  55.6510363  63.8871331  87.3397349
  55.4353163  63.5524951  85.6051984  55.1617635  65.5986493  86.1574243
  54.2144856  66.3729286  86.3191528  56.3489998  66.0042874  85.7269716
  56.4971413  66.9789143  85.5072982  57.0994150  65.3366663  85.6208594
  52.6489395  64.1955370  85.6588497  52.7543994  63.8718547  84.4627486
  51.7238310  65.0630818  86.1019570  51.6603725  65.5988492  87.4769012
  52.6689225  65.6830572  87.8816679  51.0732104  64.9267682  88.1027180
  50.9994664  66.9338160  87.2938721  51.7387355  67.6949882  87.0444786
  50.4704681  67.2253262  88.2012221  50.0450429  66.7121518  86.1689851
  49.8252659  67.6461781  85.6518855  49.1148752  66.2615027  86.5151108
  50.7722816  65.7490890  85.2202150  50.0991009  64.9889097  84.8239152
  51.4232564  66.5108975  84.0580163  50.8893486  66.4862597  82.9703875
  52.5518897  67.1675155  84.2829838  52.9086209  67.2103841  85.2269142
  53.3039723  67.8378236  83.2285343  52.7648206  68.6911780  82.8171938
  54.6518920  68.3067006  83.7873519  55.1989288  67.4414359  84.1617423
  55.4680819  68.9926867  82.7107563  54.9218575  69.8583828  82.3361769
  56.4210205  69.3177898  83.1282689  55.6493546  68.2960769  81.8922368
  54.4195529  69.2345294  84.9872870  54.1108989  70.1993000  84.5847312
  53.6016369  68.8040076  85.5650100  55.6232751  69.4241046  85.8824624
  56.4415110  69.8550519  85.3055098  55.3650474  70.0943577  86.7023273
  55.9322504  68.4597584  86.2857870  53.5558490  66.8821855  82.0395045
  53.2203636  67.1762827  80.8780681  54.1265493  65.7304646  82.3428741
  54.4744937  65.5549609  83.2746640  54.4619126  64.7876142  81.2957472
  54.9151656  65.3177545  80.4581244  55.4454559  63.7440275  81.7994956
  55.0500316  63.4786755  82.7799685  55.4859091  62.8539754  81.1715857
  56.8590639  64.3232515  81.9576155  57.0721170  65.1624643  82.8596916
  57.7234092  64.0262529  81.1070604  53.2127711  64.2364305  80.6253525
  53.1118236  64.2290666  79.4095637  52.2578690  63.8140655  81.4310904
  52.3917407  63.8562340  82.4312902  51.0250810  63.2588736  80.9290569
  51.2288742  62.3203007  80.4136459  50.0463643  62.9859363  82.0731412
  50.4908358  62.4980870  82.9406361  49.6485688  63.9571925  82.3672844
  48.8775113  62.1512086  81.6659394  47.9305017  62.6544588  80.7956561
  48.0256686  63.6817000  80.4437773  46.8780448  61.8779232  80.3729743
  46.1183212  62.3027861  79.7169162  46.7825528  60.5640537  80.7774457
  45.9575222  59.9401212  80.4337414  47.7378045  60.0398791  81.6214185
  47.6713837  58.9997734  81.9405871  48.7801143  60.8331798  82.0631258
  49.5349336  60.4189374  82.7315200  50.4000696  64.2147517  79.9375667
  50.0648472  63.8230027  78.8515020  50.2916869  65.4800517  80.3217531
  50.6783219  65.7360659  81.2190097  49.6467393  66.5273539  79.5162231
  48.6078395  66.2607015  79.3221023  49.6775655  67.8661927  80.2662195
  48.9991043  68.5550112  79.7629117  49.3304377  67.6946602  81.2851301
  50.9822190  68.4264855  80.2989180  50.9606663  69.2600050  80.7747127
  50.3375136  66.7375382  78.1807249  49.6843393  67.0135533  77.1810470
  51.6644574  66.6052401  78.1791305  52.1488547  66.4745959  79.0557095
  52.4655020  66.6647618  76.9376018  52.1009011  67.4746897  76.3057931
  53.9237085  66.9132633  77.2478948  54.0262599  66.1844450  78.0518888
  54.5984862  66.6516773  76.4328194  54.2688617  68.2766323  77.7633239
  54.0138004  69.4305952  77.0125128  53.4688392  69.3401527  76.0728655
  54.4436902  70.6764153  77.4483933  54.1998907  71.5828187  76.8942303
  55.1757441  70.7574214  78.6189424  55.6512205  71.9414031  79.1162304
  55.4227326  72.6966589  78.5694382  55.4792805  69.6231899  79.3360662
  56.0630362  69.6993200  80.2534178  55.0475683  68.3963479  78.8971022
  55.3188208  67.4946593  79.4461742  52.4088478  65.3871290  76.0636024
  52.5228939  65.4529167  74.8444062  52.2799075  64.2366364  76.7105160
  52.3519426  64.2402448  77.7179371  52.1254299  62.9550803  76.0333139
  52.8979673  62.8202797  75.2762710  52.2622940  61.8327145  77.0825109
  53.3319284  61.6986526  77.2437836  51.8028528  62.2139446  77.9944744
  51.6382036  60.5067449  76.7214848  51.7081098  59.8531903  77.5910136
  50.5892114  60.6816448  76.4824714  52.3221680  59.8498327  75.5401957
  52.2199314  60.4770945  74.6546510  53.3795057  59.6996898  75.7583552
  51.7147061  58.5576353  75.2682367  51.0910392  58.4967159  74.4761333
  51.9258134  57.4627167  75.9965573  51.2751028  56.3445716  75.6999544
  50.6261249  56.3316863  74.9261575  51.4319103  55.5117425  76.2494148
  52.7799395  57.4788988  77.0235334  53.2730144  58.3299856  77.2529424
  52.9287443  56.6399734  77.5658986  50.7916849  62.8692253  75.2611720
  50.7544348  62.3975607  74.1375973  49.7030891  63.3140892  75.8626137
  49.7239615  63.6212290  76.8245538  48.4142639  63.2904109  75.1696504
  48.3311500  62.4165526  74.5234593  47.2405920  63.2894243  76.1442494
  46.3103845  63.1677923  75.5892548  47.3938965  62.1450481  77.1322560
  48.3237199  62.2662482  77.6879897  46.5533660  62.1484344  77.8262283
  47.4147245  61.1984499  76.5922378  47.1444680  64.6142704  76.8669354
  46.9988046  65.4146989  76.1415401  46.3009484  64.5919953  77.5569196
  48.0642685  64.7924361  77.4240034  48.2831811  64.4415619  74.2033992
  47.5318271  64.3637831  73.2434661  49.0262477  65.5067597  74.4441724
  49.5362610  65.5733585  75.3133964  49.1060176  66.6222067  73.5087816
  48.1217692  67.0752697  73.3900874  50.0655863  67.6764485  74.0322061
  51.0577720  67.2401667  74.1476437  50.1139847  68.5064693  73.3273492
  49.7147252  68.0404803  74.9978544  49.5580834  66.1365300  72.1333368
  48.9953832  66.5290041  71.1065162  50.5677183  65.2757972  72.1151611
  51.0212127  65.0167748  72.9796549  51.1009862  64.7306116  70.8573296
  51.1976866  65.5662145  70.1641370  52.4707584  64.1414899  71.0971123
  52.3890930  63.2977643  71.7823553  52.8911236  63.8009848  70.1508303
  53.1220811  64.8999234  71.5314584  50.2018630  63.6786212  70.2027438
  50.3100093  63.4310133  69.0117863  49.3278053  63.0512993  70.9812273
  49.3404591  63.2339256  71.9744980  48.3277377  62.0925698  70.4560038
  48.8040260  61.3930002  69.7690897  47.7057036  61.2949365  71.6183221
  47.2081515  61.9813938  72.3033895  46.9781398  60.5861757  71.2228361
  48.8585809  60.3217557  72.6294913  47.9391602  59.8326483  73.4567385
  47.1913978  62.7882442  69.7105445  46.6092995  62.2692834  68.7784129
  46.8431011  63.9843570  70.1586714  47.3691786  64.3616006  70.9339320
  45.8250937  64.8013705  69.5666631  44.8605854  64.2964838  69.6206300
  45.7241401  66.1261688  70.3149356  46.7677966  66.4076727  70.4550645
  45.2489825  66.8254279  69.6269226  45.0087923  66.1651229  71.6465343
  45.5895678  65.6446235  72.4080334  44.8558544  67.6275018  72.0373349
  44.2747517  68.1485897  71.2764893  44.3422757  67.6960537  72.9963126
  45.8408093  68.0870655  72.1195868  43.6627231  65.4671550  71.5585881
  43.8106859  64.4263128  71.2707442  43.1674020  65.5084192  72.5286683
  43.0426805  65.9651126  70.8131457  46.1026574  65.2144313  68.1443255
  46.9458195  66.0406408  67.9453368  45.3035051  64.7294706  67.1848888
  44.0210202  64.0667834  67.4714267  43.3975161  64.7272825  68.0739911
  44.2042680  63.1419745  68.0184621  43.4446612  63.8187055  66.0980350
  42.5373882  64.4127893  65.9884034  43.1984488  62.7606060  66.0091176
  44.4959305  64.2182996  65.0773532  43.9753421  64.6991825  64.2491995
  45.1288746  63.4186178  64.6926581  45.3410285  65.2367786  65.8154390
  46.3818729  65.3142247  65.5012045  44.6796077  66.6015872  65.7158498
  43.4505665  66.6802537  65.5860183  45.4624137  67.6576836  65.8550654
  46.4453507  67.5347544  66.0521000  44.9376333  69.0137135  65.7808993
  43.9220394  69.0016433  65.3852700  44.9482398  69.7313112  67.1522238
  45.0600189  70.8038748  66.9934374  43.6569905  69.4635569  67.8912075
  43.5447299  68.3911605  68.0507825  43.6764559  69.9736034  68.8543141
  42.8173894  69.8325629  67.3021373  46.1460530  69.3014349  68.0074121
  45.9207792  68.3168021  68.4171081  47.0116444  69.2309580  67.3487133
  46.4506227  70.2633073  69.1414005  45.5855978  70.3339548  69.8008250
  47.3088355  69.8995776  69.7064408  46.6764609  71.2481119  68.7324299
  45.7455572  69.8226724  64.7772307  46.6460451  69.2838555  64.1432734
  45.3824386  71.0893338  64.5841539  44.5557383  71.4561845  65.0336944
  46.0063852  71.8827537  63.5280647  46.6588200  71.2443381  62.9323688
  44.9340771  72.5153671  62.5878638  45.1967411  72.4891618  61.5303100
  44.1011714  71.8367279  62.7717573  44.5285509  73.9351115  62.9761270
  45.2783023  74.8948814  62.6613453  43.3798375  74.1063282  63.4391597
  47.0823871  72.8508785  64.0616978  47.0108202  73.3130026  65.1973494
  48.1266016  73.0539900  63.2518116  48.1272889  72.6329126  62.3337742
  49.3325430  73.7391871  63.6984472  49.8233774  73.0376070  64.3729591
  50.2742606  74.0153857  62.5009547  50.4739741  73.0831717  61.9725696
  49.8003178  74.7234107  61.8211174  51.5882684  74.6022078  63.0115942
  52.5080890  73.7906629  63.2995641  51.6596669  75.8564200  63.1088241
  49.0468424  75.0222123  64.5235476  49.8353837  75.3698468  65.4025981
  47.9215698  75.6968127  64.2778205  47.3378163  75.4603261  63.4882603
  47.6072840  76.9079465  65.0340767  48.5110972  77.4300449  65.3481376
  46.7085000  77.9020808  64.2407228  46.9018961  77.7624780  63.1771401
  45.2263343  77.6794605  64.5209551  45.0320682  77.8193549  65.5843418
  44.6362150  78.3940980  63.9472366  44.9496630  76.6655559  64.2319012
  47.1097396  79.3452043  64.5555266  48.1507050  79.5032002  64.2735152
  46.4739153  80.0302348  63.9946698  46.9907487  79.5313526  65.6229023
  47.0426921  76.6265056  66.4317558  47.3344482  77.3493519  67.3711772
  46.2493935  75.5742257  66.5635224  46.0177725  75.0487084  65.7326899
  45.7773247  75.0710267  67.8596346  45.2855279  75.8598269  68.4288703
  44.7633627  73.9528297  67.5954572  44.9316413  73.8159221  66.5272635
  45.1284425  73.0790374  68.1351829  43.2803850  74.1231212  67.8550088
  42.7036738  73.8614170  66.9678696  42.9093850  73.1839295  68.9972233
  43.4853955  73.4453280  69.8849066  41.8453909  73.2778163  69.2144849
  43.1317474  72.1562166  68.7100621  42.8920308  75.5753051  68.1276053
  43.1522595  76.1894982  67.2655454  41.8186215  75.6374271  68.3065874
  43.4277364  75.9365620  69.0054503  46.8848950  74.3969258  68.6760720
  46.8972704  74.4838485  69.9046034  47.7744393  73.6765853  67.9973441
  47.6659381  73.5514585  67.0010158  48.8910807  72.9951731  68.6677465
  48.5300480  72.3304250  69.4525168  49.6320806  72.1563261  67.6165944
  48.8905556  71.4594265  67.2259911  49.9178202  72.8586538  66.8335307
  50.8587101  71.3850344  68.0774298  51.4005511  71.0752314  67.1838240
  51.4754084  72.0734395  68.6552565  50.5341815  70.1588576  68.9257685
  51.4206111  69.9349628  69.5192434  49.7139535  70.4346117  69.5885545
  50.1496227  68.9492539  68.1765073  49.2394619  68.5711085  68.3972168
  50.9219001  68.2876889  67.3087531  52.1015456  68.7604157  66.9295595
  52.4323859  69.6399593  67.2997591  52.6636519  68.2387099  66.2723234
  50.4649204  67.1747789  66.7515011  49.5420363  66.8382017  66.9862368
  51.0417997  66.6687094  66.0948409  49.8204594  74.0088658  69.3505615
  50.3671119  73.7305068  70.4409290  49.9774291  75.1926007  68.7347172
  49.4791720  75.4174739  67.8854404  50.8049183  76.2365416  69.3538804
  51.6505144  76.0441571  70.0142247  51.0429031  77.5668731  68.5805813
  50.2608624  78.2667841  68.8749237  52.4140651  78.1849736  68.8655593
  53.1966776  77.4857824  68.5710255  52.5213515  79.1095887  68.2983933
  52.5018881  78.4002911  69.9304652  50.3027606  77.7300708  67.2482913
  50.6091716  76.9092787  66.5998214  49.2352653  77.6509098  67.4539289
  50.5897199  79.0587014  66.5562240  51.6570309  79.1383868  66.3498329
  50.0343596  79.1085037  65.6196378  50.2831264  79.8800184  67.2039420
  50.1705212  76.7940805  70.6142203  50.8699788  77.2526288  71.5235237
  48.8420642  76.7604239  70.6700526  48.3329404  76.4691843  69.8478168
  48.0762978  77.2170853  71.8382633  48.3850863  78.2269923  72.1081458
  46.5752479  77.2297819  71.5306109  46.4630075  76.9299961  70.4886753
  46.1135649  76.4817469  72.1751204  45.8937994  78.5787711  71.7479659
  46.0707187  78.8663115  72.7843640  46.3189281  79.3321471  71.0847976
  44.3879018  78.5137860  71.5102282  43.6495503  77.9399205  72.3108307
  43.9309557  79.0669793  70.3843097  42.9415847  79.0493681  70.1819823
  44.5767406  79.5005475  69.7400412  48.3473292  76.4078483  73.0876013
  48.6943303  76.9817850  74.0981417  48.1834370  75.0799421  73.0209269
  47.9488658  74.6865483  72.1207508  48.4626948  74.1607088  74.1306400
  47.7065881  74.2599859  74.9094505  48.4372197  72.7308140  73.6070706
  48.7265632  72.8556665  72.5636189  49.2492714  72.2516065  74.1539089
  47.1980182  71.8673695  73.6864080  46.3884980  72.4340917  74.1464120
  46.7856177  71.4411905  72.2835608  47.5945109  70.8739806  71.8230572
  45.8925333  70.8188562  72.3401395  46.5742473  72.3252985  71.6820826
  47.4955379  70.6456082  74.5322227  47.7874007  70.9592318  75.5344980
  46.6053877  70.0194571  74.5927920  48.3081221  70.0781304  74.0785987
  49.8884329  74.3336684  74.6197995  50.1947014  74.3585189  75.8299776
  50.7718536  74.3545822  73.6280498  50.4535118  74.2183660  72.6792595
  52.1845772  74.5342451  73.8561142  52.5812239  73.7108572  74.4500863
  52.9248037  74.5633184  72.4916624  52.2894223  73.8133264  72.0205981
  52.7315541  75.5370477  72.0415448  54.4159306  74.1833919  72.2822677
  54.5227650  73.8913242  71.2375746  55.4239122  75.3110866  72.6077885
  55.3179869  75.6033854  73.6525086  56.4386516  74.9539894  72.4320432
  55.2262502  76.1714988  71.9684757  54.7468622  72.8786228  72.9966618
  54.1215749  72.0783475  72.6008403  55.7964246  72.6320521  72.8362785
  54.5596271  72.9908842  74.0645754  52.4338195  75.8392245  74.6302338
  53.2362398  75.8594993  75.5987995  51.7248797  76.9019852  74.2411207
  51.2345440  76.8952029  73.3581574  51.8159417  78.1610741  74.9718922
  52.8634229  78.3636345  75.1951673  51.2479504  79.3408337  74.1756245
  50.4641116  78.9576142  73.5222954  50.8160764  80.0468022  74.8849858
  52.3145401  80.0519016  73.3317882  53.1379722  80.3216054  73.9930901
  52.6691847  79.3473024  72.5795454  51.7850641  81.3030013  72.6450475
  51.2627723  81.9047706  73.3888108  52.6350134  81.8639084  72.2563719
  50.8340238  80.9686518  71.5046818  51.3625187  81.1252125  70.5643189
  50.5533706  79.9190923  71.5927595  49.6067772  81.8148476  71.5315082
  49.8665881  82.7874051  71.4494724  49.0057344  81.5607379  70.7606154
  49.1166890  81.6696022  72.4026089  51.2561530  78.0673831  76.3956462
  51.6304051  78.8744229  77.2408557  50.3971602  77.0767994  76.6654412
  50.1097181  76.4593995  75.9195902  49.7460831  76.9401687  77.9690177
  49.4896243  77.8982009  78.4212372  48.4883459  76.0821814  77.8470677
  48.5797226  75.4455574  76.9670333  48.3066336  75.2132927  79.0853689
  48.2147135  75.8492704  79.9658141  47.4050302  74.6102953  78.9776369
  49.1699740  74.5578187  79.1998085  47.2920601  77.0054359  77.5693676
  47.1524238  77.6158627  78.4615456  47.5757723  77.6445561  76.7332262
  45.9966912  76.2879972  77.2401594  45.7120759  75.6489926  78.0760823
  45.2104540  77.0210588  77.0597408  46.1354253  75.6776838  76.3477636
  50.7136864  76.4286140  79.0526573  51.4585478  75.4340459  78.8510992
  50.7259120  77.1304618  80.1889003  49.9809872  77.7791351  80.3996358
  51.8083155  76.9832439  81.1548939  52.6604452  76.5598545  80.6231840
  52.0621759  77.9819227  81.5102740  51.4852718  76.1084749  82.3393448
  52.3871652  75.6361209  83.0301428  50.1904839  75.8138015  82.5180984
  49.4762150  76.2827782  81.9796002  49.7785464  74.8723408  83.5220053
  50.5964573  74.7081354  84.2235447  48.5720459  75.3850369  84.2934508
  48.8212145  76.3401115  84.7558865  47.7378134  75.5217714  83.6053665
  48.2083294  74.4570970  85.2959716  47.4467530  74.7883616  85.7774952
  49.4545547  73.4951162  82.9496533  48.7284011  73.3617009  81.9521633
  49.9316119  72.4696287  83.6578749  50.6153431  72.6433949  84.3806586
  49.5311660  71.1041246  83.4078137  49.8293265  70.7960115  82.4056830
  50.1912824  70.1815434  84.4151767  49.8950039  70.4718426  85.4231675
  49.8791149  69.1543072  84.2269286  51.2746705  70.2546996  84.3202152
  48.0229343  70.9806311  83.4920780  47.4338754  70.3846074  82.6157844
  47.4064303  71.5630155  84.5286132  47.9593987  72.0828524  85.1950176
  45.9636678  71.4500286  84.7607944  45.6510054  70.4080992  84.8295295
  45.5400686  72.1946088  86.0303968  45.6143341  73.2697671  85.8672418
  44.1123179  71.8338162  86.3623826  44.0373458  70.7587983  86.5261398
  43.8044631  72.3607353  87.2655340  43.4627685  72.1210317  85.5355260
  46.4888226  71.8986084  87.2204697  47.4938510  71.8212581  86.8056981
  46.4354259  72.7621040  87.8835108  46.1670345  70.6399533  88.0031758
  46.2206893  69.7759197  87.3408564  46.8865623  70.5213380  88.8133050
  45.1622626  70.7167649  88.4186674  45.1658848  71.9952741  83.5872938
  44.2744981  71.3271605  83.0787105  45.4986240  73.2177330  83.1672058
  46.2837549  73.6796793  83.6034105  44.8556913  73.8716293  82.0182902
  43.7905307  73.9950108  82.2140174  45.4695325  75.2498085  81.7688008
  46.5305646  75.0603419  81.6062817  45.0163568  75.5960337  80.8398982
  45.3058496  76.3009875  82.8269613  44.2635298  76.5509178  83.0249641
  45.7591842  75.8934270  83.7305564  46.0457488  77.5722342  82.4431707
  47.2670575  77.5584761  82.2142891  45.3002503  78.6637227  82.2816695
  45.7380882  79.5373878  82.0265057  44.3003889  78.6129192  82.4150773
  45.1353398  73.1299180  80.7135883  44.3528733  73.2096972  79.7529622
  46.2899388  72.4563787  80.6689555  46.9824804  72.5738697  81.3946836
  46.6321797  71.6443449  79.5167918  46.3857433  72.2016856  78.6130554
  48.1227757  71.2687795  79.4714144  48.6649425  71.9323357  80.1450966
  48.2282670  70.2392553  79.8135425  48.6950215  71.3974208  78.0608248
  48.0706485  70.8008111  77.3957564  48.6316398  72.4469475  77.7734602
  50.1224207  70.9348221  77.9568866  50.2976816  70.1209167  78.6604068
  50.3240518  70.5880725  76.9433734  51.0361265  72.0245209  78.2673947
  51.1451449  72.7436282  77.5666101  51.7147138  72.1388161  79.4039562
  51.6182565  71.2112167  80.3524547  51.0224259  70.4081519  80.2104236
  52.1412891  71.3142250  81.2103159  52.5100055  73.1841564  79.5876399
  52.5940911  73.8841067  78.8643839  53.0279031  73.2754574  80.4499304
  45.7350353  70.4107282  79.4477426  45.0953675  70.1694167  78.4391347
  45.6615888  69.6619394  80.5378260  46.2375383  69.9087525  81.3299527
  44.7953258  68.4803848  80.6477233  45.0831197  67.7215226  79.9201231
  44.9461218  67.8993194  82.0385894  44.7571429  68.7516419  82.6912244
  44.1477682  67.1668777  82.1580082  46.2739198  67.2644678  82.4079751
  47.0381874  67.7034796  81.7666760  46.6570175  67.4740804  83.8741810
  45.8933999  67.0348963  84.5161346  47.6161901  66.9954371  84.0716378
  46.7348013  68.5414672  84.0809070  46.1713153  65.7910091  82.0977370
  45.9663538  65.6562038  81.0357023  47.1106289  65.2995404  82.3512126
  45.3627554  65.3516232  82.6819201  43.3308081  68.8054896  80.4047283
  42.6614643  68.0781171  79.6868765  42.8325155  69.8777692  81.0257846
  43.4103247  70.3691678  81.6926903  41.4519928  70.3259127  80.8411614
  40.7693981  69.5270279  81.1308969  41.1473882  71.5759636  81.7063659
  42.1030557  71.9778315  82.0429683  40.6544684  72.3038602  81.0619307
  40.2579428  71.2851966  82.9230776  39.2646992  71.0429019  82.5451076
  40.6767654  70.4142006  83.4271169  40.1570743  72.4466247  83.9124376
  39.3960565  72.2033284  84.6538942  41.1213275  72.5634101  84.4070853
  39.8002326  73.7175349  83.2721936  40.5681286  74.3279019  83.0315960
  38.5587069  74.1084350  82.9754631  38.3522087  75.2976688  82.4097967
  39.1370676  75.9001966  82.2071719  37.4118359  75.5907571  82.1864184
  37.5296412  73.3105240  83.2243421  37.6867670  72.4035720  83.6400939
  36.5932760  73.6132719  82.9970477  41.1648313  70.6014197  79.3658299
  40.3565818  69.9140657  78.7373632  41.8445850  71.5967608  78.8177478
  42.4414088  72.1784086  79.3883498  41.6924463  71.9344163  77.4161685
  40.6961325  72.3350061  77.2291234  42.7239360  72.9936602  77.0340631
  42.2593892  73.9785783  76.9868200  43.5385877  73.0111022  77.7580372
  43.4827486  72.7278742  75.4420185  44.2691814  73.7996995  75.4821706
  41.8003537  70.7053293  76.4972267  41.0667039  70.5859894  75.5097212
  42.7089694  69.8028178  76.8374860  43.3016167  69.9909438  77.6333987
  42.8659223  68.5175356  76.1394483  43.1055372  68.6811078  75.0887686
  44.0175939  67.7267415  76.7898384  44.1968299  68.1846586  77.7626106
  43.6538781  66.7087532  76.9295191  45.3129270  67.6968520  75.9985813
  45.2700545  66.8154004  75.3588111  45.3589893  68.5927027  75.3793648
  46.5565471  67.6244090  76.8816476  47.6176409  68.1279169  76.4580917
  46.4831876  67.0506415  77.9851671  41.6552071  67.5848466  76.2096899
  41.3657132  66.8795001  75.2657255  40.9913642  67.5372827  77.3564890
  41.3446047  67.9925099  78.1860001  39.7564613  66.7631259  77.4636155
  39.9276724  65.7539750  77.0889150  39.2918378  66.6734091  78.8893156
  39.6905728  67.5558346  79.3897503  38.2042513  66.6755934  78.9617798
  39.8367826  65.4321222  79.5497994  40.8396386  65.2303600  79.1734051
  39.8931894  65.6411456  81.0540020  38.8905637  65.8425146  81.4312168
  40.2870811  64.7439601  81.5315041  40.5424386  66.4870979  81.2797024
  38.9934043  64.2227411  79.1729648  39.0124415  64.0886229  78.0914153
  39.3970144  63.3329020  79.6560657  37.9658242  64.3792423  79.5011195
  38.6800216  67.3573026  76.6035429  37.8937280  66.6275074  76.0096260
  38.6500333  68.6888418  76.5295506  39.2725020  69.2431756  77.0999418
  37.6693291  69.3808237  75.7047322  36.6715758  69.1089836  76.0492468
  37.8103508  70.9142671  75.7650504  37.2030147  71.2670260  76.5985989
  38.8577007  71.1496780  75.9541005  37.3475416  71.6191853  74.4484825
  36.4610455  71.0915057  73.7181552  37.8863642  72.7080050  74.1471639
  37.7417107  68.9010935  74.2568894  36.7485030  68.4375067  73.6974210
  38.9248129  68.9941917  73.6669038  39.6885686  69.4219825  74.1706613
  39.1505148  68.5854593  72.2884669  38.5293261  69.1604535  71.6017315
  40.6271217  68.8110474  71.9513023  41.2345074  68.4337006  72.7739762
  41.0058977  68.1039362  70.6861677  40.3992129  68.4811047  69.8628949
  42.0596476  68.2817310  70.4714565  40.8348327  67.0337252  70.8022897
  40.8864051  70.3086500  71.8061001  41.1648352  70.4911624  70.7681855
  39.9512338  70.8233021  72.0267523  41.9720643  70.8269618  72.7161864
  42.9077154  70.3130702  72.4957950  42.0999480  71.8976563  72.5569436
  41.6941147  70.6452077  73.7543623  38.7237549  67.1381527  72.0298077
  38.0908205  66.8511828  71.0164058  39.0511762  66.2419983  72.9631670
  39.5152373  66.5510564  73.8053248  38.7435651  64.8101344  72.8215681
  39.1805952  64.4263576  71.8997117  39.3165233  64.0288840  73.9927208
  39.0963299  64.6127525  74.8864275  38.7678391  63.0877855  74.0298621
  40.7800104  63.7485719  73.9305232  41.0115131  63.1714384  73.0353001
  41.3386209  64.6843945  73.9134237  41.2559445  62.8030947  75.3822359
  42.8735451  63.5001425  75.6938667  42.7796073  64.5708785  75.8749719
  43.3136406  63.0214447  76.5686610  43.5144994  63.3334640  74.8281317
  37.2431415  64.5157841  72.7979066  36.8029206  63.5948531  72.1287252
  36.4717427  65.2853185  73.5532738  36.8812519  65.8655106  74.2714512
  35.0240439  65.2012907  73.4785185  34.7166899  64.1774224  73.2656186
  34.4148810  65.6262744  74.8135670  34.8255756  66.6103469  75.0394664
  33.3282975  65.6909707  74.7565520  34.7903935  64.6646131  75.9512963
  35.9709239  64.4318862  76.2295396  33.7843146  64.0546947  76.5646631
  33.9729033  63.4114902  77.3201908  32.8345054  64.2364236  76.2732220
  34.4705546  65.9658375  72.2835341  33.6842372  65.4202940  71.5179917
  34.9266766  67.2044043  72.0917163  35.6478268  67.5514077  72.7078577
  34.3453279  68.1308435  71.1063021  33.2690865  67.9857219  71.1998078
  34.6880863  69.6294817  71.4821229  34.3833317  69.8256273  72.5101067
  35.7613552  69.7927420  71.3844493  33.9433041  70.5721595  70.5428240
  34.2479018  70.3769094  69.5146224  32.8698783  70.4097975  70.6402805
  34.2735874  72.0162485  70.9049632  33.9688349  72.2123947  71.9329474
  35.3468559  72.1795080  70.8072876  33.5288029  72.9589258  69.9656649
  33.8333992  72.7636758  68.9374630  32.4553786  72.7965646  70.0631248
  33.8471762  74.3509324  70.3147424  34.8417354  74.5017060  70.2240833
  33.3539085  74.9752635  69.6926510  33.5646195  74.5321862  71.2673220
  34.7258366  67.8479247  69.6362803  34.0428980  68.2976482  68.7075987
  35.7831357  67.0633051  69.3948561  36.2727729  66.6326466  70.1661459
  36.2633959  66.8029401  68.0345336  35.6966877  67.3972682  67.3177944
  37.7605763  67.1843138  67.9198608  38.2094510  67.1784956  68.9131265
  38.2689308  66.4562585  67.2877126  38.1293246  68.8057085  67.2129025
  39.4518171  68.7012087  67.3077282  36.1341618  65.3161287  67.6098509
  37.1391906  64.5902432  67.4511015  34.9229335  64.9480688  67.2252642
  34.1540025  65.5986525  67.2999996  34.6413398  63.5929456  66.7512379
  35.1692962  62.8624717  67.3642380  33.1549092  63.3236236  66.8503272
  32.8840863  62.5636211  66.1174211  32.7910694  62.8381849  68.2388138
  33.0611896  63.5979059  68.9722706  31.7185561  62.6503590  68.2891684
  33.3313600  61.9165871  68.4552489  32.4554265  64.5397305  66.5776424
  31.5098020  64.3851138  66.6367051  35.1160651  63.3024034  65.3080137
  35.5048520  62.1623093  65.0192369  35.0568560  64.2775011  64.4156568
  34.9026709  65.2279363  64.7206148  35.2994841  64.0320321  62.9706048
  35.2405155  62.9649149  62.7564021  34.2484611  64.7530813  62.1408533
  33.8420695  64.0649999  61.3995779  33.4471770  65.0957884  62.7955255
  34.8348253  65.8762512  61.4773623  34.1652730  66.3254354  60.9562739
  36.6112756  64.5975952  62.4698099  37.0658845  65.6006069  62.9727873
  37.1417229  63.9997112  61.4020335  36.6228581  63.2460730  60.9743560
  38.4278580  64.4055185  60.7863916  38.7463942  65.3576895  61.2106607
  39.5227222  63.3658642  61.0406661  39.0311132  62.4325863  60.7660535
  40.3482939  63.5564959  60.3549615  40.0573509  63.2580912  62.4590212
  39.2443788  63.4788364  63.1507211  40.6069713  61.8658487  62.7490127
  41.4203458  61.6445582  62.0579619  40.9799813  61.8278347  63.7724966
  39.8140822  61.1283881  62.6241957  41.1107637  64.3427406  62.6682059
  40.6588228  65.3229620  62.5165001  41.5036949  64.2774845  63.6828230
  41.9230831  64.2034230  61.9548848  38.2532513  64.5101415  59.2750030
  37.9133774  63.5529067  58.6000333  38.5206929  65.6785285  58.7598285
  38.9654879  66.3831492  59.3305881  38.1002096  66.0473961  57.3937174
  37.6173326  65.2068100  56.8953763  37.0876511  67.2084058  57.4955787
  37.6193803  68.1565701  57.5752509  36.4513467  67.2225116  56.6106957
  35.9200748  67.1361917  58.9793912  35.2615835  68.2556227  58.6927529
  39.3204075  66.3723585  56.5438783  40.4281393  66.5831222  57.0550799
  39.1342433  66.3375976  55.2338265  38.2415424  66.0057233  54.8976064
  40.1219037  66.7746845  54.2554555  41.0309382  66.1745129  54.2948187
  39.4615475  66.5790639  52.8754525  39.2967781  65.5121507  52.7249647
  38.5025533  67.0971432  52.8803363  40.3355017  67.1603630  51.4129114
  39.4086282  66.7817376  50.5374421  40.4191941  68.2490030  54.5026248
  39.4928370  69.0431588  54.4937946  41.6723277  68.6076704  54.8098246
  42.4388896  67.9501003  54.8006720  41.9321711  69.9589666  55.2617993
  41.1902804  70.2333245  56.0117494  43.3142886  70.0943370  55.8745602
  43.2635177  69.7061605  56.8918313  43.9973773  69.4817538  55.2861457
  43.8209648  71.5370796  55.9044956  43.8680372  71.8935257  54.8755004
  43.0967802  72.1314740  56.4615898  45.1894788  71.6717853  56.5497450
  45.5102325  70.6912614  56.9015814  45.8950522  72.0383917  55.8041812
  45.1418277  72.6460208  57.7289730  46.1721809  72.8300027  58.0333142
  44.7014251  73.5724910  57.3604656  44.3518704  72.1504199  58.9088175
  44.7600503  71.2921647  59.2507047  44.3680750  72.8459881  59.6409529
  43.3969876  71.9802836  58.6271235  41.7357619  70.9430064  54.1017949
  41.2335302  72.0580687  54.3019283  42.1029240  70.5000647  52.8949148
  42.4709111  69.5617663  52.8294862  42.0785835  71.3156678  51.6930120
  42.5858871  72.2673484  51.8512720  42.8178493  70.5432889  50.5950307
  43.8488522  70.8966704  50.6109600  42.7897736  69.4930212  50.8852884
  42.2573286  70.6948369  49.2064978  42.8924246  70.1480834  48.5094938
  41.2452110  70.2920892  49.1675865  42.2166354  72.1300840  48.7905784
  41.1569193  72.6593821  48.4219223  43.3693839  72.7785934  48.8281461
  43.4070961  73.7512976  48.5588401  44.2062561  72.2979112  49.1259563
  40.6363345  71.7034378  51.2618146  40.3131335  72.8907966  51.2004863
  39.7832798  70.7204803  50.9656505  40.0810157  69.7561125  51.0036948
  38.4314340  71.0089406  50.5002500  38.3928896  71.9913319  50.0295899
  38.0208808  69.9657623  49.4788309  37.0833063  70.2363682  48.9932120
  38.7941545  69.8274521  48.7231736  37.7493130  68.3383071  50.2227245
  37.4230648  67.7207750  49.0908612  37.4494135  71.0743479  51.6842853
  36.2362867  71.2739105  51.5169591  38.0077193  70.8736361  52.8704449
  38.8809324  70.3665027  52.8907931  37.3834962  71.2396589  54.1518109
  38.0709829  71.0516193  54.9764941  37.0334688  72.7290753  54.1369864
  37.5989359  73.1862509  53.3249909  35.9670158  72.8087181  53.9261900
  37.3478622  73.4487919  55.4423487  36.5229157  73.3304938  56.1448938
  38.2460944  72.9913848  55.8571496  37.6072445  74.9367720  55.2420793
  38.2661823  75.3262220  54.2792690  37.0573523  75.7778145  56.1331502
  37.2025382  76.7729752  56.0399963  36.5011319  75.4113161  56.8923597
  36.1615280  70.4211994  54.5811903  36.1710343  69.7546227  55.6255682
  35.1052043  70.4639440  53.7782494  35.1246251  71.0141678  52.9315051
  33.8131859  69.8444373  54.1889547  33.8197892  69.7033049  55.2697587
  32.5804690  70.7227885  53.8081893  32.7243786  71.0190687  52.7691477
  31.7073472  70.0745941  53.8830371  32.3621579  71.9854317  54.6794657
  33.3376283  72.2792857  55.0670327  31.9887440  72.7610638  54.0108432
  31.3818051  71.8013297  55.8475212  31.0557057  72.8070764  56.5362081
  30.9318837  70.6626843  56.0746982  33.6669289  68.3965818  53.6826530
  32.5717975  67.9339959  53.3624430  34.7560777  67.6413512  53.6931274
  35.6370969  68.0815521  53.9170195  34.7487703  66.1915307  53.4153036
  33.7493878  65.8210158  53.1871535  35.7133113  65.8465450  52.1894191
  36.7049787  66.2382549  52.4158244  35.8067746  64.3211653  51.9344223
  34.8154923  63.9287934  51.7074787  36.4729098  64.1331706  51.0923884
  36.1977664  63.8268810  52.8237530  35.2995072  66.5059564  50.9773004
  35.9013077  66.2749804  50.2659028  35.2591265  65.3782335  54.6506356
  36.4116253  65.4651569  54.9932445  34.4299640  64.4419231  55.1298239
  33.4590618  64.4566486  54.8519182  34.8350267  63.5203278  56.2103211
  35.5333487  64.0538634  56.8551353  33.6546349  62.9798860  57.0890406
  33.2391144  63.8271768  57.6345130  32.9003342  62.5791788  56.4118669
  34.0858180  61.8745740  58.0977960  34.0065556  60.9502157  57.5256246
  35.1277227  62.0454259  58.3686158  33.2317737  61.7603213  59.3820980
  33.7394246  61.1857589  60.3659835  32.0505428  62.1856458  59.4056073
  35.7575411  62.3737120  55.7034748  35.4734853  61.6175478  54.7350772
  36.8775482  62.2458056  56.3646028  37.1715275  62.9420266  57.0346414
  37.7864398  61.1217841  56.0810879  37.5840424  60.6353755  55.1268651
  39.2484331  61.6184205  56.1054164  39.4153538  62.1379031  57.0490136
  40.2506004  60.4668053  55.9724945  40.0845909  59.9470992  55.0288595
  41.2656430  60.8634178  55.9945803  40.1154292  59.7695809  56.7993597
  39.4853379  62.7031407  54.9996012  38.9253897  63.5808235  55.3224505
  40.5524845  62.9235595  55.0263061  39.0761912  62.3341854  53.5705078
  38.0090046  62.1140687  53.5429176  39.2918795  63.1687344  52.9033454
  39.6360983  61.4568027  53.2467740  37.5360950  59.9882555  57.0815650
  37.3728435  58.8222148  56.6992497  37.5048722  60.3439979  58.3536069
  37.6053133  61.3199599  58.5934172  37.5237913  59.3583930  59.4350439
  36.7982430  58.5628376  59.2654252  38.9660657  58.7067656  59.5868182
  39.5066797  58.8602934  58.6528664  39.7509415  59.3120504  60.7283738
  39.2111394  59.1584994  61.6627909  40.7285953  58.8342230  60.7914064
  39.8797833  60.3804575  60.5551495  38.8776923  57.2783064  59.7805896
  39.7607076  56.9121480  59.8689769  36.9288780  59.9805742  60.7465738
  36.5656720  61.1674077  60.8019774  36.7590582  59.1513728  61.7641864
  37.1476547  58.2212288  61.7015429  36.1650844  59.5689380  63.0293546
  35.8847372  60.6218935  63.0012598  34.9300398  58.7496389  63.2777332
  34.1814190  59.3900983  63.7440796  34.3459839  58.1469729  61.9350171
  35.0939239  57.5059868  61.4683028  33.4538126  57.5613815  62.1568558
  34.0875901  58.9580954  61.2542723  35.3014632  57.6988364  64.1633769
  34.5356971  57.1499733  64.3476374  37.0435352  59.2216679  64.2184903
  38.0251993  58.4875046  64.0650860  36.6701341  59.7280354  65.3984774
  35.9410340  60.4259029  65.4371221  37.3665683  59.3845651  66.6361981
  38.4281355  59.5767225  66.4804747  36.9046073  60.1615798  67.8738415
  37.0659644  61.2200482  67.6696168  35.8376174  59.9737189  67.9935944
  37.6492112  59.7669751  69.1789489  38.1356839  58.8078786  69.0012440
  38.4061513  60.5283752  69.3671341  36.7019407  59.6502043  70.4282576
  36.6149591  60.6490639  70.8558237  35.7282481  59.3271587  70.0599319
  37.1967529  58.6608011  71.5202924  36.4330536  57.8855323  71.5821166
  38.1195352  58.2308348  71.1308045  37.4478786  59.2284740  72.8930409
  36.5928256  59.6265578  73.2543073  37.7633370  58.4928310  73.5090080
  38.1558169  59.9465781  72.8360413  37.2527634  57.9118584  66.8454097
  38.2487217  57.2801026  67.1024129  36.0516186  57.3558201  66.6856173
  35.2606951  57.9638190  66.5278935  35.8066122  55.9095905  66.8077763
  35.7710171  55.6368222  67.8624941  34.4460942  55.5010646  66.1374956
  34.5778066  55.3582721  65.0649466  34.1633297  54.5542282  66.5975447
  33.3015788  56.5241274  66.3647006  32.6964045  57.0301109  65.3938583
  32.9623626  56.7815141  67.6363061  32.2230925  57.4403529  67.8350796
  33.4476919  56.3153560  68.3894680  36.9418747  55.0504300  66.2255862
  37.2953449  54.0200895  66.7901739  37.4923750  55.4828500  65.0925441
  37.1798386  56.3562661  64.6930886  38.4036128  54.6510390  64.3113189
  38.2407069  53.6002923  64.5510942  38.1638710  54.8548449  62.8022036
  38.6103543  55.8144115  62.5414667  38.6982861  54.0548377  62.2898668
  36.6582648  54.8424577  62.3626383  36.2480694  55.4227970  63.1891047
  36.4987022  55.3796513  61.4277255  35.9380675  53.4476418  62.2943265
  35.5181678  53.0496518  61.1667068  35.6284486  52.8238109  63.3642575
  39.8842774  54.7975905  64.7027713  40.6988469  53.9451002  64.3550603
  40.2187883  55.8211781  65.4387210  39.5008103  56.4718333  65.7237733
  41.5672659  56.0340518  65.9185700  42.3340035  56.0711003  65.1447224
  41.5652273  57.3338987  66.6873424  40.6458543  57.3967136  67.2695005
  42.7548290  57.4106552  67.6154810  43.6746430  57.3483672  67.0339630
  42.7322214  58.3554441  68.1585865  42.7171161  56.5836108  68.3244764
  41.4914686  58.5209330  65.7170486  42.3810153  58.4888169  65.0879413
  40.6043298  58.3867372  65.0981174  41.4181207  59.8679762  66.4234392
  42.3052064  60.0030984  67.0422452  41.3680574  60.6653840  65.6819990
  40.5285215  59.9010177  67.0524235  41.9844909  54.9348984  66.8820237
  41.2765200  54.6309621  67.8244826  43.1437426  54.3548352  66.6543237
  43.6277502  54.4961380  65.7791840  43.7776422  53.4976743  67.6734706
  43.4525335  53.7979945  68.6695687  43.3888771  52.0719806  67.4540324
  43.6861816  51.3821443  68.2438647  42.3024682  52.0759183  67.3657136
  43.9223328  51.5087104  66.1684537  43.2809685  51.7826247  64.9675741
  42.3916364  52.4128317  64.9727978  43.7491765  51.2752658  63.7935599
  43.2104844  51.4420722  62.8607752  44.9134264  50.5466425  63.7933636
  45.2933279  50.1419456  62.8552830  45.5999970  50.3258486  64.9669189
  46.5291296  49.7560309  64.9559394  45.1168400  50.8205810  66.1434031
  45.6756506  50.6722741  67.0674354  45.2834519  53.5551074  67.6267317
  45.8578037  53.9210916  66.5996443  45.8684562  53.1449685  68.7427738
  45.2973966  52.7009929  69.4476681  47.3085319  53.3033642  69.0086346
  47.6910099  54.1795650  68.4851063  47.5501918  53.4904657  70.5320910
  46.7349074  52.9953280  71.0595845  48.4924415  53.0017876  70.7800009
  47.6075946  54.8586530  70.9245467  47.7579648  54.9139925  71.8710805
  48.0533724  52.0921904  68.5454375  48.1829599  51.1496199  69.2996535
  48.5024778  52.0827015  67.2960139  48.2291328  52.7947680  66.6339390
  49.4037411  51.0566210  66.8576850  48.9909017  50.0787644  67.1055949
  49.6182647  51.1251555  65.3667210  49.3594529  52.1472615  65.0902883
  50.6839908  50.9641500  65.2042239  48.8282707  50.1588857  64.5168821
  47.8480299  50.5832964  64.2998465  49.5675239  49.9053534  63.2180818
  50.5477436  49.4804801  63.4343012  48.9969918  49.2078146  62.6048661
  49.6901838  50.8451942  62.6797937  48.6220362  48.8469753  65.2404762
  48.0765976  49.0244961  66.1673432  48.0504726  48.1682318  64.6074489
  49.5901881  48.4013224  65.4688936  50.7181107  51.2496730  67.5382769
  51.3683822  50.2974257  67.9109337  51.1363042  52.4905736  67.6332865
  50.5902203  53.2465386  67.2454609  52.3742457  52.8125330  68.2969183
  53.0994992  52.0254404  68.0905407  52.9635986  54.1656602  67.8233871
  53.1912839  54.0833959  66.7606118  52.2076783  54.9363956  67.9738909
  54.1609734  54.5196345  68.5452373  54.4923107  55.3608364  68.2224452
  52.0923042  52.8999292  69.7571182  51.0323152  53.3157595  70.1658719
  53.0903002  52.5718384  70.5645799  53.9652040  52.2170954  70.2056926
  52.9408801  52.6999266  71.9789730  52.0977659  52.0832190  72.2903078
  54.1870944  52.2658716  72.7717284  54.1846603  51.1859854  72.6236093
  55.1216143  52.6816465  72.3950271  54.0534693  52.5827506  74.2974027
  53.0305767  52.9132610  74.4778310  54.3667696  51.3754422  75.1939824
  55.3897198  51.0446300  75.0144408  54.2560327  51.6606813  76.2401548
  53.6771870  50.5631029  74.9644587  54.8673486  53.8273840  74.7046524
  54.5120175  54.6932715  74.1460128  54.7445077  54.0090962  75.7723565
  55.9216974  53.6609094  74.4838953  52.6485759  54.1662265  72.2512002
  51.7979949  54.5040753  73.0440856  53.3335480  55.0302573  71.5424062
  54.0777392  54.7260663  70.9310580  53.2387508  56.4119598  71.8508174
  53.2004998  56.5321074  72.9334996  54.3995580  57.1835720  71.3271848
  54.8209430  56.8035990  70.3965106  54.2346132  58.2574053  71.2390065
  55.6773883  56.9763499  72.5740660  56.5980190  57.7078245  71.9525498
  51.9263016  57.0453399  71.5991909  51.5986729  57.9841197  72.3144313
  51.1481064  56.5764292  70.6437790  51.4522947  55.8702828  69.9888545
  49.8125471  57.0855618  70.5232154  49.2395947  56.7618667  71.3921494
  49.8582685  58.1744303  70.5038704  49.1393866  56.6124924  69.3020810
  49.7086344  55.8679326  68.5140755  47.9740756  57.1674388  69.0408347
  47.1436938  58.0067076  69.9236309  47.7541004  58.8084366  70.3392445
  46.7462440  57.3958563  70.7341821  46.0613181  58.5189646  69.0052238
  46.3164500  59.5248266  68.6716846  45.1133705  58.5444558  69.5426686
  45.9983965  57.5598112  67.8541241  45.6669534  58.0816004  66.9563599
  45.3449288  56.7075635  68.0405469  47.4348068  57.0842589  67.6761589
  47.5026719  56.0438700  67.3582227  48.1772828  57.9694974  66.6792736
  47.9090290  57.9293137  65.4985196  49.0675093  58.8123745  67.2001191
  49.1518594  58.8612733  68.2054018  49.9426767  59.6395622  66.3970098
  49.9667495  59.2632396  65.3743168  49.4666538  61.0367435  66.3744505
  48.4094063  61.0438418  66.6395476  50.0302860  61.6037620  67.1153343
  49.6453930  61.6562538  65.0364769  50.6715157  62.0039969  64.9171127
  49.4136883  60.9340261  64.2536602  48.5224587  63.0624249  64.8976515
  49.4914330  64.4093926  65.5606183  50.3964222  64.5337282  64.9659468
  48.9067286  65.3287184  65.5280366  49.7630823  64.1885751  66.5928719
  51.3556536  59.6876677  66.9399242  51.5808394  59.8389152  68.1480093
  52.3036379  59.5848586  65.9910838  52.0187550  59.3125797  65.0611347
  53.7197210  59.8517147  66.2313573  53.8965820  60.4876682  67.0987572
  54.4863107  58.5435531  66.4205882  54.3263935  57.8997376  65.5557020
  55.5503883  58.7568329  66.5223270  54.1297787  58.0395768  67.3189156
  54.2412098  60.5914401  65.0045774  53.5808000  60.6600940  63.9857156
  55.4909073  61.0361751  65.0758926  55.9622585  61.0704124  65.9685041
  56.2039430  61.5260475  63.8955490  55.5041157  61.8830160  63.1399602
  57.1141905  62.6969214  64.3162780  57.8265744  62.3527467  65.0660467
  57.6547755  63.0685158  63.4457691  56.5057381  63.4985579  64.7349232
  57.0323195  60.3827769  63.2486104  57.6199476  59.5256909  63.9148198
  56.9862108  60.3490921  61.9155957  56.3041761  60.8976352  61.4115832
  57.8311397  59.4337931  61.1601171  58.6325762  59.0684181  61.8022230
  57.0252807  58.2236491  60.6396590  56.3087591  58.6342875  59.9282715
  57.7078910  57.5513154  60.1199373  56.2793585  57.4519282  61.7243160
  56.9214483  56.5308626  62.5392348  57.9933696  56.3777579  62.4141627
  56.2193483  55.8049017  63.5076523  56.7391411  55.0657178  64.1171804
  54.8509312  55.9861309  63.6533082  54.1605927  55.2981084  64.6196392
  54.7212313  54.7177512  65.1397061  54.1859412  56.9045399  62.8598957
  53.1145347  57.0683653  62.9754370  54.9036552  57.6257046  61.9023503
  54.3912974  58.3486576  61.2675838  58.5360631  60.2166410  60.0433154
  57.9271504  61.1173987  59.4233526  59.8287135  59.9047828  59.7802480
  60.3799415  59.3228610  60.3947511  60.4652019  60.4300360  58.5567569
  59.9436174  61.2976123  58.1525784  61.9700918  60.7240425  58.5672300
  62.3784710  60.4729090  57.5883237  62.2497065  62.1942156  58.8732753
  61.8419985  62.4459944  59.8522966  63.3258165  62.3676736  58.8728615
  61.7811149  62.8195659  58.1133671  62.7227113  59.7517809  59.4165170
  62.5753985  58.7425773  59.0319275  63.7846772  59.9965236  59.3958058
  62.3578158  59.8060385  60.4421915  60.3299892  59.5194602  57.3925717
  60.4788935  58.3265529  57.5500036  60.1461902  60.0997593  56.2081644
  59.8422509  61.0602981  56.1368513  60.2352864  59.3126470  54.9889585
  60.0988197  58.2611802  55.2417305  59.1556556  59.7166602  53.9261431
  59.2166661  58.8651628  53.2484049  58.1397683  59.8011389  54.3120657
  59.4884028  60.9866596  53.1454877  60.1991636  61.8250299  53.6194745
  58.8129550  61.1862809  52.0354698  58.9926808  62.0103395  51.4798387
  58.1174335  60.5146593  51.7434508  61.6523722  59.3747517  54.4493725
  62.5417414  59.9767838  55.0836505  61.9270178  58.6902840  53.3248265
  60.9937428  57.8742957  52.5541775  60.4183094  58.5061691  51.8776328
  60.3147465  57.3503883  53.2269211  61.8968871  56.9547713  51.8391479
  61.4356000  56.6448856  50.9014464  62.0887398  56.0771976  52.4565280
  63.1449786  57.7178227  51.6020379  63.0251982  58.3343711  50.7111845
  64.0256207  57.0853810  51.4898483  63.2939545  58.5927451  52.8113939
  63.9115803  58.2028180  53.6204634  63.8739159  59.9070513  52.3214395
  65.0865362  60.0943750  52.4120084  63.0390026  60.8002662  51.7967282
  62.0823050  60.5417391  51.6018106  63.5122920  62.0811584  51.3243701
  64.5497429  62.0023296  50.9994380  62.6793470  62.5307376  50.1623838
  61.7291459  62.2444239  50.6132070  62.6125040  63.5546144  49.7945412
  62.8624996  61.6665024  48.9768895  63.8916114  61.8803568  48.0912439
  63.9200909  60.8879097  47.2166498  64.6293920  60.8983028  46.3890732
  62.9976938  60.0054188  47.5564795  62.7681225  59.1570567  47.0588063
  62.3909573  60.4286851  48.7095825  61.6758020  59.7821318  49.2181324
  63.6403452  63.1120488  52.4254430  63.9822018  64.2795961  52.1721381
  63.4401429  62.6673274  53.6626486  63.0929193  61.7299315  53.8069542
  63.7078362  63.4968275  54.8384785  63.9921809  62.8179988  55.6424926
  64.5547995  64.1346305  54.5855754  62.5485549  64.3742484  55.3143969
  62.6951882  65.1734811  56.2327829  61.3640795  64.0985666  54.7473559
  61.3787497  63.4194931  53.9998646  60.0817757  64.6964828  55.1155033
  60.2206534  65.7549120  55.3358206  59.0389716  64.5587447  53.9357505
  59.0530299  63.5507049  53.5213144  58.0846807  64.7334614  54.4326439
  59.2193886  65.5732323  52.8108172  59.1811184  66.9303363  53.0926843
  58.8926880  67.2315983  54.0997337  59.4964226  67.8986285  52.1378494
  59.4854754  68.9514668  52.4198306  59.8061332  67.5413603  50.8718222
  60.0788584  68.5954805  49.9842673  60.0100012  69.4599194  50.3960969
  59.8414581  66.1727731  50.5385309  60.1128163  65.8700016  49.5271978
  59.5279867  65.1972939  51.5057749  59.5260944  64.1416115  51.2344241
  59.4562843  64.0485405  56.3508463  59.3626698  62.8267628  56.4528337
  58.9180373  64.8964238  57.2340054  58.8756785  65.8893289  57.0538822
  58.3563525  64.3927549  58.4942462  58.7128878  63.3857776  58.7109914
  58.6169557  65.2755116  59.7127665  57.7597317  65.9259816  59.8864182
  58.8345513  64.3868544  60.9306871  59.6919556  63.7363755  60.7579561
  59.0214816  65.0087483  61.8061329  57.9461398  63.7786442  61.1007074
  59.7783280  66.2407220  59.4927296  59.5554685  66.8913647  58.6470939
  59.9231592  66.8457596  60.3877453  60.6870617  65.6754349  59.2859585
  56.8363400  64.2549305  58.4408376  56.1140479  65.1603026  57.9428782
  56.3416206  63.1514752  58.9872963  56.9301360  62.4614557  59.4318432
  54.8946785  62.8763422  58.8855551  54.3581838  63.7876055  58.6212224
  54.6392045  61.8307993  57.8072253  55.3997144  61.0551520  57.8971984
  53.6501508  61.3809604  57.8939299  54.7427362  62.3727941  56.4153985
  53.9335351  63.3880162  55.9473187  53.2065535  63.8366248  56.4861579
  54.2622547  63.6711707  54.6976440  53.7270337  64.4417714  54.1428358
  55.2660522  62.8886533  54.3447829  55.5895002  62.0719137  55.4037786
  56.4049682  61.3547879  55.3097372  54.3811643  62.4403077  60.2203222
  54.6827543  61.3369557  60.6746159  53.5503281  63.2967581  60.8076364
  53.4315579  64.2381670  60.4615983  52.8407927  62.9129702  62.0061135
  53.4670734  62.2430016  62.5951922  52.4822481  64.1332214  62.8670216
  51.4655882  64.4114905  62.5894102  52.4945371  63.7884796  63.9009956
  53.3991732  65.3471353  62.7243033  54.4026138  64.9933350  62.4875901
  53.0156073  65.9349822  61.8903894  53.4490548  66.2167440  63.9796273
  53.5300052  65.6433044  65.1159085  53.4253328  67.4821520  63.8010530
  51.5892711  62.1308680  61.5218503  50.5758259  62.7163918  61.1044637
  51.6879038  60.8134453  61.5215144  52.5411716  60.3477315  61.7956384
  50.6550309  60.0360642  60.9393561  49.8993952  60.6874893  60.5003126
  51.1440282  59.0782344  59.8762547  51.4260009  59.6443059  58.9884739
  52.3207137  58.3157289  60.3720386  52.0393734  57.7490023  61.2596017
  52.6627240  57.6298878  59.5969579  53.1236800  59.0086517  60.6234423
  50.0633748  58.1936426  59.5115197  50.3650076  57.5814088  58.8363993
  49.7990129  59.3649662  61.9825889  50.2910149  58.9147712  63.0111605
  48.4978054  59.3321872  61.6855661  48.2263216  59.6360465  60.7614095
  47.4632481  58.8570077  62.5849774  47.8228489  58.7853254  63.6114510
  46.3501382  59.8725528  62.5342756  46.8604729  60.8252793  62.6755908
  45.9628306  59.8158177  61.5169880  45.2038295  59.7638727  63.5170822
  44.7867092  58.7590843  63.4499134  45.6607982  60.0276034  64.9406232
  46.0776439  61.0324446  65.0086878  44.8109171  59.9407466  65.6175714
  46.4223910  59.2992390  65.2191227  44.1637025  60.7906274  63.0933338
  43.8270345  60.5707109  62.0802243  43.3139609  60.7503234  63.7748146
  44.6040184  61.7873497  63.1210026  46.9244077  57.5111789  62.1181447
  46.4609543  57.3910967  61.0030289  46.9855782  56.5234306  62.9856397
  47.3444086  56.7086825  63.9113944  46.5949334  55.1578752  62.6561748
  46.8453473  54.9672968  61.6125887  47.4983329  54.2344440  63.5696568
  46.8922079  53.4466581  64.0169889  48.5330619  53.6386317  62.7442553
  49.1399282  54.4258458  62.2969223  49.1653734  52.9983033  63.3592845
  48.0719988  53.0436966  61.9558559  48.1996156  55.0223328  64.5691070
  48.7405983  54.4434022  65.1111193  45.0788268  54.9666326  62.9144651
  44.6528580  55.1296530  64.0272185  44.3102772  54.6778851  61.8768692
  44.7326748  54.6032241  60.9624812  42.8823211  54.5727078  61.9774533
  42.5610678  54.4270860  63.0088067  42.2098971  55.8645042  61.4242815
  41.1286243  55.7272870  61.4133379  42.5585427  57.0507803  62.2960461
  43.6396975  57.1889202  62.3071125  42.0823185  57.9469873  61.8983979
  42.2051639  56.8723427  63.3116174  42.6025813  56.1771708  59.9996452
  42.3096676  55.3509710  59.3518046  42.0999458  57.0883566  59.6753033
  43.6819069  56.3181311  59.9423105  42.3825691  53.2960817  61.2758525
  43.0653898  52.8204145  60.3805389  41.3000904  52.6875095  61.7912027
  40.7443527  53.1596573  62.4900098  40.8944171  51.3459438  61.3727680
  41.7730154  50.7122656  61.2518711  40.0153337  50.7423950  62.3864866
  39.6492057  51.6316117  62.8996564  39.1727993  50.1935480  61.9657696
  40.7341768  49.8797754  63.3481025  41.4505489  48.7679028  62.9129379
  41.5567004  48.5870842  61.8432949  42.0272675  47.8929751  63.8263650
  42.6257258  47.0521469  63.4757122  41.8732589  48.1197393  65.2060742
  42.4146989  47.2451917  66.1245290  42.8789662  46.5113378  65.7152442
  41.1379702  49.2035967  65.6564149  41.0052188  49.3816633  66.7235465
  40.5667614  50.0683668  64.7316976  39.9729272  50.9163314  65.0728970
  40.1442677  51.3384749  60.0613295  40.5029957  50.6049133  59.1862006
  39.0984506  52.1334868  59.8844857  38.5364404  52.4623109  60.6565728
  38.6352454  52.4272953  58.4967650  39.2838640  51.8455377  57.8418215
  37.1818637  51.9713929  58.2805601  37.0918947  50.9134562  58.5270855
  36.5192380  52.5512667  58.9230347  36.7928323  52.1879817  56.8220101
  36.8821156  53.2458304  56.5748554  37.4547697  51.6080187  56.1789052
  35.3521811  51.7360749  56.6076986  35.2622106  50.6781388  56.8542254
  34.6895565  52.3159504  57.2501722  34.9631513  51.9526622  55.1491474
  35.0524352  53.0105104  54.9019915  35.6250870  51.3726969  54.5060451
  33.5744576  51.5170554  54.9425664  32.9608827  52.0546391  55.5380739
  33.3168047  51.6604987  53.9765751  33.4916026  50.5367512  55.1711221
  38.8537282  53.8954539  58.1253719  39.4628660  54.7067351  58.8802447
  38.3520267  54.2557362  56.9428470  38.0468343  53.5488359  56.2892041
  38.2785968  55.6758417  56.5267000  37.5852156  56.1871204  57.1944692
  39.6435594  56.3287648  56.6521695  40.3467434  55.8334822  55.9825968
  39.5687088  57.3827490  56.3845597  39.9965514  56.2394744  57.6795560
  37.7549903  55.8443794  55.0824381  37.9747363  54.9849306  54.1849838
  37.0353492  56.9320976  54.8840699  37.0455368  57.6894365  55.5522266
  36.1568200  57.0373458  53.7439075  36.0815027  56.0719440  53.2434818
  34.7293111  57.4764884  54.1981210  34.7551143  58.5559528  54.3470843
  34.0437128  57.2387618  53.3847692  33.9788990  56.7695099  55.7205625
  32.8365347  57.4457634  55.6394252  36.7156139  58.0083849  52.6941821
  37.6249319  58.7922845  52.9691715  36.1120857  57.9610868  51.5066057
  35.4752233  57.2000345  51.3187091  36.3419248  58.9597135  50.4442415
  35.8104443  58.6683283  49.5383043  35.8328590  60.3291668  50.8896655
  36.4176258  60.5674241  51.7781363  35.9819746  61.1047374  50.1384300
  34.3890088  60.2987603  51.2633151  34.0749912  60.1438166  52.4181014
  33.5006638  60.3408903  50.2726677  32.5129863  60.3223474  50.4830222
  33.8184618  60.3912036  49.3152891  37.7828844  59.1186723  50.0624698
  38.2436978  60.2340911  49.8577848  38.5125557  58.0127539  49.9236523
  38.1306167  57.1190859  50.1985694  39.8834812  58.0520160  49.3972364
  40.1245095  59.0807568  49.1294735  40.9281791  57.5498143  50.4130975
  40.5126524  56.5773645  50.6772531  41.8924101  57.4116019  49.9239595
  41.1154145  58.3874602  51.6836962  40.1275637  58.6402258  52.0688730
  41.9105963  57.6427081  52.7649183  42.8987986  57.3899986  52.3806098
  42.0148853  58.2795124  53.6433856  41.3835908  56.7289888  53.0396595
  41.7352790  59.7340152  51.3316757  41.0797011  60.2675762  50.6434681
  41.8651255  60.3232445  52.2394477  42.7050985  59.5759345  50.8599134
  40.0035137  57.1950743  48.1366444  39.3065149  56.1889821  47.9395781
  40.9841197  57.5521593  47.3264517  41.4509137  58.4371569  47.4642271
  41.4764508  56.6625142  46.2652794  40.7466169  55.8676394  46.1116058
  41.6958035  57.3824426  44.9447346  42.3689941  58.2270954  45.0912793
  42.1548859  56.6666603  44.2628262  40.4304610  57.8819772  44.3308522
  39.3713673  57.8058528  44.9225071  40.5426713  58.4327003  43.1442630
  39.7215909  58.7898944  42.6769953  41.4495480  58.4965881  42.7042700
  42.8438150  56.1340931  46.6663681  43.6515445  56.8429114  47.2949330
  43.1377163  54.9413765  46.1756196  42.4028602  54.3856859  45.7617430
  44.4618254  54.3939821  46.2179340  45.0996089  55.0044762  46.8571745
  44.4203990  53.0180568  46.7660021  44.0382979  52.4263214  45.9341685
  45.4122279  52.6592744  47.0410487  43.4987979  52.8839983  47.9381666
  43.0125330  53.8432094  48.1158221  42.4151797  51.7941962  47.6667961
  42.9006974  50.8345422  47.4894956  41.7561700  51.7131727  48.5312278
  41.8307530  52.0726298  46.7898578  44.3512585  52.6190520  49.1726156
  45.0386950  53.4510155  49.3254798  43.7060790  52.5164869  50.0451550
  44.9198091  51.6998142  49.0317218  45.0493436  54.3738968  44.7897044
  44.3317056  54.2683882  43.7864090  46.3304723  54.6870034  44.7253433
  46.8019476  54.9980094  45.5626520  47.0751384  54.6704735  43.4845995
  46.4919831  54.1938397  42.6966596  47.4511242  56.0877479  43.0533014
  48.2072453  56.0283138  42.2704547  46.2396726  56.8295542  42.5291474
  45.4832448  56.8898003  43.3116358  46.5312731  57.8357744  42.2281645
  45.8311584  56.2978586  41.6697783  48.0713083  56.8810113  44.1999220
  47.5559084  57.8390166  44.2684024  47.9193655  56.3205271  45.1223483
  49.5579793  57.1196252  43.9914665  49.7106918  57.6804992  43.0694041
  49.9566721  57.6877133  44.8319540  50.0741487  56.1620089  43.9233478
  48.2890711  53.7970708  43.6721199  48.9537371  53.8687574  44.7203823
  48.5836614  52.9804683  42.6652922  48.0212214  52.9658770  41.8265147
  49.7408935  52.0728232  42.7459411  50.0095542  51.7462622  41.7413126
  50.5816180  52.6044978  43.1915909  49.4208059  50.8482330  43.5968798
  48.2563413  50.6254361  43.9791711  50.4563953  50.0723638  43.9141300
  51.3753261  50.3195665  43.5756684  50.2988043  48.8199851  44.6121548
  49.2606885  48.6900362  44.9179785  50.6910009  47.6474394  43.6854233
  51.3611569  48.0513194  42.9265615  51.2297857  46.9239834  44.2973240
  49.4908019  46.9484002  42.9954990  49.4271398  45.9406331  43.4059296
  48.5950407  47.5075188  43.2658696  49.6044175  46.8710807  41.4555129
  48.6949091  46.4083756  41.0723712  49.6838808  47.8879251  41.0710490
  50.7645599  46.0951870  40.9819397  51.5073998  46.6175444  40.5398641
  50.9084823  44.7714314  41.1188799  52.0201395  44.1810014  40.7157226
  52.7601514  44.7316169  40.3042557  52.1244703  43.1819335  40.8209751
  49.9607611  44.0379845  41.6794823  49.1145457  44.4789723  42.0104648
  50.0878619  43.0404708  41.7738771  51.0648121  48.8193653  45.9425956
  52.0169774  49.5894925  46.1554930  50.6032664  47.9906417  46.8585972
  50.1732158  46.6463957  46.4692067  51.0045721  46.1128465  46.0084766
  49.3483317  46.7147208  45.7599839  49.7581128  46.0469705  47.7659646
  50.0269943  44.9906713  47.7601574  48.6768582  46.1455994  47.8622047
  50.4646563  46.7872791  48.8673875  51.1999858  46.1009201  49.2872696
  49.8074659  47.1444265  49.6602596  51.1738005  47.9674974  48.2074413
  50.9779695  48.9272316  48.6856242  52.6817126  47.7186432  48.1643964
  53.1431038  46.8257743  47.4707378  53.4297251  48.5363873  48.9142670
  52.9678133  49.2522752  49.4567072  54.8694119  48.4637088  48.9629469
  55.2238768  47.5197456  48.5489574  55.4376400  49.6048763  48.1290647
  55.5344101  49.2693816  47.0965057  54.7481323  50.4479078  48.1735283
  56.6938911  50.0026534  48.6109234  57.0309450  50.7211510  48.0707793
  55.3651928  48.5578899  50.4421163  54.8598912  49.3654964  51.2301157
  56.3781550  47.7570035  50.7309737  56.7283075  47.1572573  49.9976273
  57.0103928  47.6922072  52.0302219  56.3166006  48.0664891  52.7829932
  57.3912849  46.2506987  52.3884822  56.4914077  45.6986834  52.6597763
  58.0477401  45.5893326  51.2203613  58.9480097  46.1405555  50.9487596
  58.3146562  44.5660102  51.4843049  57.3600885  45.5783123  50.3747169
  58.3085004  46.2451529  53.4886472  58.5416242  45.3396872  53.7063296
  58.2708966  48.5260614  52.0548634  59.0485338  48.4355713  52.9991202
  58.4981751  49.3144932  51.0166756  57.8497958  49.4008560  50.2471010
  59.7021501  50.1101295  50.9896559  60.5768586  49.4701912  51.1056871
  59.8089594  50.8456119  49.6549322  60.0226277  50.0969847  48.8920415
  58.8363911  51.2967406  49.4582243  60.8839341  51.9235950  49.6228895
  60.7865361  52.5088604  50.5372630  61.8506047  51.4200126  49.6156863
  60.7851366  52.8383194  48.4280664  59.8232157  52.7076608  47.6566123
  61.6753108  53.6918413  48.2617258  59.6727660  51.1450076  52.0756756
  58.7629423  51.9361065  52.1504714  60.6951802  51.1503633  52.9083403
  61.4161348  50.4457313  52.8465547  60.8224204  52.1695069  53.9148915
  61.6650883  51.9699119  54.5768369  61.0693521  53.4881046  53.1977018
  61.7545895  53.3508478  52.3612154  60.1171694  53.8686124  52.8280236
  61.6524194  54.5588083  54.0553428  61.6066073  55.8903821  53.7068153
  61.1782254  56.2484568  52.8651674  62.2033261  56.6065469  54.6363295
  62.2675584  57.6911607  54.5492314  62.6427629  55.7855915  55.5713137
  62.3127899  54.5001068  55.2305087  62.5950171  53.6737739  55.8829065
  59.5601593  52.2629242  54.7124315  59.1593800  53.3470508  55.0935382
  58.9120883  51.1459640  54.9852208  59.1788132  50.2340631  54.6425931
  57.6750282  51.2629239  55.7499638  57.1804634  52.1872936  55.4515587
  56.7299394  50.1323586  55.5499230  56.3949760  50.0909134  54.5134959
  57.2010552  49.1864257  55.8170576  55.6161933  50.3614108  56.3975572
  54.9829024  49.6474295  56.2937633  57.9021623  51.4354453  57.2571285
  58.7212680  50.7368060  57.8666480  57.1431594  52.3621676  57.8242477
  56.4095093  52.7777393  57.2682287  57.2628518  52.7612792  59.2143562
  58.2945815  53.0054448  59.4673702  56.4101625  53.9988282  59.4106713
  55.4205874  53.7532812  59.0252532  56.3260748  54.3174097  60.4496781
  56.8712813  55.1431959  58.6643297  58.1261066  55.4289047  58.3800744
  58.8793149  54.7038661  58.6884509  58.1980481  56.6196987  57.7363128
  59.0525937  57.0748572  57.4487676  56.9396205  57.1210191  57.5729978
  56.5043290  58.3108588  56.9666094  57.2544993  58.9489327  56.4994854
  55.1740922  58.5972451  56.9974949  54.8032982  59.5197498  56.5507321
  54.2834348  57.7396864  57.5852076  53.2171355  57.9648588  57.6052793
  54.7175053  56.5392834  58.1824349  53.9681431  55.8897107  58.6347759
  56.0786532  56.2352509  58.1702876  56.7266780  51.7360758  60.1965719
  56.9138227  51.8547217  61.4045289  55.9859291  50.7807970  59.6693770
  55.8971027  50.7313995  58.6645043  55.3237538  49.7691738  60.4681418
  55.5602288  49.9015643  61.5239124  53.8189407  49.8979973  60.2872111
  53.6063040  49.8527046  59.2191131  53.2694672  49.1087596  60.8003219
  53.2704463  51.1783984  60.7727860  53.2965168  51.4893616  62.1258297
  53.6939174  50.7577766  62.8293608  52.8385743  52.6782960  62.5744693
  52.8975887  52.9452094  63.6296353  52.2934023  53.5535857  61.6777060
  51.9319919  54.5245805  62.0163086  52.1999265  53.2082101  60.3407965
  51.7298894  53.8934125  59.6353442  52.6896589  52.0247202  59.9091498
  52.6134634  51.7549549  58.8558119  55.7416671  48.3722584  59.9824805
  55.1007687  47.8090156  59.0697305  56.8096284  47.8232007  60.5894989
  57.0437561  48.0015657  62.0376895  56.0885961  47.9603067  62.5612039
  57.5086137  48.9728285  62.2069678  57.9515632  46.8604353  62.4022465
  57.3998008  46.1707108  63.0409463  58.8048316  47.2592484  62.9508653
  58.3984806  46.1900354  61.1213945  58.3995605  45.1174100  61.3152311
  59.3708813  46.4889836  60.7300299  57.3038656  46.5342600  60.1148890
  57.6836832  46.6380714  59.0984934  56.1513402  45.5174213  60.1290077
  55.4315502  45.3781282  61.1415732  55.9400390  44.8777825  58.9844607
  56.5542814  45.0399558  58.1992821  54.8446887  43.9422607  58.8186028
  55.2478377  42.9796832  58.5039371  54.3324523  43.8263351  59.7737334
  53.8538486  44.4218108  57.7845692  53.1283492  43.6048507  57.2065373
  53.8304400  45.7390486  57.5619089  54.5059339  46.3296673  58.0255649
  52.8413900  46.3736332  56.6725234  52.1332159  45.6280510  56.3110048
  52.0746960  47.4463576  57.4244595  52.8911509  47.9690444  57.9227557
  51.5198912  48.1490590  56.8027664  51.1623664  46.8609228  58.4473744
  51.6545433  46.4927956  59.6851871  52.6894392  46.7242453  59.9372208
  50.8559013  45.8426693  60.5930013  51.2557461  45.5402803  61.5608788
  49.5709011  45.5007112  60.2427281  48.8067039  44.9073938  61.1866576
  49.2659025  44.7894474  62.0214179  49.0528049  45.8228009  59.0118964
  48.0318500  45.5537670  58.7410233  49.8452317  46.4952205  58.1168642
  49.4564336  46.7542194  57.1320517  53.4426604  47.0343406  55.4311474
  54.5720099  47.4789399  55.4446497  52.6782003  47.0520690  54.3610888
  51.8274301  46.5085484  54.3906684  52.9934608  47.7782726  53.1340497
  54.0109122  48.1681431  53.1639286  52.8700783  46.8442766  51.9581793
  51.8539963  46.4527216  51.9095785  53.0948831  47.3850168  51.0388517
  53.5719701  46.0184590  52.0742499  52.0542402  48.9646075  52.9667229
  50.8867343  48.9188595  53.3304017  52.5280061  49.9739592  52.2877068
  53.4578723  49.9292452  51.8959814  51.7733813  51.2136499  52.1382824
  50.8477183  51.1625179  52.7115474  52.6121080  52.3980710  52.6609881
  52.0476154  53.3133373  52.4828452  52.7946646  52.2866113  53.7297958
  53.9898548  52.5929471  51.9960378  55.1943482  52.2445770  52.5050742
  55.2061760  51.8033082  53.5016894  56.1735555  52.5391198  51.6104332
  57.1641861  52.4221543  51.7687669  55.6057085  53.0959253  50.4925100
  56.1880745  53.5675882  49.3314756  57.2619619  53.4335492  49.2014833
  55.3818569  54.1720433  48.4197173  55.8187033  54.6206569  47.5275228
  54.0283812  54.2311526  48.5959097  53.3791405  54.6387386  47.8210164
  53.4483528  53.7818614  49.7469920  52.3628443  53.8395071  49.8272976
  54.2524357  53.2050831  50.7282012  51.3385742  51.4569519  50.6982585
  52.0470260  51.1273441  49.7342668  50.1814910  52.0678995  50.5718646
  49.5964451  52.2066129  51.3833935  49.6805671  52.5122711  49.2720819
  50.4704314  52.5027090  48.5210012  48.6131254  51.5465150  48.8566144
  47.6433747  51.9656818  49.1249106  48.6553396  51.2797163  47.3361350
  49.6246913  50.8600788  47.0671348  47.8680161  50.5750717  47.0683724
  48.5031515  52.2154182  46.7981746  48.8588200  50.3122109  49.5728341
  48.1922230  49.6645860  49.3323539  49.1922062  53.8938130  49.4151432
  48.5482871  54.2124072  50.4194738  49.6099100  54.7692874  48.4962689
  50.1553404  54.4630564  47.7032824  49.2974773  56.2122115  48.6186782
  49.6467250  56.5128949  49.6064609  49.9775074  57.1074870  47.5615620
  50.1126768  56.5242826  46.6506827  49.1388675  58.3459638  47.2529209
  49.0036499  58.9299542  48.1632902  49.6483265  58.9531571  46.5046774
  48.1652215  58.0399573  46.8702003  51.2938946  57.6102451  48.0731803
  51.9451713  56.7646950  48.2945075  51.7616886  58.2402339  47.3166206
  51.1333153  58.1918743  48.9809372  47.8134235  56.3843175  48.4862622
  47.1886347  55.8070202  47.5841870  47.2725478  57.1625433  49.4079563
  47.9347659  57.6211488  50.0172571  45.8571469  57.4668011  49.5722535
  45.1532826  56.8645911  48.9977821  45.5544668  57.2908726  51.0458691
  46.2453684  57.8950189  51.6338845  44.5317623  57.6093064  51.2477991
  45.6681377  56.2415067  51.3179155  45.6502056  58.8959458  49.2124888
  46.3372585  59.6620621  49.7837551  44.6842002  59.2540147  48.3559363
  44.2618157  58.5931524  47.7195782  44.3211244  60.6679587  48.2309907
  44.5884306  61.1882489  49.1507432  45.0371743  61.3329297  47.0728823
  44.9023168  62.4094640  47.1776996  46.0963075  61.0899399  47.1582808
  44.5244565  60.8889731  45.7149284  43.9108616  60.0406298  46.0181045
  43.9233494  61.5777883  45.1213747  45.6527504  60.3851678  44.8670257
  46.0696164  59.2371925  45.0135643  46.3138401  61.3038754  44.1579687
  47.0841996  61.0238165  43.5678716  46.0403814  62.2744714  44.2151082
  42.8392939  60.9919853  48.1420740  42.0534523  60.1799040  47.7156765
  42.4670586  62.1986688  48.5357931  43.2019025  62.8333471  48.8137990
  41.0700650  62.6700149  48.6097649  40.5378510  62.1070226  49.3765029
  41.0029255  64.1831707  48.9672587  41.6902916  64.3781001  49.7904413
  41.3078928  64.7616432  48.0952125  39.3722058  64.8672581  49.4898787
  39.7974776  66.1136230  49.6759344  40.3757869  62.4505624  47.2795550
  40.7328150  63.0914067  46.2551861  39.4145357  61.5663367  47.3041129
  39.3694546  60.9417539  48.0965542  38.4679525  61.3702230  46.2163971
  38.9632354  60.7263310  45.4896255  37.2045838  60.6409673  46.7451378
  37.4977697  59.7082194  47.2269288  36.6927666  61.2770827  47.4672877
  36.2675107  60.3385525  45.5806364  35.9735073  61.2709180  45.0986016
  36.7785082  59.7020528  44.8582434  35.0258042  59.6218034  46.1003101
  35.3189891  58.6890562  46.5821029  34.5139871  60.2579202  46.8224582
  34.0887325  59.3193870  44.9358073  33.7947294  60.2517518  44.4537713
  34.5997300  58.6828857  44.2134177  32.8918085  58.6284898  45.4367394
  32.4179242  59.2182938  46.1058170  32.2711906  58.4281995  44.6654955
  33.1639806  57.7643053  45.8830650  38.0724091  62.6773326  45.4832457
  38.0010522  62.7073340  44.2610354  37.8290644  63.7449468  46.2339816
  38.0091649  63.6992569  47.2267432  37.3314513  65.0071378  45.6745113
  36.6520193  64.8704951  44.8332027  36.6417289  65.9253109  46.7662095
  37.3975928  66.5520381  47.2394781  35.5906872  66.8070387  46.1107520
  34.8341780  66.1809769  45.6376336  35.1203191  67.4357712  46.8667613
  36.0630048  67.4373728  45.3572971  36.0712137  65.1519453  47.9987978
  36.8097446  64.3893218  48.2459381  36.0128534  65.8770477  48.8105367
  34.7047269  64.4937093  47.8045573  34.7624211  63.7680931  46.9932298
  34.4107899  63.9873487  48.7239588  33.9655301  65.2558193  47.5578259
  38.5041475  65.8382506  45.0800314  38.6055927  66.0923081  43.8643972
  39.3972823  66.2301660  45.9787897  39.3292788  65.8782316  46.9230445
  40.4113897  67.2389090  45.6875772  40.1145184  67.8357180  44.8251471
  40.5670822  68.1568853  46.8803423  41.2998219  68.9439197  46.7021051
  39.6202670  68.6043705  47.1826632  41.1545544  67.2463554  48.2902107
  41.1832795  68.2829296  49.1230295  41.7727227  66.6773147  45.2530440
  42.6378245  67.4439384  44.7729358  41.9623931  65.3608327  45.3866343
  41.2659380  64.8183753  45.8773375  43.1760523  64.6749328  44.9148106
  42.9785827  63.6029720  44.9125852  43.5294708  65.1073667  43.4987759
  43.7388104  66.1770056  43.4865468  44.4102437  64.5614030  43.1607479
  42.6927924  64.8937879  42.8336049  44.3358041  64.9167224  45.8443844
  45.4370301  64.3669656  45.6503822  44.1176498  65.7787534  46.8375456
  43.2284114  66.2507969  46.9183506  45.1865632  66.1556920  47.7555802
  46.0811184  66.3820528  47.1753812  44.8248262  67.4058289  48.6252433
  45.7597150  67.8391081  48.9807026  44.3173231  68.1200691  47.9768593
  43.9903613  67.0992573  49.7384545  43.8047250  67.9026705  50.2300502
  45.5820483  64.9639971  48.6176364  44.7349123  64.3230590  49.2461337
  46.8708917  64.6449851  48.6046717  47.4944353  65.1767619  48.0143275
  47.3946121  63.4343613  49.2630826  46.7828839  62.5827673  48.9652985
  48.9156165  63.1303208  48.8774986  48.8771026  62.4947399  47.9928219
  49.4956820  64.0261060  48.6557035  49.6901179  62.3616225  49.9305800
  50.4939643  62.9712484  50.8755415  50.6991642  63.9599937  50.8949232
  50.9406869  62.0679035  51.7314315  51.5619581  62.3593772  52.5782870
  50.5008250  60.8866387  51.3481928  49.7090572  61.0432154  50.2323583
  49.2391127  60.1744971  49.7712923  47.1520397  63.4407223  50.8031784
  47.7792425  64.1800070  51.5657430  46.2673844  62.5652586  51.2223314
  45.9057567  61.8812810  50.5731015  45.7858661  62.5303605  52.6130533
  45.8407545  63.5216507  53.0629757  44.3290483  62.0090704  52.6891609
  44.3120144  61.0074438  52.2595629  43.7758069  61.9586099  54.1484291
  43.7920974  62.9600208  54.5785587  42.7517456  61.5854350  54.1366056
  44.3968243  61.2950999  54.7502522  43.4251036  62.8790053  51.8365629
  43.9422666  63.0708690  50.8964397  42.5131569  62.3150906  51.6404690
  43.0704948  64.2014522  52.4987688  43.9819671  64.7661682  52.6947634
  42.4221559  64.7769204  51.8380176  42.5528591  64.0103894  53.4387945
  46.6071192  61.6133527  53.5306224  46.5599143  61.7504241  54.7245517
  47.2890137  60.6403587  52.9542167  47.3392553  60.5767240  51.9474766
  47.9904180  59.6279158  53.7508876  48.9219495  60.0738461  54.0994479
  47.3590785  59.3906212  54.6071592  48.3025676  58.3629916  53.0095656
  48.6826280  58.3854735  51.8401086  48.1459193  57.2436525  53.7063362
  47.8183027  57.2972549  54.6602196  48.4416896  55.9051393  53.1382838
  48.3219600  55.9084001  52.0548848  49.8801010  55.5543698  53.4657642
  49.9817186  55.5971481  54.5501733  50.1579410  54.5607216  53.1142414
  50.9028506  56.5177758  52.8959124  51.4959693  56.4570085  51.6725599
  51.2059771  55.6322049  51.0216349  52.3703420  57.5001448  51.5248128
  52.9538756  57.6720235  50.7185586  52.3567762  58.2487089  52.6696803
  53.0643898  59.3879408  52.9966047  53.7440685  59.8057081  52.2539029
  52.8654999  59.9266830  54.2464470  53.3619302  60.8582716  54.5181079
  52.0581411  59.3196584  55.1574645  51.9605338  59.7131527  56.1692622
  51.3341939  58.1817661  54.8280068  50.6515942  57.7743328  55.5737658
  51.4861138  57.6335621  53.5645521  47.5330045  54.8374610  53.7026991
  47.2305770  54.8645264  54.8912402  47.1793173  53.8668122  52.8621991
  47.3207262  54.0008986  51.8711776  46.5421980  52.6500644  53.3037146
  46.0507657  52.7855634  54.2671633  45.4929387  52.2923893  52.2711215
  45.3785117  53.1536208  51.6128769  45.8753132  51.4469090  51.6992362
  44.1529677  51.9324284  52.8657441  44.3162896  51.5345091  53.8672864
  43.5497648  52.8380977  52.9290791  43.4288830  50.9019746  52.0255683
  42.3989822  51.2326521  51.8911970  43.9212262  50.8449697  51.0547706
  43.4389169  49.5256367  52.6817598  44.4137245  49.3648681  53.1421988
  42.6660001  49.4988098  53.4498608  43.1806675  48.4547468  51.6809465
  43.8970013  48.4791564  50.9693498  43.1925093  47.5551140  52.1398806
  42.2772509  48.6032917  51.2544820  47.5789905  51.5185594  53.5001522
  48.4457952  51.2913949  52.6631672  47.5469093  50.9113066  54.6770599
  46.8035817  51.1326817  55.3240194  48.5251847  49.9366242  55.0716046
  49.3513826  49.9496786  54.3607419  49.0650831  50.2174947  56.4364949
  48.2670928  50.2925041  57.1751994  49.7521972  49.4217567  56.7242020
  49.8074538  51.4474503  56.5063781  49.2006986  52.6315553  56.2248332
  48.1812985  52.6287645  55.8389374  49.8536642  53.8151626  56.4203292
  49.3392195  54.7643399  56.2702967  51.1524048  53.8021070  56.8041513
  51.6908556  54.7370306  56.9593563  51.7871364  52.6086514  56.9966912
  52.8479318  52.5945829  57.2469218  51.1004684  51.4394399  56.8772866
  51.5982022  50.4916823  57.0825098  47.9062333  48.5735038  55.0983225
  46.8408988  48.3815080  55.6274964  48.6530904  47.6457851  54.6133281
  49.6200306  47.8601488  54.4154032  48.1627704  46.3546781  54.2652274
  47.1727387  46.2205809  54.7010649  48.0207135  46.4338996  52.7452792
  47.9603474  45.4277316  52.3304511  46.7395973  47.2098369  52.3958333
  46.7994318  48.2163250  52.8099604  46.6340467  47.2689099  51.3125657
  45.8760792  46.6949746  52.8169672  49.1088642  47.2122074  52.2266657
  49.0334008  47.2711244  51.2714514  49.1674659  45.3193348  54.8205086
  50.3563888  45.5893147  54.8857322  48.6654106  44.1909612  55.3470108
  47.6682968  44.0570714  55.4361013  49.5466342  43.1742622  55.8879711
  50.3222602  43.6926670  56.4516731  48.8064823  42.2558260  56.8215278
  48.0322963  41.7227878  56.2696161  49.5033444  41.5378605  57.2539732
  48.3467313  42.8403872  57.6184070  50.2365845  42.3810982  54.7949860
  49.7511268  42.3092187  53.6688110  51.4181202  41.8622330  55.1068870
  51.8185101  42.0885779  56.0060841  52.1769828  40.9565574  54.2056211
  51.7741040  41.0011625  53.1937919  53.6817340  41.3500538  54.1594663
  54.1421615  40.8614696  53.3007508  53.8577026  42.8731581  54.0375516
  53.3979005  43.3624363  54.8962066  54.9200101  43.1154694  54.0077651
  53.3800774  43.2224951  53.1221618  54.3458140  40.8943589  55.3463159
  55.2727662  41.1413009  55.3091730  52.1012860  39.5004220  54.6807860
  52.2710246  38.5527617  53.9095022  51.7692457  39.3504466  55.9575580
  51.6996254  40.1675007  56.5471978  51.4832400  38.0368274  56.5507579
  51.7322192  37.2489618  55.8398597  52.3152060  37.8284551  57.8260769
  52.0419671  38.6351998  58.5062260  51.9972107  36.8749838  58.2478251
  53.8284319  37.8185865  57.6311979  54.0713252  37.1658868  56.7926952
  54.1617050  38.8325592  57.4100859  54.5325123  37.3147141  58.8883532
  53.8437488  36.6660942  59.4296443  55.4076938  36.7408304  58.5836988
  54.9655779  38.4572423  59.7899232  54.2832578  39.2938724  59.6396243
  54.9061174  38.1220794  60.8254084  56.3601065  38.8928462  59.4878799
  56.4153203  39.2038594  58.5285458  56.6164697  39.6516989  60.1031201
  56.9925724  38.1178675  59.6275011  49.9936914  37.9850107  56.9120681
  49.4185637  38.9859826  57.3663383  49.3872946  36.8173630  56.7334430
  49.9030070  36.0263382  56.3750860  47.9439694  36.6684004  56.9443069
  47.4436549  37.6210102  56.7701832  47.3690171  35.6294256  55.9765186
  47.1607342  34.7334952  56.5613488  46.4340423  36.0377577  55.5928690
  48.2909160  35.2705946  54.8015357  49.1087863  34.6757187  55.2081210
  47.7065229  34.6609249  54.1124135  48.8620517  36.4803876  54.0542740
  48.7669617  37.3574312  54.6944703  49.9161721  36.2930984  53.8496956
  48.1305968  36.7257566  52.7500801  48.5373173  37.6190151  52.2759828
  48.2759625  35.8681845  52.0931646  46.6735688  36.9169305  53.0021794
  46.5386259  37.7117914  53.6105266  46.1987297  37.0793332  52.1256789
  46.2964085  36.0891622  53.4410972  47.6067535  36.3257440  58.4051909
  46.4475755  36.0400977  58.7241103  48.6055866  36.4368658  59.2839801
  49.5226563  36.7147357  58.9648079  48.4369248  36.0979732  60.6927359
  47.4096872  35.7842352  60.8783445  49.3779430  34.9498070  61.0806277
  49.0447304  34.4661461  61.9988546  49.3150337  34.2418633  60.2542148
  50.7959922  35.4034736  61.2420091  51.2920815  36.0939994  60.3290258
  51.3934289  35.1360329  62.3024307  48.6704780  37.3179982  61.5720344
  48.4932865  37.2534467  62.7975659  48.9089393  38.4849338  60.9457067
  49.0900923  38.4730881  59.9521562  48.9377473  39.7713783  61.6403518
  49.3948051  39.6424870  62.6214657  49.7400115  40.8027009  60.8622034
  49.6484532  40.5653638  59.8023037  49.2998002  41.7811872  61.0542419
  51.1864420  40.8229507  61.2453558  51.3361566  41.5843221  62.0108622
  51.4568451  39.8464352  61.6471040  52.2256446  41.1883048  59.8446344
  53.7807840  41.4162015  60.7115534  54.0401863  40.4992096  61.2406424
  54.5656539  41.6555110  59.9940502  53.6822127  42.2324734  61.4271547
  47.5377898  40.3336794  61.8585019  46.6771047  40.2468878  60.9758183
  47.3409130  40.9640157  63.0170893  48.0015116  40.8743271  63.7758151
  46.1238563  41.7393693  63.2462806  45.3481235  41.4073205  62.5562942
  45.6210313  41.5662023  64.6550780  45.6969748  40.5126071  64.9239072
  46.2480584  42.1571056  65.3227383  44.2769403  41.9873216  64.7758750
  43.9837554  41.8658382  65.6819016  46.3224505  43.2406496  62.9432643
  47.4273874  43.7625502  63.0389892  45.2179535  43.9760255  62.7311189
  45.0549113  44.8868566  63.8688285  45.7086986  44.5816290  64.6858343
  44.0194014  44.8748492  64.2089375  45.4519557  46.2222294  63.2738426
  46.4505810  46.4726745  63.6317867  44.7433698  46.9750788  63.6191324
  45.4199682  46.1026403  61.7802787  46.4103887  46.2192429  61.3403127
  44.7421335  46.8389189  61.3483832  44.8975709  44.6963763  61.5145485
  43.8112624  44.6895069  61.4251910  45.5142251  44.1267595  60.2441929
  46.7256478  44.1649058  60.0536022  44.6788628  43.5734712  59.3944565
  43.7165923  43.4346871  59.6680873  45.0858372  43.1617009  58.0413186
  46.0383072  42.6330392  58.0789606  44.0360400  42.2309447  57.4520447
  43.0894034  42.4450554  57.9481646  43.9494304  42.4613939  56.3902104
  44.3693935  40.7915736  57.6209681  44.5354138  40.5602955  58.6731318
  43.5406246  40.1922088  57.2441310  45.5979007  40.4388984  56.8565938
  45.6834446  40.7231711  55.6631449  46.5772166  39.8312968  57.5399837
  47.4315341  39.5709134  57.0683445  46.4566454  39.6364409  58.5236478
  45.2085237  44.3817018  57.1276683  45.9459469  44.3828214  56.1454531
  44.4100138  45.3987196  57.4537047  43.7216454  45.2499093  58.1776548
  44.4809476  46.7176811  56.8246093  45.5013253  46.8595861  56.4685313
  43.5163206  46.9083479  55.6413097  43.7372089  46.1711685  54.8693808
  42.4898229  46.7783021  55.9840789  43.6864875  48.3110810  55.0677181
  43.4653055  49.0488590  55.8389917  44.7126901  48.4417259  54.7242910
  42.7303389  48.5000733  53.8948213  42.9512251  47.7628932  53.1228927
  41.7038418  48.3700291  54.2375920  42.9005081  49.9028063  53.3212289
  42.6793273  50.6405850  54.0925020  43.9267092  50.0334482  52.9778002
  41.9788421  50.0849825  52.1906350  41.0278599  49.9643930  52.5087399
  42.0915446  51.0140050  51.8107463  42.1839034  49.4017108  51.4756604
  44.1437090  47.7956626  57.8159412  43.5534960  47.5527347  58.8473386
  44.5478354  48.9986364  57.4708080  45.0566957  49.1223679  56.6071814
  44.2962390  50.1861650  58.3113128  43.2239095  50.2907903  58.4764249
  45.0005032  50.0654526  59.6885777  44.5814488  50.6641304  60.4973283
  44.8821739  49.0072502  59.9216140  46.4750313  50.3388608  59.6719421
  46.9412398  51.6265993  59.6613545  46.2378377  52.4590215  59.6413868
  48.2978411  51.8707778  59.6759100  48.6541047  52.8990120  59.6133690
  49.2167247  50.8143153  59.7698775  50.2887996  51.0109498  59.7793713
  48.7533119  49.5199413  59.8505091  49.4464994  48.6810836  59.9130327
  47.3830683  49.2903627  59.8515012  46.9998708  48.2799134  59.9938104
  44.8171501  51.3772371  57.5712635  45.7269009  51.2191958  56.7714352
  44.3276951  52.5710941  57.8972625  43.5277319  52.6618300  58.5071192
  44.8593187  53.7589272  57.2905090  45.4909404  53.4853360  56.4453456
  43.7739458  54.6370448  56.8043599  42.9981163  54.3880453  57.5283675
  43.9255681  55.7163749  56.7918160  43.2559159  54.2765188  55.5018776
  43.4457849  54.9540381  54.3233440  44.1606939  55.7764785  54.3477684
  42.6710627  54.4324959  53.3425773  42.6458541  54.7231412  52.3756288
  41.9064188  53.4509289  53.8926399  40.9060788  52.6786180  53.3114337
  40.7058410  52.8027352  52.2471977  40.2325140  51.8060721  54.1190173
  39.4348046  51.1871981  53.7082196  40.5532341  51.6891367  55.4906479
  40.0028572  51.0066399  56.1382457  41.5928670  52.4501436  56.0624049
  41.7294972  52.4056554  57.1428926  42.2836532  53.3250172  55.2547543
  45.7947874  54.5106547  58.1981643  45.6236871  54.5704943  59.4154633
  46.8296287  55.0540955  57.5935416  47.0008295  54.8327908  56.6230707
  47.7551929  55.9764893  58.2731994  47.4973235  56.0697378  59.3281436
  48.7829053  55.6253074  58.1805837  47.6379586  57.3309872  57.6172904
  47.9501521  57.4923453  56.4255510  47.1312526  58.3059865  58.3674658
  46.9595671  58.1687394  59.3532582  46.7636023  59.5673084  57.7799972
  46.9440185  59.5241195  56.7059004  45.2789303  59.9075723  58.0168000
  45.2343934  60.0344497  59.0984737  45.0337436  60.8516882  57.5303552
  44.2711684  58.8340803  57.5862887  44.6328538  57.8591301  57.9130249
  42.9050276  59.1009816  58.2030932  42.5424580  60.0756246  57.8764235
  42.2050436  58.3282795  57.8852022  42.9881359  59.0903945  59.2898689
  44.1667904  58.7014997  56.0643023  45.1399165  58.4300089  55.6551351
  43.4400181  57.9282185  55.8154258  43.8460344  59.6517656  55.6374425
  47.6179343  60.6788025  58.3174716  47.7148899  60.8683678  59.5238972
  48.2137507  61.4307265  57.4247555  48.1593483  61.2102971  56.4406059
  49.0595795  62.5439809  57.8379859  49.6660667  62.3259678  58.7170438
  50.0029730  63.0122451  56.6842769  50.4722997  62.1375511  56.2340070
  49.1976467  63.7859387  55.5981066  48.7283798  64.6610848  56.0475590
  49.8718773  64.1039814  54.8028952  48.4284095  63.1348570  55.1828149
  51.1253790  63.7935970  57.2087719  51.6899209  64.0696374  56.4830348
  48.2113105  63.7009453  58.3701605  47.2867944  64.1463839  57.7501988
  48.6190173  64.2011430  59.5266234  49.2985640  63.6544400  60.0359675
  48.0431385  65.3749591  60.1805542  46.9690568  65.2311066  60.2978323
  48.6808661  65.6148535  61.6106549  48.3536862  64.7665124  62.2117955
  49.7577799  65.5543330  61.4535117  48.3392741  66.9378098  62.3526249
  48.4517863  67.7339052  61.6166399  47.2919119  66.8583161  62.6438554
  49.1975912  67.2626733  63.5986998  48.5410565  67.5396448  64.4235318
  49.7754909  66.3808562  63.8753403  50.1352986  68.3839310  63.3400981
  50.7931032  68.2131190  62.5929598  50.1921289  69.5661960  63.9912187
  51.1012415  70.5055538  63.6155326  51.7318540  70.3157770  62.8497567
  51.1416187  71.3886409  64.1040268  49.3771980  69.8317437  65.0023324
  48.6999594  69.1422222  65.2956039  49.4372388  70.7223802  65.4748368
  48.0539114  66.6544223  59.3429340  47.1701479  67.4335589  59.4616703
  49.0201998  66.8543421  58.4819468  49.7894986  66.2000877  58.4667866
  49.0749647  68.0069557  57.5896651  49.0005859  68.9278534  58.1680373
  50.4445022  68.0194296  56.7911932  50.2655890  68.6112412  55.8935026
  51.1616524  68.5358395  57.4292498  50.9775971  66.7203981  56.4163692
  51.8029966  66.8384241  55.9405696  47.8835383  68.0428187  56.5978435
  47.4979771  69.0984801  56.0822356  47.3435285  66.8672139  56.3410618
  47.7528298  66.0357168  56.7425393  46.2769466  66.7109802  55.3916750
  46.3623315  67.5331928  54.6811998  46.4718855  65.4058185  54.6474219
  46.3801494  64.5725129  55.3440469  45.7137471  65.3137060  53.8697062
  47.4622084  65.3909007  54.1922985  44.8610929  66.8509146  56.0431792
  43.8395173  66.8180737  55.3366250  44.8069750  67.0140423  57.3503263
  45.6501930  67.2067308  57.8718182  43.5321419  66.8952297  58.0953835
  42.7406127  66.5823938  57.4144177  43.6446647  65.8698865  59.2138776
  44.4081717  66.3296315  59.8414051  42.7160704  65.7820079  59.7778723
  44.1097420  64.4830013  58.7815355  45.1521273  64.5308750  58.4665090
  43.9757012  63.5071319  59.9594583  42.9334421  63.4583711  60.2747633
  44.3080425  62.5160682  59.6505202  44.5903329  63.8532392  60.7904444
  43.3986628  64.0034665  57.4998836  43.6065743  64.6987497  56.6865856
  43.7624894  63.0117043  57.2312963  42.3236144  63.9605257  57.6746001
  43.0492023  68.2028004  58.7327917  43.8480588  69.0481165  59.0920619
  41.7505229  68.2626789  58.9903031  41.1721305  67.5123594  58.6401855
  41.1061604  69.3460831  59.7359982  41.8394522  69.9353125  60.2866261
  40.4030039  70.2628301  58.7168657  41.2258964  70.5459275  58.0605097
  39.6797559  69.6699771  58.1569213  39.7275787  71.5136186  59.2492450
  39.8167986  72.2912661  58.4906904  38.2577228  71.2910797  59.5768637
  38.1677194  70.5138369  60.3357390  37.8245326  72.2177139  59.9534219
  37.7269556  70.9821156  58.6763484  40.4939417  72.0303387  60.4656977
  41.5181417  72.2665775  60.1770715  40.0081741  72.9284383  60.8472054
  40.5030571  71.2651835  61.2419409  40.0975774  68.7257977  60.7180509
  39.0781533  68.2241017  60.3046968  40.4060799  68.7103249  62.0267127
  41.7739251  68.4220041  62.4750839  42.4102836  69.2819265  62.2660826
  42.1526925  67.5516067  61.9393201  41.6139894  68.1606815  63.9708325
  42.2893357  68.8270611  64.5074373  41.8929044  67.1256198  64.1682031
  40.2175261  68.4050196  64.3385800  40.1159076  69.4189093  64.7256206
  39.8291480  67.6966865  65.0703766  39.4457713  68.2706216  63.0191916
  39.1897430  67.2321866  62.8089522  38.1721623  69.1231054  63.0044489
  38.2461100  70.3572172  62.9027589  36.9995993  68.4627243  63.0433564
  36.9503299  67.4792015  62.8189578  35.7704598  69.1939842  63.1723991
  36.0297996  70.2110686  63.4663064  34.8970337  69.2555933  61.8728391
  34.4259787  68.2835053  61.7270577  33.7717789  70.3809232  61.9770462
  34.2421217  71.3534227  62.1223805  33.1853036  70.3952037  61.0583831
  33.1177444  70.1643630  62.8217007  35.7226551  69.5623781  60.7476802
  35.1825046  69.5987893  59.9548927  34.9831976  68.7656975  64.3984879
  35.1248680  67.6132814  64.9235733  34.3885935  69.8073726  64.9769593
  34.8328612  70.7063548  64.8563092  33.1921023  69.7404358  65.7653921
  33.0510198  68.8621464  66.3953147  33.1695635  71.0142637  66.6442906
  33.9513006  70.9346924  67.3997083  33.4106507  72.2812940  65.7827796
  32.6289930  72.3618008  65.0273787  33.3906288  73.1645700  66.4211552
  34.3819968  72.2091961  65.2935068  31.8945633  71.0562743  67.5007294
  32.0401565  71.8344472  68.2499625  31.0758978  71.3385833  66.8387718
  31.5578010  69.7446581  68.1917136  32.3758588  69.4619186  68.8542388
  30.6441485  69.8642596  68.7739798  31.4116023  68.9660536  67.4430476
  31.9403194  69.6650797  64.8433802  31.5242472  70.6793486  64.2116829
  31.3074666  68.4580415  64.7943678  31.7751463  67.2425918  65.4776011
  32.3048792  67.5090483  66.3921962  32.4410468  66.6797124  64.8235044
  30.5047732  66.5253636  65.7436551  30.0355510  66.9164900  66.6464008
  30.6952163  65.4591831  65.8665044  29.6712093  66.7783802  64.5488243
  28.6099981  66.7592723  64.7969466  29.8766666  66.0370414  63.7766172
  30.0654324  68.1752472  64.0515190  30.3325343  68.2222197  62.9957972
  28.8889797  69.0997562  64.3172617  28.8761535  69.7143253  65.3553221
  27.9965724  69.2564017  63.3355976  28.1166011  68.6738201  62.5193310
  26.9502270  70.3222388  63.2974744  26.1776514  70.0199238  62.5904866
  26.2863552  70.5823082  64.6766047  26.9917867  71.0096011  65.3892662
  25.5139785  71.3161162  64.4462572  25.6511523  69.3571605  65.2738210
  26.2769427  68.2740069  65.2097064  24.5738924  69.5065490  65.8965876
  27.3425871  71.7091828  62.6782509  28.5409424  72.0129560  62.3725054
  26.2653215  72.4839347  62.4455633  25.4146987  71.9908473  62.2144680
  26.2542582  73.9618728  62.3968341  27.2607204  74.3729335  62.4753337
  25.5872850  74.4996660  61.0502112  26.2546080  75.2500111  60.6262272
  25.3371578  73.3622899  59.9914790  24.6695035  72.6117572  60.4146078
  24.8822039  73.7903362  59.0982307  26.2862934  72.8959582  59.7273260
  24.3443272  75.1714846  61.3083616  23.9703183  75.4817451  60.4804388
  25.5567131  74.5667120  63.6661742  24.8906625  75.5936129  63.5622270
  25.8138032  73.9874496  64.8593757  26.4928596  73.2403461  64.8879780
  25.0583458  74.3160372  66.1231313  24.2737019  75.0413632  65.9078746
  24.4079693  73.0446094  66.7048906  25.1620701  72.2590151  66.6572174
  24.1761494  73.2622130  67.7474875  23.1383514  72.5773809  65.9867020
  23.2080990  72.8232146  64.9270786  23.1336858  71.4941963  66.1083102
  21.8369999  73.1641835  66.5649390  21.7894846  74.3985665  66.7890213
  20.8425797  72.3973620  66.7395137  25.8647110  75.0567433  67.2691914
  25.2337888  75.5559121  68.2311325  27.2171188  74.9267874  67.2672879
  27.5818870  73.9869532  67.2060086  28.2018505  76.0727256  67.5044650
  27.7248237  76.9944187  67.1712584  28.6518162  76.2522061  69.0067641
  29.7289112  76.3441244  68.8670625  28.2688965  77.1563058  69.4801310
  28.3540719  75.0422637  69.9006006  27.1558556  74.7025530  70.0684205
  29.3072523  74.5502457  70.5684863  29.4851039  76.0505083  66.5914654
  30.5269589  76.5934032  66.9779031  29.3700088  75.5173220  65.3664746
  28.4571127  75.2536969  65.0240978  30.5457964  75.2013627  64.5358993
  31.2239274  74.6070619  65.1483077  30.1211985  74.3574146  63.3042017
  29.6104328  73.4549673  63.6400687  29.4490242  74.9424530  62.6764980
  31.3467879  73.9753900  62.5091619  31.8578628  74.8773813  62.1725390
  32.0192704  73.3898943  63.1361079  30.9291086  73.1451952  61.2975316
  30.6699314  73.7687562  60.2337647  30.8732093  71.8953781  61.4473076
  31.3249901  76.4818566  64.1108847  32.4410155  76.7679531  64.5950273
  35.5488077  77.0565727  63.2750775  35.5610286  77.0687222  62.2652249
  36.8328245  77.2016156  63.9933500  37.5349840  76.4502394  63.6320952
  37.4600426  78.6058211  63.7878230  37.6506123  78.7674501  62.7268524
  36.4974195  79.6723114  64.2992711  36.3067177  79.5116039  65.3603587
  36.9375780  80.6590131  64.1551159  35.5589416  79.6096797  63.7484188
  38.7727673  78.6939838  64.5589296  39.4611607  77.9318508  64.1937314
  39.2138297  79.6802969  64.4148807  38.5829227  78.5329046  65.6201145
  36.6130800  76.9636499  65.4946980  36.1288078  77.8648807  66.1946448
  36.8428731  75.7016692  65.9238095  36.8140315  74.9808836  65.2168896
  37.0694865  75.2949490  67.3372458  36.0965145  75.2833409  67.8284585
  37.6937896  73.8608142  67.3833080  37.0357497  73.1608183  66.8684394
  39.0553806  73.8768662  66.6966955  39.7141635  74.5763417  67.2113213
  39.4907122  72.8780792  66.7285020  38.9358550  74.1876687  65.6588059
  37.8617459  73.4259460  68.8353087  38.5200769  74.1252535  69.3507405
  36.8887738  73.4143396  69.3265215  38.4701701  72.0282941  68.8801998
  39.4434347  72.0392122  68.3895506  38.5904353  71.7169729  69.9178484
  37.8121321  71.3282983  68.3653291  37.9906077  76.3143612  68.1110614
  38.8505366  76.9510815  67.5048250  37.7452191  76.5447245  69.4115825
  36.8550397  76.2757350  69.8056949  38.7384932  77.1989915  70.2988176
  39.6873490  77.3838409  69.7952278  38.1940671  78.5293248  70.8185132
  38.0343853  79.2090107  69.9814780  37.2484539  78.3592871  71.3332976
  39.1969943  79.1448493  71.7885085  39.3568504  78.4658922  72.6261028
  40.5199155  79.3834723  71.0683935  40.3609363  80.0627499  70.2308934
  41.2371554  79.8234324  71.7612880  40.9085627  78.4350331  70.6975608
  38.6538097  80.4721476  72.3070208  37.7081978  80.3021084  72.8218064
  39.3703094  80.9125417  73.0004057  38.4941258  81.1518336  71.4699862
  39.0196974  76.2332519  71.4720475  38.0900220  75.7106674  72.0566167
  40.2855660  75.9352895  71.7770247  41.0396717  76.3272252  71.2313047
  40.6301937  74.9809688  72.8880287  40.1469329  74.0189246  72.7176492
  42.1632521  74.7583925  72.9675364  42.5186493  74.3349837  72.0281126
  42.6604897  75.7116256  73.1469839  42.7361792  73.6403412  74.2705400
  44.0304493  73.7418033  73.9816306  40.0767494  75.5451055  74.2449145
  40.0208419  76.7693430  74.4222139  39.6273925  74.6792766  75.1688927
  39.6089293  73.6905018  74.9637516  38.9906829  75.1542731  76.4447051
  38.9535468  76.2373627  76.3279279  37.5351867  74.6198493  76.5981093
  36.9601213  74.8692816  75.7063792  37.5564954  73.5374812  76.7250941
  36.8839862  75.2617812  77.8185542  37.4582729  75.0123950  78.7107997
  36.8534357  76.7760908  77.6409022  36.2788935  77.0262899  76.7490499
  36.3880634  77.2354310  78.5129893  37.8714839  77.1504499  77.5335084
  35.4593918  74.7387027  77.9687034  35.4807020  73.6563351  78.0956898
  34.9934645  75.1972354  78.8409194  34.8843261  74.9881329  77.0769730
  39.8487549  74.8657480  77.7201120  40.7377440  75.6569544  78.1130606
  39.6002805  73.8957985  78.4327818  63.9871229  56.4999619  46.0304844
  64.2269448  56.8477550  44.5501323  62.8198362  56.7667738  45.0730409
  62.9486397  56.2842074  47.0679147  65.4780652  56.4331620  46.1145665
  63.1553391  55.9391778  48.4761831  66.3135497  56.1226184  47.2969896
  64.4508244  55.7288425  49.1836455  65.8591618  55.8093387  48.6612415
  66.9498418  55.5429515  49.6292783  68.3935922  55.6073307  49.1716058
  61.5150700  56.4397178  46.6043885  60.5298085  57.1475262  47.4684922
  59.8855311  56.4177530  48.6293181  60.2001242  58.5527101  47.1745457
  58.9005343  57.1249123  49.4941349  59.2160915  59.2600334  48.0391540
  58.5718142  58.5302603  49.1999799  58.2562386  56.3943963  50.6542915
  58.7214108  55.0276682  51.0198841  57.1229360  57.0505974  51.4646781
  56.8137049  57.9546360  51.2258322  56.4796228  56.3209883  52.6252955
  57.3156598  55.8888347  53.8440602  55.0223303  56.0152474  52.5906813
  58.8187681  56.1804678  53.9259489  56.6713641  55.1583188  55.0042168
  54.3780530  55.2854742  53.7515072  55.2140900  54.8533207  54.9702719
  54.5697943  54.1228047  56.1304286  57.2150593  54.8867352  55.7793426
  66.6065133  55.2167673  51.0317046  67.1502793  56.0608868  52.1239750
  67.0606156  57.5328895  52.0092781  67.9532425  58.2399539  51.0581061
  67.3549267  59.0511197  49.9754750  69.4559254  58.1212821  51.2084035
  68.2475537  59.7581841  49.0243030  70.3485523  58.8283465  50.2572315
  69.7502365  59.6395123  49.1746004  65.7648256  55.6793428  45.3654983
  65.6968135  57.5082282  46.0345174  62.6574703  56.7445528  49.0378448
  62.8062261  54.8958289  48.4483988  66.9137670  55.2522885  46.9943774
  66.7250702  57.1259058  47.4810857  64.4291361  56.4543990  50.0091141
  64.3923202  54.6336178  49.2742056  61.5467072  56.9827286  45.6482131
  61.1396724  55.4062794  46.5827611  60.1444770  55.3679071  48.8326445
  60.6754152  59.0720989  46.3280573  58.9561815  60.3097152  47.8360361
  57.8453321  59.0589418  49.8344408  56.6926580  55.3576111  52.1377287
  54.4974153  56.9766561  52.4883166  54.9304724  55.3016947  51.7579900
  53.5822760  55.9418956  54.1325322  54.0826996  54.3245989  53.3034861
  65.5105853  55.2544675  51.1110420  67.0803901  54.2382297  51.1963163
  66.6187474  55.7767020  53.0441591  68.2310249  55.8611985  52.0963419
  66.2621798  59.1297337  49.8763329  69.8843437  57.5136261  52.0205099
  67.8203641  60.3653551  48.2127012  71.4422633  58.7498966  50.3561651
  70.4079290  60.1653881  48.4668262  89.4778247  47.7262141  68.3537836
  93.4406438  49.2741672  75.1854965  93.8236770  54.6191114  74.8225145
  91.3560976  55.8806055  70.7493652  94.7433527  51.7223374  71.2843686
  92.2282227  47.7893387  69.4279163  95.5796763  47.8139908  73.1433503
  99.0615459  48.3599645  71.3366691 102.0842771  47.9799952  68.0125298
  95.4467062  57.1401540  72.3976644  95.7612767  57.9805000  68.4316912
  95.5845463  55.1457133  68.1658537  95.2583873  56.2552758  64.6670286
  93.5010659  58.6042886  61.3422004  95.4506675  58.6137902  57.1858720
  97.0847910  59.3252731  66.5167301  93.0850855  60.6952862  74.4470592
  92.9041790  62.2080304  84.8618419  92.4448570  64.6547603  86.1005360
  94.9869841  63.4750852  76.7078471  97.6959918  64.5943669  72.9026913
  96.8968432  67.3936580  69.1171930  94.7425993  64.4458138  66.0860596
  94.4156406  62.4153677  72.0664711 101.1437982  16.7395481  22.7989783
  99.9516819  19.7901103  22.0168651  99.1776765  67.3019776  63.1520728
  98.1227715  63.6234070  65.8391698  98.9781748  59.7706643  69.2419854
  97.3619682  65.2269753  63.0875613  96.1318467  62.0856688  63.2287592
  97.5397500  61.7026980  56.8959257  93.0925252  62.0047659  79.1480019
  92.4770300  60.0771588  77.1601367  92.9358030  54.4952704  66.9381983
 106.4098304  47.7984410  67.7746145 109.6323721  45.3075128  65.8104678
 111.2385282  44.6409716  63.5719318 111.9291449  41.4709697  59.7126159
 115.6543000  39.2998971  58.6720786  96.4999681  76.0969681  63.8338827
  95.2934561  73.4710833  68.3392928  94.5772935  70.3153147  71.5939236
  98.0169323  71.5205403  60.9252747  96.1390687  69.1334024  67.1383660
  97.5563406  67.2855437  73.3326858  98.3541060  66.0223233  56.5780473
  96.0103341  79.2215242  62.3638034 110.6018980  27.5820828  63.5749364
 108.9554514  26.0050797  65.2703444  95.4467063  80.1339415  59.1221947
  91.8436965  82.7855860  58.6603352  92.4770301  83.0709463  63.8846670
  95.7612768  80.9742876  55.1562216  93.8621345  83.5243170  53.6274885
  91.0218158  82.7749847  68.0761082  90.1502744  87.4483805  74.2479646
  89.7257446  90.7596575  75.6882159  88.1958300  93.2250232  71.2890599
  90.0678542  89.5068525  70.8644148  92.5677526  87.0708668  69.5198357
  87.2867198  83.4858569  74.8173517  87.8891808  84.6358788  71.4222980
  87.1951118  94.8103904  54.6603939  85.6539428  98.5035330  52.3527007
  90.9401237  86.9610598  64.5330337  90.6393768  88.6458008  61.1434367
  83.3478977  94.5118124  69.2186208  95.0571223  66.0139772  74.9308581
  94.8523627  70.8184909  75.2462128  92.9608246  74.2159161  80.9273392
  91.3560974  78.8743933  84.0248345  91.8436963  82.7855862  85.2112741
  94.5217795  76.3596891  77.8495056  95.7321054  74.9206910  74.8634467
  91.0676060  84.6656038  73.5179313  90.2503938  79.7939492  72.9880849
  94.2329358  78.5962373  74.7269051  95.5845462  78.1395010  81.4413231
  92.3436943  71.8771351  85.5063591  68.2177088  55.2873856 132.0063231
  67.5438786  55.5905553 132.6148189  68.6042910  56.0902937 131.6568688
  72.1833828  52.8659340 133.2803055  72.8784733  53.4866033 133.4990369
  72.5256978  52.0154691 133.5555432  66.2748697  52.9721092 132.1878148
  65.7022664  53.5911279 131.7348620  66.8481490  53.5220453 132.7218070
  69.4945957  53.2558242 133.3186730  70.4276630  53.1903803 133.5219606
  69.4069169  54.0914509 132.8601263  72.1233973  52.5724112 130.2790678
  72.0447605  52.2383976 131.1726436  72.9443640  53.0645880 130.2782150
  69.6937925  49.8892108 129.9000656  70.3973775  50.0942110 130.5158312
  68.9700574  50.4568869 130.1649740  71.6024622  50.3274637 131.9499116
  72.4370226  49.8955835 131.7676591  71.4408965  50.1556650 132.8776011
  73.0638478  56.7812184 132.4634069  72.2275790  57.1186871 132.7843344
  72.9243247  56.6461164 131.5261206  72.9376858  56.6259411 129.6631976
  72.0606324  56.5048212 129.2994222  73.4134611  55.8345490 129.4110864
  70.6395326  57.5658414 133.2213631  69.9464571  57.6402769 132.5653667
  70.3947078  56.8018758 133.7435148  75.6832167  57.5623798 129.4649086
  74.7763622  57.2656911 129.5411799  75.9608148  57.2653617 128.5983372
  74.4530952  54.4210734 129.6061065  75.3150116  54.7465632 129.8656882
  74.6381296  53.6342230 129.0934131  75.4060395  51.6606777 132.8940774
  75.3939064  52.6048617 133.0509045  76.2983816  51.4776922 132.6000235
  68.2177089  32.2935979 118.7308538  67.5438788  32.5967676 119.3393496
  68.6042911  33.0965059 118.3813995  72.1833830  29.8721463 120.0048361
  72.8784734  30.4928155 120.2235676  72.5256980  29.0216814 120.2800739
  66.2748698  29.9783214 118.9123455  65.7022665  30.5973401 118.4593927
  66.8481492  30.5282576 119.4463377  69.4945958  30.2620364 120.0432037
  70.4276631  30.1965926 120.2464913  69.4069171  31.0976631 119.5846570
  72.1233974  29.5786235 117.0035985  72.0447606  29.2446098 117.8971742
  72.9443641  30.0708003 117.0027457  69.6937926  26.8954230 116.6245963
  70.3973776  27.1004233 117.2403619  68.9700575  27.4630992 116.8895046
  71.6024624  27.3336759 118.6744423  72.4370228  26.9017958 118.4921898
  71.4408967  27.1618773 119.6021317  80.2308899  37.8506410 128.7699600
  80.8687309  37.7313158 128.0662940  80.1129742  38.7987254 128.8287552
  72.8985421  39.6569315 124.6958015  72.3350286  39.5659252 123.9274303
  72.7837816  38.8369219 125.1760508  78.4784979  43.3240283 120.0072480
  77.8272959  43.9094363 119.6206494  79.2729342  43.8546478 120.0667518
  72.4040607  40.4129420 120.4059615  73.1771483  39.8658407 120.2672490
  72.7566005  41.2773669 120.6174076  74.7406884  36.5722086 118.0378065
  74.9932405  36.0503607 117.2761528  73.8031443  36.4088231 118.1404748
  79.7850167  35.5757864 125.8452808  80.5713256  35.1577287 125.4943225
  80.0488872  36.4803956 126.0134456  79.9560245  41.0130715 120.5441465
  79.3206078  41.0865341 121.2562369  79.6257651  41.6024313 119.8660544
  74.4603173  38.4750192 120.2402439  74.3439431  37.7995095 120.9083524
  74.5705433  37.9882566 119.4234593  76.8034714  37.9360339 123.9449129
  76.4392921  37.4090960 124.6562050  77.6601830  37.5458808 123.7715614
  76.4440201  32.9650239 118.9410477  76.6114603  33.8330475 119.3080948
  76.2537370  33.1277520 118.0171766  76.4229422  35.4207896 119.9257144
  76.3029047  35.8664947 120.7642624  75.7282010  35.7693214 119.3670682
  74.1836314  48.1911538 123.5747275  74.1060344  49.1419363 123.6535756
  73.5797958  47.8457410 124.2322202  82.1214488  35.8929369 120.7537478
  83.0332344  36.1256756 120.5785176  81.6124135  36.4766414 120.1912557
  80.7284070  40.8755188 128.1451060  80.0992933  41.0400902 127.4427127
  80.3409732  41.2896797 128.9162024  84.6073302  41.8109626 125.4995423
  83.9224340  42.1908527 124.9492457  84.6917152  42.4204952 126.2327371
  76.2812032  40.6129596 125.4101145  76.7450378  40.8917299 124.6205767
  76.0168830  39.7113040 125.2274235  75.2180918  36.7352748 122.2190710
  75.9204962  37.1873792 122.6864636  74.8861547  36.0936567 122.8470603
  76.4574683  43.5493691 122.2952815  76.3220358  44.3945227 122.7237663
  76.9984495  43.7512969 121.5318749  69.9104080  41.0669129 122.8680740
  70.4228601  41.8612379 123.0186305  70.5626793  40.3695419 122.8014342
  71.7198965  44.1834885 124.9503493  71.8965593  45.1052850 124.7624477
  72.5155799  43.8693304 125.3797873  72.8430281  45.7013059 130.9513836
  73.3937706  45.5730122 130.1790830  72.0041756  46.0007948 130.6008728
  67.8752997  39.3957783 123.6440311  68.7128219  39.8054792 123.4274018
  68.0531265  38.4557225 123.6140505  79.7717429  37.0632864 119.3324144
  79.2564053  37.8337469 119.5712531  79.4994738  36.3898000 119.9557205
  77.3564540  31.9082565 124.3909382  76.5006137  31.5189415 124.2115021
  77.7691492  31.9874525 123.5309167  84.7451703  39.8165219 121.2677317
  83.9681146  39.4776378 120.8232479  85.4243184  39.8217842 120.5932282
  79.5603732  34.9359956 121.1583925  79.2553868  35.2506105 122.0094068
  80.5134175  35.0141376 121.2011258  78.0050164  41.0950179 122.8076879
  77.4771526  40.3602939 122.4950116  77.5037667  41.8724856 122.5616847
  82.9843010  39.2899200 127.9243925  82.3266685  39.9798461 128.0124054
  83.7883409  39.6795632 128.2677911  81.7948469  37.6443572 125.9747867
  82.3080351  38.2773564 126.4769577  82.4449693  37.0444768 125.6091227
  73.0638479  33.7874307 119.1879376  72.2275791  34.1248993 119.5088650
  72.9243249  33.6523286 118.2506513  76.1502764  38.9130390 115.8111852
  75.2429826  38.6819643 116.0103001  76.6473796  38.1168009 115.9985833
  79.0570843  47.6227897 118.7308538  78.3832542  47.9259593 119.3393496
  79.4436665  48.4256977 118.3813995  79.0564348  36.5184444 123.3508888
  79.8036167  37.0305841 123.0416010  79.3255937  36.1968496 124.2113281
  77.3290998  39.0142984 120.3335842  76.4202217  38.7302017 120.4308312
  77.3586082  39.4342063 119.4739149  82.5610265  42.6249574 124.1027009
  82.1072592  41.7840484 124.1592200  81.9304232  43.2610972 124.4401790
  81.5043185  33.5541560 125.3327677  80.7665942  33.0418946 125.6637919
  81.7569958  33.1141942 124.5210954  81.0043205  44.4626071 125.0376828
  81.2966179  45.0231128 124.3189193  81.5141825  44.7554632 125.7929987
  75.8775892  36.6271605 126.4345637  75.9324502  35.6745441 126.3588114
  75.0667094  36.7831044 126.9186936  77.0267086  40.5551728 117.6723920
  76.5886516  39.8387587 117.2129558  77.7677527  40.7827843 117.1109012
  73.8168252  35.2448665 124.1936016  73.0036117  35.5442835 124.6001208
  74.3127246  34.8504354 124.9110498  75.9676830  45.2406422 126.1270281
  75.9253009  45.4667268 125.1978813  76.8839529  45.0069796 126.2756082
  85.1440200  38.8308925 123.7300239  85.0058099  39.0210521 122.8021428
  84.7876419  39.5928308 124.1868290  74.0842630  42.1169451 125.9232243
  74.8783229  41.6219771 125.7214818  73.3734323  41.5887314 125.5599949
  78.9037475  44.4987546 130.2744611  78.9574497  45.0678483 131.0422327
  78.0352256  44.6689431 129.9098648  70.3925394  36.2612532 121.9991996
  69.4622982  36.1996988 122.2161958  70.4882866  35.7388485 121.2028637
  76.6613906  42.6898473 129.6030081  76.5224992  42.3217257 130.4756019
  75.8728503  43.2046112 129.4314038  77.2562058  47.7907569 120.9455617
  77.4313814  47.3195612 121.7601240  76.5694846  48.4173335 121.1736878
  78.2119122  42.0680075 126.9918918  77.8768954  42.0280845 127.8876568
  77.7123067  41.4024791 126.5189329  81.1478313  39.4136110 117.2655978
  80.5307484  38.6882938 117.1689031  80.6794802  40.1745470 116.9223052
  71.8223144  50.9396932 127.7195477  72.0619742  51.5715456 128.3974496
  70.9792340  50.5884972 128.0060837  72.9376859  33.6321534 116.3877282
  72.0606326  33.5110335 116.0239529  73.4134612  32.8407612 116.1356171
  76.3351006  46.7476054 130.1236981  76.2621177  47.5531026 130.6356286
  75.8928399  46.9468020 129.2985003  76.1240785  45.9847824 123.6339803
  75.3408307  46.5269505 123.7278027  76.8233530  46.5021804 124.0334044
  78.7949689  46.6462888 132.2795140  79.5077661  47.2810353 132.2071041
  78.3039718  46.7426754 131.4635142  80.5167216  40.5514141 123.8512432
  79.5823495  40.6715604 123.6817136  80.6943884  39.6486608 123.5872441
  83.9039767  36.3931460 124.3862466  84.3700220  37.2259452 124.3122768
  84.3547268  35.9276442 125.0907724  81.9715998  42.7375282 121.3848618
  82.2475842  42.6231876 122.2942492  81.1020497  42.3392766 121.3460791
  78.6070063  46.9861632 125.0281431  78.7892457  46.1683288 125.4909184
  79.4303049  47.2029325 124.5906321  78.9412228  45.9129818 122.2896480
  79.4699994  45.4022272 121.6766642  79.2040448  45.5972348 123.1542013
  72.2967976  46.9644934 125.0494256  71.6278351  47.4491062 124.5658296
  72.1580846  47.2114155 125.9637634  76.4373245  48.9988678 131.6476914
  76.9891553  49.1620299 132.4125999  76.7779438  49.5893116 130.9756939
  67.6655553  35.2263389 121.8290188  67.9608994  34.3174068 121.7757242
  66.7643589  35.2051129 121.5071190  79.5741632  46.9470653 128.6340596
  79.4492771  46.1460393 128.1251542  80.2320723  47.4416847 128.1454566
  81.6376540  44.7479673 130.2620146  80.6906876  44.6285025 130.1898473
  81.9859313  43.8602171 130.3446408  78.6422973  44.5432390 126.4624499
  78.4947936  43.6149097 126.6432069  79.4676467  44.5652480 125.9781574
  72.5085218  33.1950457 122.3204991  72.8481290  33.7236378 121.5983599
  72.9557338  33.5330863 123.0963557  82.2457095  45.3660948 127.5489371
  83.1703643  45.1603810 127.4113823  82.0772399  45.1177350 128.4578713
  74.4953365  31.6925078 120.5198284  75.2161727  32.0706331 120.0162000
  73.8718669  32.4113955 120.6233262  78.6384488  32.3970227 121.4556616
  78.8548102  33.2794865 121.1545444  78.1578555  32.0056441 120.7262258
  82.0352412  45.8846616 122.9051463  82.2089289  45.3193038 122.1525315
  82.5281303  46.6847511 122.7230953  87.8891803  38.6483039 124.5241763
  88.3322949  37.8990364 124.1260886  87.0118313  38.6393175 124.1415495
  83.0227584  45.2013380 120.0048361  83.7178489  45.8220073 120.2235676
  83.3650734  44.3508731 120.2800739  84.9219007  42.6513086 121.5335692
  85.4470331  42.9900359 120.8085012  84.8341360  41.7160101 121.3498827
  76.6059668  48.7185069 125.8930945  76.1664658  48.2261448 126.5863802
  77.3567785  48.1758037 125.6523020  69.0852007  44.9096610 125.8955573
  69.9110027  44.6100382 125.5154217  68.7346059  44.1404232 126.3445362
  74.0533540  44.2623078 127.9653247  73.4313549  43.5993783 127.6655475
  74.7238407  44.2884210 127.2826895  73.6147047  42.8127001 121.4411707
  73.7635167  43.4962466 120.7878380  74.4213490  42.7932092 121.9561163
  71.3699680  38.8392179 122.4472776  71.1245722  37.9354509 122.6452986
  71.5395594  38.8409330 121.5052254  70.6395327  34.5720537 119.9458938
  69.9464572  34.6464892 119.2898974  70.3947079  33.8080880 120.4680455
  77.1142452  45.3075132 118.9123455  76.5416420  45.9265319 118.4593927
  77.6875246  45.8574494 119.4463377  80.3339712  45.5912282 120.0432037
  81.2670385  45.5257844 120.2464913  80.2462925  46.4268549 119.5846570
  82.9627729  44.9078152 117.0035985  82.8841360  44.5738016 117.8971742
  83.7837396  45.3999920 117.0027457  77.4989251  36.6435945 116.2539507
  78.4448356  36.5142153 116.3227925  77.1203496  35.9050607 116.7308935
  75.6832168  34.5685921 116.1894392  74.7763624  34.2719034 116.2657106
  75.9608149  34.2715739 115.3228679  77.2994234  29.1122811 122.3438634
  76.4894962  28.7669896 122.7193880  77.9878651  28.8030355 122.9326245
  74.4530953  31.4272856 116.3306372  75.3150117  31.7527755 116.5902189
  74.6381297  30.6404352 115.8179437  82.6063589  30.3001383 123.4741595
  82.0262258  30.9586187 123.0919647  82.3399522  29.4778727 123.0629012
  81.3888467  32.4601473 122.5297943  80.5014322  32.7451124 122.3118138
  81.8042456  32.2995236 121.6825220  69.3972718  47.0409224 127.6169388
  69.2627186  46.2809625 127.0507386  68.9804780  47.7650124 127.1498176
  80.5331681  42.2246148 116.6245963  81.2367531  42.4296150 117.2403619
  79.8094329  42.7922910 116.8895046  81.3629491  37.9756009 122.7448233
  81.3064692  38.4324560 121.9055865  81.9157833  37.2146694 122.5671076
  85.1734297  33.7645741 123.5698353  84.9171231  33.3642377 124.4006560
  84.5487165  34.4789535 123.4448492  72.5541844  47.9378541 127.8287830
  72.4374228  48.8823974 127.7266521  71.7334290  47.6352103 128.2173629
  82.4418378  42.6628677 118.6744423  83.2763982  42.2309875 118.4921898
  82.2802721  42.4910691 119.6021317  82.0964270  39.1660790 120.0400762
  82.0413074  39.0005062 119.0989206  81.4710326  39.8736823 120.1962952
  75.4060396  28.6668899 119.6186081  75.3939066  29.6110739 119.7754352
  76.2983818  28.4839045 119.3245542  73.5796358  48.5906803 131.0443759
  74.4823604  48.6230413 131.3610254  73.3533728  47.6607254 131.0590094
  75.3349960  47.3437790 127.7053837  74.3845591  47.3439651 127.5918210
  75.6382446  46.5970524 127.1889872  83.7379175  54.9861233 124.6958015
  83.1744040  54.8951170 123.9274303  83.6231570  54.1661137 125.1760508
  81.2843607  56.4812424 127.5342236  82.0764899  56.1403249 127.1188535
  81.5240257  56.5907399 128.4544389  89.3178734  58.6532200 120.0072480
  88.6666714  59.2386281 119.6206494  90.1123097  59.1838395 120.0667518
  83.2434361  55.7421337 120.4059615  84.0165237  55.1950325 120.2672490
  83.5959760  56.6065587 120.6174076  85.5800639  51.9014004 118.0378065
  85.8326160  51.3795525 117.2761528  84.6425198  51.7380149 118.1404748
  90.6243922  50.9049782 125.8452808  91.4107011  50.4869205 125.4943225
  90.8882626  51.8095874 126.0134456  90.7953999  56.3422632 120.5441465
  90.1599832  56.4157259 121.2562369  90.4651405  56.9316231 119.8660544
  85.2996928  53.8042110 120.2402439  85.1833186  53.1287013 120.9083524
  85.4099188  53.3174483 119.4234593  87.6428469  53.2652257 123.9449129
  87.2786676  52.7382878 124.6562050  88.4995584  52.8750726 123.7715614
  87.2833956  48.2942156 118.9410477  87.4508358  49.1622393 119.3080948
  87.0931125  48.4569438 118.0171766  83.4921770  53.2072932 126.6413012
  82.5672267  53.0749146 126.8490704  83.7406183  53.9867151 127.1382954
  87.2623176  50.7499814 119.9257144  87.1422802  51.1956865 120.7642624
  86.5675765  51.0985132 119.3670682  80.8530581  52.8506206 127.4756801
  80.9822962  53.1040685 128.3896213  80.1728033  53.4433914 127.1561456
  92.9608243  51.2221287 120.7537478  93.8726099  51.4548674 120.5785176
  92.4517890  51.8058331 120.1912557  87.1205787  55.9421514 125.4101145
  87.5844132  56.2209217 124.6205767  86.8562585  55.0404958 125.2274235
  86.0574673  52.0644666 122.2190710  86.7598716  52.5165710 122.6864636
  85.7255301  51.4228485 122.8470603  79.8000007  50.3228219 127.5207843
  79.0099061  50.5785747 127.0447954  80.2911254  51.1376556 127.6259884
  81.7514752  50.6872798 124.4791320  80.9545915  50.7991492 124.9974816
  81.5240344  51.0259450 123.6132211  78.0837710  50.5758709 129.9522834
  78.3345748  51.4605719 130.2180410  78.6197258  50.3963311 129.1797926
  87.2968437  58.8785609 122.2952815  87.1614112  59.7237144 122.7237663
  87.8378250  59.0804886 121.5318749  80.7497835  56.3961047 122.8680740
  81.2622355  57.1904297 123.0186305  81.4020548  55.6987337 122.8014342
  82.5592720  59.5126803 124.9503493  82.7359348  60.4344768 124.7624477
  83.3549553  59.1985222 125.3797873  78.7146752  54.7249701 123.6440311
  79.5521974  55.1346709 123.4274018  78.8925019  53.7849143 123.6140505
  90.6111184  52.3924782 119.3324144  90.0957807  53.1629386 119.5712531
  90.3388492  51.7189918 119.9557205  88.1958295  47.2374482 124.3909382
  87.3399891  46.8481333 124.2115021  88.6085247  47.3166443 123.5309167
  85.9700327  44.8559555 127.7967123  86.8353324  44.6602364 127.4373013
  86.0377836  44.6269907 128.7236480  95.5845458  55.1457136 121.2677317
  94.8074901  54.8068296 120.8232479  96.2636939  55.1509759 120.5932282
  90.3997487  50.2651874 121.1583925  90.0947622  50.5798023 122.0094068
  91.3527929  50.3433294 121.2011258  88.8443919  56.4242097 122.8076879
  88.3165280  55.6894857 122.4950116  88.3431421  57.2016773 122.5616847
  83.5762646  47.0861763 125.1683490  84.1506398  46.8636945 124.4356683
  84.1633629  47.1550458 125.9212092  83.9032233  49.1166224 119.1879376
  83.0669546  49.4540911 119.5088650  83.7637003  48.9815204 118.2506513
  85.8785314  43.9603012 123.8958560  85.2249726  43.6452029 123.2715174
  85.8365788  43.3378753 124.6218383  86.9896519  54.2422307 115.8111852
  86.0823581  54.0111561 116.0103001  87.4867551  53.4459926 115.9985833
  89.8964598  62.9519814 118.7308538  89.2226297  63.2551511 119.3393496
  90.2830420  63.7548895 118.3813995  89.1123054  50.4484946 128.2206207
  88.1945616  50.6699893 128.0627895  89.5283198  50.5231256 127.3617915
  89.8958102  51.8476361 123.3508888  90.6429921  52.3597759 123.0416010
  90.1649692  51.5260414 124.2113281  88.1684752  54.3434902 120.3335842
  87.2595972  54.0593935 120.4308312  88.1979836  54.7633981 119.4739149
  92.3436939  48.8833478 125.3327677  91.6059696  48.3710864 125.6637919
  92.5963713  48.4433859 124.5210954  78.7372923  52.0640416 124.3151044
  78.5397323  51.4709777 123.5902111  78.1819587  51.7592626 125.0326983
  86.7169646  51.9563523 126.4345637  86.7718256  51.0037359 126.3588114
  85.9060848  52.1122962 126.9186936  87.8660840  55.8843646 117.6723920
  87.4280270  55.1679505 117.2129558  88.6071281  56.1119761 117.1109012
  84.6562006  50.5740582 124.1936016  83.8429872  50.8734753 124.6001208
  85.1521001  50.1796271 124.9110498  95.9833955  54.1600843 123.7300239
  95.8451854  54.3502439 122.8021428  95.6270174  54.9220226 124.1868290
  84.1476081  48.1458938 129.8097251  84.7875460  48.0047697 129.1120214
  83.3153612  47.8593451 129.4335853  84.9236385  57.4461368 125.9232243
  85.7176983  56.9511689 125.7214818  84.2128077  56.9179232 125.5599949
  81.2319148  51.5904450 121.9991996  80.3016737  51.5288906 122.2161958
  81.3276620  51.0680403 121.2028637  81.1504697  48.1159263 124.5870238
  81.4111515  49.0304596 124.4779398  81.9721870  47.6483706 124.7366851
  82.6229623  49.5297020 131.7569062  83.2952676  49.3214382 131.1081711
  81.7959409  49.3319106 131.3174295  88.0955813  63.1199487 120.9455617
  88.2707569  62.6487530 121.7601240  87.4088601  63.7465253 121.1736878
  91.9872068  54.7428027 117.2655978  91.3701238  54.0174856 117.1689031
  91.5188556  55.5037388 116.9223052  83.7770614  48.9613452 116.3877282
  82.9000080  48.8402252 116.0239529  84.2528367  48.1699530 116.1356171
  75.2972754  53.7490611 126.4818789  75.9843794  53.4352341 125.8939805
  75.1420883  54.6531976 126.2086041  80.1007476  48.6380808 130.9103813
  80.0165665  48.0306478 130.1754223  79.2790182  49.1289826 130.9113309
  90.2731190  47.1234372 126.2774008  90.7699889  46.3704334 125.9575078
  89.5018171  47.1598688 125.7117218  91.3560971  55.8806059 123.8512432
  90.4217249  56.0007521 123.6817136  91.5337639  54.9778526 123.5872441
  86.8566159  49.2651755 126.0045693  86.4863946  48.7122795 126.6926598
  87.3525251  48.6609888 125.4520693  94.7433522  51.7223378 124.3862466
  95.2093974  52.5551370 124.3122768  95.1941022  51.2568360 125.0907724
  92.8109753  58.0667199 121.3848618  93.0869597  57.9523794 122.2942492
  91.9414252  57.6684684 121.3460791  89.7805982  61.2421735 122.2896480
  90.3093749  60.7314190 121.6766642  90.0434202  60.9264266 123.1542013
  74.8740730  51.8291205 128.7536257  74.9124829  51.2954795 129.5473375
  74.3681023  51.3026410 128.1347234  82.2531492  46.6755745 132.2498799
  82.3172819  47.5370576 131.8376197  82.1898612  46.0629747 131.5171157
  78.5049308  50.5555307 121.8290188  78.8002749  49.6465985 121.7757242
  77.6037343  50.5343046 121.5071190  82.0343555  48.6311304 127.8117737
  81.3130140  49.2447271 127.6725210  82.8236810  49.1669068 127.7334383
  80.2337149  48.2369405 121.9529513  79.9049855  47.3566784 121.7704619
  80.5876520  48.1817073 122.8405902  83.3478972  48.5242374 122.3204991
  83.6875045  49.0528296 121.5983599  83.7951093  48.8622781 123.0963557
  85.3347119  47.0216996 120.5198284  86.0555482  47.3998249 120.0162000
  84.7112424  47.7405873 120.6233262  89.4778242  47.7262145 121.4556616
  89.6941857  48.6086783 121.1545444  88.9972309  47.3348358 120.7262258
  84.2177464  50.6847858 128.0327360  84.0722044  50.9988161 128.9251642
  83.7402667  51.3032759 127.4798259  86.0773847  47.6750406 128.0808250
  86.0635415  46.7791499 127.7440548  86.7946275  47.6821070 128.7146536
  78.6923126  53.2253203 130.9715022  78.1476594  54.0013011 131.1035296
  79.5702476  53.5724007 130.8134143  85.4810742  46.5564786 123.3495820
  85.6026654  45.6281433 123.5486708  85.1912785  46.5703472 122.4374136
  88.3501933  44.2419697 126.4862540  88.3723630  44.3059030 125.5314520
  88.7669992  43.4024206 126.6803046  93.8621339  60.5305298 120.0048361
  94.5572243  61.1511991 120.2235676  94.2044489  59.6800649 120.2800739
  95.7612762  57.9805003 121.5335692  96.2864086  58.3192276 120.8085012
  95.6735114  57.0452019 121.3498827  79.9245761  60.2388528 125.8955573
  80.7503781  59.9392299 125.5154217  79.5739813  59.4696150 126.3445362
  78.1254366  58.1574854 126.8544507  77.2886275  57.7297028 126.6728508
  78.0978012  58.3507297 127.7915298  84.4540801  58.1418919 121.4411707
  84.6028922  58.8254384 120.7878380  85.2607245  58.1224009 121.9561163
  82.2093434  54.1684097 122.4472776  81.9639476  53.2646427 122.6452986
  82.3789349  54.1701247 121.5052254  81.4789082  49.9012454 119.9458938
  80.7858327  49.9756809 119.2898974  81.2340834  49.1372798 120.4680455
  87.9536207  60.6367050 118.9123455  87.3810174  61.2557237 118.4593927
  88.5269001  61.1866411 119.4463377  91.1733467  60.9204200 120.0432037
  92.1064140  60.8549761 120.2464913  91.0856680  61.7560467 119.5846570
  93.8021483  60.2370070 117.0035985  93.7235115  59.9029934 117.8971742
  94.6231150  60.7291838 117.0027457  88.3383005  51.9727862 116.2539507
  89.2842110  51.8434070 116.3227925  87.9597250  51.2342524 116.7308935
  86.5225923  49.8977839 116.1894392  85.6157378  49.6010951 116.2657106
  86.8001904  49.6007657 115.3228679  77.4403863  51.2184202 126.6393439
  77.1206647  50.3649510 126.3467813  76.8937291  51.4332780 127.3951406
  88.1387988  44.4414728 122.3438634  87.3288717  44.0961813 122.7193880
  88.8272405  44.1322272 122.9326245  90.0678537  43.5192775 123.9662930
  90.6209575  43.9388229 124.6252953  90.3048623  42.5928523 124.0085886
  85.2924707  46.7564774 116.3306372  86.1543871  47.0819672 116.5902189
  85.4775051  45.9696270 115.8179437  77.3092123  54.8387114 128.6086560
  76.6155594  54.4241066 128.0956515  78.0565114  54.8807650 128.0119979
  93.4457344  45.6293300 123.4741595  92.8656013  46.2878104 123.0919647
  93.1793276  44.8070645 123.0629012  79.2228866  54.7705367 126.4852575
  79.1999554  54.8693055 125.5334458  79.5329502  55.6170518 126.8069741
  92.2282222  47.7893391 122.5297943  91.3408077  48.0743041 122.3118138
  92.6436211  47.6287154 121.6825220  91.3725435  57.5538065 116.6245963
  92.0761285  57.7588068 117.2403619  90.6488084  58.1214827 116.8895046
  92.2023245  53.3047927 122.7448233  92.1458447  53.7616478 121.9055865
  92.7551588  52.5438611 122.5671076  96.0128051  49.0937659 123.5698353
  95.7564986  48.6934294 124.4006560  95.3880919  49.8081453 123.4448492
  93.2812133  57.9920595 118.6744423  94.1157737  57.5601793 118.4921898
  93.1196476  57.8202608 119.6021317  92.9358025  54.4952708 120.0400762
  92.8806829  54.3296979 119.0989206  92.3104080  55.2028741 120.1962952
  77.7250540  49.7320772 133.8662184  78.3709403  49.2219726 134.3549410
  77.5167691  50.4689454 134.4405610  86.2454150  43.9960817 119.6186081
  86.2332820  44.9402657 119.7754352  87.1377572  43.8130962 119.3245542
  94.7425988  64.4458142 119.1879376  93.9063300  64.7832828 119.5088650
  94.6030758  64.3107122 118.2506513  94.6164368  64.2905369 116.3877282
  93.7393834  64.1694170 116.0239529  95.0922121  63.4991448 116.1356171
  92.3182836  65.2304372 119.9458938  91.6252081  65.3048727 119.2898974
  92.0734588  64.4664716 120.4680455  97.3619677  65.2269756 116.1894392
  96.4551133  64.9302869 116.2657106  97.6395658  64.9299574 115.3228679
  96.1318462  62.0856692 116.3306372  96.9937626  62.4111590 116.5902189
  96.3168806  61.2988188 115.8179437  97.0847905  59.3252735 119.6186081
  97.0726575  60.2694575 119.7754352  97.9771327  59.1422880 119.3245542
  68.2177090   9.2998102 105.4553845  67.5438789   9.6029798 106.0638802
  68.6042912  10.1027182 105.1059302  72.1833831   6.8783585 106.7293668
  72.8784735   7.4990278 106.9480982  72.5256981   6.0278936 107.0046046
  66.2748699   6.9845337 105.6368761  65.7022666   7.6035524 105.1839233
  66.8481493   7.5344699 106.1708683  69.4945959   7.2682487 106.7677344
  70.4276632   7.2028049 106.9710219  69.4069172   8.1038754 106.3091876
  72.1233976   6.5848357 103.7281291  72.0447607   6.2508221 104.6217049
  72.9443643   7.0770125 103.7272764  69.6937927   3.9016353 103.3491270
  70.3973778   4.1066355 103.9648925  68.9700576   4.4693115 103.6140353
  71.6024625   4.3398882 105.3989730  72.4370229   3.9080080 105.2167204
  71.4408968   4.1680896 106.3266624  80.2308900  14.8568533 115.4944906
  80.8687310  14.7375280 114.7908246  80.1129743  15.8049377 115.5532858
  72.8985422  16.6631438 111.4203322  72.3350287  16.5721374 110.6519610
  72.7837817  15.8431342 111.9005815  78.4784981  20.3302405 106.7317787
  77.8272960  20.9156486 106.3451801  79.2729343  20.8608600 106.7912824
  72.4040608  17.4191542 107.1304921  73.1771484  16.8720529 106.9917797
  72.7566007  18.2835792 107.3419383  74.7406886  13.5784209 104.7623371
  74.9932406  13.0565730 104.0006834  73.8031445  13.4150354 104.8650055
  79.7850168  12.5819987 112.5698114  80.5713258  12.1639410 112.2188531
  80.0488873  13.4866079 112.7379763  79.9560246  18.0192837 107.2686771
  79.3206079  18.0927464 107.9807676  79.6257652  18.6086436 106.5905850
  74.4603174  15.4812314 106.9647746  74.3439432  14.8057218 107.6328830
  74.5705434  14.9944688 106.1479899  76.8034715  14.9422462 110.6694435
  76.4392923  14.4153083 111.3807357  77.6601831  14.5520931 110.4960921
  76.4440202   9.9712361 105.6655784  76.6114605  10.8392598 106.0326255
  76.2537371  10.1339643 104.7417073  76.4229423  12.4270019 106.6502451
  76.3029048  12.8727070 107.4887931  75.7282012  12.7755336 106.0915989
  74.1836315  25.1973661 110.2992582  74.1060345  26.1481486 110.3781062
  73.5797959  24.8519533 110.9567508  82.1214489  12.8991492 107.4782785
  83.0332345  13.1318879 107.3030482  81.6124136  13.4828536 106.9157863
  80.7284072  17.8817310 114.8696366  80.0992934  18.0463025 114.1672434
  80.3409734  18.2958920 115.6407330  84.6073304  18.8171748 112.2240730
  83.9224342  19.1970650 111.6737763  84.6917153  19.4267075 112.9572678
  76.2812034  17.6191718 112.1346451  76.7450379  17.8979421 111.3451074
  76.0168832  16.7175163 111.9519542  75.2180920  13.7414871 108.9436016
  75.9204963  14.1935915 109.4109943  74.8861548  13.0998690 109.5715910
  76.4574684  20.5555813 109.0198122  76.3220359  21.4007349 109.4482969
  76.9984497  20.7575091 108.2564055  69.9104082  18.0731252 109.5926047
  70.4228602  18.8674502 109.7431611  70.5626794  17.3757542 109.5259648
  71.7198966  21.1897008 111.6748800  71.8965595  22.1114972 111.4869784
  72.5155800  20.8755427 112.1043180  72.8430282  22.7075182 117.6759142
  73.3937707  22.5792245 116.9036136  72.0041758  23.0070071 117.3254035
  67.8752998  16.4019906 110.3685617  68.7128220  16.8116914 110.1519325
  68.0531266  15.4619348 110.3385811  79.7717430  14.0694986 106.0569450
  79.2564054  14.8399591 106.2957838  79.4994739  13.3960123 106.6802512
  77.3564542   8.9144687 111.1154689  76.5006138   8.5251538 110.9360327
  77.7691493   8.9936648 110.2554474  84.7451705  16.8227341 107.9922624
  83.9681147  16.4838501 107.5477786  85.4243186  16.8279964 107.3177589
  79.5603734  11.9422079 107.8829231  79.2553869  12.2568228 108.7339375
  80.5134176  12.0203498 107.9256564  78.0050166  18.1012302 109.5322185
  77.4771527  17.3665061 109.2195423  77.5037668  18.8786978 109.2862154
  82.9843012  16.2961322 114.6489232  82.3266686  16.9860584 114.7369360
  83.7883411  16.6857754 114.9923218  81.7948470  14.6505695 112.6993173
  82.3080352  15.2835687 113.2014883  82.4449694  14.0506891 112.3336533
  73.0638480  10.7936429 105.9124682  72.2275792  11.1311116 106.2333957
  72.9243250  10.6585409 104.9751819  76.1502766  15.9192512 102.5357158
  75.2429827  15.6881766 102.7348307  76.6473798  15.1230131 102.7231140
  79.0570845  24.6290019 105.4553845  78.3832543  24.9321716 106.0638802
  79.4436667  25.4319100 105.1059302  79.0564349  13.5246566 110.0754194
  79.8036168  14.0367964 109.7661316  79.3255938  13.2030619 110.9358588
  77.3290999  16.0205107 107.0581149  76.4202218  15.7364140 107.1553618
  77.3586083  16.4404186 106.1984455  82.5610267  19.6311697 110.8272316
  82.1072594  18.7902606 110.8837507  81.9304233  20.2673095 111.1647096
  81.5043186  10.5603683 112.0572984  80.7665943  10.0481069 112.3883226
  81.7569960  10.1204064 111.2456260  81.0043206  21.4688193 111.7622134
  81.2966180  22.0293250 111.0434500  81.5141826  21.7616754 112.5175293
  75.8775893  13.6333728 113.1590944  75.9324503  12.6807564 113.0833420
  75.0667095  13.7893167 113.6432242  77.0267087  17.5613851 104.3969227
  76.5886517  16.8449710 103.9374864  77.7677528  17.7889966 103.8354318
  73.8168253  12.2510787 110.9181323  73.0036119  12.5504958 111.3246515
  74.3127247  11.8566476 111.6355805  75.9676831  22.2468544 112.8515587
  75.9253010  22.4729391 111.9224119  76.8839530  22.0131919 113.0001389
  85.1440202  15.8371048 110.4545546  85.0058100  16.0272644 109.5266735
  84.7876421  16.5990431 110.9113597  74.0842632  19.1231573 112.6477550
  74.8783230  18.6281893 112.4460125  73.3734324  18.5949436 112.2845256
  78.9037476  21.5049669 116.9989918  78.9574499  22.0740605 117.7667634
  78.0352258  21.6751554 116.6343955  70.3925395  13.2674655 108.7237303
  69.4622983  13.2059111 108.9407265  70.4882867  12.7450608 107.9273944
  76.6613908  19.6960595 116.3275387  76.5224993  19.3279380 117.2001325
  75.8728504  20.2108235 116.1559345  77.2562060  24.7969692 107.6700924
  77.4313815  24.3257735 108.4846546  76.5694848  25.4235458 107.8982184
  78.2119123  19.0742198 113.7164225  77.8768955  19.0342968 114.6121875
  77.7123069  18.4086914 113.2434635  81.1478315  16.4198232 103.9901285
  80.5307485  15.6945060 103.8934337  80.6794803  17.1807593 103.6468359
  71.8223145  27.9459055 114.4440784  72.0619743  28.5777579 115.1219802
  70.9792341  27.5947095 114.7306143  72.9376860  10.6383657 103.1122589
  72.0606327  10.5172457 102.7484836  73.4134614   9.8469735 102.8601478
  76.3351007  23.7538177 116.8482288  76.2621178  24.5593148 117.3601592
  75.8928400  23.9530143 116.0230309  76.1240786  22.9909947 110.3585109
  75.3408308  23.5331627 110.4523334  76.8233532  23.5083927 110.7579351
  78.7949690  23.6525011 119.0040447  79.5077663  24.2872476 118.9316348
  78.3039719  23.7488877 118.1880448  80.5167217  17.5576264 110.5757738
  79.5823496  17.6777726 110.4062443  80.6943886  16.6548730 110.3117748
  83.9039769  13.3993583 111.1107772  84.3700221  14.2321575 111.0368075
  84.3547269  12.9338565 111.8153031  81.9716000  19.7437404 108.1093924
  82.2475844  19.6293999 109.0187798  81.1020498  19.3454889 108.0706098
  78.6070064  23.9923755 111.7526738  78.7892458  23.1745411 112.2154490
  79.4303050  24.2091447 111.3151628  78.9412229  22.9191940 109.0141787
  79.4699996  22.4084395 108.4011949  79.2040449  22.6034470 109.8787320
  72.2967977  23.9707057 111.7739562  71.6278352  24.4553185 111.2903603
  72.1580847  24.2176277 112.6882941  76.4373246  26.0050800 118.3722221
  76.9891554  26.1682422 119.1371306  76.7779439  26.5955238 117.7002246
  67.6655554  12.2325512 108.5535495  67.9608995  11.3236190 108.5002548
  66.7643590  12.2113251 108.2316497  79.5741633  23.9532776 115.3585903
  79.4492773  23.1522516 114.8496848  80.2320724  24.4478969 114.8699873
  81.6376541  21.7541796 116.9865453  80.6906877  21.6347147 116.9143780
  81.9859315  20.8664294 117.0691714  78.6422975  21.5494512 113.1869805
  78.4947937  20.6211220 113.3677375  79.4676468  21.5714603 112.7026881
  72.5085219  10.2012579 109.0450297  72.8481292  10.7298501 108.3228906
  72.9557340  10.5392985 109.8208864  82.2457097  22.3723071 114.2734678
  83.1703644  22.1665932 114.1359129  82.0772400  22.1239472 115.1824020
  74.4953366   8.6987201 107.2443590  75.2161729   9.0768454 106.7407307
  73.8718670   9.4176078 107.3478568  78.6384489   9.4032350 108.1801923
  78.8548103  10.2856988 107.8790751  78.1578556   9.0118563 107.4507565
  82.0352413  22.8908738 109.6296770  82.2089290  22.3255161 108.8770622
  82.5281304  23.6909633 109.4476259  87.8891804  15.6545161 111.2487069
  88.3322950  14.9052487 110.8506193  87.0118314  15.6455298 110.8660801
  83.0227585  22.2075503 106.7293668  83.7178490  22.8282196 106.9480982
  83.3650735  21.3570854 107.0046046  84.9219008  19.6575208 108.2580999
  85.4470332  19.9962481 107.5330319  84.8341361  18.7222224 108.0744133
  76.6059669  25.7247192 112.6176252  76.1664659  25.2323570 113.3109108
  77.3567786  25.1820159 112.3768327  69.0852008  21.9158732 112.6200880
  69.9110028  21.6162504 112.2399523  68.7346060  21.1466355 113.0690668
  74.0533541  21.2685201 114.6898553  73.4313551  20.6055906 114.3900781
  74.7238408  21.2946333 114.0072201  73.6147048  19.8189124 108.1657014
  73.7635169  20.5024588 107.5123687  74.4213492  19.7994214 108.6806470
  71.3699681  15.8454302 109.1718083  71.1245723  14.9416632 109.3698293
  71.5395596  15.8471452 108.2297561  70.6395329  11.5782659 106.6704244
  69.9464574  11.6527014 106.0144280  70.3947081  10.8143003 107.1925761
  77.1142454  22.3137255 105.6368761  76.5416421  22.9327442 105.1839233
  77.6875247  22.8636616 106.1708683  80.3339714  22.5974405 106.7677344
  81.2670387  22.5319966 106.9710219  80.2462926  23.4330671 106.3091876
  82.9627730  21.9140275 103.7281291  82.8841362  21.5800139 104.6217049
  83.7837397  22.4062043 103.7272764  77.4989252  13.6498067 102.9784814
  78.4448357  13.5204275 103.0473232  77.1203497  12.9112729 103.4554242
  75.6832169  11.5748044 102.9139699  74.7763625  11.2781156 102.9902413
  75.9608150  11.2777862 102.0473985  77.2994235   6.1184933 109.0683940
  76.4894963   5.7732018 109.4439186  77.9878652   5.8092477 109.6571552
  74.4530954   8.4334979 103.0551678  75.3150118   8.7589877 103.3147496
  74.6381298   7.6466475 102.5424744  82.6063590   7.3063505 110.1986901
  82.0262260   7.9648309 109.8164954  82.3399523   6.4840850 109.7874319
  81.3888469   9.4663596 109.2543250  80.5014324   9.7513246 109.0363444
  81.8042458   9.3057359 108.4070526  69.3972719  24.0471347 114.3414694
  69.2627187  23.2871748 113.7752692  68.9804781  24.7712247 113.8743483
  80.5331682  19.2308270 103.3491270  81.2367532  19.4358273 103.9648925
  79.8094331  19.7985032 103.6140353  81.3629492  14.9818132 109.4693540
  81.3064694  15.4386683 108.6301172  81.9157835  14.2208816 109.2916382
  85.1734298  10.7707864 110.2943659  84.9171232  10.3704499 111.1251867
  84.5487166  11.4851657 110.1693798  72.5541845  24.9440664 114.5533137
  72.4374229  25.8886096 114.4511827  71.7334291  24.6414225 114.9418936
  82.4418379  19.6690800 105.3989730  83.2763983  19.2371998 105.2167204
  82.2802722  19.4972813 106.3266624  82.0964272  16.1722913 106.7646069
  82.0413075  16.0067184 105.8234513  81.4710327  16.8798946 106.9208259
  75.4060397   5.6731022 106.3431387  75.3939067   6.6172862 106.4999658
  76.2983819   5.4901167 106.0490848  73.5796359  25.5968926 117.7689065
  74.4823606  25.6292536 118.0855560  73.3533729  24.6669377 117.7835401
  75.3349961  24.3499912 114.4299144  74.3845592  24.3501774 114.3163516
  75.6382447  23.6032647 113.9135179  91.0702654  30.1860451 115.4944906
  91.7081064  30.0667198 114.7908246  90.9523497  31.1341295 115.5532858
  87.8792361  30.1387879 115.4306431  87.5410872  30.0228944 114.5426966
  88.7482129  29.7379044 115.4107437  83.7379176  31.9923355 111.4203322
  83.1744042  31.9013292 110.6519610  83.6231571  31.1723260 111.9005815
  81.2843608  33.4874547 114.2587542  82.0764900  33.1465371 113.8433842
  81.5240259  33.5969522 115.1789696  89.3178735  35.6594323 106.7317787
  88.6666715  36.2448403 106.3451801  90.1123098  36.1900518 106.7912824
  83.2434362  32.7483460 107.1304921  84.0165238  32.2012447 106.9917797
  83.5959761  33.6127709 107.3419383  85.0819405  34.0759842 120.3371821
  84.7909271  34.9805473 120.2218487  85.7176389  34.1176370 121.0515890
  86.0075612  31.4536691 116.9273180  86.6039184  31.2292713 116.2130143
  86.0650583  30.7121436 117.5298628  85.5800640  28.9076126 104.7623371
  85.8326161  28.3857647 104.0006834  84.6425199  28.7442272 104.8650055
  90.6243923  27.9111905 112.5698114  91.4107012  27.4931328 112.2188531
  90.8882627  28.8157997 112.7379763  90.7954000  33.3484755 107.2686771
  90.1599833  33.4219381 107.9807676  90.4651407  33.9378354 106.5905850
  85.2996929  30.8104232 106.9647746  85.1833187  30.1349136 107.6328830
  85.4099189  30.3236606 106.1479899  87.6428470  30.2714379 110.6694435
  87.2786677  29.7445000 111.3807357  88.4995586  29.8812848 110.4960921
  87.2833957  25.3004279 105.6655784  87.4508359  26.1684515 106.0326255
  87.0931126  25.4631561 104.7417073  90.0409290  33.7621258 117.3321614
  89.7410013  34.6646297 117.2237421  89.6960349  33.4953441 118.1842767
  83.4921771  30.2135055 113.3658319  82.5672268  30.0811269 113.5736010
  83.7406185  30.9929274 113.8628261  87.2623178  27.7561936 106.6502451
  87.1422803  28.2018987 107.4887931  86.5675766  28.1047254 106.0915989
  80.8530582  29.8568328 114.2002108  80.9822964  30.1102807 115.1141519
  80.1728034  30.4496036 113.8806763  85.0230070  40.5265578 110.2992582
  84.9454099  41.4773403 110.3781062  84.4191713  40.1811451 110.9567508
  92.9608244  28.2283410 107.4782785  93.8726100  28.4610796 107.3030482
  92.4517891  28.8120454 106.9157863  91.5677826  33.2109228 114.8696366
  90.9386689  33.3754942 114.1672434  91.1803488  33.6250838 115.6407330
  95.4467058  34.1463666 112.2240730  94.7618096  34.5262567 111.6737763
  95.5310907  34.7558993 112.9572678  87.1205788  32.9483636 112.1346451
  87.5844134  33.2271339 111.3451074  86.8562586  32.0467081 111.9519542
  84.0129869  32.4955118 115.0726215  84.5831226  32.9242386 114.4343699
  84.6037981  32.2137702 115.7710400  86.0574674  29.0706789 108.9436016
  86.7598717  29.5227832 109.4109943  85.7255303  28.4290607 109.5715910
  79.8000008  27.3290341 114.2453150  79.0099062  27.5847870 113.7693261
  80.2911255  28.1438679 114.3505191  81.7514753  27.6934920 111.2036627
  80.9545917  27.8053615 111.7220122  81.5240346  28.0321573 110.3377517
  87.5820421  34.2179624 119.1519141  87.6464854  34.6800031 119.9877313
  86.8731345  33.5876989 119.2801451  78.0837711  27.5820832 116.6768141
  78.3345749  28.4667842 116.9425717  78.6197259  27.4025433 115.9043233
  87.2968439  35.8847731 109.0198122  87.1614113  36.7299267 109.4482969
  87.8378251  36.0867009 108.2564055  80.7497836  33.4023169 109.5926047
  81.2622357  34.1966419 109.7431611  81.4020549  32.7049460 109.5259648
  82.5592721  36.5188925 111.6748800  82.7359349  37.4406890 111.4869784
  83.3549554  36.2047345 112.1043180  81.8445077  28.5653557 121.5510963
  81.7298592  27.6638815 121.8518062  80.9889595  28.8117254 121.1995780
  83.6824036  38.0367099 117.6759142  84.2331461  37.9084163 116.9036136
  82.8435512  38.3361988 117.3254035  87.4791207  34.3018227 122.0203373
  88.0119544  33.5406515 121.7902681  86.9505288  34.0091879 122.7627528
  78.7146753  31.7311823 110.3685617  79.5521975  32.1408832 110.1519325
  78.8925021  30.7911266 110.3385811  90.6111185  29.3986904 106.0569450
  90.0957808  30.1691509 106.2957838  90.3388493  28.7252040 106.6802512
  88.1958296  24.2436605 111.1154689  87.3399892  23.8543455 110.9360327
  88.6085248  24.3228566 110.2554474  85.9700329  21.8621678 114.5212430
  86.8353325  21.6664487 114.1618320  86.0377837  21.6332030 115.4481787
  95.5845459  32.1519259 107.9922624  94.8074902  31.8130418 107.5477786
  96.2636940  32.1571882 107.3177589  90.3997488  27.2713996 107.8829231
  90.0947624  27.5860145 108.7339375  91.3527930  27.3495416 107.9256564
  88.8443920  33.4304220 109.5322185  88.3165282  32.6956979 109.2195423
  88.3431423  34.2078896 109.2862154  93.8236766  31.6253240 114.6489232
  93.1660440  32.3152501 114.7369360  94.6277165  32.0149672 114.9923218
  83.5762648  24.0923886 111.8928797  84.1506400  23.8699067 111.1601990
  84.1633630  24.1612580 112.6457398  92.6342225  29.9797613 112.6993173
  93.1474107  30.6127605 113.2014883  93.2843449  29.3798808 112.3336533
  83.9032235  26.1228347 105.9124682  83.0669547  26.4603033 106.2333957
  83.7637004  25.9877327 104.9751819  85.8785315  20.9665135 110.6203866
  85.2249728  20.6514152 109.9960481  85.8365789  20.3440875 111.3463689
  86.9896520  31.2484430 102.5357158  86.0823582  31.0173683 102.7348307
  87.4867552  30.4522049 102.7231140  89.8964599  39.9581937 105.4553845
  89.2226298  40.2613634 106.0638802  90.2830421  40.7611017 105.1059302
  89.1123056  27.4547068 114.9451514  88.1945617  27.6762015 114.7873202
  89.5283199  27.5293379 114.0863221  89.8958103  28.8538484 110.0754194
  90.6429922  29.3659881 109.7661316  90.1649693  28.5322537 110.9358588
  88.1684754  31.3497025 107.0581149  87.2595973  31.0656058 107.1553618
  88.1979837  31.7696103 106.1984455  93.4004021  34.9603614 110.8272316
  92.9466348  34.1194524 110.8837507  92.7697988  35.5965013 111.1647096
  92.3436941  25.8895600 112.0572984  91.6059697  25.3772986 112.3883226
  92.5963714  25.4495982 111.2456260  91.8436960  36.7980111 111.7622134
  92.1359935  37.3585168 111.0434500  92.3535581  37.0908672 112.5175293
  78.7372924  29.0702539 111.0396351  78.5397324  28.4771900 110.3147417
  78.1819588  28.7654749 111.7572290  86.7169648  28.9625645 113.1590944
  86.7718257  28.0099482 113.0833420  85.9060850  29.1185084 113.6432242
  87.8660841  32.8905768 104.3969227  87.4280271  32.1741627 103.9374864
  88.6071282  33.1181883 103.8354318  84.6562008  27.5802705 110.9181323
  83.8429873  27.8796876 111.3246515  85.1521002  27.1858394 111.6355805
  86.8070585  37.5760462 112.8515587  86.7646764  37.8021308 111.9224119
  87.7233284  37.3423837 113.0001389  95.9833956  31.1662965 110.4545546
  95.8451855  31.3564561 109.5266735  95.6270175  31.9282348 110.9113597
  84.1476082  25.1521061 116.5342558  84.7875462  25.0109820 115.8365521
  83.3153613  24.8655574 116.1581160  84.9236386  34.4523491 112.6477550
  85.7176985  33.9573811 112.4460125  84.2128079  33.9241354 112.2845256
  89.7431231  36.8341587 116.9989918  89.7968253  37.4032523 117.7667634
  88.8746012  37.0043472 116.6343955  81.2319150  28.5966573 108.7237303
  80.3016738  28.5351028 108.9407265  81.3276622  28.0742525 107.9273944
  81.1504699  25.1221386 111.3115544  81.4111516  26.0366719 111.2024705
  81.9721871  24.6545828 111.4612157  82.6229624  26.5359143 118.4814369
  83.2952678  26.3276505 117.8327018  81.7959411  26.3381229 118.0419601
  88.7019330  31.0001849 118.5576850  89.6311390  31.1513008 118.3845817
  88.2810360  31.0885869 117.7025496  87.5007662  35.0252513 116.3275387
  87.3618748  34.6571297 117.2001325  86.7122258  35.5400152 116.1559345
  88.0955814  40.1261609 107.6700924  88.2707570  39.6549653 108.4846546
  87.4088602  40.7527376 107.8982184  89.0512877  34.4034116 113.7164225
  88.7162710  34.3634886 114.6121875  88.5516823  33.7378832 113.2434635
  83.0257121  29.8101746 119.2416806  82.8876919  29.0781985 119.8428345
  83.9362045  29.7210646 118.9600994  91.9872069  31.7490150 103.9901285
  91.3701240  31.0236978 103.8934337  91.5188557  32.5099510 103.6468359
  85.6539422  29.5221705 118.7300486  86.3639041  28.8814897 118.6887104
  85.6108730  29.7734600 119.6526667  82.6616899  43.2750972 114.4440784
  82.9013498  43.9069496 115.1219802  81.8186096  42.9239012 114.7306143
  83.7770615  25.9675574 103.1122589  82.9000081  25.8464375 102.7484836
  84.2528368  25.1761653 102.8601478  75.2972755  30.7552734 113.2064096
  75.9843795  30.4414464 112.6185111  75.1420884  31.6594099 112.9331348
  80.1007477  25.6442931 117.6349120  80.0165666  25.0368600 116.8999530
  79.2790184  26.1351949 117.6358616  87.1744761  39.0830095 116.8482288
  87.1014933  39.8885066 117.3601592  86.7322154  39.2822060 116.0230309
  86.9634541  38.3201865 110.3585109  86.1802063  38.8623545 110.4523334
  87.6627286  38.8375844 110.7579351  90.2731191  24.1296494 113.0019315
  90.7699891  23.3766456 112.6820385  89.5018173  24.1660811 112.4362524
  89.6343445  38.9816929 119.0040447  90.3471417  39.6164393 118.9316348
  89.1433474  39.0780795 118.1880448  91.3560972  32.8868181 110.5757738
  90.4217251  33.0069644 110.4062443  91.5337640  31.9840648 110.3117748
  86.8566160  26.2713877 112.7290999  86.4863947  25.7184917 113.4171905
  87.3525252  25.6672011 112.1765999  94.7433523  28.7285501 111.1107772
  95.2093975  29.5613492 111.0368075  95.1941024  28.2630482 111.8153031
  84.6855358  36.7311372 119.8246017  85.3864818  37.3647855 119.9775412
  84.2150473  37.0726104 119.0641657  92.8109754  35.0729322 108.1093924
  93.0869598  34.9585916 109.0187798  91.9414253  34.6746807 108.0706098
  89.4463818  39.3215673 111.7526738  89.6286213  38.5037329 112.2154490
  90.2696804  39.5383365 111.3151628  89.7805984  38.2483858 109.0141787
  90.3093750  37.7376312 108.4011949  90.0434203  37.9326388 109.8787320
  80.2823076  36.2647727 116.7577120  80.8676513  35.5191415 116.8905024
  80.0847915  36.5751684 117.6413784  83.1361732  39.2998975 111.7739562
  82.4672107  39.7845102 111.2903603  82.9974601  39.5468195 112.6882941
  74.8740731  28.8353327 115.4781563  74.9124831  28.3016918 116.2718681
  74.3681024  28.3088533 114.8592540  87.2767000  41.3342718 118.3722221
  87.8285308  41.4974340 119.1371306  87.6173194  41.9247156 117.7002246
  82.2531493  23.6817868 118.9744106  82.3172820  24.5432699 118.5621503
  82.1898614  23.0691870 118.2416464  78.5049309  27.5617430 108.5535495
  78.8002750  26.6528108 108.5002548  77.6037345  27.5405169 108.2316497
  90.4135388  39.2824694 115.3585903  90.2886527  38.4814433 114.8496848
  91.0714479  39.7770887 114.8699873  82.0343556  25.6373426 114.5363043
  81.3130142  26.2509394 114.3970517  82.8236812  26.1731191 114.4579689
  92.4770296  37.0833714 116.9865453  91.5300631  36.9639065 116.9143780
  92.8253069  36.1956212 117.0691714  80.2337150  25.2431527 108.6774820
  79.9049857  24.3628906 108.4949926  80.5876521  25.1879196 109.5651209
  89.4816729  36.8786430 113.1869805  89.3341692  35.9503137 113.3677375
  90.3070223  36.9006521 112.7026881  83.3478974  25.5304497 109.0450297
  83.6875046  26.0590418 108.3228906  83.7951094  25.8684903 109.8208864
  93.0850851  37.7014989 114.2734678  94.0097399  37.4957850 114.1359129
  92.9166154  37.4531390 115.1824020  85.3347121  24.0279119 107.2443590
  86.0555483  24.4060371 106.7407307  84.7112425  24.7467995 107.3478568
  89.4778244  24.7324268 108.1801923  89.6941858  25.6148905 107.8790751
  88.9972311  24.3410481 107.4507565  84.2177465  27.6909981 114.7572667
  84.0722046  28.0050284 115.6496949  83.7402669  28.3094881 114.2043566
  86.0773848  24.6812529 114.8053557  86.0635417  23.7853622 114.4685855
  86.7946276  24.6883193 115.4391843  92.8746167  38.2200656 109.6296770
  93.0483045  37.6547079 108.8770622  93.3675059  39.0201551 109.4476259
  78.6923127  30.2315325 117.6960328  78.1476595  31.0075133 117.8280603
  79.5702477  30.5786130 117.5379450  85.4810744  23.5626909 110.0741127
  85.6026655  22.6343555 110.2732014  85.1912786  23.5765595 109.1619442
  88.3501934  21.2481819 113.2107847  88.3723631  21.3121153 112.2559826
  88.7669993  20.4086328 113.4048353  98.7285558  30.9837079 111.2487069
  99.1716704  30.2344404 110.8506193  97.8512069  30.9747215 110.8660801
  93.8621340  37.5367421 106.7293668  94.5572244  38.1574113 106.9480982
  94.2044490  36.6862772 107.0046046  79.4789149  29.3585221 120.5890485
  78.7370885  29.5067857 121.1755116  79.1581893  29.6193487 119.7257235
  95.7612763  34.9867126 108.2580999  96.2864087  35.3254399 107.5330319
  95.6735115  34.0514141 108.0744133  87.4232812  38.9001200 120.3870875
  87.7319938  38.6550346 121.2593575  88.2208294  39.1047838 119.8989745
  87.4453424  41.0539109 112.6176252  87.0058414  40.5615488 113.3109108
  88.1961541  40.5112077 112.3768327  79.9245763  37.2450650 112.6200880
  80.7503783  36.9454422 112.2399523  79.5739815  36.4758273 113.0690668
  84.8927296  36.5977118 114.6898553  84.2707305  35.9347823 114.3900781
  85.5632163  36.6238250 114.0072201  78.1254368  35.1636977 113.5789813
  77.2886276  34.7359151 113.3973815  78.0978013  35.3569420 114.5160605
  84.4540803  35.1481042 108.1657014  84.6028923  35.8316506 107.5123687
  85.2607246  35.1286132 108.6806470  82.2093436  31.1746219 109.1718083
  81.9639478  30.2708549 109.3698293  82.3789350  31.1763370 108.2297561
  81.4789083  26.9074577 106.6704244  80.7858328  26.9818932 106.0144280
  81.2340835  26.1434921 107.1925761  87.9536208  37.6429172 105.6368761
  87.3810175  38.2619359 105.1839233  88.5269002  38.1928534 106.1708683
  91.1733468  37.9266322 106.7677344  92.1064141  37.8611884 106.9710219
  91.0856681  38.7622589 106.3091876  93.8021485  37.2432193 103.7281291
  93.7235116  36.9092056 104.6217049  94.6231151  37.7353961 103.7272764
  88.3383007  28.9789985 102.9784814  89.2842111  28.8496193 103.0473232
  87.9597252  28.2404647 103.4554242  86.5225924  26.9039961 102.9139699
  85.6157379  26.6073074 102.9902413  86.8001905  26.6069779 102.0473985
  77.4403864  28.2246325 113.3638745  77.1206649  27.3711633 113.0713119
  76.8937292  28.4394903 114.1196713  81.2183772  30.9408766 117.0808252
  81.4369782  31.8725874 117.0996286  81.6309546  30.5816740 117.8663056
  88.1387990  21.4476851 109.0683940  87.3288718  21.1023936 109.4439186
  88.8272407  21.1384395 109.6571552  90.0678538  20.5254898 110.6908237
  90.6209577  20.9450351 111.3498260  90.3048624  19.5990646 110.7331193
  85.2924709  23.7626897 103.0551678  86.1543873  24.0881795 103.3147496
  85.4775053  22.9758392 102.5424744  77.3092124  31.8449236 115.3331867
  76.6155596  31.4303189 114.8201821  78.0565115  31.8869773 114.7365286
  93.4457345  22.6355423 110.1986901  92.8656014  23.2940227 109.8164954
  93.1793278  21.8132768 109.7874319  79.2228867  31.7767490 113.2097882
  79.1999555  31.8755177 112.2579765  79.5329503  32.6232641 113.5315048
  81.8816245  33.8343645 117.3244496  82.8359498  33.8027587 117.2574428
  81.6828768  33.3734269 118.1394722  82.4715627  32.4044761 119.8915294
  83.2908516  32.8988840 119.9150131  82.7452435  31.4876729 119.8632862
  92.2282223  24.7955513 109.2543250  91.3408078  25.0805164 109.0363444
  92.6436212  24.6349277 108.4070526  80.2366473  39.3763265 114.3414694
  80.1020941  38.6163665 113.7752692  79.8198536  40.1004164 113.8743483
  91.3725436  34.5600188 103.3491270  92.0761287  34.7650191 103.9648925
  90.6488085  35.1276950 103.6140353  92.2023247  30.3110049 109.4693540
  92.1458448  30.7678601 108.6301172  92.7551589  29.5500734 109.2916382
  96.0128053  26.0999781 110.2943659  95.7564987  25.6996417 111.1251867
  95.3880921  26.8143575 110.1693798  83.3935599  40.2732582 114.5533137
  83.2767983  41.2178014 114.4511827  82.5728046  39.9706143 114.9418936
  93.2812134  34.9982717 105.3989730  94.1157738  34.5663916 105.2167204
  93.1196477  34.8264731 106.3266624  92.9358026  31.5014831 106.7646069
  92.8806830  31.3359102 105.8234513  92.3104081  32.2090863 106.9208259
  77.7250541  26.7382895 120.5907491  78.3709405  26.2281849 121.0794716
  77.5167692  27.4751577 121.1650916  86.2454152  21.0022940 106.3431387
  86.2332821  21.9464779 106.4999658  87.1377573  20.8193085 106.0490848
  84.4190113  40.9260843 117.7689065  85.3217360  40.9584454 118.0855560
  84.1927484  39.9961294 117.7835401  86.1743715  39.6791830 114.4299144
  85.2239346  39.6793692 114.3163516  86.4776202  38.9324565 113.9135179
 101.9096409  45.5152368 115.4944906 102.5474819  45.3959116 114.7908246
 101.7917252  46.4633212 115.5532858  98.7186115  45.4679796 115.4306431
  98.3804627  45.3520861 114.5426966  99.5875883  45.0670962 115.4107437
  94.5772931  47.3215273 111.4203322  94.0137796  47.2305210 110.6519610
  94.4625326  46.5015177 111.9005815  92.1237363  48.8166464 114.2587542
  92.9158655  48.4757289 113.8433842  92.3634013  48.9261440 115.1789696
 100.1572490  50.9886241 106.7317787  99.5060469  51.5740321 106.3451801
 100.9516852  51.5192436 106.7912824  94.0828117  48.0775378 107.1304921
  94.8558993  47.5304365 106.9917797  94.4353516  48.9419627 107.3419383
  95.9213159  49.4051760 120.3371821  95.6303025  50.3097391 120.2218487
  96.5570144  49.4468288 121.0515890  96.8469366  46.7828609 116.9273180
  97.4432938  46.5584631 116.2130143  96.9044338  46.0413354 117.5298628
  96.4194395  44.2368044 104.7623371  96.6719915  43.7149565 104.0006834
  95.4818954  44.0734189 104.8650055 101.4637677  43.2403822 112.5698114
 102.2500767  42.8223245 112.2188531 101.7276382  44.1449914 112.7379763
 101.6347755  48.6776673 107.2686771 100.9993588  48.7511299 107.9807676
 101.3045161  49.2670271 106.5905850  96.1390683  46.1396150 106.9647746
  96.0226941  45.4641053 107.6328830  96.2492943  45.6528524 106.1479899
  98.4822224  45.6006297 110.6694435  98.1180432  45.0736918 111.3807357
  99.3389340  45.2104766 110.4960921  98.1227711  40.6296197 105.6655784
  98.2902114  41.4976433 106.0326255  97.9324880  40.7923478 104.7417073
 100.8803044  49.0913176 117.3321614 100.5803768  49.9938214 117.2237421
 100.5354104  48.8245359 118.1842767  94.3315526  45.5426972 113.3658319
  93.4066022  45.4103186 113.5736010  94.5799939  46.3221192 113.8628261
  98.1016932  43.0853854 106.6502451  97.9816557  43.5310905 107.4887931
  97.4069521  43.4339172 106.0915989  91.6924337  45.1860246 114.2002108
  91.8216718  45.4394725 115.1141519  91.0121788  45.7787954 113.8806763
  95.8623824  55.8557496 110.2992582  95.7847854  56.8065321 110.3781062
  95.2585468  55.5103368 110.9567508 103.8001998  43.5575327 107.4782785
 104.7119854  43.7902714 107.3030482 103.2911645  44.1412372 106.9157863
 102.4071581  48.5401146 114.8696366 101.7780443  48.7046860 114.1672434
 102.0197243  48.9542755 115.6407330 106.2860813  49.4755584 112.2240730
 105.6011851  49.8554485 111.6737763 106.3704662  50.0850910 112.9572678
  97.9599543  48.2775554 112.1346451  98.4237888  48.5563257 111.3451074
  97.6956341  47.3758998 111.9519542  94.8523624  47.8247035 115.0726215
  95.4224981  48.2534304 114.4343699  95.4431735  47.5429620 115.7710400
  96.8968429  44.3998706 108.9436016  97.5992472  44.8519750 109.4109943
  96.5649057  43.7582525 109.5715910  90.6393763  42.6582259 114.2453150
  89.8492817  42.9139787 113.7693261  91.1305010  43.4730597 114.3505191
  92.5908508  43.0226838 111.2036627  91.7939671  43.1345532 111.7220122
  92.3634100  43.3613490 110.3377517  98.4214176  49.5471541 119.1519141
  98.4858608  50.0091949 119.9877313  97.7125099  48.9168906 119.2801451
  88.9231466  42.9112749 116.6768141  89.1739504  43.7959759 116.9425717
  89.4591014  42.7317351 115.9043233  98.1362193  51.2139649 109.0198122
  98.0007868  52.0591185 109.4482969  98.6772006  51.4158926 108.2564055
  91.5891591  48.7315087 109.5926047  92.1016111  49.5258337 109.7431611
  92.2414303  48.0341377 109.5259648  93.3986475  51.8480843 111.6748800
  93.5753104  52.7698808 111.4869784  94.1943309  51.5339262 112.1043180
  92.6838832  43.8945475 121.5510963  92.5692347  42.9930732 121.8518062
  91.8283350  44.1409172 121.1995780  94.5217791  53.3659017 117.6759142
  95.0725216  53.2376080 116.9036136  93.6829267  53.6653906 117.3254035
  98.3184962  49.6310145 122.0203373  98.8513299  48.8698433 121.7902681
  97.7899043  49.3383797 122.7627528  89.5540507  47.0603741 110.3685617
  90.3915729  47.4700750 110.1519325  89.7318775  46.1203183 110.3385811
 101.4504939  44.7278822 106.0569450 100.9351563  45.4983426 106.2957838
 101.1782248  44.0543958 106.6802512  99.0352051  39.5728523 111.1154689
  98.1793647  39.1835373 110.9360327  99.4479002  39.6520483 110.2554474
  96.8094083  37.1913596 114.5212430  97.6747080  36.9956404 114.1618320
  96.8771592  36.9623947 115.4481787 106.4239214  47.4811176 107.9922624
 105.6468656  47.1422336 107.5477786 107.1030695  47.4863800 107.3177589
 101.2391243  42.6005914 107.8829231 100.9341378  42.9152063 108.7339375
 102.1921685  42.6787334 107.9256564  99.6837674  48.7596137 109.5322185
  99.1559036  48.0248897 109.2195423  99.1825177  49.5370814 109.2862154
 104.6630521  46.9545158 114.6489232 104.0054195  47.6444419 114.7369360
 105.4670920  47.3441590 114.9923218  94.4156402  39.4215804 111.8928797
  94.9900154  39.1990985 111.1601990  95.0027385  39.4904498 112.6457398
 103.4735979  45.3089530 112.6993173 103.9867861  45.9419522 113.2014883
 104.1237203  44.7090726 112.3336533  94.7425989  41.4520265 105.9124682
  93.9063301  41.7894951 106.2333957  94.6030759  41.3169244 104.9751819
  96.7179070  36.2957052 110.6203866  96.0643482  35.9806070 109.9960481
  96.6759544  35.6732793 111.3463689  97.8290275  46.5776347 102.5357158
  96.9217336  46.3465601 102.7348307  98.3261307  45.7813967 102.7231140
 100.7358354  55.2873855 105.4553845 100.0620052  55.5905551 106.0638802
 101.1224176  56.0902935 105.1059302  99.9516810  42.7838986 114.9451514
  99.0339372  43.0053933 114.7873202 100.3676954  42.8585296 114.0863221
 100.7351858  44.1830402 110.0754194 101.4823677  44.6951799 109.7661316
 101.0043447  43.8614454 110.9358588  99.0078508  46.6788942 107.0581149
  98.0989727  46.3947975 107.1553618  99.0373592  47.0988021 106.1984455
 104.2397776  50.2895532 110.8272316 103.7860103  49.4486442 110.8837507
 103.6091742  50.9256930 111.1647096 103.1830695  41.2187518 112.0572984
 102.4453452  40.7064904 112.3883226 103.4357469  40.7787899 111.2456260
 102.6830715  52.1272029 111.7622134 102.9753689  52.6877086 111.0434500
 103.1929335  52.4200590 112.5175293  89.5766678  44.3994456 111.0396351
  89.3791078  43.8063817 110.3147417  89.0213342  44.0946667 111.7572290
  97.5563402  44.2917563 113.1590944  97.6112012  43.3391399 113.0833420
  96.7454604  44.4477002 113.6432242  98.7054596  48.2197686 104.3969227
  98.2674026  47.5033545 103.9374864  99.4465037  48.4473801 103.8354318
  95.4955762  42.9094623 110.9181323  94.6823628  43.2088793 111.3246515
  95.9914756  42.5150311 111.6355805  97.6464340  52.9052380 112.8515587
  97.6040519  53.1313226 111.9224119  98.5627039  52.6715754 113.0001389
 106.8227711  46.4954883 110.4545546 106.6845609  46.6856479 109.5266735
 106.4663930  47.2574266 110.9113597  94.9869837  40.4812978 116.5342558
  95.6269216  40.3401737 115.8365521  94.1547367  40.1947492 116.1581160
  95.7630141  49.7815409 112.6477550  96.5570739  49.2865729 112.4460125
  95.0521833  49.2533272 112.2845256 100.5824985  52.1633504 116.9989918
 100.6362007  52.7324440 117.7667634  99.7139767  52.3335389 116.6343955
  92.0712904  43.9258490 108.7237303  91.1410492  43.8642946 108.9407265
  92.1670376  43.4034443 107.9273944  91.9898453  40.4513303 111.3115544
  92.2505271  41.3658636 111.2024705  92.8115626  39.9837746 111.4612157
  93.4623379  41.8651060 118.4814369  94.1346432  41.6568423 117.8327018
  92.6353165  41.6673146 118.0419601  99.5413085  46.3293766 118.5576850
 100.4705145  46.4804926 118.3845817  99.1204115  46.4177787 117.7025496
  98.3401417  50.3544431 116.3275387  98.2012502  49.9863215 117.2001325
  97.5516013  50.8692070 116.1559345  98.9349569  55.4553527 107.6700924
  99.1101324  54.9841570 108.4846546  98.2482357  56.0819293 107.8982184
  99.8906632  49.7326033 113.7164225  99.5556464  49.6926803 114.6121875
  99.3910578  49.0670749 113.2434635  93.8650876  45.1393663 119.2416806
  93.7270674  44.4073902 119.8428345  94.7755799  45.0502563 118.9600994
 102.8265824  47.0782068 103.9901285 102.2094994  46.3528896 103.8934337
 102.3582312  47.8391428 103.6468359  96.4933177  44.8513623 118.7300486
  97.2032795  44.2106815 118.6887104  96.4502485  45.1026518 119.6526667
  93.5010654  58.6042890 114.4440784  93.7407252  59.2361414 115.1219802
  92.6579850  58.2530930 114.7306143  94.6164369  41.2967492 103.1122589
  93.7393836  41.1756293 102.7484836  95.0922122  40.5053570 102.8601478
  86.1366510  46.0844652 113.2064096  86.8237549  45.7706382 112.6185111
  85.9814638  46.9886016 112.9331348  90.9401232  40.9734848 117.6349120
  90.8559420  40.3660518 116.8999530  90.1183938  41.4643867 117.6358616
  98.0138516  54.4122012 116.8482288  97.9408687  55.2176984 117.3601592
  97.5715909  54.6113978 116.0230309  97.8028295  53.6493782 110.3585109
  97.0195817  54.1915463 110.4523334  98.5021041  54.1667762 110.7579351
 101.1124946  39.4588412 113.0019315 101.6093645  38.7058374 112.6820385
 100.3411927  39.4952728 112.4362524 100.4737199  54.3108846 119.0040447
 101.1865172  54.9456311 118.9316348  99.9827228  54.4072712 118.1880448
 102.1954726  48.2160099 110.5757738 101.2611005  48.3361561 110.4062443
 102.3731395  47.3132566 110.3117748  97.6959914  41.6005795 112.7290999
  97.3257702  41.0476835 113.4171905  98.1919007  40.9963928 112.1765999
 105.5827278  44.0577418 111.1107772 106.0487730  44.8905410 111.0368075
 106.0334778  43.5922400 111.8153031  95.5249113  52.0603290 119.8246017
  96.2258572  52.6939773 119.9775412  95.0544228  52.4018021 119.0641657
 103.6503509  50.4021240 108.1093924 103.9263353  50.2877834 109.0187798
 102.7808007  50.0038724 108.0706098 100.2857573  54.6507590 111.7526738
 100.4679967  53.8329246 112.2154490 101.1090559  54.8675283 111.3151628
 100.6199738  53.5775776 109.0141787 101.1487505  53.0668230 108.4011949
 100.8827958  53.2618306 109.8787320  91.1216831  51.5939645 116.7577120
  91.7070268  50.8483333 116.8905024  90.9241669  51.9043602 117.6413784
  93.9755486  54.6290892 111.7739562  93.3065861  55.1137020 111.2903603
  93.8368356  54.8760113 112.6882941  85.7134486  44.1645245 115.4781563
  85.7518585  43.6308836 116.2718681  85.2074779  43.6380451 114.8592540
  98.1160755  56.6634636 118.3722221  98.6679063  56.8266257 119.1371306
  98.4566948  57.2539074 117.7002246  93.0925248  39.0109786 118.9744106
  93.1566574  39.8724616 118.5621503  93.0292368  38.3983787 118.2416464
  89.3443063  42.8909347 108.5535495  89.6396504  41.9820026 108.5002548
  88.4431099  42.8697087 108.2316497 101.2529142  54.6116611 115.3585903
 101.1280281  53.8106351 114.8496848 101.9108233  55.1062805 114.8699873
  92.8737310  40.9665344 114.5363043  92.1523896  41.5801312 114.3970517
  93.6630566  41.5023109 114.4579689 103.3164050  52.4125631 116.9865453
 102.3694386  52.2930983 116.9143780 103.6646824  51.5248129 117.0691714
  91.0730905  40.5723445 108.6774820  90.7443611  39.6920824 108.4949926
  91.4270276  40.5171114 109.5651209 100.3210484  52.2078348 113.1869805
 100.1735446  51.2795055 113.3677375 101.1463977  52.2298438 112.7026881
  94.1872728  40.8596415 109.0450297  94.5268801  41.3882336 108.3228906
  94.6344848  41.1976821 109.8208864 103.9244606  53.0306906 114.2734678
 104.8491153  52.8249768 114.1359129 103.7559909  52.7823307 115.1824020
  96.1740875  39.3571036 107.2443590  96.8949238  39.7352289 106.7407307
  95.5506179  40.0759913 107.3478568 100.3171998  40.0616185 108.1801923
 100.5335612  40.9440823 107.8790751  99.8366065  39.6702399 107.4507565
  95.0571219  43.0201898 114.7572667  94.9115800  43.3342202 115.6496949
  94.5796423  43.6386799 114.2043566  96.9167602  40.0104446 114.8053557
  96.9029171  39.1145540 114.4685855  97.6340030  40.0175110 115.4391843
 103.7139922  53.5492574 109.6296770 103.8876799  52.9838996 108.8770622
 104.2068813  54.3493469 109.4476259  89.5316882  45.5607243 117.6960328
  88.9870350  46.3367051 117.8280603  90.4096231  45.9078047 117.5379450
  96.3204498  38.8918827 110.0741127  96.4420409  37.9635473 110.2732014
  96.0306541  38.9057513 109.1619442  99.1895689  36.5773737 113.2107847
  99.2117385  36.6413070 112.2559826  99.6063748  35.7378246 113.4048353
 109.5679313  46.3128997 111.2487069 110.0110459  45.5636322 110.8506193
 108.6905823  46.3039133 110.8660801 104.7015094  52.8659338 106.7293668
 105.3965999  53.4866031 106.9480982 105.0438244  52.0154689 107.0046046
  90.3182903  44.6877139 120.5890485  89.5764639  44.8359774 121.1755116
  89.9975648  44.9485405 119.7257235 106.6006517  50.3159044 108.2580999
 107.1257841  50.6546316 107.5330319 106.5128870  49.3806059 108.0744133
  98.2626566  54.2293117 120.3870875  98.5713693  53.9842264 121.2593575
  99.0602048  54.4339756 119.8989745  98.2847178  56.3831027 112.6176252
  97.8452168  55.8907406 113.3109108  99.0355295  55.8403995 112.3768327
  90.7639517  52.5742568 112.6200880  91.5897537  52.2746340 112.2399523
  90.4133569  51.8050190 113.0690668  95.7321050  51.9269036 114.6898553
  95.1101060  51.2639741 114.3900781  96.4025917  51.9530168 114.0072201
  88.9648122  50.4928894 113.5789813  88.1280030  50.0651069 113.3973815
  88.9371768  50.6861338 114.5160605  95.2934557  50.4772959 108.1657014
  95.4422678  51.1608424 107.5123687  96.1001001  50.4578049 108.6806470
  93.0487190  46.5038137 109.1718083  92.8033232  45.6000467 109.3698293
  93.2183105  46.5055287 108.2297561  92.3182838  42.2366495 106.6704244
  91.6252083  42.3110850 106.0144280  92.0734590  41.4726838 107.1925761
  98.7929963  52.9721090 105.6368761  98.2203930  53.5911277 105.1839233
  99.3662756  53.5220452 106.1708683 102.0127223  53.2558240 106.7677344
 102.9457896  53.1903802 106.9710219 101.9250435  54.0914507 106.3091876
 104.6415239  52.5724110 103.7281291 104.5628871  52.2383974 104.6217049
 105.4624906  53.0645878 103.7272764  99.1776761  44.3081903 102.9784814
 100.1235866  44.1788111 103.0473232  98.7991006  43.5696565 103.4554242
  97.3619678  42.2331879 102.9139699  96.4551134  41.9364992 102.9902413
  97.6395659  41.9361697 102.0473985  88.2797619  43.5538242 113.3638745
  87.9600403  42.7003551 113.0713119  87.7331047  43.7686821 114.1196713
  92.0577526  46.2700683 117.0808252  92.2763536  47.2017791 117.0996286
  92.4703300  45.9108658 117.8663056  98.9781744  36.7768769 109.0683940
  98.1682472  36.4315854 109.4439186  99.6666161  36.4676312 109.6571552
 100.9072292  35.8546816 110.6908237 101.4603331  36.2742269 111.3498260
 101.1442379  34.9282564 110.7331193  96.1318463  39.0918814 103.0551678
  96.9937627  39.4173713 103.3147496  96.3168807  38.3050310 102.5424744
  88.1485879  47.1741154 115.3331867  87.4549350  46.7595107 114.8201821
  88.8958870  47.2161690 114.7365286 104.2851099  37.9647341 110.1986901
 103.7049769  38.6232145 109.8164954 104.0187032  37.1424685 109.7874319
  90.0622621  47.1059408 113.2097882  90.0393309  47.2047095 112.2579765
  90.3723258  47.9524558 113.5315048  92.7209999  49.1635563 117.3244496
  93.6753253  49.1319505 117.2574428  92.5222523  48.7026186 118.1394722
  93.3109381  47.7336679 119.8915294  94.1302270  48.2280757 119.9150131
  93.5846189  46.8168647 119.8632862 103.0675977  40.1247431 109.2543250
 102.1801833  40.4097082 109.0363444 103.4829967  39.9641194 108.4070526
  91.0760228  54.7055182 114.3414694  90.9414696  53.9455583 113.7752692
  90.6592290  55.4296082 113.8743483 102.2119191  49.8892106 103.3491270
 102.9155041  50.0942108 103.9648925 101.4881840  50.4568868 103.6140353
 103.0417001  45.6401967 109.4693540 102.9852203  46.0970518 108.6301172
 103.5945344  44.8792652 109.2916382 106.8521807  41.4291699 110.2943659
 106.5958741  41.0288335 111.1251867 106.2274675  42.1435493 110.1693798
  94.2329354  55.6024499 114.5533137  94.1161738  56.5469932 114.4511827
  93.4121800  55.2998061 114.9418936 104.1205888  50.3274635 105.3989730
 104.9551492  49.8955833 105.2167204 103.9590231  50.1556649 106.3266624
 103.7751781  46.8306748 106.7646069 103.7200584  46.6651020 105.8234513
 103.1497836  47.5382781 106.9208259  88.5644296  42.0674813 120.5907491
  89.2103159  41.5573767 121.0794716  88.3561447  42.8043494 121.1650916
  97.0847906  36.3314857 106.3431387  97.0726576  37.2756697 106.4999658
  97.9771328  36.1485003 106.0490848  95.2583868  56.2552761 117.7689065
  96.1611115  56.2876371 118.0855560  95.0321238  55.3253212 117.7835401
  97.0137470  55.0083748 114.4299144  96.0633101  55.0085609 114.3163516
  97.3169956  54.2616482 113.9135179 105.4166685  62.6507191 111.4203322
 104.8531551  62.5597128 110.6519610 105.3019080  61.8307095 111.9005815
 102.9631117  64.1458382 114.2587542 103.7552409  63.8049207 113.8433842
 103.2027768  64.2553357 115.1789696 110.9966244  66.3178158 106.7317787
 110.3454224  66.9032239 106.3451801 111.7910607  66.8484353 106.7912824
 104.9221871  63.4067295 107.1304921 105.6952747  62.8596283 106.9917797
 105.2747270  64.2711545 107.3419383 107.2588149  59.5659962 104.7623371
 107.5113670  59.0441483 104.0006834 106.3212708  59.4026107 104.8650055
 112.3031432  58.5695740 112.5698114 113.0894521  58.1515163 112.2188531
 112.5670136  59.4741832 112.7379763 112.4741509  64.0068590 107.2686771
 111.8387342  64.0803217 107.9807676 112.1438916  64.5962189 106.5905850
 106.9784438  61.4688067 106.9647746 106.8620696  60.7932971 107.6328830
 107.0886698  60.9820441 106.1479899 109.3215979  60.9298215 110.6694435
 108.9574186  60.4028836 111.3807357 110.1783095  60.5396684 110.4960921
 108.9621466  55.9588114 105.6655784 109.1295868  56.8268351 106.0326255
 108.7718635  56.1215396 104.7417073 105.1709280  60.8718890 113.3658319
 104.2459777  60.7395104 113.5736010 105.4193694  61.6513109 113.8628261
 108.9410687  58.4145772 106.6502451 108.8210312  58.8602823 107.4887931
 108.2463275  58.7631089 106.0915989 102.5318091  60.5152164 114.2002108
 102.6610473  60.7686643 115.1141519 101.8515543  61.1079872 113.8806763
 114.6395753  58.8867245 107.4782785 115.5513609  59.1194632 107.3030482
 114.1305400  59.4704289 106.9157863 108.7993297  63.6067472 112.1346451
 109.2631643  63.8855175 111.3451074 108.5350095  62.7050916 111.9519542
 107.7362183  59.7290624 108.9436016 108.4386226  60.1811668 109.4109943
 107.4042812  59.0874443 109.5715910 101.4787517  57.9874177 114.2453150
 100.6886571  58.2431705 113.7693261 101.9698764  58.8022514 114.3505191
 103.4302262  58.3518756 111.2036627 102.6333426  58.4637450 111.7220122
 103.2027855  58.6905408 110.3377517  99.7625220  58.2404667 116.6768141
 100.0133258  59.1251677 116.9425717 100.2984768  58.0609269 115.9043233
 108.9755948  66.5431567 109.0198122 108.8401622  67.3883102 109.4482969
 109.5165760  66.7450844 108.2564055 102.4285345  64.0607005 109.5926047
 102.9409866  64.8550255 109.7431611 103.0808058  63.3633295 109.5259648
 104.2380230  67.1772761 111.6748800 104.4146858  68.0990726 111.4869784
 105.0337063  66.8631180 112.1043180 100.3934262  62.3895659 110.3685617
 101.2309484  62.7992667 110.1519325 100.5712530  61.4495101 110.3385811
 112.2898694  60.0570739 106.0569450 111.7745317  60.8275344 106.2957838
 112.0176002  59.3835876 106.6802512 109.8745805  54.9020440 111.1154689
 109.0187401  54.5127291 110.9360327 110.2872757  54.9812401 110.2554474
 107.6487838  52.5205513 114.5212430 108.5140834  52.3248322 114.1618320
 107.7165346  52.2915865 115.4481787 117.2632968  62.8103094 107.9922624
 116.4862411  62.4714254 107.5477786 117.9424449  62.8155717 107.3177589
 112.0784997  57.9297832 107.8829231 111.7735133  58.2443981 108.7339375
 113.0315439  58.0079251 107.9256564 110.5231429  64.0888055 109.5322185
 109.9952791  63.3540814 109.2195423 110.0218932  64.8662731 109.2862154
 105.2550157  54.7507721 111.8928797 105.8293908  54.5282903 111.1601990
 105.8421139  54.8196416 112.6457398 105.5819744  56.7812182 105.9124682
 104.7457056  57.1186869 106.2333957 105.4424513  56.6461162 104.9751819
 107.5572824  51.6248970 110.6203866 106.9037237  51.3097987 109.9960481
 107.5153298  51.0024711 111.3463689 108.6684029  61.9068265 102.5357158
 107.7611091  61.6757519 102.7348307 109.1655061  61.1105884 102.7231140
 111.5752108  70.6165772 105.4553845 110.9013807  70.9197469 106.0638802
 111.9617930  71.4194853 105.1059302 110.7910565  58.1130904 114.9451514
 109.8733126  58.3345851 114.7873202 111.2070708  58.1877214 114.0863221
 111.5745612  59.5122319 110.0754194 112.3217431  60.0243717 109.7661316
 111.8437202  59.1906372 110.9358588 109.8472263  62.0080860 107.0581149
 108.9383482  61.7239893 107.1553618 109.8767346  62.4279939 106.1984455
 114.0224450  56.5479436 112.0572984 113.2847206  56.0356822 112.3883226
 114.2751223  56.1079817 111.2456260 100.4160433  59.7286374 111.0396351
 100.2184833  59.1355735 110.3147417  99.8607097  59.4238584 111.7572290
 108.3957157  59.6209481 113.1590944 108.4505766  58.6683317 113.0833420
 107.5848359  59.7768920 113.6432242 109.5448350  63.5489604 104.3969227
 109.1067780  62.8325463 103.9374864 110.2858791  63.7765719 103.8354318
 106.3349517  58.2386540 110.9181323 105.5217382  58.5380711 111.3246515
 106.8308511  57.8442229 111.6355805 117.6621465  61.8246801 110.4545546
 117.5239364  62.0148397 109.5266735 117.3057684  62.5866184 110.9113597
 105.8263591  55.8104896 116.5342558 106.4662971  55.6693655 115.8365521
 104.9941122  55.5239409 116.1581160 106.6023895  65.1107326 112.6477550
 107.3964494  64.6157646 112.4460125 105.8915588  64.5825189 112.2845256
 102.9106659  59.2550408 108.7237303 101.9804247  59.1934864 108.9407265
 103.0064131  58.7326361 107.9273944 102.8292208  55.7805221 111.3115544
 103.0899025  56.6950554 111.2024705 103.6509380  55.3129663 111.4612157
 104.3017133  57.1942978 118.4814369 104.9740186  56.9860340 117.8327018
 103.4746920  56.9965064 118.0419601 109.7743323  70.7845445 107.6700924
 109.9495079  70.3133488 108.4846546 109.0876111  71.4111211 107.8982184
 113.6659578  62.4073985 103.9901285 113.0488749  61.6820814 103.8934337
 113.1976066  63.1683346 103.6468359 105.4558124  56.6259410 103.1122589
 104.5787590  56.5048210 102.7484836 105.9315877  55.8345488 102.8601478
  96.9760264  61.4136569 113.2064096  97.6631304  61.0998299 112.6185111
  96.8208393  62.3177934 112.9331348 101.7794986  56.3026766 117.6349120
 101.6953175  55.6952436 116.8999530 100.9577693  56.7935784 117.6358616
 111.9518700  54.7880329 113.0019315 112.4487400  54.0350292 112.6820385
 111.1805682  54.8244646 112.4362524 113.0348481  63.5452017 110.5757738
 112.1004759  63.6653479 110.4062443 113.2125149  62.6424483 110.3117748
 108.5353669  56.9297712 112.7290999 108.1651456  56.3768753 113.4171905
 109.0312761  56.3255846 112.1765999 116.4221032  59.3869336 111.1107772
 116.8881484  60.2197328 111.0368075 116.8728533  58.9214318 111.8153031
 114.4897263  65.7313157 108.1093924 114.7657107  65.6169752 109.0187798
 113.6201762  65.3330642 108.0706098 111.4593493  68.9067693 109.0141787
 111.9881259  68.3960148 108.4011949 111.7221712  68.5910223 109.8787320
  96.5528240  59.4937163 115.4781563  96.5912340  58.9600753 116.2718681
  96.0468533  58.9672368 114.8592540 103.9319002  54.3401703 118.9744106
 103.9960329  55.2016534 118.5621503 103.8686123  53.7275705 118.2416464
 100.1836818  58.2201265 108.5535495 100.4790259  57.3111943 108.5002548
  99.2824854  58.1989004 108.2316497 103.7131065  56.2957261 114.5363043
 102.9917651  56.9093229 114.3970517 104.5024321  56.8315026 114.4579689
 101.9124659  55.9015363 108.6774820 101.5837366  55.0212741 108.4949926
 102.2664030  55.8463031 109.5651209 105.0266483  56.1888332 109.0450297
 105.3662555  56.7174254 108.3228906 105.4738603  56.5268738 109.8208864
 107.0134630  54.6862954 107.2443590 107.7342992  55.0644207 106.7407307
 106.3899934  55.4051831 107.3478568 111.1565753  55.3908103 108.1801923
 111.3729367  56.2732741 107.8790751 110.6759820  54.9994316 107.4507565
 105.8964974  58.3493816 114.7572667 105.7509555  58.6634119 115.6496949
 105.4190178  58.9678716 114.2043566 107.7561357  55.3396364 114.8053557
 107.7422926  54.4437457 114.4685855 108.4733785  55.3467028 115.4391843
 100.3710636  60.8899161 117.6960328  99.8264104  61.6658968 117.8280603
 101.2489986  61.2369965 117.5379450 107.1598253  54.2210744 110.0741127
 107.2814164  53.2927391 110.2732014 106.8700295  54.2349430 109.1619442
 110.0289443  51.9065655 113.2107847 110.0511140  51.9704988 112.2559826
 110.4457502  51.0670163 113.4048353 115.5408849  68.1951256 106.7293668
 116.2359753  68.8157949 106.9480982 115.8831999  67.3446607 107.0046046
 117.4400272  65.6450961 108.2580999 117.9651596  65.9838234 107.5330319
 117.3522624  64.7097977 108.0744133 101.6033272  67.9034486 112.6200880
 102.4291292  67.6038257 112.2399523 101.2527324  67.1342108 113.0690668
  99.8041877  65.8220812 113.5789813  98.9673785  65.3942986 113.3973815
  99.7765522  66.0153255 114.5160605 106.1328312  65.8064877 108.1657014
 106.2816432  66.4900341 107.5123687 106.9394755  65.7869967 108.6806470
 103.8880945  61.8330055 109.1718083 103.6426987  60.9292385 109.3698293
 104.0576859  61.8347205 108.2297561 103.1576592  57.5658412 106.6704244
 102.4645837  57.6402767 106.0144280 102.9128344  56.8018756 107.1925761
 109.6323717  68.3013008 105.6368761 109.0597684  68.9203195 105.1839233
 110.2056511  68.8512369 106.1708683 112.8520977  68.5850158 106.7677344
 113.7851650  68.5195719 106.9710219 112.7644190  69.4206425 106.3091876
 115.4808994  67.9016028 103.7281291 115.4022625  67.5675892 104.6217049
 116.3018660  68.3937796 103.7272764 110.0170516  59.6373820 102.9784814
 110.9629620  59.5080028 103.0473232 109.6384761  58.8988482 103.4554242
 108.2013433  57.5623797 102.9139699 107.2944888  57.2656909 102.9902413
 108.4789414  57.2653615 102.0473985  99.1191373  58.8830160 113.3638745
  98.7994158  58.0295468 113.0713119  98.5724801  59.0978738 114.1196713
 109.8175499  52.1060686 109.0683940 109.0076227  51.7607771 109.4439186
 110.5059916  51.7968230 109.6571552 111.7466047  51.1838733 110.6908237
 112.2997085  51.6034187 111.3498260 111.9836133  50.2574481 110.7331193
 106.9712217  54.4210732 103.0551678 107.8331381  54.7465630 103.3147496
 107.1562562  53.6342228 102.5424744  98.9879633  62.5033072 115.3331867
  98.2943105  62.0887024 114.8201821  99.7352624  62.5453608 114.7365286
 115.1244854  53.2939258 110.1986901 114.5443523  53.9524062 109.8164954
 114.8580787  52.4716603 109.7874319 100.9016376  62.4351325 113.2097882
 100.8787064  62.5339013 112.2579765 101.2117012  63.2816476 113.5315048
 113.9069732  55.4539349 109.2543250 113.0195587  55.7388999 109.0363444
 114.3223721  55.2933112 108.4070526 113.0512945  65.2184023 103.3491270
 113.7548796  65.4234026 103.9648925 112.3275594  65.7860785 103.6140353
 113.8810756  60.9693885 109.4693540 113.8245957  61.4262436 108.6301172
 114.4339098  60.2084569 109.2916382 117.6915562  56.7583617 110.2943659
 117.4352496  56.3580252 111.1251867 117.0668430  57.4727410 110.1693798
 114.9599643  65.6566553 105.3989730 115.7945247  65.2247751 105.2167204
 114.7983986  65.4848566 106.3266624 114.6145535  62.1598666 106.7646069
 114.5594339  61.9942937 105.8234513 113.9891590  62.8674699 106.9208259
  99.4038050  57.3966730 120.5907491 100.0496914  56.8865684 121.0794716
  99.1955201  58.1335412 121.1650916 107.9241661  51.6606775 106.3431387
 107.9120330  52.6048615 106.4999658 108.8165082  51.4776920 106.0490848
 116.4213498  72.1104100 105.9124682 115.5850810  72.4478786 106.2333957
 116.2818268  71.9753080 104.9751819 116.2951878  71.9551327 103.1122589
 115.4181345  71.8340128 102.7484836 116.7709631  71.1637406 102.8601478
 113.9970347  72.8950330 106.6704244 113.3039592  72.9694685 106.0144280
 113.7522099  72.1310674 107.1925761 119.0407187  72.8915714 102.9139699
 118.1338643  72.5948827 102.9902413 119.3183168  72.5945532 102.0473985
 117.8105972  69.7502650 103.0551678 118.6725136  70.0757548 103.3147496
 117.9956316  68.9634145 102.5424744 118.7635415  66.9898693 106.3431387
 118.7514085  67.9340533 106.4999658 119.6558837  66.8068838 106.0490848
  74.1836317   2.2035783  97.0237889  74.1060346   3.1543608  97.1026369
  73.5797960   1.8581656  97.6812815  71.8223146   4.9521177 101.1686091
  72.0619744   5.5839701 101.8465109  70.9792343   4.6009217 101.4551450
  72.2967978   0.9769179  98.4984869  71.6278354   1.4615307  98.0148909
  72.1580848   1.2238400  99.4128248  76.4373247   3.0112923 105.0967527
  76.9891555   3.1744545 105.8616613  76.7779441   3.6017361 104.4247552
  69.3972720   1.0533469 101.0660001  69.2627188   0.2933870 100.4997999
  68.9804782   1.7774369 100.5988790  72.5541846   1.9502786 101.2778444
  72.4374230   2.8948219 101.1757134  71.7334292   1.6476348 101.6664243
  73.5796360   2.6031048 104.4934372  74.4823607   2.6354659 104.8100867
  73.3533730   1.6731499 104.5080708  87.8792362   7.1450001 102.1551738
  87.5410874   7.0291066 101.2672273  88.7482130   6.7441166 102.1352744
  83.7379178   8.9985478  98.1448629  83.1744043   8.9075415  97.3764916
  83.6231573   8.1785382  98.6251121  81.2843610  10.4936669 100.9832849
  82.0764902  10.1527494 100.5679148  81.5240260  10.6031644 101.9035002
  89.3178736  12.6656446  93.4563094  88.6666716  13.2510526  93.0697107
  90.1123099  13.1962640  93.5158131  83.2434364   9.7545583  93.8550228
  84.0165240   9.2074570  93.7163104  83.5959762  10.6189832  94.0664689
  85.0819406  11.0821965 107.0617127  84.7909272  11.9867596 106.9463793
  85.7176391  11.1238493 107.7761197  86.0075613   8.4598813 103.6518487
  86.6039185   8.2354836 102.9375450  86.0650585   7.7183559 104.2543935
  90.7954002  10.3546877  93.9932078  90.1599835  10.4281504  94.7052982
  90.4651408  10.9440476  93.3151157  85.2996930   7.8166355  93.6893053
  85.1833188   7.1411258  94.3574137  85.4099190   7.3298729  92.8725206
  87.6428471   7.2776502  97.3939742  87.2786678   6.7507123  98.1052663
  88.4995587   6.8874971  97.2206227  90.0409291  10.7683380 104.0566921
  89.7410014  11.6708419 103.9482728  89.6960351  10.5015564 104.9088074
  83.4921773   7.2197177 100.0903625  82.5672269   7.0873391 100.2981317
  83.7406186   7.9991397 100.5873568  80.8530584   6.8630451 100.9247414
  80.9822965   7.1164930 101.8386826  80.1728035   7.4558159 100.6052069
  85.0230071  17.5327701  97.0237889  84.9454101  18.4835526  97.1026369
  84.4191715  17.1873573  97.6812815  91.5677827  10.2171351 101.5941673
  90.9386690  10.3817065 100.8917741  91.1803489  10.6312960 102.3652637
  95.4467059  11.1525789  98.9486037  94.7618097  11.5324690  98.3983070
  95.5310909  11.7621115  99.6817984  87.1205789   9.9545759  98.8591758
  87.5844135  10.2333462  98.0696380  86.8562587   9.0529203  98.6764849
  84.0129870   9.5017240 101.7971521  84.5831227   9.9304509 101.1589006
  84.6037982   9.2199825 102.4955707  79.8000009   4.3352464 100.9698457
  79.0099063   4.5909992 100.4938567  80.2911257   5.1500802 101.0750497
  81.7514755   4.6997043  97.9281933  80.9545918   4.8115737  98.4465429
  81.5240347   5.0383695  97.0622824  87.5820422  11.2241746 105.8764448
  87.6464855  11.6862153 106.7122620  86.8731346  10.5939111 106.0046758
  78.0837712   4.5882954 103.4013447  78.3345751   5.4729964 103.6671023
  78.6197261   4.4087556 102.6288539  87.2968440  12.8909854  95.7443428
  87.1614115  13.7361389  96.1728276  87.8378252  13.0929131  94.9809362
  80.7497837  10.4085292  96.3171353  81.2622358  11.2028542  96.4676918
  81.4020550   9.7111582  96.2504955  82.5592722  13.5251048  98.3994107
  82.7359350  14.4469013  98.2115090  83.3549556  13.2109467  98.8288486
  81.8445079   5.5715680 108.2756270  81.7298594   4.6700937 108.5763369
  80.9889596   5.8179377 107.9241086  83.6824038  15.0429222 104.4004449
  84.2331463  14.9146285 103.6281443  82.8435513  15.3424111 104.0499342
  87.4791209  11.3080350 108.7448680  88.0119545  10.5468638 108.5147988
  86.9505290  11.0154001 109.4872834  78.7146754   8.7373946  97.0930924
  79.5521976   9.1470954  96.8764632  78.8925022   7.7973388  97.0631118
  88.8443921  10.4366342  96.2567492  88.3165283   9.7019102  95.9440729
  88.3431424  11.2141018  96.0107460  93.8236767   8.6315363 101.3734538
  93.1660442   9.3214624 101.4614667  94.6277166   9.0211795 101.7168525
  86.9896521   8.2546552  89.2602465  86.0823583   8.0235806  89.4593614
  87.4867553   7.4584172  89.4476447  89.8964600  16.9644060  92.1799151
  89.2226299  17.2675756  92.7884109  90.2830422  17.7673140  91.8304608
  88.1684755   8.3559147  93.7826455  87.2595974   8.0718180  93.8798925
  88.1979839   8.7758226  92.9229762  93.4004022  11.9665737  97.5517623
  92.9466349  11.1256647  97.6082813  92.7697989  12.6027135  97.8892403
  91.8436962  13.8042233  98.4867441  92.1359936  14.3647291  97.7679806
  92.3535582  14.0970794  99.2420600  78.7372925   6.0764661  97.7641657
  78.5397325   5.4834022  97.0392724  78.1819589   5.7716872  98.4817596
  87.8660843   9.8967891  91.1214534  87.4280273   9.1803750  90.6620171
  88.6071284  10.1244006  90.5599625  86.8070587  14.5822585  99.5760894
  86.7646766  14.8083431  98.6469426  87.7233286  14.3485959  99.7246695
  84.9236387  11.4585614  99.3722857  85.7176986  10.9635934  99.1705432
  84.2128080  10.9303477  99.0090562  89.7431232  13.8403709 103.7235224
  89.7968254  14.4094645 104.4912940  88.8746013  14.0105594 103.3589262
  81.2319151   5.6028695  95.4482609  80.3016739   5.5413151  95.6652572
  81.3276623   5.0804648  94.6519251  88.7019332   8.0063971 105.2822156
  89.6311392   8.1575131 105.1091124  88.2810362   8.0947992 104.4270803
  87.5007663  12.0314636 103.0520694  87.3618749  11.6633420 103.9246632
  86.7122260  12.5462275 102.8804652  88.0955815  17.1323732  94.3946230
  88.2707571  16.6611775  95.2091853  87.4088603  17.7589498  94.6227491
  89.0512879  11.4096238 100.4409532  88.7162711  11.3697008 101.3367182
  88.5516824  10.7440954  99.9679942  83.0257123   6.8163868 105.9662113
  82.8876921   6.0844107 106.5673652  83.9362046   6.7272768 105.6846301
  91.9872070   8.7552273  90.7146591  91.3701241   8.0299101  90.6179644
  91.5188559   9.5161633  90.3713666  85.6539423   6.5283828 105.4545792
  86.3639042   5.8877020 105.4132411  85.6108731   6.7796722 106.3771973
  82.6616901  20.2813095 101.1686091  82.9013499  20.9131619 101.8465109
  81.8186097  19.9301135 101.4551450  75.2972756   7.7614857  99.9309403
  75.9843796   7.4476587  99.3430418  75.1420885   8.6656221  99.6576654
  87.1744763  16.0892217 103.5727595  87.1014934  16.8947189 104.0846899
  86.7322156  16.2884183 102.7475616  86.9634542  15.3263987  97.0830416
  86.1802064  15.8685667  97.1768641  87.6627287  15.8437967  97.4824657
  89.6343446  15.9879051 105.7285753  90.3471418  16.6226516 105.6561655
  89.1433475  16.0842917 104.9125755  91.3560973   9.8930304  97.3003045
  90.4217252  10.0131766  97.1307749  91.5337642   8.9902771  97.0363055
  84.6855360  13.7373495 106.5491324  85.3864819  14.3709978 106.7020718
  84.2150475  14.0788226 105.7886963  92.8109756  12.0791445  94.8339231
  93.0869599  11.9648039  95.7433105  91.9414254  11.6808929  94.7951404
  89.4463820  16.3277795  98.4772045  89.6286214  15.5099451  98.9399797
  90.2696806  16.5445488  98.0396935  89.7805985  15.2545980  95.7387093
  90.3093751  14.7438435  95.1257255  90.0434205  14.9388511  96.6032626
  80.2823078  13.2709850 103.4822427  80.8676515  12.5253538 103.6150331
  80.0847916  13.5813806 104.3659091  83.1361733  16.3061097  98.4984869
  82.4672108  16.7907225  98.0148909  82.9974603  16.5530318  99.4128248
  74.8740732   5.8415450 102.2026870  74.9124832   5.3079041 102.9963988
  74.3681025   5.3150655 101.5837847  87.2767002  18.3404841 105.0967527
  87.8285310  18.5036462 105.8616613  87.6173195  18.9309279 104.4247552
  78.5049310   4.5679552  95.2780801  78.8002751   3.6590231  95.2247855
  77.6037346   4.5467292  94.9561804  90.4135389  16.2886816 102.0831210
  90.2886528  15.4876556 101.5742155  91.0714480  16.7833010 101.5945180
  92.4770297  14.0895836 103.7110760  91.5300633  13.9701187 103.6389086
  92.8253070  13.2018334 103.7937021  89.4816731  13.8848553  99.9115112
  89.3341693  12.9565260 100.0922682  90.3070224  13.9068643  99.4272187
  93.0850852  14.7077111 100.9979985  94.0097400  14.5019973 100.8604436
  92.9166156  14.4593512 101.9069326  92.8746169  15.2262779  96.3542076
  93.0483046  14.6609201  95.6015929  93.3675060  16.0263674  96.1721566
  78.6923128   7.2377448 104.4205635  78.1476596   8.0137256 104.5525909
  79.5702478   7.5848252 104.2624756  93.8621341  14.5429543  93.4538974
  94.5572246  15.1636236  93.6726289  94.2044491  13.6924894  93.7291352
  79.4789150   6.3647344 107.3135792  78.7370886   6.5129979 107.9000422
  79.1581894   6.6255610 106.4502541  95.7612764  11.9929249  94.9826305
  96.2864088  12.3316521  94.2575625  95.6735117  11.0576264  94.7989440
  87.4232813  15.9063322 107.1116182  87.7319939  15.6612469 107.9838881
  88.2208295  16.1109961 106.6235052  87.4453425  18.0601232  99.3421558
  87.0058415  17.5677611 100.0354415  88.1961542  17.5174200  99.1013634
  79.9245764  14.2512773  99.3446186  80.7503784  13.9516545  98.9644830
  79.5739816  13.4820395  99.7935975  84.8927297  13.6039241 101.4143860
  84.2707306  12.9409946 101.1146088  85.5632164  13.6300373 100.7317508
  78.1254369  12.1699099 100.3035120  77.2886277  11.7421274 100.1219121
  78.0978014  12.3631543 101.2405911  84.4540804  12.1543164  94.8902321
  84.6028924  12.8378629  94.2368993  85.2607247  12.1348254  95.4051776
  82.2093437   8.1808342  95.8963389  81.9639479   7.2770672  96.0943600
  82.3789351   8.1825492  94.9542867  87.9536209  14.6491295  92.3614068
  87.3810177  15.2681482  91.9084540  88.5269003  15.1990656  92.8953990
  91.1733469  14.9328445  93.4922650  92.1064142  14.8674007  93.6955526
  91.0856682  15.7684712  93.0337183  93.8021486  14.2494315  90.4526598
  93.7235117  13.9154179  91.3462356  94.6231153  14.7416083  90.4518070
  77.4403866   5.2308447 100.0884052  77.1206650   4.3773756  99.7958426
  76.8937294   5.4457025 100.8442019  81.2183773   7.9470888 103.8053559
  81.4369783   8.8787996 103.8241592  81.6309547   7.5878863 104.5908362
  77.3092126   8.8511359 102.0577174  76.6155597   8.4365312 101.5447128
  78.0565117   8.8931895 101.4610593  79.2228868   8.7829613  99.9343189
  79.1999556   8.8817300  98.9825072  79.5329505   9.6294763 100.2560355
  81.8816246  10.8405768 104.0489803  82.8359499  10.8089710 103.9819735
  81.6828770  10.3796391 104.8640029  82.4715628   9.4106884 106.6160601
  83.2908517   9.9050962 106.6395438  82.7452436   8.4938852 106.5878168
  80.2366475  16.3825387 101.0660001  80.1020943  15.6225788 100.4997999
  79.8198537  17.1066287 100.5988790  91.3725438  11.5662311  90.0736576
  92.0761288  11.7712313  90.6894232  90.6488086  12.1339073  90.3385660
  83.3935601  17.2794704 101.2778444  83.2767985  18.2240137 101.1757134
  82.5728047  16.9768266 101.6664243  93.2812135  12.0044840  92.1235036
  94.1157739  11.5726038  91.9412511  93.1196478  11.8326854  93.0511931
  92.9358027   8.5076953  93.4891376  92.8806831   8.3421225  92.5479820
  92.3104083   9.2152986  93.6453565  77.7250542   3.7445018 107.3152798
  78.3709406   3.2343972 107.8040023  77.5167693   4.4813699 107.8896223
  84.4190115  17.9322966 104.4934372  85.3217361  17.9646576 104.8100867
  84.1927485  17.0023417 104.5080708  86.1743717  16.6853953 101.1544451
  85.2239348  16.6855814 101.0408823  86.4776203  15.9386687 100.6380485
 101.9096410  22.5214491 102.2190213 102.5474820  22.4021238 101.5153553
 101.7917253  23.4695335 102.2778165  98.7186117  22.4741919 102.1551738
  98.3804628  22.3582984 101.2672273  99.5875885  22.0733084 102.1352744
  94.5772932  24.3277395  98.1448629  94.0137797  24.2367332  97.3764916
  94.4625327  23.5077300  98.6251121  92.1237364  25.8228587 100.9832849
  92.9158656  25.4819412 100.5679148  92.3634014  25.9323562 101.9035002
 100.1572491  27.9948363  93.4563094  99.5060471  28.5802444  93.0697107
 100.9516854  28.5254558  93.5158131  94.0828118  25.0837500  93.8550228
  94.8558994  24.5366487  93.7163104  94.4353517  25.9481750  94.0664689
  95.9213161  26.4113883 107.0617127  95.6303027  27.3159513 106.9463793
  96.5570145  26.4530410 107.7761197  96.8469367  23.7890731 103.6518487
  97.4432940  23.5646754 102.9375450  96.9044339  23.0475477 104.2543935
  96.4194396  21.2430166  91.4868678  96.6719917  20.7211688  90.7252141
  95.4818955  21.0796312  91.5895361 101.4637679  20.2465945  99.2943421
 102.2500768  19.8285368  98.9433838 101.7276383  21.1512037  99.4625069
 101.6347756  25.6838795  93.9932078 100.9993589  25.7573422  94.7052982
 101.3045162  26.2732394  93.3151157  96.1390685  23.1458272  93.6893053
  96.0226943  22.4703176  94.3574137  96.2492945  22.6590646  92.8725206
  98.4822226  22.6068420  97.3939742  98.1180433  22.0799040  98.1052663
  99.3389341  22.2166889  97.2206227  98.1227713  17.6358319  92.3901090
  98.2902115  18.5038556  92.7571562  97.9324882  17.7985601  91.4662380
 100.8803046  26.0975298 104.0566921 100.5803769  27.0000337 103.9482728
 100.5354105  25.8307481 104.9088074  94.3315527  22.5489095 100.0903625
  93.4066024  22.4165309 100.2981317  94.5799940  23.3283314 100.5873568
  98.1016933  20.0915977  93.3747757  97.9816559  20.5373027  94.2133238
  97.4069522  20.4401294  92.8161295  91.6924338  22.1922369 100.9247414
  91.8216719  22.4456847 101.8386826  91.0121790  22.7850077 100.6052069
  95.8623826  32.8619618  97.0237889  95.7847855  33.8127444  97.1026369
  95.2585469  32.5165491  97.6812815 103.8002000  20.5637450  94.2028091
 104.7119856  20.7964837  94.0275789 103.2911647  21.1474494  93.6403170
 102.4071582  25.5463268 101.5941673 101.7780444  25.7108982 100.8917741
 102.0197244  25.9604878 102.3652637 106.2860814  26.4817706  98.9486037
 105.6011852  26.8616608  98.3983070 106.3704663  27.0913033  99.6817984
  97.9599544  25.2837676  98.8591758  98.4237889  25.5625379  98.0696380
  97.6956342  24.3821121  98.6764849  94.8523625  24.8309158 101.7971521
  95.4224982  25.2596426 101.1589006  95.4431737  24.5491743 102.4955707
  96.8968430  21.4060829  95.6681323  97.5992473  21.8581872  96.1355249
  96.5649058  20.7644648  96.2961216  90.6393764  19.6644381 100.9698457
  89.8492818  19.9201910 100.4938567  91.1305011  20.4792719 101.0750497
  92.5908509  20.0288961  97.9281933  91.7939672  20.1407655  98.4465429
  92.3634101  20.3675613  97.0622824  98.4214177  26.5533664 105.8764448
  98.4858609  27.0154071 106.7122620  97.7125101  25.9231029 106.0046758
  88.9231467  19.9174872 103.4013447  89.1739505  20.8021882 103.6671023
  89.4591015  19.7379473 102.6288539  98.1362194  28.2201771  95.7443428
  98.0007869  29.0653307  96.1728276  98.6772007  28.4221049  94.9809362
  91.5891592  25.7377209  96.3171353  92.1016112  26.5320460  96.4676918
  92.2414305  25.0403500  96.2504955  93.3986477  28.8542966  98.3994107
  93.5753105  29.7760930  98.2115090  94.1943310  28.5401385  98.8288486
  92.6838833  20.9007598 108.2756270  92.5692348  19.9992855 108.5763369
  91.8283351  21.1471294 107.9241086  94.5217792  30.3721140 104.4004449
  95.0725217  30.2438203 103.6281443  93.6829268  30.6716029 104.0499342
  98.3184963  26.6372267 108.7448680  98.8513300  25.8760556 108.5147988
  97.7899044  26.3445919 109.4872834  89.5540509  24.0665864  97.0930924
  90.3915731  24.4762872  96.8764632  89.7318776  23.1265306  97.0631118
 101.4504941  21.7340944  92.7814757 100.9351564  22.5045549  93.0203144
 101.1782249  21.0606081  93.4047818  99.0352052  16.5790645  97.8399995
  98.1793648  16.1897496  97.6605634  99.4479004  16.6582606  96.9799781
  96.8094084  14.1975718 101.2457737  97.6747081  14.0018527 100.8863626
  96.8771593  13.9686070 102.1727093 106.4239215  24.4873299  94.7167930
 105.6468658  24.1484459  94.2723092 107.1030696  24.4925922  94.0422895
 101.2391244  19.6068037  94.6074538 100.9341379  19.9214186  95.4584681
 102.1921686  19.6849456  94.6501871  99.6837676  25.7658260  96.2567492
  99.1559037  25.0311019  95.9440729  99.1825178  26.5432936  96.0107460
 104.6630522  23.9607280 101.3734538 104.0054196  24.6506542 101.4614667
 105.4670921  24.3503712 101.7168525  94.4156403  16.4277926  98.6174104
  94.9900155  16.2053108  97.8847296  95.0027386  16.4966621  99.3702705
 103.4735981  22.3151653  99.4238480 103.9867862  22.9481645  99.9260190
 104.1237204  21.7152849  99.0581840  94.7425990  18.4582387  92.6369989
  93.9063303  18.7957074  92.9579264  94.6030760  18.3231367  91.6997126
  96.7179071  13.3019175  97.3449173  96.0643483  12.9868192  96.7205788
  96.6759545  12.6794915  98.0708996  97.8290276  23.5838470  89.2602465
  96.9217338  23.3527724  89.4593614  98.3261308  22.7876089  89.4476447
 100.7358355  32.2935977  92.1799151 100.0620054  32.5967674  92.7884109
 101.1224177  33.0965058  91.8304608  99.9516811  19.7901109 101.6696821
  99.0339373  20.0116056 101.5118509 100.3676955  19.8647419 100.8108528
 100.7351859  21.1892524  96.7999501 101.4823678  21.7013921  96.4906623
 101.0043449  20.8676577  97.6603894  99.0078509  23.6851065  93.7826455
  98.0989729  23.4010098  93.8798925  99.0373593  24.1050144  92.9229762
 104.2397777  27.2957654  97.5517623 103.7860104  26.4548564  97.6082813
 103.6091743  27.9319053  97.8892403 103.1830696  18.2249640  98.7818290
 102.4453453  17.7127027  99.1128533 103.4357470  17.7850022  97.9701567
 102.6830716  29.1334151  98.4867441 102.9753690  29.6939208  97.7679806
 103.1929337  29.4262712  99.2420600  89.5766680  21.4056579  97.7641657
  89.3791080  20.8125940  97.0392724  89.0213344  21.1008789  98.4817596
  97.5563403  21.2979686  99.8836251  97.6112013  20.3453522  99.8078727
  96.7454605  21.4539125 100.3677549  98.7054597  25.2259809  91.1214534
  98.2674027  24.5095668  90.6620171  99.4465038  25.4535923  90.5599625
  95.4955763  19.9156745  97.6426629  94.6823629  20.2150916  98.0491822
  95.9914758  19.5212434  98.3601112  97.6464341  29.9114502  99.5760894
  97.6040520  30.1375349  98.6469426  98.5627040  29.6777877  99.7246695
 106.8227712  23.5017006  97.1790852 106.6845611  23.6918602  96.2512042
 106.4663931  24.2636388  97.6358903  94.9869838  17.4875101 103.2587864
  95.6269217  17.3463860 102.5610828  94.1547369  17.2009614 102.8826466
  95.7630142  26.7877531  99.3722857  96.5570740  26.2927851  99.1705432
  95.0521834  26.2595394  99.0090562 100.5824986  29.1695627 103.7235224
 100.6362009  29.7386563 104.4912940  99.7139768  29.3397512 103.3589262
  92.0712905  20.9320613  95.4482609  91.1410494  20.8705068  95.6652572
  92.1670377  20.4096566  94.6519251  91.9898455  17.4575426  98.0360851
  92.2505272  18.3720759  97.9270012  92.8115627  16.9899868  98.1857464
  93.4623380  18.8713183 105.2059676  94.1346433  18.6630545 104.5572325
  92.6353166  18.6735269 104.7664908  99.5413086  23.3355889 105.2822156
 100.4705146  23.4867048 105.1091124  99.1204116  23.4239910 104.4270803
  98.3401418  27.3606553 103.0520694  98.2012504  26.9925338 103.9246632
  97.5516014  27.8754193 102.8804652  98.9349570  32.4615650  94.3946230
  99.1101326  31.9903693  95.2091853  98.2482358  33.0881416  94.6227491
  99.8906633  26.7388156 100.4409532  99.5556466  26.6988926 101.3367182
  99.3910579  26.0732872  99.9679942  93.8650877  22.1455786 105.9662113
  93.7270675  21.4136025 106.5673652  94.7755801  22.0564686 105.6846301
 102.8265825  24.0844190  90.7146591 102.2094995  23.3591018  90.6179644
 102.3582313  24.8453551  90.3713666  96.4933178  21.8575745 105.4545792
  97.2032796  21.2168937 105.4132411  96.4502486  22.1088640 106.3771973
  93.5010655  35.6105012 101.1686091  93.7407253  36.2423537 101.8465109
  92.6579852  35.2593052 101.4551450  94.6164371  18.3029615  89.8367896
  93.7393837  18.1818415  89.4730142  95.0922124  17.5115693  89.5846784
  86.1366511  23.0906774  99.9309403  86.8237551  22.7768504  99.3430418
  85.9814640  23.9948139  99.6576654  90.9401233  17.9796971 104.3594426
  90.8559422  17.3722640 103.6244836  90.1183939  18.4705989 104.3603923
  98.0138517  31.4184135 103.5727595  97.9408689  32.2239106 104.0846899
  97.5715910  31.6176101 102.7475616  97.8028297  30.6555905  97.0830416
  97.0195819  31.1977585  97.1768641  98.5021042  31.1729885  97.4824657
 101.1124947  16.4650534  99.7264621 101.6093646  15.7120497  99.4065692
 100.3411928  16.5014851  99.1607831 100.4737201  31.3170969 105.7285753
 101.1865173  31.9518434 105.6561655  99.9827229  31.4134835 104.9125755
 102.1954728  25.2222222  97.3003045 101.2611006  25.3423684  97.1307749
 102.3731396  24.3194688  97.0363055  97.6959916  18.6067917  99.4536306
  97.3257703  18.0538958 100.1417212  98.1919008  18.0026051  98.9011306
 105.5827279  21.0639541  97.8353079 106.0487731  21.8967532  97.7613382
 106.0334779  20.5984522  98.5398338  95.5249114  29.0665412 106.5491324
  96.2258574  29.7001895 106.7020718  95.0544229  29.4080144 105.7886963
 103.6503510  27.4083362  94.8339231 103.9263354  27.2939957  95.7433105
 102.7808009  27.0100847  94.7951404 100.2857574  31.6569713  98.4772045
 100.4679969  30.8391369  98.9399797 101.1090560  31.8737405  98.0396935
 100.6199740  30.5837898  95.7387093 101.1487506  30.0730353  95.1257255
 100.8827959  30.2680428  96.6032626  91.1216832  28.6001767 103.4822427
  91.7070269  27.8545455 103.6150331  90.9241671  28.9105724 104.3659091
  93.9755487  31.6353015  98.4984869  93.3065863  32.1199142  98.0148909
  93.8368357  31.8822235  99.4128248  85.7134487  21.1707368 102.2026870
  85.7518586  20.6370958 102.9963988  85.2074780  20.6442573 101.5837847
  98.1160756  33.6696758 105.0967527  98.6679064  33.8328380 105.8616613
  98.4566949  34.2601196 104.4247552  93.0925249  16.0171908 105.6989412
  93.1566576  16.8786739 105.2866810  93.0292369  15.4045910 104.9661771
  89.3443065  19.8971470  95.2780801  89.6396506  18.9882148  95.2247855
  88.4431100  19.8759209  94.9561804 101.2529143  31.6178734 102.0831210
 101.1280283  30.8168474 101.5742155 101.9108234  32.1124927 101.5945180
  92.8737312  17.9727466 101.2608350  92.1523897  18.5863434 101.1215823
  93.6630567  18.5085231 101.1824996 103.3164052  29.4187754 103.7110760
 102.3694387  29.2993105 103.6389086 103.6646825  28.5310252 103.7937021
  91.0730906  17.5785567  95.4020126  90.7443612  16.6982946  95.2195232
  91.4270277  17.5233236  96.2896516 100.3210485  29.2140470  99.9115112
 100.1735447  28.2857178 100.0922682 101.1463978  29.2360561  99.4272187
  94.1872729  17.8658537  95.7695604  94.5268802  18.3944459  95.0474212
  94.6344850  18.2038943  96.5454171 103.9244607  30.0369029 100.9979985
 104.8491154  29.8311890 100.8604436 103.7559910  29.7885430 101.9069326
  96.1740876  16.3633159  93.9688897  96.8949239  16.7414412  93.4652614
  95.5506181  17.0822036  94.0723875 100.3171999  17.0678308  94.9047229
 100.5335614  17.9502946  94.6036057  99.8366066  16.6764521  94.1752871
  95.0571221  20.0264021 101.4817974  94.9115801  20.3404324 102.3742255
  94.5796424  20.6448921 100.9288872  96.9167604  17.0166569 101.5298863
  96.9029172  16.1207662 101.1931161  97.6340032  17.0237233 102.1637149
 103.7139923  30.5554696  96.3542076 103.8876801  29.9901119  95.6015929
 104.2068814  31.3555591  96.1721566  89.5316883  22.5669365 104.4205635
  88.9870351  23.3429173 104.5525909  90.4096233  22.9140170 104.2624756
  96.3204499  15.8980949  96.7986433  96.4420411  14.9697596  96.9977321
  96.0306542  15.9119635  95.8864749  99.1895690  13.5835860  99.9353153
  99.2117387  13.6475193  98.9805133  99.6063749  12.7440368 100.1293659
 109.5679314  23.3191119  97.9732376 110.0110460  22.5698445  97.5751499
 108.6905824  23.3101256  97.5906108 104.7015096  29.8721461  93.4538974
 105.3966000  30.4928153  93.6726289 105.0438246  29.0216812  93.7291352
  90.3182905  21.6939262 107.3135792  89.5764641  21.8421897 107.9000422
  89.9975649  21.9547527 106.4502541 106.6006519  27.3221166  94.9826305
 107.1257843  27.6608439  94.2575625 106.5128871  26.3868182  94.7989440
  98.2626567  31.2355240 107.1116182  98.5713694  30.9904387 107.9838881
  99.0602049  31.4401878 106.6235052  98.2847179  33.3893150  99.3421558
  97.8452170  32.8969528 100.0354415  99.0355296  32.8466117  99.1013634
  90.7639518  29.5804690  99.3446186  91.5897538  29.2808462  98.9644830
  90.4133570  28.8112313  99.7935975  95.7321052  28.9331159 101.4143860
  95.1101061  28.2701864 101.1146088  96.4025918  28.9592291 100.7317508
  88.9648123  27.4991017 100.3035120  88.1280032  27.0713191 100.1219121
  88.9371769  27.6923460 101.2405911  95.2934558  27.4835082  94.8902321
  95.4422679  28.1670546  94.2368993  96.1001002  27.4640172  95.4051776
  93.0487191  23.5100260  95.8963389  92.8033233  22.6062590  96.0943600
  93.2183106  23.5117410  94.9542867  92.3182839  19.2428617  93.3949551
  91.6252084  19.3172972  92.7389587  92.0734591  18.4788961  93.9171068
  98.7929964  29.9783212  92.3614068  98.2203931  30.5973400  91.9084540
  99.3662758  30.5282574  92.8953990 102.0127224  30.2620363  93.4922650
 102.9457897  30.1965924  93.6955526 101.9250437  31.0976629  93.0337183
 104.6415240  29.5786233  90.4526598 104.5628872  29.2446097  91.3462356
 105.4624907  30.0708001  90.4518070  99.1776762  21.3144025  89.7030120
 100.1235867  21.1850233  89.7718539  98.7991007  20.5758687  90.1799549
  97.3619680  19.2394002  89.6385006  96.4551135  18.9427114  89.7147719
  97.6395661  18.9423820  88.7719292  88.2797620  20.5600365 100.0884052
  87.9600404  19.7065673  99.7958426  87.7331048  20.7748943 100.8442019
  92.0577528  23.2762806 103.8053559  92.2763537  24.2079914 103.8241592
  92.4703301  22.9170780 104.5908362  98.9781745  13.7830891  95.7929247
  98.1682474  13.4377976  96.1684493  99.6666162  13.4738435  96.3816859
 100.9072294  12.8608938  97.4153544 101.4603332  13.2804392  98.0743567
 101.1442380  11.9344686  97.4576500  96.1318464  16.0980937  89.7796985
  96.9937628  16.4235835  90.0392802  96.3168808  15.3112433  89.2670051
  88.1485880  24.1803276 102.0577174  87.4549351  23.7657229 101.5447128
  88.8958871  24.2223813 101.4610593 104.2851101  14.9709463  96.9232208
 103.7049770  15.6294267  96.5410260 104.0187033  14.1486808  96.5119625
  90.0622623  24.1121530  99.9343189  90.0393311  24.2109218  98.9825072
  90.3723259  24.9586681 100.2560355  92.7210000  26.1697685 104.0489803
  93.6753254  26.1381628 103.9819735  92.5222524  25.7088309 104.8640029
  93.3109383  24.7398801 106.6160601  94.1302272  25.2342880 106.6395438
  93.5846190  23.8230769 106.5878168 103.0675979  17.1309554  95.9788556
 102.1801834  17.4159204  95.7608751 103.4829968  16.9703317  95.1315833
  91.0760229  31.7117305 101.0660001  90.9414697  30.9517706 100.4997999
  90.6592291  32.4358205 100.5988790 102.2119192  26.8954228  90.0736576
 102.9155042  27.1004231  90.6894232 101.4881841  27.4630990  90.3385660
 103.0417002  22.6464090  96.1938846 102.9852204  23.1032641  95.3546479
 103.5945345  21.8854774  96.0161689 106.8521808  18.4353821  97.0188966
 106.5958743  18.0350457  97.8497174 106.2274676  19.1497615  96.8939105
  94.2329355  32.6086622 101.2778444  94.1161739  33.5532054 101.1757134
  93.4121801  32.3060183 101.6664243 104.1205890  27.3336758  92.1235036
 104.9551494  26.9017956  91.9412511 103.9590233  27.1618771  93.0511931
 103.7751782  23.8368871  93.4891376 103.7200586  23.6713142  92.5479820
 103.1497837  24.5444904  93.6453565  88.5644297  19.0736935 107.3152798
  89.2103160  18.5635889 107.8040023  88.3561448  19.8105617 107.8896223
  97.0847907  13.3376980  93.0676694  97.0726577  14.2818820  93.2244965
  97.9771329  13.1547125  92.7736155  95.2583869  33.2614884 104.4934372
  96.1611116  33.2938494 104.8100867  95.0321239  32.3315335 104.5080708
  97.0137471  32.0145870 101.1544451  96.0633102  32.0147732 101.0408823
  97.3169957  31.2678605 100.6380485 112.7490165  37.8506409 102.2190213
 113.3868575  37.7313156 101.5153553 112.6311008  38.7987253 102.2778165
 109.5579871  37.8033837 102.1551738 109.2198383  37.6874901 101.2672273
 110.4269639  37.4025002 102.1352744 105.4166687  39.6569313  98.1448629
 104.8531552  39.5659250  97.3764916 105.3019082  38.8369218  98.6251121
 102.9631119  41.1520505 100.9832849 103.7552411  40.8111329 100.5679148
 103.2027769  41.2615480 101.9035002 110.9966245  43.3240281  93.4563094
 110.3454225  43.9094361  93.0697107 111.7910608  43.8546476  93.5158131
 104.9221873  40.4129418  93.8550228 105.6952749  39.8658405  93.7163104
 105.2747271  41.2773667  94.0664689 106.7606915  41.7405800 107.0617127
 106.4696781  42.6451431 106.9463793 107.3963899  41.7822328 107.7761197
 107.6863122  39.1182649 103.6518487 108.2826694  38.8938671 102.9375450
 107.7438094  38.3767394 104.2543935 107.2588150  36.5722084  91.4868678
 107.5113671  36.0503605  90.7252141 106.3212709  36.4088230  91.5895361
 112.3031433  35.5757862  99.2943421 113.0894522  35.1577286  98.9433838
 112.5670138  36.4803955  99.4625069 112.4741511  41.0130713  93.9932078
 111.8387344  41.0865339  94.7052982 112.1438917  41.6024312  93.3151157
 106.9784439  38.4750190  93.6893053 106.8620697  37.7995093  94.3574137
 107.0886699  37.9882564  92.8725206 109.3215980  37.9360337  97.3939742
 108.9574187  37.4090958  98.1052663 110.1783096  37.5458806  97.2206227
 108.9621467  32.9650237  92.3901090 109.1295869  33.8330473  92.7571562
 108.7718636  33.1277519  91.4662380 111.7196800  41.4267216 104.0566921
 111.4197523  42.3292255 103.9482728 111.3747860  41.1599399 104.9088074
 105.1709282  37.8781013 100.0903625 104.2459778  37.7457227 100.2981317
 105.4193695  38.6575232 100.5873568 108.9410688  35.4207894  93.3747757
 108.8210313  35.8664945  94.2133238 108.2463276  35.7693212  92.8161295
 102.5318093  37.5214286 100.9247414 102.6610474  37.7748765 101.8386826
 101.8515544  38.1141994 100.6052069 106.7017580  48.1911536  97.0237889
 106.6241610  49.1419361  97.1026369 106.0979224  47.8457409  97.6812815
 114.6395754  35.8929368  94.2028091 115.5513610  36.1256754  94.0275789
 114.1305401  36.4766412  93.6403170 113.2465336  40.8755186 101.5941673
 112.6174199  41.0400900 100.8917741 112.8590998  41.2896796 102.3652637
 117.1254568  41.8109624  98.9486037 116.4405606  42.1908525  98.3983070
 117.2098418  42.4204951  99.6817984 108.7993298  40.6129594  98.8591758
 109.2631644  40.8917297  98.0696380 108.5350096  39.7113039  98.6764849
 105.6917379  40.1601076 101.7971521 106.2618736  40.5888344 101.1589006
 106.2825491  39.8783660 102.4955707 107.7362184  36.7352746  95.6681323
 108.4386228  37.1873790  96.1355249 107.4042813  36.0936565  96.2961216
 101.4787518  34.9936299 100.9698457 100.6886572  35.2493828 100.4938567
 101.9698766  35.8084637 101.0750497 103.4302264  35.3580878  97.9281933
 102.6333427  35.4699573  98.4465429 103.2027856  35.6967531  97.0622824
 109.2607931  41.8825582 105.8764448 109.3252364  42.3445989 106.7122620
 108.5518855  41.2522947 106.0046758  99.7625221  35.2466790 103.4013447
 100.0133260  36.1313800 103.6671023 100.2984770  35.0671391 102.6288539
 108.9755949  43.5493689  95.7443428 108.8401624  44.3945225  96.1728276
 109.5165761  43.7512967  94.9809362 102.4285346  41.0669127  96.3171353
 102.9409867  41.8612377  96.4676918 103.0808059  40.3695418  96.2504955
 104.2380231  44.1834883  98.3994107 104.4146859  45.1052848  98.2115090
 105.0337065  43.8693303  98.8288486 103.5232588  36.2299515 108.2756270
 103.4086103  35.3284773 108.5763369 102.6677105  36.4763212 107.9241086
 105.3611546  45.7013057 104.4004449 105.9118972  45.5730121 103.6281443
 104.5223022  46.0007946 104.0499342 109.1578718  41.9664185 108.7448680
 109.6907054  41.2052473 108.5147988 108.6292799  41.6737837 109.4872834
 100.3934263  39.3957781  97.0930924 101.2309485  39.8054790  96.8764632
 100.5712531  38.4557224  97.0631118 112.2898695  37.0632862  92.7814757
 111.7745319  37.8337467  93.0203144 112.0176004  36.3897998  93.4047818
 109.8745806  31.9082563  97.8399995 109.0187403  31.5189413  97.6605634
 110.2872758  31.9874524  96.9799781 107.6487839  29.5267636 101.2457737
 108.5140836  29.3310445 100.8863626 107.7165348  29.2977988 102.1727093
 117.2632969  39.8165217  94.7167930 116.4862412  39.4776376  94.2723092
 117.9424450  39.8217840  94.0422895 112.0784998  34.9359954  94.6074538
 111.7735134  35.2506103  95.4584681 113.0315441  35.0141374  94.6501871
 110.5231430  41.0950178  96.2567492 109.9952792  40.3602937  95.9440729
 110.0218933  41.8724854  96.0107460 115.5024276  39.2899198 101.3734538
 114.8447951  39.9798459 101.4614667 116.3064675  39.6795630 101.7168525
 105.2550158  31.7569844  98.6174104 105.8293910  31.5345025  97.8847296
 105.8421140  31.8258538  99.3702705 114.3129735  37.6443571  99.4238480
 114.8261617  38.2773563  99.9260190 114.9630959  37.0444766  99.0581840
 105.5819745  33.7874305  92.6369989 104.7457057  34.1248991  92.9579264
 105.4424515  33.6523285  91.6997126 107.5572826  28.6311093  97.3449173
 106.9037238  28.3160110  96.7205788 107.5153300  28.0086833  98.0708996
 108.6684030  38.9130388  89.2602465 107.7611092  38.6819641  89.4593614
 109.1655062  38.1168007  89.4476447 111.5752109  47.6227895  92.1799151
 110.9013808  47.9259592  92.7884109 111.9617931  48.4256975  91.8304608
 110.7910566  35.1193026 101.6696821 109.8733127  35.3407973 101.5118509
 111.2070710  35.1939337 100.8108528 111.5745614  36.5184442  96.7999501
 112.3217433  37.0305839  96.4906623 111.8437203  36.1968495  97.6603894
 109.8472264  39.0142983  93.7826455 108.9383483  38.7302015  93.8798925
 109.8767348  39.4342061  92.9229762 115.0791531  42.6249572  97.5517623
 114.6253858  41.7840482  97.6082813 114.4485498  43.2610971  97.8892403
 114.0224451  33.5541558  98.7818290 113.2847208  33.0418944  99.1128533
 114.2751224  33.1141940  97.9701567 113.5224471  44.4626069  98.4867441
 113.8147445  45.0231126  97.7679806 114.0323091  44.7554630  99.2420600
 100.4160434  36.7348497  97.7641657 100.2184834  36.1417857  97.0392724
  99.8607098  36.4300707  98.4817596 108.3957158  36.6271603  99.8836251
 108.4505768  35.6745440  99.8078727 107.5848360  36.7831042 100.3677549
 109.5448352  40.5551726  91.1214534 109.1067782  39.8387585  90.6620171
 110.2858793  40.7827841  90.5599625 106.3349518  35.2448663  97.6426629
 105.5217383  35.5442834  98.0491822 106.8308512  34.8504352  98.3601112
 108.4858096  45.2406420  99.5760894 108.4434274  45.4667266  98.6469426
 109.4020795  45.0069794  99.7246695 117.6621466  38.8308923  97.1790852
 117.5239365  39.0210519  96.2512042 117.3057685  39.5928306  97.6358903
 105.8263593  32.8167019 103.2587864 106.4662972  32.6755778 102.5610828
 104.9941123  32.5301532 102.8826466 106.6023896  42.1169449  99.3722857
 107.3964495  41.6219769  99.1705432 105.8915589  41.5887312  99.0090562
 111.4218741  44.4987544 103.7235224 111.4755763  45.0678481 104.4912940
 110.5533522  44.6689429 103.3589262 102.9106660  36.2612531  95.4482609
 101.9804248  36.1996986  95.6652572 103.0064132  35.7388483  94.6519251
 102.8292209  32.7867343  98.0360851 103.0899026  33.7012677  97.9270012
 103.6509381  32.3191786  98.1857464 104.3017134  34.2005101 105.2059676
 104.9740188  33.9922463 104.5572325 103.4746921  34.0027187 104.7664908
 110.3806841  38.6647806 105.2822156 111.3098901  38.8158966 105.1091124
 109.9597871  38.7531827 104.4270803 109.1795172  42.6898471 103.0520694
 109.0406258  42.3217255 103.9246632 108.3909769  43.2046110 102.8804652
 109.7743324  47.7907567  94.3946230 109.9495080  47.3195611  95.2091853
 109.0876112  48.4173334  94.6227491 110.7300388  42.0680074 100.4409532
 110.3950220  42.0280844 101.3367182 110.2304333  41.4024790  99.9679942
 104.7044632  37.4747704 105.9662113 104.5664430  36.7427942 106.5673652
 105.6149555  37.3856604 105.6846301 113.6659579  39.4136108  90.7146591
 113.0488750  38.6882936  90.6179644 113.1976068  40.1745468  90.3713666
 107.3326932  37.1867663 105.4545792 108.0426551  36.5460855 105.4132411
 107.2896240  37.4380558 106.3771973 104.3404410  50.9396930 101.1686091
 104.5801008  51.5715454 101.8465109 103.4973606  50.5884970 101.4551450
 105.4558125  33.6321532  89.8367896 104.5787592  33.5110333  89.4730142
 105.9315878  32.8407611  89.5846784  96.9760265  38.4198692  99.9309403
  97.6631305  38.1060422  99.3430418  96.8208394  39.3240057  99.6576654
 101.7794987  33.3088889 104.3594426 101.6953176  32.7014558 103.6244836
 100.9577694  33.7997907 104.3603923 108.8532272  46.7476053 103.5727595
 108.7802443  47.5531024 104.0846899 108.4109665  46.9468018 102.7475616
 108.6422051  45.9847823  97.0830416 107.8589573  46.5269503  97.1768641
 109.3414796  46.5021802  97.4824657 111.9518701  31.7942452  99.7264621
 112.4487401  31.0412414  99.4065692 111.1805683  31.8306769  99.1607831
 111.3130955  46.6462887 105.7285753 112.0258927  47.2810351 105.6561655
 110.8220984  46.7426753 104.9125755 113.0348482  40.5514139  97.3003045
 112.1004761  40.6715602  97.1307749 113.2125150  39.6486606  97.0363055
 108.5353670  33.9359835  99.4536306 108.1651458  33.3830875 100.1417212
 109.0312763  33.3317969  98.9011306 116.4221033  36.3931459  97.8353079
 116.8881486  37.2259450  97.7613382 116.8728534  35.9276440  98.5398338
 106.3642869  44.3957330 106.5491324 107.0652328  45.0293813 106.7020718
 105.8937984  44.7372062 105.7886963 114.4897264  42.7375280  94.8339231
 114.7657108  42.6231874  95.7433105 113.6201763  42.3392765  94.7951404
 111.1251328  46.9861631  98.4772045 111.3073723  46.1683287  98.9399797
 111.9484315  47.2029323  98.0396935 111.4593494  45.9129816  95.7387093
 111.9881260  45.4022270  95.1257255 111.7221714  45.5972346  96.6032626
 101.9610587  43.9293685 103.4822427 102.5464024  43.1837373 103.6150331
 101.7635425  44.2397642 104.3659091 104.8149242  46.9644933  98.4984869
 104.1459617  47.4491060  98.0148909 104.6762112  47.2114153  99.4128248
  96.5528241  36.4999285 102.2026870  96.5912341  35.9662876 102.9963988
  96.0468534  35.9734491 101.5837847 108.9554511  48.9988676 105.0967527
 109.5072819  49.1620298 105.8616613 109.2960704  49.5893114 104.4247552
 103.9319004  31.3463826 105.6989412 103.9960330  32.2078657 105.2866810
 103.8686124  30.7337827 104.9661771 100.1836819  35.2263387  95.2780801
 100.4790260  34.3174066  95.2247855  99.2824855  35.2051127  94.9561804
 112.0922898  46.9470652 102.0831210 111.9674037  46.1460391 101.5742155
 112.7501989  47.4416845 101.5945180 103.7131066  33.3019384 101.2608350
 102.9917652  33.9155352 101.1215823 104.5024322  33.8377149 101.1824996
 114.1557806  44.7479672 103.7110760 113.2088142  44.6285023 103.6389086
 114.5040579  43.8602170 103.7937021 101.9124661  32.9077485  95.4020126
 101.5837367  32.0274864  95.2195232 102.2664031  32.8525154  96.2896516
 111.1604239  44.5432388  99.9115112 111.0129202  43.6149095 100.0922682
 111.9857733  44.5652479  99.4272187 105.0266484  33.1950455  95.7695604
 105.3662556  33.7236376  95.0474212 105.4738604  33.5330861  96.5454171
 114.7638361  45.3660947 100.9979985 115.6884909  45.1603808 100.8604436
 114.5953665  45.1177348 101.9069326 107.0134631  31.6925077  93.9688897
 107.7342993  32.0706329  93.4652614 106.3899935  32.4113953  94.0723875
 111.1565754  32.3970226  94.9047229 111.3729368  33.2794863  94.6036057
 110.6759821  32.0056439  94.1752871 105.8964975  35.3555939 101.4817974
 105.7509556  35.6696242 102.3742255 105.4190179  35.9740839 100.9288872
 107.7561358  32.3458487 101.5298863 107.7422927  31.4499580 101.1931161
 108.4733786  32.3529150 102.1637149 114.5533678  45.8846614  96.3542076
 114.7270555  45.3193037  95.6015929 115.0462569  46.6847509  96.1721566
 100.3710637  37.8961283 104.4205635  99.8264105  38.6721091 104.5525909
 101.2489987  38.2432088 104.2624756 107.1598254  31.2272867  96.7986433
 107.2814165  30.2989513  96.9977321 106.8700296  31.2411553  95.8864749
 110.0289444  28.9127777  99.9353153 110.0511141  28.9767111  98.9805133
 110.4457503  28.0732286 100.1293659 120.4073069  38.6483037  97.9732376
 120.8504215  37.8990362  97.5751499 119.5299579  38.6393173  97.5906108
 115.5408850  45.2013378  93.4538974 116.2359755  45.8220071  93.6726289
 115.8832000  44.3508730  93.7291352 101.1576659  37.0231179 107.3135792
 100.4158395  37.1713815 107.9000422 100.8369403  37.2839445 106.4502541
 117.4400273  42.6513084  94.9826305 117.9651597  42.9900357  94.2575625
 117.3522626  41.7160099  94.7989440 109.1020322  46.5647158 107.1116182
 109.4107448  46.3196304 107.9838881 109.8995804  46.7693796 106.6235052
 109.1240934  48.7185067  99.3421558 108.6845924  48.2261446 100.0354415
 109.8749051  48.1758035  99.1013634 101.6033273  44.9096608  99.3446186
 102.4291293  44.6100380  98.9644830 101.2527325  44.1404231  99.7935975
 106.5714806  44.2623076 101.4143860 105.9494815  43.5993781 101.1146088
 107.2419673  44.2884208 100.7317508  99.8041878  42.8282935 100.3035120
  98.9673786  42.4005109 100.1219121  99.7765523  43.0215378 101.2405911
 106.1328313  42.8127000  94.8902321 106.2816433  43.4962464  94.2368993
 106.9394756  42.7932090  95.4051776 103.8880946  38.8392177  95.8963389
 103.6426988  37.9354507  96.0943600 104.0576860  38.8409328  94.9542867
 103.1576593  34.5720535  93.3949551 102.4645838  34.6464890  92.7389587
 102.9128345  33.8080879  93.9171068 109.6323718  45.3075130  92.3614068
 109.0597686  45.9265317  91.9084540 110.2056512  45.8574492  92.8953990
 112.8520978  45.5912280  93.4922650 113.7851651  45.5257842  93.6955526
 112.7644191  46.4268547  93.0337183 115.4808995  44.9078151  90.4526598
 115.4022626  44.5738014  91.3462356 116.3018662  45.3999919  90.4518070
 110.0170517  36.6435943  89.7030120 110.9629622  36.5142151  89.7718539
 109.6384762  35.9050605  90.1799549 108.2013434  34.5685919  89.6385006
 107.2944890  34.2719032  89.7147719 108.4789415  34.2715737  88.7719292
  99.1191375  35.8892283 100.0884052  98.7994159  35.0357591  99.7958426
  98.5724803  36.1040861 100.8442019 102.8971282  38.6054724 103.8053559
 103.1157292  39.5371831 103.8241592 103.3097056  38.2462698 104.5908362
 109.8175500  29.1122809  95.7929247 109.0076228  28.7669894  96.1684493
 110.5059917  28.8030353  96.3816859 111.7466048  28.1900856  97.4153544
 112.2997087  28.6096309  98.0743567 111.9836134  27.2636604  97.4576500
 106.9712219  31.4272854  89.7796985 107.8331383  31.7527753  90.0392802
 107.1562563  30.6404350  89.2670051  98.9879635  39.5095194 102.0577174
  98.2943106  39.0949147 101.5447128  99.7352626  39.5515731 101.4610593
 115.1244855  30.3001381  96.9232208 114.5443524  30.9586185  96.5410260
 114.8580788  29.4778726  96.5119625 100.9016377  39.4413448  99.9343189
 100.8787065  39.5401135  98.9825072 101.2117014  40.2878599 100.2560355
 103.5603755  41.4989603 104.0489803 104.5147008  41.4673545 103.9819735
 103.3616278  41.0380227 104.8640029 104.1503137  40.0690719 106.6160601
 104.9696026  40.5634798 106.6395438 104.4239945  39.1522687 106.5878168
 113.9069733  32.4601471  95.9788556 113.0195588  32.7451122  95.7608751
 114.3223722  32.2995235  95.1315833 101.9153984  47.0409222 101.0660001
 101.7808452  46.2809623 100.4997999 101.4986046  47.7650122 100.5988790
 113.0512947  42.2246146  90.0736576 113.7548797  42.4296149  90.6894232
 112.3275595  42.7922908  90.3385660 113.8810757  37.9756007  96.1938846
 113.8245958  38.4324559  95.3546479 114.4339099  37.2146692  96.0161689
 117.6915563  33.7645739  97.0188966 117.4352497  33.3642375  97.8497174
 117.0668431  34.4789533  96.8939105 105.0723110  47.9378540 101.2778444
 104.9555494  48.8823972 101.1757134 104.2515556  47.6352101 101.6664243
 114.9599644  42.6628675  92.1235036 115.7945248  42.2309874  91.9412511
 114.7983987  42.4910689  93.0511931 114.6145536  39.1660789  93.4891376
 114.5594340  39.0005060  92.5479820 113.9891592  39.8736821  93.6453565
  99.4038051  34.4028853 107.3152798 100.0496915  33.8927807 107.8040023
  99.1955202  35.1397535 107.8896223 107.9241662  28.6668898  93.0676694
 107.9120332  29.6110737  93.2244965 108.8165084  28.4839043  92.7736155
 106.0977624  48.5906801 104.4934372 107.0004870  48.6230412 104.8100867
 105.8714994  47.6607252 104.5080708 107.8531226  47.3437788 101.1544451
 106.9026857  47.3439650 101.0408823 108.1563712  46.5970523 100.6380485
 120.3973625  53.1325754 102.1551738 120.0592137  53.0166819 101.2672273
 121.2663394  52.7316920 102.1352744 116.2560441  54.9861231  98.1448629
 115.6925306  54.8951168  97.3764916 116.1412836  54.1661135  98.6251121
 113.8024873  56.4812422 100.9832849 114.5946165  56.1403247 100.5679148
 114.0421523  56.5907397 101.9035002 115.7615627  55.7421336  93.8550228
 116.5346503  55.1950323  93.7163104 116.1141026  56.6065585  94.0664689
 117.6000670  57.0697718 107.0617127 117.3090536  57.9743349 106.9463793
 118.2357654  57.1114246 107.7761197 118.5256876  54.4474566 103.6518487
 119.1220449  54.2230589 102.9375450 118.5831848  53.7059312 104.2543935
 118.0981905  51.9014002  91.4868678 118.3507426  51.3795523  90.7252141
 117.1606464  51.7380147  91.5895361 117.8178194  53.8042108  93.6893053
 117.7014452  53.1287011  94.3574137 117.9280454  53.3174482  92.8725206
 120.1609735  53.2652255  97.3939742 119.7967942  52.7382876  98.1052663
 121.0176850  52.8750724  97.2206227 119.8015222  48.2942155  92.3901090
 119.9689624  49.1622391  92.7571562 119.6112391  48.4569436  91.4662380
 116.0103036  53.2072930 100.0903625 115.0853533  53.0749144 100.2981317
 116.2587449  53.9867150 100.5873568 119.7804442  50.7499812  93.3747757
 119.6604068  51.1956863  94.2133238 119.0857031  51.0985130  92.8161295
 113.3711847  52.8506204 100.9247414 113.5004228  53.1040683 101.8386826
 112.6909299  53.4433912 100.6052069 117.5411335  63.5203454  97.0237889
 117.4635364  64.4711279  97.1026369 116.9372978  63.1749326  97.6812815
 119.6387053  55.9421512  98.8591758 120.1025398  56.2209215  98.0696380
 119.3743851  55.0404956  98.6764849 116.5311134  55.4892993 101.7971521
 117.1012491  55.9180262 101.1589006 117.1219246  55.2075578 102.4955707
 118.5755939  52.0644664  95.6681323 119.2779982  52.5165708  96.1355249
 118.2436567  51.4228483  96.2961216 112.3181273  50.3228217 100.9698457
 111.5280327  50.5785745 100.4938567 112.8092520  51.1376555 101.0750497
 114.2696018  50.6872796  97.9281933 113.4727181  50.7991490  98.4465429
 114.0421610  51.0259448  97.0622824 120.1001686  57.2117499 105.8764448
 120.1646118  57.6737907 106.7122620 119.3912610  56.5814864 106.0046758
 110.6018976  50.5758707 103.4013447 110.8527014  51.4605717 103.6671023
 111.1378524  50.3963309 102.6288539 119.8149703  58.8785607  95.7443428
 119.6795378  59.7237143  96.1728276 120.3559516  59.0804884  94.9809362
 113.2679101  56.3961045  96.3171353 113.7803621  57.1904295  96.4676918
 113.9201814  55.6987335  96.2504955 115.0773986  59.5126801  98.3994107
 115.2540614  60.4344766  98.2115090 115.8730819  59.1985220  98.8288486
 114.3626342  51.5591433 108.2756270 114.2479857  50.6576690 108.5763369
 113.5070860  51.8055130 107.9241086 116.2005301  61.0304975 104.4004449
 116.7512726  60.9022038 103.6281443 115.3616777  61.3299864 104.0499342
 119.9972472  57.2956103 108.7448680 120.5300809  56.5344391 108.5147988
 119.4686553  57.0029755 109.4872834 111.2328018  54.7249699  97.0930924
 112.0703240  55.1346707  96.8764632 111.4106285  53.7849141  97.0631118
 120.7139561  47.2374481  97.8399995 119.8581157  46.8481331  97.6605634
 121.1266513  47.3166441  96.9799781 118.4881593  44.8559554 101.2457737
 119.3534590  44.6602362 100.8863626 118.5559102  44.6269905 102.1727093
 121.3625185  56.4242095  96.2567492 120.8346546  55.6894855  95.9440729
 120.8612687  57.2016772  96.0107460 116.0943912  47.0861761  98.6174104
 116.6687664  46.8636943  97.8847296 116.6814895  47.1550456  99.3702705
 116.4213499  49.1166222  92.6369989 115.5850812  49.4540909  92.9579264
 116.2818269  48.9815202  91.6997126 118.3966580  43.9603010  97.3449173
 117.7430992  43.6452028  96.7205788 118.3547054  43.3378751  98.0708996
 119.5077785  54.2422305  89.2602465 118.6004847  54.0111559  89.4593614
 120.0048817  53.4459925  89.4476447 120.6866018  54.3434900  93.7826455
 119.7777238  54.0593933  93.8798925 120.7161102  54.7633979  92.9229762
 111.2554189  52.0640414  97.7641657 111.0578589  51.4709775  97.0392724
 110.7000853  51.7592625  98.4817596 119.2350912  51.9563521  99.8836251
 119.2899522  51.0037357  99.8078727 118.4242114  52.1122960 100.3677549
 120.3842106  55.8843644  91.1214534 119.9461536  55.1679503  90.6620171
 121.1252547  56.1119759  90.5599625 117.1743272  50.5740581  97.6426629
 116.3611138  50.8734751  98.0491822 117.6702266  50.1796269  98.3601112
 119.3251850  60.5698338  99.5760894 119.2828029  60.7959184  98.6469426
 120.2414549  60.3361712  99.7246695 116.6657347  48.1458936 103.2587864
 117.3056726  48.0047695 102.5610828 115.8334878  47.8593450 102.8826466
 117.4417651  57.4461367  99.3722857 118.2358249  56.9511687  99.1705432
 116.7309343  56.9179230  99.0090562 113.7500414  51.5904448  95.4482609
 112.8198003  51.5288904  95.6652572 113.8457886  51.0680401  94.6519251
 113.6685963  48.1159261  98.0360851 113.9292781  49.0304594  97.9270012
 114.4903136  47.6483704  98.1857464 115.1410889  49.5297018 105.2059676
 115.8133942  49.3214380 104.5572325 114.3140675  49.3319104 104.7664908
 120.0188927  58.0190389 103.0520694 119.8800013  57.6509173 103.9246632
 119.2303523  58.5338028 102.8804652 120.6137079  63.1199485  94.3946230
 120.7888835  62.6487528  95.2091853 119.9269867  63.7465251  94.6227491
 121.5694142  57.3971991 100.4409532 121.2343975  57.3572761 101.3367182
 121.0698088  56.7316707  99.9679942 115.5438386  52.8039621 105.9662113
 115.4058184  52.0719860 106.5673652 116.4543310  52.7148521 105.6846301
 118.1720687  52.5159581 105.4545792 118.8820305  51.8752773 105.4132411
 118.1289995  52.7672475 106.3771973 115.1798164  66.2688848 101.1686091
 115.4194762  66.9007372 101.8465109 114.3367361  65.9176888 101.4551450
 116.2951880  48.9613450  89.8367896 115.4181346  48.8402251  89.4730142
 116.7709633  48.1699528  89.5846784 107.8154020  53.7490610  99.9309403
 108.5025060  53.4352340  99.3430418 107.6602148  54.6531974  99.6576654
 112.6188742  48.6380806 104.3594426 112.5346931  48.0306476 103.6244836
 111.7971448  49.1289825 104.3603923 119.6926026  62.0767970 103.5727595
 119.6196198  62.8822942 104.0846899 119.2503419  62.2759936 102.7475616
 119.4815806  61.3139740  97.0830416 118.6983328  61.8561420  97.1768641
 120.1808551  61.8313720  97.4824657 119.3747425  49.2651753  99.4536306
 119.0045212  48.7122793 100.1417212 119.8706517  48.6609886  98.9011306
 117.2036623  59.7249248 106.5491324 117.9046083  60.3585731 106.7020718
 116.7331738  60.0663979 105.7886963 112.8004341  59.2585603 103.4822427
 113.3857778  58.5129291 103.6150331 112.6029180  59.5689560 104.3659091
 115.6542996  62.2936850  98.4984869 114.9853372  62.7782978  98.0148909
 115.5155866  62.5406071  99.4128248 107.3921996  51.8291203 102.2026870
 107.4306095  51.2954794 102.9963988 106.8862289  51.3026409 101.5837847
 119.7948265  64.3280594 105.0967527 120.3466573  64.4912215 105.8616613
 120.1354458  64.9185032 104.4247552 114.7712758  46.6755744 105.6989412
 114.8354085  47.5370574 105.2866810 114.7079878  46.0629745 104.9661771
 111.0230574  50.5555305  95.2780801 111.3184015  49.6465984  95.2247855
 110.1218609  50.5343045  94.9561804 114.5524821  48.6311302 101.2608350
 113.8311406  49.2447269 101.1215823 115.3418076  49.1669067 101.1824996
 112.7518415  48.2369403  95.4020126 112.4231121  47.3566782  95.2195232
 113.1057786  48.1817072  96.2896516 115.8660238  48.5242373  95.7695604
 116.2056311  49.0528294  95.0474212 116.3132359  48.8622779  96.5454171
 117.8528385  47.0216994  93.9688897 118.5736748  47.3998247  93.4652614
 117.2293690  47.7405871  94.0723875 116.7358730  50.6847856 101.4817974
 116.5903310  50.9988159 102.3742255 116.2583933  51.3032757 100.9288872
 118.5955113  47.6750404 101.5298863 118.5816681  46.7791498 101.1931161
 119.3127541  47.6821068 102.1637149 111.2104392  53.2253201 104.4205635
 110.6657860  54.0013009 104.5525909 112.0883742  53.5724005 104.2624756
 117.9992008  46.5564785  96.7986433 118.1207920  45.6281431  96.9977321
 117.7094051  46.5703471  95.8864749 120.8683199  44.2419695  99.9353153
 120.8904896  44.3059028  98.9805133 121.2851258  43.4024204 100.1293659
 111.9970414  52.3523097 107.3135792 111.2552150  52.5005732 107.9000422
 111.6763158  52.6131363 106.4502541 119.9414076  61.8939075 107.1116182
 120.2501203  61.6488222 107.9838881 120.7389558  62.0985714 106.6235052
 119.9634688  64.0476985  99.3421558 119.5239679  63.5553364 100.0354415
 120.7142805  63.5049953  99.1013634 112.4427027  60.2388526  99.3446186
 113.2685047  59.9392298  98.9644830 112.0921079  59.4696148  99.7935975
 117.4108561  59.5914994 101.4143860 116.7888570  58.9285699 101.1146088
 118.0813427  59.6176126 100.7317508 110.6435632  58.1574852 100.3035120
 109.8067541  57.7297027 100.1219121 110.6159278  58.3507296 101.2405911
 116.9722067  58.1418917  94.8902321 117.1210188  58.8254382  94.2368993
 117.7788511  58.1224007  95.4051776 114.7274700  54.1684095  95.8963389
 114.4820742  53.2646425  96.0943600 114.8970615  54.1701245  94.9542867
 113.9970348  49.9012453  93.3949551 113.3039593  49.9756808  92.7389587
 113.7522100  49.1372796  93.9171068 120.4717473  60.6367048  92.3614068
 119.8991440  61.2557235  91.9084540 121.0450267  61.1866410  92.8953990
 119.0407189  49.8977837  89.6385006 118.1338644  49.6010950  89.7147719
 119.3183170  49.6007655  88.7719292 109.9585129  51.2184200 100.0884052
 109.6387913  50.3649509  99.7958426 109.4118557  51.4332779 100.8442019
 113.7365037  53.9346641 103.8053559 113.9551046  54.8663749 103.8241592
 114.1490810  53.5754616 104.5908362 120.6569254  44.4414727  95.7929247
 119.8469983  44.0961812  96.1684493 121.3453671  44.1322270  96.3816859
 117.8105973  46.7564772  89.7796985 118.6725137  47.0819670  90.0392802
 117.9956317  45.9696268  89.2670051 109.8273389  54.8387112 102.0577174
 109.1336860  54.4241065 101.5447128 110.5746380  54.8807648 101.4610593
 111.7410132  54.7705366  99.9343189 111.7180820  54.8693053  98.9825072
 112.0510768  55.6170516 100.2560355 114.3997509  56.8281521 104.0489803
 115.3540763  56.7965463 103.9819735 114.2010033  56.3672144 104.8640029
 114.9896892  55.3982637 106.6160601 115.8089781  55.8926715 106.6395438
 115.2633699  54.4814605 106.5878168 112.7547738  62.3701140 101.0660001
 112.6202206  61.6101541 100.4997999 112.3379800  63.0942040 100.5988790
 115.9116864  63.2670457 101.2778444 115.7949248  64.2115890 101.1757134
 115.0909310  62.9644019 101.6664243 110.2431806  49.7320771 107.3152798
 110.8890669  49.2219725 107.8040023 110.0348957  50.4689452 107.8896223
 118.7635416  43.9960815  93.0676694 118.7514086  44.9402655  93.2244965
 119.6558838  43.8130961  92.7736155 116.9371378  63.9198719 104.4934372
 117.8398625  63.9522329 104.8100867 116.7108748  62.9899170 104.5080708
 118.6924980  62.6729706 101.1544451 117.7420611  62.6731567 101.0408823
 118.9957466  61.9262440 100.6380485 118.6547774  69.0782527  99.9309403
 119.3418814  68.7644257  99.3430418 118.4995903  69.9823892  99.6576654
 118.2315750  67.1583121 102.2026870 118.2699850  66.6246711 102.9963988
 117.7256043  66.6318326 101.5837847 121.4829387  73.4866770 100.3035120
 120.6461295  73.0588944 100.1219121 121.4553032  73.6799213 101.2405911
 120.7978883  66.5476118 100.0884052 120.4781668  65.6941426  99.7958426
 120.2512312  66.7624696 100.8442019 120.6667143  70.1679030 102.0577174
 119.9730615  69.7532982 101.5447128 121.4140134  70.2099566 101.4610593
  95.8623827   9.8681741  83.7483195  95.7847856  10.8189566  83.8271676
  95.2585470   9.5227614  84.4058121  93.5010656  12.6167135  87.8931397
  93.7407255  13.2485659  88.5710416  92.6579853  12.2655175  88.1796756
  93.9755489   8.6415137  85.2230176  93.3065864   9.1261265  84.7394216
  93.8368358   8.8884358  86.1373554  98.1160757  10.6758881  91.8212834
  98.6679065  10.8390502  92.5861919  98.4566951  11.2663319  91.1492859
  91.0760230   8.7179427  87.7905308  90.9414698   7.9579828  87.2243306
  90.6592293   9.4420327  87.3234096  94.2329356   9.6148744  88.0023750
  94.1161740  10.5594177  87.9002440  93.4121803   9.3122306  88.3909549
  95.2583870  10.2677006  91.2179679  96.1611117  10.3000617  91.5346174
  95.0321241   9.3377457  91.2326014 109.5579872  14.8095959  88.8797044
 109.2198384  14.6937024  87.9917579 110.4269640  14.4087124  88.8598050
 105.4166688  16.6631436  84.8693935 104.8531553  16.5721373  84.1010223
 105.3019083  15.8431340  85.3496428 102.9631120  18.1582627  87.7078156
 103.7552412  17.8173452  87.2924455 103.2027770  18.2677602  88.6280309
 110.9966247  20.3302403  80.1808400 110.3454226  20.9156484  79.7942414
 111.7910609  20.8608598  80.2403438 104.9221874  17.4191541  80.5795535
 105.6952750  16.8720528  80.4408410 105.2747273  18.2835790  80.7909996
 106.7606916  18.7467923  93.7862434 106.4696782  19.6513554  93.6709100
 107.3963901  18.7884450  94.5006503 107.6863123  16.1244771  90.3763793
 108.2826695  15.9000794  89.6620756 107.7438095  15.3829517  90.9789241
 112.4741512  18.0192835  80.7177384 111.8387345  18.0927462  81.4298289
 112.1438918  18.6086434  80.0396464 106.9784440  15.4812313  80.4138359
 106.8620698  14.8057216  81.0819444 107.0886700  14.9944687  79.5970512
 109.3215981  14.9422460  84.1185049 108.9574189  14.4153081  84.8297970
 110.1783097  14.5520929  83.9451534 111.7196801  18.4329338  90.7812227
 111.4197525  19.3354377  90.6728035 111.3747861  18.1661522  91.6333380
 105.1709283  14.8843135  86.8148932 104.2459779  14.7519349  87.0226624
 105.4193696  15.6637354  87.3118874 102.5318094  14.5276409  87.6492721
 102.6610475  14.7810888  88.5632133 101.8515545  15.1204117  87.3297376
 106.7017581  25.1973659  83.7483195 106.6241611  26.1481484  83.8271676
 106.0979225  24.8519531  84.4058121 113.2465338  17.8817309  88.3186979
 112.6174200  18.0463023  87.6163047 112.8591000  18.2958918  89.0897943
 117.1254570  18.8171746  85.6731343 116.4405608  19.1970648  85.1228377
 117.2098419  19.4267073  86.4063291 108.7993300  17.6191717  85.5837065
 109.2631645  17.8979420  84.7941687 108.5350098  16.7175161  85.4010155
 105.6917381  17.1663198  88.5216828 106.2618738  17.5950467  87.8834312
 106.2825492  16.8845783  89.2201013 101.4787520  11.9998422  87.6943763
 100.6886574  12.2555950  87.2183874 101.9698767  12.8146760  87.7995804
 103.4302265  12.3643001  84.6527240 102.6333428  12.4761695  85.1710736
 103.2027857  12.7029653  83.7868130 109.2607933  18.8887704  92.6009755
 109.3252365  19.3508111  93.4367926 108.5518856  18.2585069  92.7292064
  99.7625223  12.2528912  90.1258754 100.0133261  13.1375922  90.3916330
 100.2984771  12.0733514  89.3533846 108.9755950  20.5555812  82.4688735
 108.8401625  21.4007347  82.8973583 109.5165763  20.7575089  81.7054669
 102.4285348  18.0731250  83.0416660 102.9409868  18.8674500  83.1922225
 103.0808060  17.3757540  82.9750261 104.2380232  21.1897006  85.1239413
 104.4146861  22.1114971  84.9360397 105.0337066  20.8755425  85.5533793
 103.5232589  13.2361638  95.0001576 103.4086104  12.3346895  95.3008675
 102.6677107  13.4825335  94.6486393 105.3611548  22.7075180  91.1249756
 105.9118973  22.5792243  90.3526749 104.5223024  23.0070069  90.7744648
 109.1578719  18.9726308  95.4693987 109.6907056  18.2114596  95.2393295
 108.6292800  18.6799959  96.2118141 100.3934264  16.4019904  83.8176231
 101.2309486  16.8116912  83.6009938 100.5712532  15.4619346  83.7876424
 110.5231431  18.1012300  82.9812799 109.9952793  17.3665060  82.6686036
 110.0218934  18.8786976  82.7352767 115.5024278  16.2961321  88.0979845
 114.8447952  16.9860582  88.1859974 116.3064677  16.6857753  88.4413831
 108.6684032  15.9192510  75.9847772 107.7611093  15.6881764  76.1838921
 109.1655064  15.1230130  76.1721753 111.5752111  24.6290018  78.9044458
 110.9013809  24.9321714  79.5129416 111.9617933  25.4319098  78.5549915
 109.8472265  16.0205105  80.5071762 108.9383484  15.7364138  80.6044232
 109.8767349  16.4404184  79.6475069 115.0791533  19.6311695  84.2762929
 114.6253860  18.7902605  84.3328120 114.4485499  20.2673093  84.6137709
 113.5224472  21.4688191  85.2112747 113.8147446  22.0293249  84.4925113
 114.0323092  21.7616752  85.9665907 100.4160435  13.7410619  84.4886964
 100.2184835  13.1479980  83.7638031  99.8607099  13.4362830  85.2062903
 109.5448353  17.5613849  77.8459840 109.1067783  16.8449708  77.3865478
 110.2858794  17.7889964  77.2844932 108.4858097  22.2468543  86.3006201
 108.4434276  22.4729389  85.3714733 109.4020796  22.0131917  86.4492002
 106.6023898  19.1231572  86.0968163 107.3964496  18.6281892  85.8950738
 105.8915590  18.5949435  85.7335869 111.4218742  21.5049667  90.4480531
 111.4755764  22.0740603  91.2158247 110.5533524  21.6751552  90.0834568
 102.9106661  13.2674653  82.1727916 101.9804249  13.2059109  82.3897878
 103.0064133  12.7450606  81.3764557 110.3806842  15.6709929  92.0067463
 111.3098902  15.8221089  91.8336430 109.9597872  15.7593950  91.1516109
 109.1795174  19.6960594  89.7766001 109.0406259  19.3279378  90.6491939
 108.3909770  20.2108233  89.6049958 109.7743326  24.7969690  81.1191537
 109.9495081  24.3257733  81.9337160 109.0876114  25.4235456  81.3472798
 110.7300389  19.0742196  87.1654838 110.3950221  19.0342966  88.0612488
 110.2304335  18.4086912  86.6925249 104.7044633  14.4809826  92.6907419
 104.5664431  13.7490065  93.2918958 105.6149556  14.3918726  92.4091607
 113.6659581  16.4198231  77.4391898 113.0488751  15.6945059  77.3424951
 113.1976069  17.1807591  77.0958972 107.3326934  14.1929786  92.1791099
 108.0426552  13.5522978  92.1377718 107.2896242  14.4442680  93.1017280
 104.3404411  27.9459053  87.8931397 104.5801009  28.5777577  88.5710416
 103.4973607  27.5947093  88.1796756  96.9760267  15.4260815  86.6554709
  97.6631306  15.1122545  86.0675725  96.8208395  16.3302179  86.3821961
 108.8532273  23.7538175  90.2972901 108.7802444  24.5593147  90.8092206
 108.4109666  23.9530141  89.4720923 108.6422052  22.9909945  83.8075723
 107.8589574  23.5331625  83.9013947 109.3414798  23.5083925  84.2069964
 111.3130956  23.6525009  92.4531060 112.0258929  24.2872474  92.3806961
 110.8220985  23.7488875  91.6371062 113.0348483  17.5576262  84.0248352
 112.1004762  17.6777724  83.8553056 113.2125152  16.6548729  83.7608361
 106.3642870  21.4019453  93.2736631 107.0652329  22.0355936  93.4266025
 105.8937985  21.7434184  92.5132270 114.4897266  19.7437402  81.5584538
 114.7657110  19.6293997  82.4678412 113.6201764  19.3454887  81.5196711
 111.1251330  23.9923753  85.2017351 111.3073724  23.1745409  85.6645104
 111.9484316  24.2091446  84.7642241 111.4593495  22.9191938  82.4632400
 111.9881262  22.4084393  81.8502562 111.7221715  22.6034469  83.3277933
 101.9610588  20.9355808  90.2067733 102.5464025  20.1899496  90.3395638
 101.7635426  21.2459764  91.0904397 104.8149243  23.9707055  85.2230176
 104.1459618  24.4553183  84.7394216 104.6762113  24.2176276  86.1373554
  96.5528243  13.5061408  88.9272177  96.5912342  12.9724999  89.7209295
  96.0468536  12.9796613  88.3083154 108.9554512  26.0050799  91.8212834
 109.5072820  26.1682420  92.5861919 109.2960705  26.5955236  91.1492859
 100.1836820  12.2325510  82.0026108 100.4790261  11.3236189  81.9493162
  99.2824856  12.2113250  81.6807110 112.0922899  23.9532774  88.8076516
 111.9674039  23.1522514  88.2987462 112.7501990  24.4478968  88.3190486
 114.1557807  21.7541794  90.4356066 113.2088143  21.6347145  90.3634393
 114.5040581  20.8664292  90.5182328 111.1604241  21.5494510  86.6360419
 111.0129203  20.6211218  86.8167989 111.9857734  21.5714601  86.1517494
 114.7638363  22.3723069  87.7225291 115.6884910  22.1665931  87.5849742
 114.5953666  22.1239470  88.6314633 114.5533679  22.8908737  83.0787383
 114.7270556  22.3255159  82.3261235 115.0462570  23.6909632  82.8966873
 100.3710639  14.9023406  91.1450942  99.8264107  15.6783214  91.2771216
 101.2489988  15.2494210  90.9870063 115.5408851  22.2075501  80.1784281
 116.2359756  22.8282194  80.3971596 115.8832001  21.3570852  80.4536659
 101.1576660  14.0293302  94.0381098 100.4158396  14.1775937  94.6245729
 100.8369405  14.2901568  93.1747848 117.4400274  19.6575207  81.7071612
 117.9651598  19.9962479  80.9820932 117.3522627  18.7222222  81.5234746
 109.1020323  23.5709280  93.8361488 109.4107450  23.3258427  94.7084188
 109.8995805  23.7755919  93.3480359 109.1240935  25.7247190  86.0666865
 108.6845925  25.2323569  86.7599722 109.8749052  25.1820158  85.8258940
 101.6033274  21.9158731  86.0691493 102.4291294  21.6162503  85.6890137
 101.2527326  21.1466353  86.5181282 106.5714807  21.2685199  88.1389167
 105.9494817  20.6055904  87.8391395 107.2419674  21.2946331  87.4562814
  99.8041879  19.8345057  87.0280427  98.9673787  19.4067232  86.8464428
  99.7765525  20.0277501  87.9651218 106.1328314  19.8189122  81.6147627
 106.2816435  20.5024587  80.9614300 106.9394758  19.7994212  82.1297083
 103.8880947  15.8454300  82.6208696 103.6426989  14.9416630  82.8188906
 104.0576862  15.8471450  81.6788174 109.6323720  22.3137253  79.0859375
 109.0597687  22.9327440  78.6329847 110.2056513  22.8636614  79.6199297
 112.8520980  22.5974403  80.2167957 113.7851653  22.5319965  80.4200832
 112.7644192  23.4330670  79.7582490 115.4808996  21.9140273  77.1771904
 115.4022628  21.5800137  78.0707662 116.3018663  22.4062041  77.1763377
  99.1191376  12.8954405  86.8129359  98.7994160  12.0419713  86.5203733
  98.5724804  13.1102983  87.5687326 102.8971283  15.6116846  90.5298865
 103.1157293  16.5433954  90.5486899 103.3097057  15.2524821  91.3153669
  98.9879636  16.5157317  88.7822480  98.2943107  16.1011270  88.2692435
  99.7352627  16.5577853  88.1855899 100.9016378  16.4475571  86.6588495
 100.8787066  16.5463258  85.7070378 101.2117015  17.2940721  86.9805661
 103.5603756  18.5051726  90.7735110 104.5147010  18.4735668  90.7065041
 103.3616280  18.0442349  91.5885336 104.1503138  17.0752842  93.3405907
 104.9696027  17.5696920  93.3640745 104.4239946  16.1584810  93.3123475
 101.9153985  24.0471345  87.7905308 101.7808453  23.2871746  87.2243306
 101.4986047  24.7712245  87.3234096 113.0512948  19.2308269  76.7981883
 113.7548798  19.4358271  77.4139538 112.3275597  19.7985031  77.0630966
 105.0723111  24.9440662  88.0023750 104.9555495  25.8886095  87.9002440
 104.2515557  24.6414224  88.3909549 114.9599645  19.6690798  78.8480343
 115.7945249  19.2371996  78.6657818 114.7983988  19.4972811  79.7757237
 114.6145538  16.1722911  80.2136682 114.5594341  16.0067183  79.2725126
 113.9891593  16.8798944  80.3698872  99.4038053  11.4090975  94.0398104
 100.0496916  10.8989929  94.5285330  99.1955204  12.1459657  94.6141530
 106.0977625  25.5968924  91.2179679 107.0004872  25.6292534  91.5346174
 105.8714995  24.6669375  91.2326014 107.8531227  24.3499911  87.8789757
 106.9026858  24.3501772  87.7654129 108.1563713  23.6032645  87.3625792
 120.3973627  30.1387877  88.8797044 120.0592138  30.0228942  87.9917579
 121.2663395  29.7379042  88.8598050 116.2560442  31.9923353  84.8693935
 115.6925308  31.9013290  84.1010223 116.1412837  31.1723258  85.3496428
 113.8024874  33.4874545  87.7078156 114.5946166  33.1465370  87.2924455
 114.0421525  33.5969520  88.6280309 115.7615628  32.7483458  80.5795535
 116.5346504  32.2012445  80.4408410 116.1141027  33.6127708  80.7909996
 117.6000671  34.0759841  93.7862434 117.3090537  34.9805471  93.6709100
 118.2357655  34.1176368  94.5006503 118.5256878  31.4536689  90.3763793
 119.1220450  31.2292711  89.6620756 118.5831849  30.7121435  90.9789241
 118.0981906  28.9076124  78.2113984 118.3507427  28.3857646  77.4497447
 117.1606465  28.7442270  78.3140668 117.8178195  30.8104230  80.4138359
 117.7014453  30.1349134  81.0819444 117.9280455  30.3236604  79.5970512
 120.1609736  30.2714377  84.1185049 119.7967943  29.7444998  84.8297970
 121.0176852  29.8812847  83.9451534 119.8015223  25.3004277  79.1146397
 119.9689625  26.1684514  79.4816868 119.6112392  25.4631559  78.1907686
 116.0103037  30.2135053  86.8148932 115.0853534  30.0811267  87.0226624
 116.2587451  30.9929272  87.3118874 119.7804444  27.7561935  80.0993064
 119.6604069  28.2018985  80.9378544 119.0857032  28.1047252  79.5406602
 113.3711848  29.8568326  87.6492721 113.5004230  30.1102805  88.5632133
 112.6909300  30.4496034  87.3297376 117.5411336  40.5265576  83.7483195
 117.4635365  41.4773402  83.8271676 116.9372979  40.1811449  84.4058121
 119.6387054  32.9483634  85.5837065 120.1025400  33.2271337  84.7941687
 119.3743852  32.0467079  85.4010155 116.5311135  32.4955116  88.5216828
 117.1012492  32.9242384  87.8834312 117.1219247  32.2137701  89.2201013
 118.5755940  29.0706787  82.3926630 119.2779983  29.5227830  82.8600556
 118.2436569  28.4290606  83.0206523 112.3181274  27.3290339  87.6943763
 111.5280328  27.5847868  87.2183874 112.8092521  28.1438677  87.7995804
 114.2696019  27.6934919  84.6527240 113.4727183  27.8053613  85.1710736
 114.0421612  28.0321571  83.7868130 120.1001687  34.2179622  92.6009755
 120.1646120  34.6800029  93.4367926 119.3912611  33.5876987  92.7292064
 110.6018977  27.5820830  90.1258754 110.8527015  28.4667840  90.3916330
 111.1378525  27.4025431  89.3533846 119.8149705  35.8847729  82.4688735
 119.6795379  36.7299265  82.8973583 120.3559517  36.0867007  81.7054669
 113.2679102  33.4023167  83.0416660 113.7803623  34.1966418  83.1922225
 113.9201815  32.7049458  82.9750261 115.0773987  36.5188924  85.1239413
 115.2540615  37.4406888  84.9360397 115.8730820  36.2047343  85.5533793
 114.3626343  28.5653556  95.0001576 114.2479858  27.6638813  95.3008675
 113.5070861  28.8117252  94.6486393 116.2005302  38.0367097  91.1249756
 116.7512727  37.9084161  90.3526749 115.3616778  38.3361986  90.7744648
 119.9972473  34.3018225  95.4693987 120.5300810  33.5406513  95.2393295
 119.4686554  34.0091877  96.2118141 111.2328019  31.7311822  83.8176231
 112.0703241  32.1408830  83.6009938 111.4106287  30.7911264  83.7876424
 120.7139562  24.2436603  84.5645302 119.8581158  23.8543454  84.3850941
 121.1266514  24.3228564  83.7045087 118.4881595  21.8621676  87.9703043
 119.3534591  21.6664485  87.6108933 118.5559103  21.6332028  88.8972400
 121.3625186  33.4304218  82.9812799 120.8346548  32.6956977  82.6686036
 120.8612689  34.2078894  82.7352767 116.0943914  24.0923884  85.3419410
 116.6687665  23.8699066  84.6092603 116.6814896  24.1612579  86.0948011
 116.4213501  26.1228345  79.3615295 115.5850813  26.4603032  79.6824570
 116.2818270  25.9877325  78.4242432 118.3966581  20.9665133  84.0694480
 117.7430994  20.6514150  83.4451094 118.3547055  20.3440873  84.7954303
 119.5077786  31.2484428  75.9847772 118.6004848  31.0173681  76.1838921
 120.0048818  30.4522047  76.1721753 120.6866020  31.3497023  80.5071762
 119.7777239  31.0656056  80.6044232 120.7161103  31.7696101  79.6475069
 111.2554190  29.0702537  84.4886964 111.0578590  28.4771898  83.7638031
 110.7000854  28.7654747  85.2062903 119.2350914  28.9625644  86.6081557
 119.2899523  28.0099480  86.5324034 118.4242116  29.1185083  87.0922856
 120.3842107  32.8905767  77.8459840 119.9461537  32.1741626  77.3865478
 121.1252548  33.1181881  77.2844932 117.1743274  27.5802703  84.3671936
 116.3611139  27.8796874  84.7737128 117.6702268  27.1858392  85.0846418
 119.3251851  37.5760460  86.3006201 119.2828030  37.8021306  85.3714733
 120.2414550  37.3423835  86.4492002 116.6657348  25.1521059  89.9833171
 117.3056728  25.0109818  89.2856134 115.8334879  24.8655572  89.6071773
 117.4417652  34.4523489  86.0968163 118.2358251  33.9573809  85.8950738
 116.7309345  33.9241352  85.7335869 113.7500416  28.5966571  82.1727916
 112.8198004  28.5351026  82.3897878 113.8457888  28.0742524  81.3764557
 113.6685965  25.1221384  84.7606158 113.9292782  26.0366717  84.6515318
 114.4903137  24.6545826  84.9102771 115.1410890  26.5359141  91.9304982
 115.8133943  26.3276503  91.2817631 114.3140677  26.3381227  91.4910215
 120.0188928  35.0252511  89.7766001 119.8800014  34.6571296  90.6491939
 119.2303524  35.5400151  89.6049958 120.6137080  40.1261608  81.1191537
 120.7888836  39.6549651  81.9337160 119.9269868  40.7527374  81.3472798
 121.5694143  34.4034114  87.1654838 121.2343976  34.3634884  88.0612488
 121.0698089  33.7378830  86.6925249 115.5438387  29.8101744  92.6907419
 115.4058185  29.0781983  93.2918958 116.4543311  29.7210644  92.4091607
 118.1720688  29.5221703  92.1791099 118.8820307  28.8814895  92.1377718
 118.1289996  29.7734598  93.1017280 115.1798165  43.2750970  87.8931397
 115.4194764  43.9069495  88.5710416 114.3367362  42.9239010  88.1796756
 116.2951881  25.9675573  76.5613202 115.4181347  25.8464373  76.1975449
 116.7709634  25.1761651  76.3092091 107.8154021  30.7552732  86.6554709
 108.5025061  30.4414462  86.0675725 107.6602150  31.6594097  86.3821961
 112.6188743  25.6442929  91.0839733 112.5346932  25.0368598  90.3490143
 111.7971450  26.1351947  91.0849229 119.6926027  39.0830093  90.2972901
 119.6196199  39.8885064  90.8092206 119.2503420  39.2822059  89.4720923
 119.4815807  38.3201863  83.8075723 118.6983329  38.8623543  83.9013947
 120.1808552  38.8375843  84.2069964 119.3747426  26.2713875  86.1781613
 119.0045213  25.7184916  86.8662518 119.8706518  25.6672009  85.6256613
 117.2036624  36.7311370  93.2736631 117.9046084  37.3647853  93.4266025
 116.7331739  37.0726102  92.5132270 112.8004342  36.2647725  90.2067733
 113.3857779  35.5191413  90.3395638 112.6029181  36.5751682  91.0904397
 115.6542998  39.2998973  85.2230176 114.9853373  39.7845100  84.7394216
 115.5155867  39.5468193  86.1373554 107.3921997  28.8353326  88.9272177
 107.4306097  28.3016916  89.7209295 106.8862290  28.3088531  88.3083154
 119.7948266  41.3342716  91.8212834 120.3466574  41.4974338  92.5861919
 120.1354460  41.9247154  91.1492859 114.7712759  23.6817866  92.4234719
 114.8354086  24.5432697  92.0112116 114.7079880  23.0691868  91.6907077
 111.0230575  27.5617428  82.0026108 111.3184016  26.6528106  81.9493162
 110.1218611  27.5405167  81.6807110 114.5524822  25.6373424  87.9853656
 113.8311408  26.2509392  87.8461130 115.3418078  26.1731189  87.9070302
 112.7518416  25.2431525  82.1265433 112.4231123  24.3628904  81.9440539
 113.1057787  25.1879194  83.0141822 115.8660240  25.5304495  82.4940911
 116.2056312  26.0590416  81.7719519 116.3132360  25.8684901  83.2699477
 117.8528387  24.0279117  80.6934203 118.5736749  24.4060370  80.1897920
 117.2293691  24.7467994  80.7969181 116.7358731  27.6909979  88.2063280
 116.5903312  28.0050282  89.0987562 116.2583935  28.3094879  87.6534179
 118.5955114  24.6812527  88.2544170 118.5816683  23.7853620  87.9176468
 119.3127542  24.6883191  88.8882456 111.2104393  30.2315323  91.1450942
 110.6657861  31.0075131  91.2771216 112.0883743  30.5786128  90.9870063
 117.9992010  23.5626907  83.5231740 118.1207921  22.6343553  83.7222628
 117.7094052  23.5765593  82.6110056 120.8683200  21.2481818  86.6598460
 120.8904897  21.3121151  85.7050439 121.2851259  20.4086326  86.8538966
 111.9970415  29.3585220  94.0381098 111.2552151  29.5067855  94.6245729
 111.6763159  29.6193485  93.1747848 119.9414078  38.9001198  93.8361488
 120.2501204  38.6550345  94.7084188 120.7389560  39.1047836  93.3480359
 119.9634690  41.0539108  86.0666865 119.5239680  40.5615486  86.7599722
 120.7142807  40.5112075  85.8258940 112.4427029  37.2450648  86.0691493
 113.2685049  36.9454420  85.6890137 112.0921081  36.4758271  86.5181282
 117.4108562  36.5977117  88.1389167 116.7888571  35.9347822  87.8391395
 118.0813429  36.6238249  87.4562814 110.6435634  35.1636975  87.0280427
 109.8067542  34.7359149  86.8464428 110.6159279  35.3569418  87.9651218
 116.9722069  35.1481040  81.6147627 117.1210189  35.8316504  80.9614300
 117.7788512  35.1286130  82.1297083 114.7274702  31.1746218  82.6208696
 114.4820744  30.2708548  82.8188906 114.8970616  31.1763368  81.6788174
 113.9970349  26.9074575  80.1194858 113.3039594  26.9818930  79.4634894
 113.7522101  26.1434919  80.6416375 120.4717474  37.6429170  79.0859375
 119.8991441  38.2619358  78.6329847 121.0450268  38.1928532  79.6199297
 119.0407190  26.9039960  76.3630312 118.1338645  26.6073072  76.4393026
 119.3183171  26.6069778  75.4964599 109.9585130  28.2246323  86.8129359
 109.6387915  27.3711631  86.5203733 109.4118558  28.4394901  87.5687326
 113.7365038  30.9408764  90.5298865 113.9551048  31.8725872  90.5486899
 114.1490812  30.5816738  91.3153669 120.6569256  21.4476849  82.5174554
 119.8469984  21.1023934  82.8929800 121.3453673  21.1384393  83.1062165
 117.8105975  23.7626895  76.5042292 118.6725138  24.0881793  76.7638109
 117.9956319  22.9758391  75.9915357 109.8273390  31.8449234  88.7822480
 109.1336862  31.4303187  88.2692435 110.5746381  31.8869771  88.1855899
 111.7410133  31.7767488  86.6588495 111.7180821  31.8755176  85.7070378
 112.0510769  32.6232639  86.9805661 114.3997511  33.8343643  90.7735110
 115.3540764  33.8027586  90.7065041 114.2010034  33.3734267  91.5885336
 114.9896893  32.4044759  93.3405907 115.8089782  32.8988838  93.3640745
 115.2633700  31.4876727  93.3123475 112.7547739  39.3763263  87.7905308
 112.6202207  38.6163664  87.2243306 112.3379802  40.1004163  87.3234096
 115.9116865  40.2732580  88.0023750 115.7949249  41.2178012  87.9002440
 115.0909312  39.9706141  88.3909549 110.2431807  26.7382893  94.0398104
 110.8890671  26.2281847  94.5285330 110.0348958  27.4751575  94.6141530
 118.7635418  21.0022938  79.7922001 118.7514087  21.9464778  79.9490271
 119.6558839  20.8193083  79.4981462 116.9371379  40.9260842  91.2179679
 117.8398626  40.9584452  91.5346174 116.7108750  39.9961293  91.2326014
 118.6924981  39.6791828  87.8789757 117.7420612  39.6793690  87.7654129
 118.9957468  38.9324563  87.3625792 118.6547776  46.0844650  86.6554709
 119.3418815  45.7706380  86.0675725 118.4995904  46.9886015  86.3821961
 118.2315752  44.1645243  88.9272177 118.2699851  43.6308834  89.7209295
 117.7256045  43.6380449  88.3083154 121.4829388  50.4928893  87.0280427
 120.6461296  50.0651067  86.8464428 121.4553034  50.6861336  87.9651218
 120.7978885  43.5538241  86.8129359 120.4781669  42.7003549  86.5203733
 120.2512313  43.7686819  87.5687326 120.6667145  47.1741152  88.7822480
 119.9730616  46.7595105  88.2692435 121.4140136  47.2161689  88.1855899
 117.5411337  17.5327699  70.4728502 117.4635367  18.4835524  70.5516982
 116.9372981  17.1873572  71.1303428 115.1798167  20.2813093  74.6176704
 115.4194765  20.9131617  75.2955722 114.3367363  19.9301133  74.9042063
 115.6542999  16.3061095  71.9475482 114.9853374  16.7907223  71.4639522
 115.5155869  16.5530316  72.8618861 119.7948268  18.3404839  78.5458141
 120.3466576  18.5036460  79.3107226 120.1354461  18.9309277  77.8738166
 112.7547741  16.3825385  74.5150614 112.6202209  15.6225786  73.9488612
 112.3379803  17.1066285  74.0479403 115.9116867  17.2794702  74.7269057
 115.7949251  18.2240135  74.6247747 115.0909313  16.9768264  75.1154856
 116.9371381  17.9322964  77.9424985 117.8398627  17.9646575  78.2591480
 116.7108751  17.0023415  77.9571321 118.6547777  23.0906773  73.3800016
 119.3418817  22.7768503  72.7921031 118.4995906  23.9948137  73.1067267
 118.2315753  21.1707366  75.6517483 118.2699852  20.6370957  76.4454601
 117.7256046  20.6442571  75.0328460 121.4829389  27.4991015  73.7525733
 120.6461298  27.0713189  73.5709735 121.4553035  27.6923458  74.6896525
 120.7978886  20.5600363  73.5374665 120.4781670  19.7065671  73.2449039
 120.2512314  20.7748941  74.2932633 120.6667146  24.1803275  75.5067787
 119.9730617  23.7657228  74.9937741 121.4140137  24.2223811  74.9101206
  46.5389579  70.6165774 132.0063228  45.8651277  70.9197471 132.6148186
  46.9255401  71.4194854 131.6568685  50.5046319  68.1951258 133.2803051
  51.1997224  68.8157950 133.4990366  50.8469469  67.3446609 133.5555429
  44.5961188  68.3013009 132.1878145  44.0235155  68.9203196 131.7348617
  45.1693981  68.8512371 132.7218067  47.8158448  68.5850159 133.3186727
  48.7489121  68.5195721 133.5219603  47.7281660  69.4206426 132.8601260
  50.4446464  67.9016030 130.2790675  50.3660096  67.5675893 131.1726433
  51.2656131  68.3937798 130.2782147  48.0150416  65.2184025 129.9000653
  48.7186266  65.4234028 130.5158309  47.2913065  65.7860787 130.1649737
  49.9237113  65.6566554 131.9499113  50.7582717  65.2247753 131.7676588
  49.7621456  65.4848568 132.8776008  51.3850969  72.1104102 132.4634066
  50.5488281  72.4478788 132.7843341  51.2455738  71.9753081 131.5261203
  51.2589349  71.9551329 129.6631973  50.3818815  71.8340130 129.2994219
  51.7347102  71.1637407 129.4110861  48.9607817  72.8950332 133.2213628
  48.2677062  72.9694687 132.5653664  48.7159569  72.1310675 133.7435145
  54.0044658  72.8915716 129.4649083  53.0976113  72.5948829 129.5411796
  54.2820639  72.5945534 128.5983369  52.7743443  69.7502651 129.6061062
  53.6362607  70.0757550 129.8656879  52.9593787  68.9634147 129.0934128
  53.7272886  66.9898694 132.8940771  53.7151555  67.9340534 133.0509042
  54.6196307  66.8068840 132.6000232  46.5389580  47.6227897 118.7308535
  45.8651279  47.9259593 119.3393493  46.9255402  48.4256977 118.3813992
  50.5046321  45.2013380 120.0048358  51.1997225  45.8220073 120.2235673
  50.8469471  44.3508731 120.2800736  44.5961189  45.3075132 118.9123452
  44.0235156  45.9265319 118.4593924  45.1693983  45.8574494 119.4463374
  47.8158449  45.5912282 120.0432034  48.7489122  45.5257844 120.2464909
  47.7281662  46.4268549 119.5846567  50.4446465  44.9078152 117.0035981
  50.3660097  44.5738016 117.8971739  51.2656132  45.3999920 117.0027454
  48.0150417  42.2246148 116.6245960  48.7186267  42.4296150 117.2403615
  47.2913066  42.7922910 116.8895043  49.9237115  42.6628677 118.6744420
  50.7582719  42.2309875 118.4921895  49.7621458  42.4910691 119.6021314
  58.5521390  53.1798328 128.7699597  59.1899800  53.0605075 128.0662937
  58.4342233  54.1279172 128.8287549  51.2197912  54.9861233 124.6958012
  50.6562777  54.8951170 123.9274300  51.1050307  54.1661137 125.1760505
  56.7997470  58.6532200 120.0072477  56.1485450  59.2386281 119.6206491
  57.5941833  59.1838395 120.0667515  50.7253098  55.7421337 120.4059612
  51.4983974  55.1950325 120.2672487  51.0778496  56.6065587 120.6174073
  53.0619375  51.9014004 118.0378061  53.3144896  51.3795525 117.2761524
  52.1243935  51.7380149 118.1404745  58.1062658  50.9049782 125.8452805
  58.8925747  50.4869205 125.4943222  58.3701363  51.8095874 126.0134453
  58.2772736  56.3422632 120.5441461  57.6418569  56.4157259 121.2562366
  57.9470142  56.9316231 119.8660541  63.5071085  50.8425015 126.7485783
  64.2396257  50.2724232 126.9823613  62.7510441  50.4546616 127.1892289
  52.7815664  53.8042110 120.2402436  52.6651922  53.1287013 120.9083521
  52.8917924  53.3174483 119.4234589  55.1247205  53.2652257 123.9449126
  54.7605412  52.7382878 124.6562047  55.9814321  52.8750726 123.7715611
  54.7652692  48.2942156 118.9410474  54.9327094  49.1622393 119.3080945
  54.5749861  48.4569438 118.0171763  54.7441913  50.7499814 119.9257141
  54.6241538  51.1956865 120.7642621  54.0494501  51.0985132 119.3670679
  52.5048805  63.5203456 123.5747272  52.4272835  64.4711281 123.6535753
  51.9010449  63.1749328 124.2322199  60.4426979  51.2221287 120.7537475
  61.3544835  51.4548674 120.5785173  59.9336626  51.8058331 120.1912554
  59.0496561  56.2047105 128.1451056  58.4205424  56.3692820 127.4427124
  58.6622223  56.6188715 128.9162021  62.9285793  57.1401543 125.4995420
  62.2436831  57.5200445 124.9492454  63.0129643  57.7496870 126.2327368
  54.6024523  55.9421514 125.4101142  55.0662869  56.2209217 124.6205764
  54.3381321  55.0404958 125.2274232  53.5393409  52.0644666 122.2190707
  54.2417453  52.5165710 122.6864633  53.2074038  51.4228485 122.8470600
  61.2982553  57.6633458 130.2713121  62.1199997  57.2613645 129.9895803
  61.2944956  57.5601692 131.2229237  69.3888546  54.0072206 126.6198093
  68.6352254  53.4379604 126.4642097  69.5236087  53.9734871 127.5668727
  54.7787174  58.8785609 122.2952812  54.6432849  59.7237144 122.7237660
  55.3196986  59.0804886 121.5318746  48.2316571  56.3961047 122.8680737
  48.7441092  57.1904297 123.0186302  48.8839284  55.6987337 122.8014338
  50.0411456  59.5126803 124.9503490  50.2178084  60.4344768 124.7624474
  50.8368290  59.1985222 125.3797870  51.1642772  61.0304977 130.9513833
  51.7150197  60.9022040 130.1790826  50.3254247  61.3299866 130.6008725
  46.1965488  54.7249701 123.6440308  47.0340710  55.1346709 123.4274015
  46.3743756  53.7849143 123.6140501  58.0929920  52.3924782 119.3324141
  57.5776544  53.1629386 119.5712528  57.8207229  51.7189918 119.9557202
  55.6777031  47.2374482 124.3909379  54.8218628  46.8481333 124.2115018
  56.0903983  47.3166443 123.5309164  63.0664194  55.1457136 121.2677314
  62.2893637  54.8068296 120.8232476  63.7455675  55.1509759 120.5932279
  57.8816223  50.2651874 121.1583922  57.5766359  50.5798023 122.0094065
  58.8346666  50.3433294 121.2011255  56.3262655  56.4242097 122.8076876
  55.7984017  55.6894857 122.4950113  55.8250158  57.2016773 122.5616844
  61.3055501  54.6191117 127.9243922  60.6479176  55.3090379 128.0124051
  62.1095901  55.0087549 128.2677908  60.1160960  52.9735490 125.9747864
  60.6292842  53.6065482 126.4769573  60.7662184  52.3736686 125.6091224
  51.3850970  49.1166224 119.1879372  50.5488282  49.4540911 119.5088647
  51.2455740  48.9815204 118.2506509  54.4715255  54.2422307 115.8111849
  53.5642317  54.0111561 116.0102998  54.9686287  53.4459926 115.9985830
  57.3783334  62.9519814 118.7308535  56.7045033  63.2551511 119.3393493
  57.7649156  63.7548895 118.3813992  57.3776839  51.8476361 123.3508885
  58.1248658  52.3597759 123.0416007  57.6468428  51.5260414 124.2113278
  55.6503489  54.3434902 120.3335839  54.7414708  54.0593935 120.4308309
  55.6798573  54.7633981 119.4739146  60.8822756  57.9541492 124.1027006
  60.4285083  57.1132401 124.1592197  60.2516723  58.5902890 124.4401787
  59.8255676  48.8833478 125.3327674  59.0878433  48.3710864 125.6637916
  60.0782449  48.4433859 124.5210951  59.3255696  59.7917988 125.0376824
  59.6178670  60.3523045 124.3189190  59.8354316  60.0846549 125.7929984
  54.1988383  51.9563523 126.4345634  54.2536993  51.0037359 126.3588111
  53.3879585  52.1122962 126.9186933  55.3479577  55.8843646 117.6723917
  54.9099007  55.1679505 117.2129555  56.0890018  56.1119761 117.1109009
  52.1380743  50.5740582 124.1936013  51.3248608  50.8734753 124.6001205
  52.6339737  50.1796271 124.9110495  54.2889321  60.5698339 126.1270278
  54.2465500  60.7959186 125.1978810  55.2052020  60.3361714 126.2756079
  63.4652691  54.1600843 123.7300236  63.3270590  54.3502439 122.8021425
  63.1088910  54.9220226 124.1868287  63.4922071  56.2277370 128.7411507
  63.9258578  56.1352659 129.5894561  64.2053652  56.2034870 128.1031523
  52.4055122  57.4461368 125.9232240  53.1995720  56.9511689 125.7214815
  51.6946814  56.9179232 125.5599946  57.2249966  59.8279464 130.2744608
  57.2786988  60.3970400 131.0422324  56.3564747  59.9981349 129.9098645
  48.7137885  51.5904450 121.9991993  47.7835473  51.5288906 122.2161955
  48.8095357  51.0680403 121.2028634  64.3537621  56.2701070 131.2744393
  64.5473511  57.1746881 131.5203668  64.2538239  55.8108490 132.1082978
  54.9826398  58.0190390 129.6030078  54.8437483  57.6509175 130.4756016
  54.1940994  58.5338030 129.4314035  55.5774549  63.1199487 120.9455614
  55.7526305  62.6487530 121.7601237  54.8907338  63.7465253 121.1736875
  56.5331613  57.3971993 126.9918915  56.1981445  57.3572763 127.8876565
  56.0335558  56.7316709 126.5189326  59.4690804  54.7428027 117.2655975
  58.8519975  54.0174856 117.1689028  59.0007293  55.5037388 116.9223049
  50.1435635  66.2688850 127.7195474  50.3832233  66.9007374 128.3974493
  49.3004831  65.9176890 128.0060833  51.2589350  48.9613452 116.3877279
  50.3818817  48.8402252 116.0239526  51.7347103  48.1699530 116.1356168
  54.6563497  62.0767972 130.1236978  54.5833668  62.8822944 130.6356283
  54.2140890  62.2759938 129.2985000  54.4453276  61.3139742 123.6339800
  53.6620798  61.8561422 123.7278024  55.1446021  61.8313722 124.0334041
  65.6079684  52.8274737 127.9192297  65.5969560  53.7099452 127.5486230
  64.7397063  52.4746288 127.7246834  57.1162180  61.9754806 132.2795137
  57.8290152  62.6102271 132.2071038  56.6252209  62.0718672 131.4635139
  58.8379707  55.8806059 123.8512429  57.9035986  56.0007521 123.6817133
  59.0156376  54.9778526 123.5872438  62.2252258  51.7223378 124.3862463
  62.6912711  52.5551370 124.3122765  62.6759759  51.2568360 125.0907721
  60.2928490  58.0667199 121.3848615  60.5688333  57.9523794 122.2942489
  59.4232988  57.6684684 121.3460788  56.9282554  62.3153550 125.0281428
  57.1104948  61.4975206 125.4909181  57.7515540  62.5321242 124.5906318
  57.2624719  61.2421735 122.2896477  57.7912485  60.7314190 121.6766639
  57.5252939  60.9264266 123.1542010  50.6180467  62.2936852 125.0494253
  49.9490842  62.7782980 124.5658293  50.4793337  62.5406072 125.9637631
  54.7585736  64.3280595 131.6476911  55.3104044  64.4912217 132.4125996
  55.0991929  64.9185033 130.9756936  45.9868044  50.5555307 121.8290185
  46.2821485  49.6465985 121.7757239  45.0856080  50.5343046 121.5071187
  57.8954123  62.2762571 128.6340593  57.7705262  61.4752311 128.1251539
  58.5533214  62.7708764 128.1454563  59.9589031  60.0771591 130.2620143
  59.0119367  59.9576942 130.1898470  60.3071804  59.1894089 130.3446405
  56.9635465  59.8724307 126.4624496  56.8160427  58.9441015 126.6432066
  57.7888958  59.8944398 125.9781571  50.8297709  48.5242374 122.3204988
  51.1693781  49.0528296 121.5983596  51.2769829  48.8622781 123.0963554
  60.5669586  60.6952866 127.5489368  61.4916134  60.4895727 127.4113819
  60.3984890  60.4469267 128.4578710  52.8165856  47.0216996 120.5198280
  53.5374218  47.3998249 120.0161997  52.1931160  47.7405873 120.6233258
  56.9596979  47.7262145 121.4556613  57.1760593  48.6086783 121.1545441
  56.4791046  47.3348358 120.7262255  60.3564903  61.2138533 122.9051460
  60.5301780  60.6484956 122.1525312  60.8493794  62.0139428 122.7230950
  66.2104294  53.9774956 124.5241760  66.6535440  53.2282282 124.1260883
  65.3330804  53.9685093 124.1415492  61.3440075  60.5305298 120.0048358
  62.0390980  61.1511991 120.2235673  61.6863225  59.6800649 120.2800736
  63.2431498  57.9805003 121.5335689  63.7682822  58.3192276 120.8085009
  63.1553851  57.0452019 121.3498823  54.9272159  64.0476987 125.8930942
  54.4877149  63.5553365 126.5863799  55.6780276  63.5049954 125.6523017
  47.4064498  60.2388528 125.8955570  48.2322518  59.9392299 125.5154214
  47.0558550  59.4696150 126.3445359  52.3746031  59.5914996 127.9653244
  51.7526040  58.9285701 127.6655472  53.0450898  59.6176128 127.2826891
  51.9359538  58.1418919 121.4411704  52.0847658  58.8254384 120.7878377
  52.7425981  58.1224009 121.9561160  65.7537158  55.4480195 126.9164207
  66.5884050  55.8869999 127.0801767  65.8896287  54.9718848 126.0972453
  49.6912171  54.1684097 122.4472773  49.4458213  53.2646427 122.6452983
  49.8608086  54.1701247 121.5052251  48.9607818  49.9012454 119.9458935
  48.2677063  49.9756809 119.2898971  48.7159570  49.1372798 120.4680452
  55.4354944  60.6367050 118.9123452  54.8628911  61.2557237 118.4593924
  56.0087737  61.1866411 119.4463374  58.6552203  60.9204200 120.0432034
  59.5882876  60.8549761 120.2464909  58.5675416  61.7560467 119.5846567
  61.2840220  60.2370070 117.0035981  61.2053851  59.9029934 117.8971739
  62.1049887  60.7291838 117.0027454  63.9818411  53.1031809 130.2112300
  63.9494731  52.1647810 130.3971984  64.5919035  53.1815846 129.4778125
  55.8201742  51.9727862 116.2539504  56.7660847  51.8434070 116.3227922
  55.4415987  51.2342524 116.7308932  69.7994961  54.1647816 129.3518337
  70.5298349  53.9033104 129.9126040  69.1901906  53.4276538 129.3920405
  67.8810258  52.3055679 129.9492788  67.1543422  52.1711644 129.3409280
  67.4657545  52.6132507 130.7549506  54.0044659  49.8977839 116.1894389
  53.0976115  49.6010951 116.2657103  54.2820640  49.6007657 115.3228676
  55.6206725  44.4414728 122.3438631  54.8107453  44.0961813 122.7193877
  56.3091142  44.1322272 122.9326242  52.7743444  46.7564774 116.3306369
  53.6362608  47.0819672 116.5902186  52.9593788  45.9696270 115.8179434
  60.9276080  45.6293300 123.4741592  60.3474749  46.2878104 123.0919644
  60.6612013  44.8070645 123.0629009  59.7100958  47.7893391 122.5297940
  58.8226813  48.0743041 122.3118135  60.1254947  47.6287154 121.6825217
  63.0615494  47.8139912 126.2452279  63.8375885  48.3036364 126.5176896
  62.3363629  48.2397966 126.7024149  65.4988053  48.5267531 127.3026220
  66.0932544  48.2863267 126.5919528  65.5714637  47.8074662 127.9299756
  47.7185209  62.3701142 127.6169385  47.5839677  61.6101543 127.0507383
  47.3017271  63.0942042 127.1498173  58.8544172  57.5538065 116.6245960
  59.5580022  57.7588068 117.2403615  58.1306821  58.1214827 116.8895043
  59.6841982  53.3047927 122.7448230  59.6277183  53.7616478 121.9055862
  60.2370324  52.5438611 122.5671073  63.4946788  49.0937659 123.5698349
  63.2383722  48.6934294 124.4006557  62.8699656  49.8081453 123.4448489
  67.8059126  51.8333732 126.0769641  67.2458684  51.9026921 126.8501203
  67.2002629  51.6574716 125.3569137  50.8754335  63.2670459 127.8287827
  50.7586719  64.2115891 127.7266517  50.0546781  62.9644021 128.2173626
  60.7630869  57.9920595 118.6744420  61.5976473  57.5601793 118.4921895
  60.6015212  57.8202608 119.6021314  60.4176761  54.4952708 120.0400759
  60.3625565  54.3296979 119.0989203  59.7922817  55.2028741 120.1962949
  53.7272887  43.9960817 119.6186078  53.7151557  44.9402657 119.7754348
  54.6196309  43.8130962 119.3245539  51.9008849  63.9198721 131.0443756
  52.8036095  63.9522331 131.3610251  51.6746219  62.9899172 131.0590091
  53.6562451  62.6729707 127.7053834  52.7058082  62.6731569 127.5918207
  53.9594937  61.9262442 127.1889869  62.0591666  70.3153150 124.6958012
  61.4956531  70.2243087 123.9274300  61.9444061  69.4953055 125.1760505
  59.6056098  71.8104342 127.5342233  60.3977390  71.4695167 127.1188532
  59.8452748  71.9199317 128.4544386  67.6391225  73.9824118 120.0072477
  66.9879205  74.5678198 119.6206491  68.4335588  74.5130313 120.0667515
  61.5646852  71.0713255 120.4059612  62.3377728  70.5242242 120.2672487
  61.9172251  71.9357504 120.6174073  63.9013130  67.2305921 118.0378061
  64.1538651  66.7087443 117.2761524  62.9637689  67.0672067 118.1404745
  68.9456413  66.2341700 125.8452805  69.7319502  65.8161123 125.4943222
  69.2095117  67.1387792 126.0134453  69.1166490  71.6714550 120.5441461
  68.4812323  71.7449176 121.2562366  68.7863896  72.2608149 119.8660541
  63.6209419  69.1334027 120.2402436  63.5045677  68.4578931 120.9083521
  63.7311679  68.6466401 119.4234589  65.9640960  68.5944174 123.9449126
  65.5999167  68.0674795 124.6562047  66.8208075  68.2042643 123.7715611
  65.6046447  63.6234074 118.9410474  65.7720849  64.4914310 119.3080945
  65.4143616  63.7861356 118.0171763  61.8134261  68.5364850 126.6413009
  60.8884758  68.4041064 126.8490701  62.0618674  69.3159069 127.1382951
  65.5835667  66.0791732 119.9257141  65.4635293  66.5248782 120.7642621
  64.8888256  66.4277049 119.3670679  59.1743072  68.1798123 127.4756798
  59.3035453  68.4332602 128.3896210  58.4940524  68.7725831 127.1561453
  71.2820734  66.5513205 120.7537475  72.1938590  66.7840591 120.5785173
  70.7730381  67.1350249 120.1912554  68.6256708  62.7271241 129.0027336
  67.7641187  63.0252494 129.2944073  68.6519143  62.9441640 128.0708369
  65.4418278  71.2713431 125.4101142  65.9056623  71.5501134 124.6205764
  65.1775076  70.3696876 125.2274232  64.3787164  67.3936584 122.2190707
  65.0811207  67.8457627 122.6864633  64.0467792  66.7520402 122.8470600
  58.1212498  65.6520136 127.5207840  57.3311552  65.9077665 127.0447951
  58.6123745  66.4668474 127.6259881  60.0727243  66.0164716 124.4791317
  59.2758406  66.1283410 124.9974813  59.8452835  66.3551368 123.6132207
  56.4050201  65.9050627 129.9522831  56.6558239  66.7897637 130.2180407
  56.9409749  65.7255228 129.1797923  65.6180928  74.2077526 122.2952812
  65.4826603  75.0529062 122.7237660  66.1590741  74.4096804 121.5318746
  59.0710326  71.7252964 122.8680737  59.5834846  72.5196215 123.0186302
  59.7233039  71.0279255 122.8014338  60.8805211  74.8418721 124.9503490
  61.0571839  75.7636685 124.7624474  61.6762044  74.5277140 125.3797870
  68.9673392  57.7308088 130.8251705  68.6237661  58.6209730 130.7490816
  69.3352355  57.5409746 129.9621290  57.0359243  70.0541619 123.6440308
  57.8734465  70.4638627 123.4274015  57.2137510  69.1141061 123.6140501
  68.9323675  67.7216699 119.3324141  68.4170298  68.4921304 119.5712528
  68.6600983  67.0481835 119.9557202  66.5170786  62.5666400 124.3909379
  65.6612382  62.1773250 124.2115018  66.9297738  62.6458361 123.5309164
  68.0469932  60.1012743 128.7900939  67.5434728  60.0642878 127.9768744
  68.3400539  61.0105486 128.8497595  64.2912818  60.1851473 127.7967120
  65.1565815  59.9894282 127.4373010  64.3590327  59.9561825 128.7236477
  73.9057949  70.4749054 121.2677314  73.1287392  70.1360213 120.8232476
  74.5849430  70.4801677 120.5932279  68.7209978  65.5943791 121.1583922
  68.4160113  65.9089940 122.0094065  69.6740420  65.6725211 121.2011255
  67.1656410  71.7534015 122.8076876  66.6377771  71.0186774 122.4950113
  66.6643912  72.5308691 122.5616844  61.8975137  62.4153681 125.1683487
  62.4718889  62.1928862 124.4356680  62.4846120  62.4842375 125.9212088
  62.2244724  64.4458142 119.1879372  61.3882037  64.7832828 119.5088647
  62.0849494  64.3107122 118.2506509  64.1997805  59.2894930 123.8958557
  63.5462217  58.9743947 123.2715171  64.1578279  58.6670670 124.6218380
  65.3109010  69.5714225 115.8111849  64.4036072  69.3403478 116.0102998
  65.8080042  68.7751844 115.9985830  68.2177089  78.2811732 118.7308535
  67.5438788  78.5843429 119.3393493  68.6042911  79.0840812 118.3813992
  67.4335545  65.7776863 128.2206204  66.5158107  65.9991810 128.0627892
  67.8495689  65.8523174 127.3617912  68.2170593  67.1768279 123.3508885
  68.9642412  67.6889676 123.0416007  68.4862183  66.8552332 124.2113278
  66.4897243  69.6726820 120.3335839  65.5808463  69.3885853 120.4308309
  66.5192327  70.0925898 119.4739146  70.6649430  64.2125395 125.3327674
  69.9272187  63.7002782 125.6637916  70.9176204  63.7725777 124.5210951
  70.7661058  56.9901647 125.9269443  71.0719934  56.1299011 125.6395358
  71.4913662  57.5819267 125.7268437  57.0585414  67.3932334 124.3151041
  56.8609814  66.8001695 123.5902108  56.5032078  67.0884544 125.0326980
  65.0382137  67.2855440 126.4345634  65.0930747  66.3329277 126.3588111
  64.2273339  67.4414879 126.9186933  66.1873331  71.2135563 117.6723917
  65.7492761  70.4971422 117.2129555  66.9283772  71.4411678 117.1109009
  62.9774497  65.9032500 124.1936013  62.1642363  66.2026671 124.6001205
  63.4733492  65.5088189 124.9110495  74.3046446  69.4892760 123.7300236
  74.1664345  69.6794356 122.8021425  73.9482665  70.2512143 124.1868287
  62.4688572  63.4750856 129.8097248  63.1087951  63.3339615 129.1120211
  61.6366103  63.1885369 129.4335850  63.2448876  72.7753286 125.9232240
  64.0389474  72.2803606 125.7214815  62.5340568  72.2471149 125.5599946
  59.5531639  66.9196368 121.9991993  58.6229228  66.8580823 122.2161955
  59.6489111  66.3972321 121.2028634  59.4717189  63.4451181 124.5870235
  59.7324006  64.3596514 124.4779395  60.2934361  62.9775623 124.7366848
  60.9442114  64.8588938 131.7569059  61.6165167  64.6506300 131.1081708
  60.1171900  64.6611024 131.3174292  66.4168304  78.4491405 120.9455614
  66.5920060  77.9779448 121.7601237  65.7301092  79.0757171 121.1736875
  70.3084559  70.0719945 117.2655975  69.6913729  69.3466773 117.1689028
  69.8401047  70.8329305 116.9223049  62.0983105  64.2905369 116.3877279
  61.2212571  64.1694170 116.0239526  62.5740858  63.4991448 116.1356168
  53.6185245  69.0782529 126.4818786  54.3056285  68.7644259 125.8939802
  53.4633374  69.9823894 126.2086038  58.4219967  63.9672726 130.9103810
  58.3378156  63.3598395 130.1754220  57.6002673  64.4581744 130.9113306
  68.5943681  62.4526289 126.2774005  69.0912380  61.6996252 125.9575075
  67.8230662  62.4890606 125.7117214  69.6773462  71.2097976 123.8512429
  68.7429740  71.3299439 123.6817133  69.8550130  70.3070443 123.5872438
  65.1778650  64.5943672 126.0045690  64.8076437  64.0414713 126.6926595
  65.6737742  63.9901806 125.4520690  73.0646013  67.0515296 124.3862463
  73.5306465  67.8843287 124.3122765  73.5153513  66.5860277 125.0907721
  71.1322244  73.3959117 121.3848615  71.4082088  73.2815712 122.2942489
  70.2626743  72.9976602 121.3460788  71.0362676  59.4195883 128.4253364
  70.1225755  59.6500110 128.5935571  71.4655777  59.5034327 129.2767396
  68.1018474  76.5713653 122.2896477  68.6306240  76.0606108 121.6766639
  68.3646693  76.2556183 123.1542010  53.1953221  67.1583122 128.7536254
  53.2337320  66.6246713 129.5473372  52.6893514  66.6318328 128.1347231
  60.5743983  62.0047663 132.2498796  60.6385310  62.8662494 131.8376194
  60.5111104  61.3921665 131.5171154  56.8261799  65.8847225 121.8290185
  57.1215240  64.9757903 121.7757239  55.9249834  65.8634964 121.5071187
  60.3556046  63.9603221 127.8117733  59.6342631  64.5739189 127.6725207
  61.1449301  64.4960986 127.7334379  58.5549640  63.5661322 121.9529510
  58.2262346  62.6858701 121.7704616  58.9089011  63.5108991 122.8405899
  61.6691463  63.8534292 122.3204988  62.0087536  64.3820213 121.5983596
  62.1163584  64.1914698 123.0963554  64.3634904  62.2371343 131.7708056
  64.0231724  61.4379156 132.1728736  63.6573910  62.5373054 131.1984889
  65.0151376  59.3220655 130.2235379  65.8377445  58.8481133 130.1014269
  65.2589439  60.1011139 130.7234065  63.6559610  62.3508914 120.5198280
  64.3767973  62.7290166 120.0161997  63.0324915  63.0697790 120.6233258
  67.7990733  63.0554063 121.4556613  68.0154348  63.9378701 121.1545441
  67.3184800  62.6640276 120.7262255  62.5389955  66.0139776 128.0327357
  62.3934535  66.3280079 128.9251639  62.0615158  66.6324676 127.4798256
  64.3986338  63.0042324 128.0808247  64.3847906  62.1083417 127.7440545
  65.1158766  63.0112988 128.7146533  66.2512468  63.4379664 130.1261374
  65.9930246  64.3596735 130.1245705  65.7197509  63.0410099 130.8161839
  57.0135617  68.5545120 130.9715019  56.4689085  69.3304928 131.1035293
  57.8914967  68.9015925 130.8134140  63.8023234  61.8856704 123.3495817
  63.9239145  60.9573350 123.5486705  63.5125276  61.8995390 122.4374133
  66.6714424  59.5711615 126.4862537  66.6936121  59.6350948 125.5314517
  67.0882483  58.7316123 126.6803043  72.1833830  75.8597216 120.0048358
  72.8784734  76.4803908 120.2235673  72.5256980  75.0092567 120.2800736
  74.0825253  73.3096921 121.5335689  74.6076577  73.6484194 120.8085009
  73.9947605  72.3743936 121.3498823  58.2458252  75.5680445 125.8955570
  59.0716272  75.2684217 125.5154214  57.8952304  74.7988068 126.3445359
  56.4466857  73.4866772 126.8544504  55.6098766  73.0588946 126.6728505
  56.4190503  73.6799215 127.7915295  62.7753292  73.4710837 121.4411704
  62.9241413  74.1546301 120.7878377  63.5819736  73.4515927 121.9561160
  60.5305925  69.4976014 122.4472773  60.2851967  68.5938344 122.6452983
  60.7001840  69.4993165 121.5052251  59.8001573  65.2304372 119.9458935
  59.1070818  65.3048727 119.2898971  59.5553325  64.4664716 120.4680452
  68.4715229  56.7899973 127.3498425  68.7516983  56.1223162 127.9758852
  69.2565836  56.9829069 126.8373089  66.2748698  75.9658967 118.9123452
  65.7022665  76.5849154 118.4593924  66.8481492  76.5158329 119.4463374
  69.4945958  76.2496117 120.0432034  70.4276631  76.1841679 120.2464909
  69.4069171  77.0852384 119.5846567  72.1233974  75.5661988 117.0035981
  72.0447606  75.2321851 117.8971739  72.9443641  76.0583756 117.0027454
  66.6595496  67.3019780 116.2539504  67.6054601  67.1725988 116.3227922
  66.2809741  66.5634442 116.7308932  72.6317381  58.9675786 126.2166396
  72.4342202  58.6590874 127.1009728  73.2417087  59.6937425 126.3464326
  64.8438414  65.2269756 116.1894389  63.9369869  64.9302869 116.2657103
  65.1214395  64.9299574 115.3228676  55.7616354  66.5476120 126.6393436
  55.4419138  65.6941428 126.3467810  55.2149782  66.7624698 127.3951403
  66.4600479  59.7706646 122.3438631  65.6501208  59.4253731 122.7193877
  67.1484896  59.4614190 122.9326242  68.3891028  58.8484693 123.9662927
  68.9422066  59.2680146 124.6252950  68.6261114  57.9220441 124.0085883
  63.6137198  62.0856692 116.3306369  64.4756362  62.4111590 116.5902186
  63.7987542  61.2988188 115.8179434  55.6304614  70.1679031 128.6086557
  54.9368085  69.7532984 128.0956512  56.3777605  70.2099568 128.0119976
  71.7669835  60.9585218 123.4741592  71.1868504  61.6170022 123.0919644
  71.5005767  60.1362563 123.0629009  70.2173401  60.3590276 125.6762912
  70.7173179  60.4706810 124.8677231  70.8609009  60.0551329 126.3163720
  57.5441357  70.0997285 126.4852572  57.5212045  70.1984972 125.5334455
  57.8541993  70.9462436 126.8069738  70.5494713  63.1185308 122.5297940
  69.6620568  63.4034959 122.3118135  70.9648702  62.9579072 121.6825217
  73.9009249  63.1431829 126.2452279  74.6769639  63.6328282 126.5176896
  73.1757383  63.5689884 126.7024149  69.6937926  72.8829983 116.6245960
  70.3973776  73.0879986 117.2403615  68.9700575  73.4506745 116.8895043
  70.5235737  68.6339844 122.7448230  70.4670938  69.0908396 121.9055862
  71.0764079  67.8730529 122.5671073  74.3340542  64.4229576 123.5698349
  74.0777477  64.0226212 124.4006557  73.7093410  65.1373370 123.4448489
  71.6024624  73.3212512 118.6744420  72.4370228  72.8893711 118.4921895
  71.4408967  73.1494526 119.6021314  71.2570516  69.8244626 120.0400759
  71.2019320  69.6588897 119.0989203  70.6316571  70.5320659 120.1962949
  56.0463031  65.0612690 133.8662181  56.6921894  64.5511644 134.3549407
  55.8380182  65.7981372 134.4405607  64.5666641  59.3252735 119.6186078
  64.5545311  60.2694575 119.7754348  65.4590063  59.1422880 119.3245539
  68.3818761  55.9195511 123.8732014  67.6151157  55.3653998 124.0188697
  68.7929466  55.9917380 124.7346166  73.0638479  79.7750060 119.1879372
  72.2275791  80.1124746 119.5088647  72.9243249  79.6399039 118.2506509
  72.9376859  79.6197287 116.3877279  72.0606326  79.4986088 116.0239526
  73.4134612  78.8283365 116.1356168  70.6395327  80.5596290 119.9458935
  69.9464572  80.6340645 119.2898971  70.3947079  79.7956633 120.4680452
  75.6832168  80.5561674 116.1894389  74.7763624  80.2594787 116.2657103
  75.9608149  80.2591492 115.3228676  74.4530953  77.4148609 116.3306369
  75.3150117  77.7403508 116.5902186  74.6381297  76.6280105 115.8179434
  75.4060396  74.6544652 119.6186078  75.3939066  75.5986492 119.7754348
  76.2983818  74.4714798 119.3245539  46.5389581  24.6290019 105.4553841
  45.8651280  24.9321716 106.0638799  46.9255403  25.4319100 105.1059299
  50.5046322  22.2075503 106.7293665  51.1997226  22.8282196 106.9480979
  50.8469472  21.3570854 107.0046043  44.5961190  22.3137255 105.6368758
  44.0235157  22.9327442 105.1839230  45.1693984  22.8636616 106.1708680
  47.8158450  22.5974405 106.7677341  48.7489123  22.5319966 106.9710216
  47.7281663  23.4330671 106.3091873  50.4446467  21.9140275 103.7281288
  50.3660098  21.5800139 104.6217046  51.2656134  22.4062043 103.7272760
  48.0150419  19.2308270 103.3491266  48.7186269  19.4358273 103.9648922
  47.2913067  19.7985032 103.6140350  49.9237116  19.6690800 105.3989727
  50.7582720  19.2371998 105.2167201  49.7621459  19.4972813 106.3266621
  58.5521391  30.1860451 115.4944903  59.1899801  30.0667198 114.7908243
  58.4342234  31.1341295 115.5532855  51.2197913  31.9923355 111.4203319
  50.6562778  31.9013292 110.6519607  51.1050308  31.1723260 111.9005811
  56.7997472  35.6594323 106.7317784  56.1485451  36.2448403 106.3451798
  57.5941835  36.1900518 106.7912821  50.7253099  32.7483460 107.1304918
  51.4983975  32.2012447 106.9917794  51.0778498  33.6127709 107.3419380
  53.0619377  28.9076126 104.7623368  53.3144897  28.3857647 104.0006831
  52.1243936  28.7442272 104.8650052  58.1062659  27.9111905 112.5698111
  58.8925749  27.4931328 112.2188528  58.3701364  28.8157997 112.7379760
  58.2772737  33.3484755 107.2686768  57.6418570  33.4219381 107.9807673
  57.9470143  33.9378354 106.5905847  63.5071087  27.8487138 113.4731090
  64.2396259  27.2786355 113.7068919  62.7510442  27.4608738 113.9137595
  52.7815665  30.8104232 106.9647743  52.6651924  30.1349136 107.6328827
  52.8917925  30.3236606 106.1479896  55.1247206  30.2714379 110.6694432
  54.7605414  29.7445000 111.3807354  55.9814322  29.8812848 110.4960918
  54.7652693  25.3004279 105.6655781  54.9327096  26.1684515 106.0326252
  54.5749862  25.4631561 104.7417070  54.7441914  27.7561936 106.6502448
  54.6241539  28.2018987 107.4887928  54.0494503  28.1047254 106.0915986
  52.5048806  40.5265578 110.2992579  52.4272836  41.4773403 110.3781059
  51.9010450  40.1811451 110.9567505  60.4426980  28.2283410 107.4782782
  61.3544836  28.4610796 107.3030479  59.9336627  28.8120454 106.9157860
  59.0496563  33.2109228 114.8696363  58.4205425  33.3754942 114.1672431
  58.6622225  33.6250838 115.6407327  62.9285795  34.1463666 112.2240727
  62.2436833  34.5262567 111.6737760  63.0129644  34.7558993 112.9572675
  54.6024525  32.9483636 112.1346448  55.0662870  33.2271339 111.3451071
  54.3381323  32.0467081 111.9519539  53.5393411  29.0706789 108.9436013
  54.2417454  29.5227832 109.4109940  53.2074039  28.4290607 109.5715906
  61.2982554  34.6695580 116.9958428  62.1199998  34.2675768 116.7141109
  61.2944957  34.5663815 117.9474544  69.3888547  31.0134329 113.3443399
  68.6352256  30.4441727 113.1887404  69.5236088  30.9796993 114.2914034
  54.7787175  35.8847731 109.0198119  54.6432850  36.7299267 109.4482966
  55.3196988  36.0867009 108.2564052  48.2316573  33.4023169 109.5926044
  48.7441093  34.1966419 109.7431608  48.8839285  32.7049460 109.5259645
  50.0411457  36.5188925 111.6748797  50.2178086  37.4406890 111.4869781
  50.8368291  36.2047345 112.1043177  51.1642773  38.0367099 117.6759139
  51.7150198  37.9084163 116.9036133  50.3254249  38.3361988 117.3254032
  46.1965489  31.7311823 110.3685614  47.0340711  32.1408832 110.1519322
  46.3743757  30.7911266 110.3385808  58.0929922  29.3986904 106.0569447
  57.5776545  30.1691509 106.2957835  57.8207230  28.7252040 106.6802509
  55.6777033  24.2436605 111.1154686  54.8218629  23.8543455 110.9360324
  56.0903984  24.3228566 110.2554471  63.0664196  32.1519259 107.9922621
  62.2893638  31.8130418 107.5477783  63.7455677  32.1571882 107.3177586
  57.8816225  27.2713996 107.8829228  57.5766360  27.5860145 108.7339372
  58.8346667  27.3495416 107.9256561  56.3262657  33.4304220 109.5322182
  55.7984018  32.6956979 109.2195420  55.8250159  34.2078896 109.2862151
  61.3055503  31.6253240 114.6489229  60.6479177  32.3152501 114.7369357
  62.1095902  32.0149672 114.9923215  60.1160961  29.9797613 112.6993170
  60.6292843  30.6127605 113.2014880  60.7662185  29.3798808 112.3336530
  51.3850971  26.1228347 105.9124679  50.5488284  26.4603033 106.2333954
  51.2455741  25.9877327 104.9751816  54.4715257  31.2484430 102.5357155
  53.5642318  31.0173683 102.7348304  54.9686289  30.4522049 102.7231137
  57.3783336  39.9581937 105.4553841  56.7045034  40.2613634 106.0638799
  57.7649158  40.7611017 105.1059299  57.3776840  28.8538484 110.0754191
  58.1248659  29.3659881 109.7661313  57.6468430  28.5322537 110.9358585
  55.6503490  31.3497025 107.0581145  54.7414709  31.0656058 107.1553615
  55.6798574  31.7696103 106.1984452  60.8822758  34.9603614 110.8272313
  60.4285085  34.1194524 110.8837503  60.2516724  35.5965013 111.1647093
  59.8255677  25.8895600 112.0572980  59.0878434  25.3772986 112.3883223
  60.0782451  25.4495982 111.2456257  59.3255697  36.7980111 111.7622131
  59.6178671  37.3585168 111.0434497  59.8354317  37.0908672 112.5175290
  54.1988384  28.9625645 113.1590941  54.2536994  28.0099482 113.0833417
  53.3879586  29.1185084 113.6432239  55.3479578  32.8905768 104.3969224
  54.9099008  32.1741627 103.9374861  56.0890019  33.1181883 103.8354315
  52.1380744  27.5802705 110.9181320  51.3248610  27.8796876 111.3246512
  52.6339738  27.1858394 111.6355802  54.2889322  37.5760462 112.8515584
  54.2465501  37.8021308 111.9224116  55.2052021  37.3423837 113.0001385
  63.4652693  31.1662965 110.4545543  63.3270591  31.3564561 109.5266732
  63.1088912  31.9282348 110.9113594  63.4922072  33.2339492 115.4656814
  63.9258579  33.1414781 116.3139868  64.2053653  33.2096993 114.8276830
  52.4055123  34.4523491 112.6477547  53.1995721  33.9573811 112.4460122
  51.6946815  33.9241354 112.2845253  57.2249967  36.8341587 116.9989915
  57.2786990  37.4032523 117.7667631  56.3564749  37.0043472 116.6343952
  48.7137886  28.5966573 108.7237300  47.7835474  28.5351028 108.9407262
  48.8095358  28.0742525 107.9273941  64.3537622  33.2763193 117.9989699
  64.5473512  34.1809004 118.2448974  64.2538240  32.8170612 118.8328285
  54.9826399  35.0252513 116.3275384  54.8437484  34.6571297 117.2001322
  54.1940995  35.5400152 116.1559342  55.5774551  40.1261609 107.6700921
  55.7526306  39.6549653 108.4846543  54.8907339  40.7527376 107.8982181
  56.5331614  34.4034116 113.7164222  56.1981447  34.3634886 114.6121872
  56.0335560  33.7378832 113.2434632  59.4690806  31.7490150 103.9901282
  58.8519976  31.0236978 103.8934334  59.0007294  32.5099510 103.6468356
  50.1435636  43.2750972 114.4440781  50.3832234  43.9069496 115.1219799
  49.3004832  42.9239012 114.7306140  51.2589351  25.9675574 103.1122586
  50.3818818  25.8464375 102.7484833  51.7347105  25.1761653 102.8601475
  54.6563498  39.0830095 116.8482285  54.5833669  39.8885066 117.3601589
  54.2140891  39.2822060 116.0230306  54.4453278  38.3201865 110.3585106
  53.6620799  38.8623545 110.4523331  55.1446023  38.8375844 110.7579348
  65.6079685  29.8336860 114.6437603  65.5969561  30.7161575 114.2731536
  64.7397064  29.4808410 114.4492140  57.1162181  38.9816929 119.0040443
  57.8290154  39.6164393 118.9316345  56.6252210  39.0780795 118.1880445
  58.8379708  32.8868181 110.5757735  57.9035987  33.0069644 110.4062439
  59.0156377  31.9840648 110.3117745  62.2252260  28.7285501 111.1107769
  62.6912712  29.5613492 111.0368072  62.6759760  28.2630482 111.8153028
  60.2928491  35.0729322 108.1093921  60.5688335  34.9585916 109.0187795
  59.4232990  34.6746807 108.0706094  56.9282555  39.3215673 111.7526735
  57.1104949  38.5037329 112.2154487  57.7515541  39.5383365 111.3151625
  57.2624720  38.2483858 109.0141783  57.7912487  37.7376312 108.4011946
  57.5252940  37.9326388 109.8787316  50.6180468  39.2998975 111.7739559
  49.9490843  39.7845102 111.2903599  50.4793338  39.5468195 112.6882938
  54.7585737  41.3342718 118.3722218  55.3104045  41.4974340 119.1371303
  55.0991930  41.9247156 117.7002243  45.9868045  27.5617430 108.5535492
  46.2821486  26.6528108 108.5002545  45.0856081  27.5405169 108.2316494
  57.8954124  39.2824694 115.3585900  57.7705264  38.4814433 114.8496845
  58.5533215  39.7770887 114.8699870  59.9589032  37.0833714 116.9865450
  59.0119368  36.9639065 116.9143777  60.3071806  36.1956212 117.0691711
  56.9635466  36.8786430 113.1869802  56.8160428  35.9503137 113.3677372
  57.7888959  36.9006521 112.7026877  50.8297710  25.5304497 109.0450294
  51.1693783  26.0590418 108.3228903  51.2769831  25.8684903 109.8208861
  60.5669588  37.7014989 114.2734675  61.4916135  37.4957850 114.1359126
  60.3984891  37.4531390 115.1824016  52.8165857  24.0279119 107.2443587
  53.5374220  24.4060371 106.7407304  52.1931161  24.7467995 107.3478565
  56.9596980  24.7324268 108.1801919  57.1760594  25.6148905 107.8790748
  56.4791047  24.3410481 107.4507561  60.3564904  38.2200656 109.6296766
  60.5301781  37.6547079 108.8770619  60.8493795  39.0201551 109.4476256
  66.2104295  30.9837079 111.2487066  66.6535441  30.2344404 110.8506189
  65.3330805  30.9747215 110.8660798  61.3440076  37.5367421 106.7293665
  62.0390981  38.1574113 106.9480979  61.6863226  36.6862772 107.0046043
  63.2431499  34.9867126 108.2580995  63.7682824  35.3254399 107.5330315
  63.1553852  34.0514141 108.0744130  54.9272160  41.0539109 112.6176249
  54.4877150  40.5615488 113.3109105  55.6780277  40.5112077 112.3768324
  47.4064499  37.2450650 112.6200877  48.2322519  36.9454422 112.2399520
  47.0558551  36.4758273 113.0690665  52.3746032  36.5977118 114.6898550
  51.7526042  35.9347823 114.3900778  53.0450899  36.6238250 114.0072198
  51.9359539  35.1481042 108.1657011  52.0847660  35.8316506 107.5123684
  52.7425983  35.1286132 108.6806467  65.7537160  32.4542317 113.6409514
  66.5884051  32.8932121 113.8047074  65.8896288  31.9780971 112.8217759
  49.6912172  31.1746219 109.1718080  49.4458214  30.2708549 109.3698290
  49.8608087  31.1763370 108.2297558  48.9607820  26.9074577 106.6704241
  48.2677065  26.9818932 106.0144277  48.7159572  26.1434921 107.1925758
  55.4354945  37.6429172 105.6368758  54.8628912  38.2619359 105.1839230
  56.0087738  38.1928534 106.1708680  58.6552205  37.9266322 106.7677341
  59.5882878  37.8611884 106.9710216  58.5675417  38.7622589 106.3091873
  61.2840221  37.2432193 103.7281288  61.2053853  36.9092056 104.6217046
  62.1049888  37.7353961 103.7272760  63.9818412  30.1093932 116.9357607
  63.9494733  29.1709933 117.1217291  64.5919036  30.1877969 116.2023432
  55.8201743  28.9789985 102.9784811  56.7660848  28.8496193 103.0473229
  55.4415988  28.2404647 103.4554239  69.7994962  31.1709939 116.0763644
  70.5298351  30.9095227 116.6371347  69.1901908  30.4338661 116.1165712
  67.8810259  29.3117801 116.6738095  67.1543423  29.1773766 116.0654586
  67.4657546  29.6194630 117.4794813  54.0044660  26.9039961 102.9139696
  53.0976116  26.6073074 102.9902410  54.2820641  26.6069779 102.0473982
  55.6206726  21.4476851 109.0683937  54.8107454  21.1023936 109.4439183
  56.3091143  21.1384395 109.6571549  52.7743445  23.7626897 103.0551675
  53.6362609  24.0881795 103.3147493  52.9593789  22.9758392 102.5424741
  60.9276082  22.6355423 110.1986898  60.3474751  23.2940227 109.8164951
  60.6612014  21.8132768 109.7874316  59.7100960  24.7955513 109.2543246
  58.8226815  25.0805164 109.0363441  60.1254949  24.6349277 108.4070523
  63.0615496  24.8202034 112.9697586  63.8375886  25.3098487 113.2422203
  62.3363630  25.2460089 113.4269455  65.4988054  25.5329654 114.0271526
  66.0932545  25.2925390 113.3164835  65.5714638  24.8136784 114.6545063
  47.7185210  39.3763265 114.3414691  47.5839678  38.6163665 113.7752689
  47.3017272  40.1004164 113.8743480  58.8544173  34.5600188 103.3491266
  59.5580023  34.7650191 103.9648922  58.1306822  35.1276950 103.6140350
  59.6841983  30.3110049 109.4693537  59.6277185  30.7678601 108.6301169
  60.2370326  29.5500734 109.2916379  63.4946789  26.0999781 110.2943656
  63.2383723  25.6996417 111.1251864  62.8699657  26.8143575 110.1693795
  67.8059127  28.8395854 112.8014948  67.2458685  28.9089044 113.5746510
  67.2002630  28.6636839 112.0814444  50.8754336  40.2732582 114.5533134
  50.7586720  41.2178014 114.4511824  50.0546782  39.9706143 114.9418933
  60.7630870  34.9982717 105.3989727  61.5976474  34.5663916 105.2167201
  60.6015213  34.8264731 106.3266621  60.4176763  31.5014831 106.7646066
  60.3625566  31.3359102 105.8234510  59.7922818  32.2090863 106.9208256
  53.7272888  21.0022940 106.3431384  53.7151558  21.9464779 106.4999655
  54.6196310  20.8193085 106.0490845  51.9008850  40.9260843 117.7689062
  52.8036097  40.9584454 118.0855557  51.6746220  39.9961294 117.7835398
  53.6562452  39.6791830 114.4299141  52.7058083  39.6793692 114.3163513
  53.9594938  38.9324565 113.9135175  69.3915145  45.5152368 115.4944903
  70.0293555  45.3959116 114.7908243  69.2735988  46.4633212 115.5532855
  66.2004852  45.4679796 115.4306428  65.8623363  45.3520861 114.5426963
  67.0694620  45.0670962 115.4107434  62.0591667  47.3215273 111.4203319
  61.4956533  47.2305210 110.6519607  61.9444063  46.5015177 111.9005811
  66.6824635  46.6214648 121.3892633  66.6713276  46.2267446 120.5173137
  66.8445274  45.8880721 121.9826405  59.6056099  48.8166464 114.2587539
  60.3977391  48.4757289 113.8433839  59.8452750  48.9261440 115.1789693
  67.6391226  50.9886241 106.7317784  66.9879206  51.5740321 106.3451798
  68.4335589  51.5192436 106.7912821  61.5646853  48.0775378 107.1304918
  62.3377729  47.5304365 106.9917794  61.9172252  48.9419627 107.3419380
  63.4031896  49.4051760 120.3371817  63.1121762  50.3097391 120.2218484
  64.0388880  49.4468288 121.0515887  64.3288103  46.7828609 116.9273177
  64.9251675  46.5584631 116.2130140  64.3863074  46.0413354 117.5298625
  63.9013131  44.2368044 104.7623368  64.1538652  43.7149565 104.0006831
  62.9637690  44.0734189 104.8650052  68.9456414  43.2403822 112.5698111
  69.7319503  42.8223245 112.2188528  69.2095118  44.1449914 112.7379760
  69.1166491  48.6776673 107.2686768  68.4812324  48.7511299 107.9807673
  68.7863898  49.2670271 106.5905847  74.3464841  43.1779055 113.4731090
  75.0790013  42.6078272 113.7068919  73.5904197  42.7900656 113.9137595
  63.6209420  46.1396150 106.9647743  63.5045678  45.4641053 107.6328827
  63.7311680  45.6528524 106.1479896  65.9640961  45.6006297 110.6694432
  65.5999168  45.0736918 111.3807354  66.8208077  45.2104766 110.4960918
  71.8690261  36.8900630 117.9325698  71.5373586  37.7596040 117.7086913
  71.2735875  36.5736914 118.6119729  65.6046448  40.6296197 105.6655781
  65.7720850  41.4976433 106.0326252  65.4143617  40.7923478 104.7417070
  68.3621781  49.0913176 117.3321611  68.0622504  49.9938214 117.2237418
  68.0172841  48.8245359 118.1842764  61.8134262  45.5426972 113.3658316
  60.8884759  45.4103186 113.5736007  62.0618676  46.3221192 113.8628258
  71.7618925  41.6095716 115.0119048  70.8535802  41.5411124 114.7177809
  71.7106521  42.0867661 115.8400874  65.5835669  43.0853854 106.6502448
  65.4635294  43.5310905 107.4887928  64.8888257  43.4339172 106.0915986
  59.1743074  45.1860246 114.2002105  59.3035455  45.4394725 115.1141516
  58.4940525  45.7787954 113.8806760  63.3442561  55.8557496 110.2992579
  63.2666590  56.8065321 110.3781059  62.7404204  55.5103368 110.9567505
  65.8359791  43.0285361 122.9553946  65.0593125  43.5879281 122.9456810
  66.4750354  43.5142144 123.4768816  73.6280571  39.8112154 116.7896922
  72.9854951  40.1044687 116.1436717  73.1235500  39.6965074 117.5950119
  71.2820735  43.5575327 107.4782782  72.1938591  43.7902714 107.3030479
  70.7730382  44.1412372 106.9157860  64.0906163  45.8370815 122.5171913
  64.8320847  46.3755859 122.2406736  63.3843148  46.4637103 122.6743465
  69.5661503  47.9799955 121.1144074  69.9744859  47.5382366 120.3698707
  68.8438764  47.4052583 121.3678267  65.9192573  42.9172562 118.4877631
  66.7653768  43.3411975 118.6312280  65.8591210  42.2606186 119.1816194
  69.8890317  48.5401146 114.8696363  69.2599180  48.7046860 114.1672431
  69.5015979  48.9542755 115.6407327  73.7679549  49.4755584 112.2240727
  73.0830587  49.8554485 111.6737760  73.8523398  50.0850910 112.9572675
  69.0692018  40.5776930 120.1458805  68.8252950  41.3318991 119.6093080
  69.3451948  40.9562278 120.9806052  71.0230481  47.1215543 118.8236070
  71.2347376  47.7647303 118.1470451  70.9760229  46.2877859 118.3558000
  68.6256710  39.7333363 115.7272643  67.7641189  40.0314617 116.0189380
  68.6519144  39.9503762 114.7953675  65.4418279  48.2775554 112.1346448
  65.9056625  48.5563257 111.3451071  65.1775077  47.3758998 111.9519539
  62.3342360  47.8247035 115.0726211  62.9043717  48.2534304 114.4343696
  62.9250472  47.5429620 115.7710397  64.3787165  44.3998706 108.9436013
  65.0811208  44.8519750 109.4109940  64.0467794  43.7582525 109.5715906
  62.8267527  42.9910463 123.3187223  62.1966187  43.6726744 123.5522620
  62.7203615  42.8793544 122.3740361  58.1212499  42.6582259 114.2453147
  57.3311553  42.9139787 113.7693258  58.6123746  43.4730597 114.3505187
  72.1376309  49.9987498 116.9958428  72.9593752  49.5967685 116.7141109
  72.1338711  49.8955732 117.9474544  60.0727244  43.0226838 111.2036624
  59.2758408  43.1345532 111.7220119  59.8452837  43.3613490 110.3377514
  65.9032912  49.5471541 119.1519138  65.9677345  50.0091949 119.9877310
  65.1943836  48.9168906 119.2801448  56.4050202  42.9112749 116.6768138
  56.6558240  43.7959759 116.9425714  56.9409750  42.7317351 115.9043230
  80.2282302  46.3426247 113.3443399  79.4746010  45.7733645 113.1887404
  80.3629843  46.3088911 114.2914034  65.6180930  51.2139649 109.0198119
  65.4826604  52.0591185 109.4482966  66.1590742  51.4158926 108.2564052
  59.0710327  48.7315087 109.5926044  59.5834848  49.5258337 109.7431608
  59.7233040  48.0341377 109.5259645  60.8805212  51.8480843 111.6748797
  61.0571840  52.7698808 111.4869781  61.6762045  51.5339262 112.1043177
  65.0216230  38.7089108 123.2732730  65.7625944  39.3096261 123.1937193
  65.2534153  37.9666746 122.7150773  60.1657568  43.8945475 121.5510960
  60.0511083  42.9930732 121.8518059  59.3102086  44.1409172 121.1995777
  67.2449406  51.8363215 123.1498461  66.8013260  51.0499594 122.8319365
  67.9066620  52.0242366 122.4842351  62.0036527  53.3659017 117.6759139
  62.5543952  53.2376080 116.9036133  61.1648003  53.6653906 117.3254032
  69.3430644  52.1166015 121.1779862  69.3249120  52.9374896 120.6860131
  70.2650564  51.9920090 121.4030003  65.8003698  49.6310145 122.0203370
  66.3332035  48.8698433 121.7902678  65.2717779  49.3383797 122.7627525
  68.9673393  34.7370211 117.5497012  68.6237663  35.6271852 117.4736123
  69.3352356  34.5471868 116.6866597  57.0359244  47.0603741 110.3685614
  57.8734466  47.4700750 110.1519322  57.2137512  46.1203183 110.3385808
  68.9323676  44.7278822 106.0569447  68.4170299  45.4983426 106.2957835
  68.6600984  44.0543958 106.6802509  66.5170787  39.5728523 111.1154686
  65.6612383  39.1835373 110.9360324  66.9297739  39.6520483 110.2554471
  68.0469934  37.1074866 115.5146245  67.5434729  37.0705001 114.7014051
  68.3400541  38.0167609 115.5742902  64.2912820  37.1913596 114.5212427
  65.1565816  36.9956404 114.1618316  64.3590328  36.9623947 115.4481784
  73.9057950  47.4811176 107.9922621  73.1287393  47.1422336 107.5477783
  74.5849431  47.4863800 107.3177586  68.7209979  42.6005914 107.8829228
  68.4160115  42.9152063 108.7339372  69.6740421  42.6787334 107.9256561
  67.1656411  48.7596137 109.5322182  66.6377773  48.0248897 109.2195420
  66.6643914  49.5370814 109.2862151  72.1449257  46.9545158 114.6489229
  71.4872931  47.6444419 114.7369357  72.9489656  47.3441590 114.9923215
  61.8975139  39.4215804 111.8928794  62.4718891  39.1990985 111.1601987
  62.4846121  39.4904498 112.6457395  70.9554716  45.3089530 112.6993170
  71.4686598  45.9419522 113.2014880  71.6055940  44.7090726 112.3336530
  62.2244726  41.4520265 105.9124679  61.3882038  41.7894951 106.2333954
  62.0849495  41.3169244 104.9751816  64.1997806  36.2957052 110.6203863
  63.5462219  35.9806070 109.9960478  64.1578280  35.6732793 111.3463686
  65.3109011  46.5776347 102.5357155  64.4036073  46.3465601 102.7348304
  65.8080043  45.7813967 102.7231137  68.2177090  55.2873855 105.4553841
  67.5438789  55.5905551 106.0638799  68.6042912  56.0902935 105.1059299
  67.4335547  42.7838986 114.9451511  66.5158108  43.0053933 114.7873199
  67.8495690  42.8585296 114.0863218  68.2170594  44.1830402 110.0754191
  68.9642413  44.6951799 109.7661313  68.4862184  43.8614454 110.9358585
  66.4897245  46.6788942 107.0581145  65.5808464  46.3947975 107.1553615
  66.5192328  47.0988021 106.1984452  71.7216512  50.2895532 110.8272313
  71.2678839  49.4486442 110.8837503  71.0910479  50.9256930 111.1647093
  70.6649432  41.2187518 112.0572980  69.9272188  40.7064904 112.3883223
  70.9176205  40.7787899 111.2456257  70.1649451  52.1272029 111.7622131
  70.4572426  52.6877086 111.0434497  70.6748072  52.4200590 112.5175290
  70.7661059  33.9963770 112.6514750  71.0719936  33.1361133 112.3640665
  71.4913664  34.5881390 112.4513744  57.0585415  44.3994456 111.0396348
  56.8609815  43.8063817 110.3147414  56.5032079  44.0946667 111.7572286
  65.0382139  44.2917563 113.1590941  65.0930748  43.3391399 113.0833417
  64.2273341  44.4477002 113.6432239  66.1873332  48.2197686 104.3969224
  65.7492762  47.5033545 103.9374861  66.9283773  48.4473801 103.8354315
  62.9774499  42.9094623 110.9181320  62.1642364  43.2088793 111.3246512
  63.4733493  42.5150311 111.6355802  65.1283076  52.9052380 112.8515584
  65.0859255  53.1313226 111.9224116  66.0445775  52.6715754 113.0001385
  68.5748710  43.3736447 119.7496214  68.9298098  43.6007920 120.6090679
  69.2220842  43.7054824 119.1273469  74.3046447  46.4954883 110.4545543
  74.1664346  46.6856479 109.5266732  73.9482666  47.2574266 110.9113594
  62.4688573  40.4812978 116.5342555  63.1087953  40.3401737 115.8365518
  61.6366104  40.1947492 116.1581157  74.3315827  48.5631410 115.4656814
  74.7652333  48.4706699 116.3139868  75.0447408  48.5388911 114.8276830
  63.2448877  49.7815409 112.6477547  64.0389476  49.2865729 112.4460122
  62.5340570  49.2533272 112.2845253  68.0643722  52.1633504 116.9989915
  68.1180744  52.7324440 117.7667631  67.1958503  52.3335389 116.6343952
  59.5531641  43.9258490 108.7237300  58.6229229  43.8642946 108.9407262
  59.6489113  43.4034443 107.9273941  59.4717190  40.4513303 111.3115541
  59.7324007  41.3658636 111.2024702  60.2934362  39.9837746 111.4612154
  60.9442115  41.8651060 118.4814366  61.6165169  41.6568423 117.8327015
  60.1171902  41.6673146 118.0419598  75.1931376  48.6055111 117.9989699
  75.3867266  49.5100921 118.2448974  75.0931995  48.1462530 118.8328285
  66.8467687  38.4913001 120.4980027  66.1995602  39.1902951 120.4044503
  67.6168703  38.9249145 120.8656275  70.2546485  48.7561853 123.5730580
  70.1031991  48.5272405 122.6560664  70.2451165  49.7132455 123.5861925
  67.0231821  46.3293766 118.5576847  67.9523881  46.4804926 118.3845814
  66.6022851  46.4177787 117.7025493  65.8220153  50.3544431 116.3275384
  65.6831239  49.9863215 117.2001322  65.0334749  50.8692070 116.1559342
  66.4168305  55.4553527 107.6700921  66.5920061  54.9841570 108.4846543
  65.7301093  56.0819293 107.8982181  67.3725368  49.7326033 113.7164222
  67.0375201  49.6926803 114.6121872  66.8729314  49.0670749 113.2434632
  61.3469612  45.1393663 119.2416803  61.2089410  44.4073902 119.8428342
  62.2574536  45.0502563 118.9600991  70.3084560  47.0782068 103.9901282
  69.6913731  46.3528896 103.8934334  69.8401049  47.8391428 103.6468356
  63.9751913  44.8513623 118.7300483  64.6851532  44.2106815 118.6887101
  63.9321221  45.1026518 119.6526664  71.9638692  51.7880976 121.6507062
  71.9051238  51.1040196 120.9837645  72.3658210  52.5299966 121.1987688
  62.6880847  41.8378841 120.5496122  62.1518204  41.3869579 121.2017719
  62.0997555  41.9724749 119.8066587  60.9829391  58.6042890 114.4440781
  61.2225989  59.2361414 115.1219799  60.1398587  58.2530930 114.7306140
  62.0983106  41.2967492 103.1122586  61.2212572  41.1756293 102.7484833
  62.5740859  40.5053570 102.8601475  71.9656099  49.7520560 119.8821042
  71.0782878  49.4146482 120.0047440  72.5354650  49.0203591 120.1189807
  53.6185246  46.0844652 113.2064093  54.3056286  45.7706382 112.6185108
  53.4633375  46.9886016 112.9331344  58.4219968  40.9734848 117.6349117
  58.3378157  40.3660518 116.8999527  57.6002675  41.4643867 117.6358613
  65.4957252  54.4122012 116.8482285  65.4227424  55.2176984 117.3601589
  65.0534645  54.6113978 116.0230306  65.2847032  53.6493782 110.3585106
  64.5014554  54.1915463 110.4523331  65.9839777  54.1667762 110.7579348
  68.5943682  39.4588412 113.0019312  69.0912382  38.7058374 112.6820382
  67.8230664  39.4952728 112.4362521  76.4473440  45.1628777 114.6437603
  76.4363316  46.0453493 114.2731536  75.5790819  44.8100328 114.4492140
  67.9555936  54.3108846 119.0040443  68.6683908  54.9456311 118.9316345
  67.4645965  54.4072712 118.1880445  69.6773463  48.2160099 110.5757735
  68.7429742  48.3361561 110.4062439  69.8550131  47.3132566 110.3117745
  65.1778651  41.6005795 112.7290996  64.8076438  41.0476835 113.4171902
  65.6737743  40.9963928 112.1765996  73.0646014  44.0577418 111.1107769
  73.5306466  44.8905410 111.0368072  73.5153515  43.5922400 111.8153028
  63.0067849  52.0603290 119.8246014  63.7077309  52.6939773 119.9775409
  62.5362964  52.4018021 119.0641654  71.1322245  50.4021240 108.1093921
  71.4082089  50.2877834 109.0187795  70.2626744  50.0038724 108.0706094
  71.0362677  36.4258005 115.1498671  70.1225757  36.6562232 115.3180878
  71.4655778  36.5096449 116.0012703  70.8069135  44.6147897 117.6498565
  70.1540586  44.8623805 116.9951017  71.1849515  43.8012035 117.3161042
  67.7676309  54.6507590 111.7526735  67.9498704  53.8329246 112.2154487
  68.5909295  54.8675283 111.3151625  68.1018475  53.5775776 109.0141783
  68.6306241  53.0668230 108.4011946  68.3646694  53.2618306 109.8787316
  66.8556708  45.3567708 124.1364602  66.1797345  45.2561838 124.8066977
  67.6784342  45.2006922 124.6000599  58.6035567  51.5939645 116.7577117
  59.1889004  50.8483333 116.8905021  58.4060406  51.9043602 117.6413781
  61.4574223  54.6290892 111.7739559  60.7884598  55.1137020 111.2903599
  61.3187092  54.8760113 112.6882938  53.1953222  44.1645245 115.4781560
  53.2337322  43.6308836 116.2718678  52.6893515  43.6380451 114.8592537
  65.5979491  56.6634636 118.3722218  66.1497799  56.8266257 119.1371303
  65.9385685  57.2539074 117.7002243  60.5743985  39.0109786 118.9744102
  60.6385311  39.8724616 118.5621500  60.5111105  38.3983787 118.2416461
  70.4490366  51.4895893 124.2270872  70.9930270  52.1025852 123.7325827
  69.8677210  52.0475472 124.7437885  56.8261800  42.8909347 108.5535492
  57.1215241  41.9820026 108.5002545  55.9249836  42.8697087 108.2316494
  68.7347879  54.6116611 115.3585900  68.6099018  53.8106351 114.8496845
  69.3926970  55.1062805 114.8699870  60.3556047  40.9665344 114.5363040
  59.6342633  41.5801312 114.3970513  61.1449303  41.5023109 114.4579686
  70.7982787  52.4125631 116.9865450  69.8513122  52.2930983 116.9143777
  71.1465560  51.5248129 117.0691711  63.1582360  38.3019770 120.8103692
  63.6816762  38.5482067 121.5730001  62.9394694  39.1339805 120.3906829
  58.5549641  40.5723445 108.6774817  58.2262348  39.6920824 108.4949923
  58.9089012  40.5171114 109.5651206  67.8029220  52.2078348 113.1869802
  67.6554183  51.2795055 113.3677372  68.6282714  52.2298438 112.7026877
  61.6691465  40.8596415 109.0450294  62.0087537  41.3882336 108.3228903
  62.1163585  41.1976821 109.8208861  71.4063342  53.0306906 114.2734675
  72.3309890  52.8249768 114.1359126  71.2378645  52.7823307 115.1824016
  64.3634905  39.2433465 118.4953362  64.0231726  38.4441278 118.8974042
  63.6573912  39.5435176 117.9230196  65.0151377  36.3282778 116.9480685
  65.8377447  35.8543256 116.8259576  65.2589441  37.1073262 117.4479372
  63.6559612  39.3571036 107.2443587  64.3767974  39.7352289 106.7407304
  63.0324916  40.0759913 107.3478565  67.7990735  40.0616185 108.1801919
  68.0154349  40.9440823 107.8790748  67.3184802  39.6702399 107.4507561
  62.5389956  43.0201898 114.7572664  62.3934537  43.3342202 115.6496946
  62.0615160  43.6386799 114.2043563  64.3986339  40.0104446 114.8053554
  64.3847908  39.1145540 114.4685852  65.1158767  40.0175110 115.4391840
  66.2512470  40.4441787 116.8506681  65.9930247  41.3658857 116.8491011
  65.7197510  40.0472221 117.5407145  71.1958658  53.5492574 109.6296766
  71.3695536  52.9838996 108.8770619  71.6887550  54.3493469 109.4476256
  57.0135618  45.5607243 117.6960325  56.4689086  46.3367051 117.8280600
  57.8914968  45.9078047 117.5379447  63.8023235  38.8918827 110.0741124
  63.9239146  37.9635473 110.2732011  63.5125277  38.9057513 109.1619439
  66.6714425  36.5773737 113.2107844  66.6936122  36.6413070 112.2559823
  67.0882484  35.7378246 113.4048350  77.0498049  46.3128997 111.2487066
  77.4929196  45.5636322 110.8506189  76.1724560  46.3039133 110.8660798
  72.1833831  52.8659338 106.7293665  72.8784735  53.4866031 106.9480979
  72.5256981  52.0154689 107.0046043  57.8001640  44.6877139 120.5890482
  57.0583376  44.8359774 121.1755113  57.4794384  44.9485405 119.7257232
  74.0825254  50.3159044 108.2580995  74.6076578  50.6546316 107.5330315
  73.9947606  49.3806059 108.0744130  65.7445303  54.2293117 120.3870872
  66.0532429  53.9842264 121.2593572  66.5420785  54.4339756 119.8989742
  65.7665915  56.3831027 112.6176249  65.3270905  55.8907406 113.3109105
  66.5174032  55.8403995 112.3768324  58.2458254  52.5742568 112.6200877
  59.0716274  52.2746340 112.2399520  57.8952306  51.8050190 113.0690665
  63.2139787  51.9269036 114.6898550  62.5919796  51.2639741 114.3900778
  63.8844654  51.9530168 114.0072198  56.4466859  50.4928894 113.5789810
  55.6098767  50.0651069 113.3973812  56.4190504  50.6861338 114.5160602
  73.7719160  50.9491947 123.5632193  72.9814704  50.9316086 123.0236693
  73.5352515  51.4880241 124.3181230  73.8917035  47.7984414 120.8764922
  73.9415040  47.6334421 121.8180445  73.7830958  46.9311673 120.4862803
  62.7753294  50.4772959 108.1657011  62.9241414  51.1608424 107.5123684
  63.5819737  50.4578049 108.6806467  71.1820797  43.7815342 122.1924229
  72.0830660  43.6421807 121.9008226  71.2568772  43.9469797 123.1322406
  65.5163603  41.1582197 121.0377415  64.6466912  41.4515763 120.7660004
  65.7523083  41.7422642 121.7584679  75.3935232  50.2181355 121.1206944
  75.1020040  50.5811336 121.9570404  74.7807363  49.5048364 120.9420276
  76.5930914  47.7834235 113.6409514  77.4277806  48.2224039 113.8047074
  76.7290043  47.3072888 112.8217759  73.6422420  45.3413970 119.5887001
  74.1176542  45.5341616 118.7805853  72.7187985  45.3973156 119.3430385
  60.5305927  46.5038137 109.1718080  60.2851969  45.6000467 109.3698290
  60.7001841  46.5055287 108.2297558  68.2202637  37.3761813 118.5542835
  68.7384580  38.1122840 118.2289324  67.8657769  37.6825807 119.3889594
  59.8001574  42.2366495 106.6704241  59.1070819  42.3110850 106.0144277
  59.5553326  41.4726838 107.1925758  68.4715231  33.7962096 114.0743732
  68.7516985  33.1285285 114.7004159  69.2565838  33.9891192 113.5618396
  66.2748699  52.9721090 105.6368758  65.7022666  53.5911277 105.1839230
  66.8481493  53.5220452 106.1708680  72.3424089  42.2179730 117.8215307
  73.2941512  42.3177828 117.8427531  72.1727540  41.4257999 118.3313391
  70.3638469  39.3035313 118.0074708  69.7688401  39.5840326 117.3121197
  70.0788165  39.7929214 118.7791449  69.4945959  53.2558240 106.7677341
  70.4276632  53.1903802 106.9710216  69.4069172  54.0914507 106.3091873
  72.1233976  52.5724110 103.7281288  72.0447607  52.2383974 104.6217046
  72.9443643  53.0645878 103.7272760  74.8212167  45.4385850 116.9357607
  74.7888487  44.5001850 117.1217291  75.4312791  45.5169886 116.2023432
  66.6595498  44.3081903 102.9784811  67.6054602  44.1788111 103.0473229
  66.2809743  43.5696565 103.4554239  74.9706655  42.2296893 116.9815890
  74.4545704  41.4455350 116.7945819  75.8546604  41.9015610 117.1462409
  72.6317382  35.9737909 112.9411703  72.4342203  35.6652997 113.8255035
  73.2417088  36.6999548 113.0709632  80.6388717  46.5001856 116.0763644
  81.3692105  46.2387145 116.6371347  80.0295662  45.7630578 116.1165712
  78.7204014  44.6409719 116.6738095  77.9937177  44.5065684 116.0654586
  78.3051301  44.9486548 117.4794813  66.5434190  48.3599649 124.4385468
  67.4637200  48.5378248 124.6325514  66.5083773  47.4155694 124.2865167
  64.8438415  42.2331879 102.9139696  63.9369870  41.9364992 102.9902410
  65.1214396  41.9361697 102.0473982  55.7616355  43.5538242 113.3638742
  55.4419140  42.7003551 113.0713116  55.2149783  43.7686821 114.1196710
  59.5396263  46.2700683 117.0808249  59.7582273  47.2017791 117.0996283
  59.9522037  45.9108658 117.8663053  66.4600481  36.7768769 109.0683937
  65.6501209  36.4315854 109.4439183  67.1484898  36.4676312 109.6571549
  68.3891029  35.8546816 110.6908234  68.9422068  36.2742269 111.3498257
  68.6261115  34.9282564 110.7331190  63.6137200  39.0918814 103.0551675
  64.4756364  39.4173713 103.3147493  63.7987544  38.3050310 102.5424741
  55.6304615  47.1741154 115.3331864  54.9368087  46.7595107 114.8201818
  56.3777606  47.2161690 114.7365283  71.7669836  37.9647341 110.1986898
  71.1868505  38.6232145 109.8164951  71.5005769  37.1424685 109.7874316
  70.2173402  37.3652398 112.4008219  70.7173181  37.4768933 111.5922537
  70.8609010  37.0613451 113.0409027  64.2755398  45.2731028 125.2876060
  63.7922480  46.0731388 125.4939949  64.3616337  45.2838973 124.3343503
  57.5441358  47.1059408 113.2097879  57.5212046  47.2047095 112.2579762
  57.8541994  47.9524558 113.5315045  60.2028736  49.1635563 117.3244493
  61.1571989  49.1319505 117.2574425  60.0041259  48.7026186 118.1394719
  60.7928118  47.7336679 119.8915291  61.6121007  48.2280757 119.9150128
  61.0664926  46.8168647 119.8632858  70.5494714  40.1247431 109.2543246
  69.6620569  40.4097082 109.0363441  70.9648703  39.9641194 108.4070523
  73.9009250  40.1493952 112.9697586  74.6769640  40.6390404 113.2422203
  73.1757384  40.5752006 113.4269455  76.3381809  40.8621571 114.0271526
  76.9326300  40.6217307 113.3164835  76.4108392  40.1428702 114.6545063
  58.5578964  54.7055182 114.3414691  58.4233432  53.9455583 113.7752689
  58.1411027  55.4296082 113.8743480  69.6937927  49.8892106 103.3491266
  70.3973778  50.0942108 103.9648922  68.9700576  50.4568868 103.6140350
  70.5235738  45.6401967 109.4693537  70.4670939  46.0970518 108.6301169
  71.0764080  44.8792652 109.2916379  74.3340544  41.4291699 110.2943656
  74.0777478  41.0288335 111.1251864  73.7093412  42.1435493 110.1693795
  78.6452882  44.1687772 112.8014948  78.0852440  44.2380961 113.5746510
  78.0396385  43.9928757 112.0814444  61.7148090  55.6024499 114.5533134
  61.5980475  56.5469932 114.4511824  60.8940537  55.2998061 114.9418933
  71.6024625  50.3274635 105.3989727  72.4370229  49.8955833 105.2167201
  71.4408968  50.1556649 106.3266621  71.2570517  46.8306748 106.7646066
  71.2019321  46.6651020 105.8234510  70.6316572  47.5382781 106.9208256
  56.0463032  42.0674813 120.5907488  56.6921896  41.5573767 121.0794713
  55.8380183  42.8043494 121.1650913  68.5716424  49.1355660 126.0899629
  69.4407584  49.3096312 125.7286264  68.0923176  49.9550077 125.9675358
  64.5666643  36.3314857 106.3431384  64.5545312  37.2756697 106.4999655
  65.4590064  36.1485003 106.0490845  62.7402604  56.2552761 117.7689062
  63.6429851  56.2876371 118.0855557  62.5139975  55.3253212 117.7835398
  64.4956206  55.0083748 114.4299141  63.5451838  55.0085609 114.3163513
  64.7988693  54.2616482 113.9135175  68.3818762  32.9257634 110.5977321
  67.6151158  32.3716121 110.7434003  68.7929467  32.9979503 111.4591473
  80.2308900  60.8444286 115.4944903  80.8687310  60.7251033 114.7908243
  80.1129743  61.7925130 115.5532855  77.0398606  60.7971714 115.4306428
  76.7017118  60.6812779 114.5426963  77.9088374  60.3962879 115.4107434
  72.8985422  62.6507191 111.4203319  72.3350287  62.5597128 110.6519607
  72.7837817  61.8307095 111.9005811  77.5218389  61.9506566 121.3892633
  77.5107030  61.5559364 120.5173137  77.6839029  61.2172638 121.9826405
  70.4449854  64.1458382 114.2587539  71.2371146  63.8049207 113.8433839
  70.6846504  64.2553357 115.1789693  78.4784981  66.3178158 106.7317784
  77.8272960  66.9032239 106.3451798  79.2729343  66.8484353 106.7912821
  72.4040608  63.4067295 107.1304918  73.1771484  62.8596283 106.9917794
  72.7566007  64.2711545 107.3419380  74.2425650  64.7343678 120.3371817
  73.9515516  65.6389309 120.2218484  74.8782635  64.7760205 121.0515887
  75.1681857  62.1120526 116.9273177  75.7645430  61.8876549 116.2130140
  75.2256829  61.3705272 117.5298625  74.7406886  59.5659962 104.7623368
  74.9932406  59.0441483 104.0006831  73.8031445  59.4026107 104.8650052
  79.7850168  58.5695740 112.5698111  80.5713258  58.1515163 112.2188528
  80.0488873  59.4741832 112.7379760  79.9560246  64.0068590 107.2686768
  79.3206079  64.0803217 107.9807673  79.6257652  64.5962189 106.5905847
  85.1858596  58.5070973 113.4731090  85.9183768  57.9370190 113.7068919
  84.4297951  58.1192574 113.9137595  74.4603174  61.4688067 106.9647743
  74.3439432  60.7932971 107.6328827  74.5705434  60.9820441 106.1479896
  76.8034715  60.9298215 110.6694432  76.4392923  60.4028836 111.3807354
  77.6601831  60.5396684 110.4960918  82.7084016  52.2192547 117.9325698
  82.3767341  53.0887958 117.7086913  82.1129629  51.9028831 118.6119729
  76.4440202  55.9588114 105.6655781  76.6114605  56.8268351 106.0326252
  76.2537371  56.1215396 104.7417070  79.2015535  64.4205093 117.3321611
  78.9016259  65.3230132 117.2237418  78.8566595  64.1537276 118.1842764
  72.6528017  60.8718890 113.3658316  71.7278513  60.7395104 113.5736007
  72.9012430  61.6513109 113.8628258  82.6012679  56.9387633 115.0119048
  81.6929557  56.8703042 114.7177809  82.5500275  57.4159578 115.8400874
  76.4229423  58.4145772 106.6502448  76.3029048  58.8602823 107.4887928
  75.7282012  58.7631089 106.0915986  70.0136828  60.5152164 114.2002105
  70.1429209  60.7686643 115.1141516  69.3334279  61.1079872 113.8806760
  74.1836315  71.1849414 110.2992579  74.1060345  72.1357239 110.3781059
  73.5797959  70.8395286 110.9567505  76.6753545  58.3577279 122.9553946
  75.8986879  58.9171199 122.9456810  77.3144108  58.8434062 123.4768816
  84.4674326  55.1404072 116.7896922  83.8248706  55.4336605 116.1436717
  83.9629254  55.0256992 117.5950119  82.1214489  58.8867245 107.4782782
  83.0332345  59.1194632 107.3030479  81.6124136  59.4704289 106.9157860
  74.9299917  61.1662732 122.5171913  75.6714602  61.7047776 122.2406736
  74.2236903  61.7929021 122.6743465  80.4055257  63.3091873 121.1144074
  80.8138613  62.8674283 120.3698707  79.6832519  62.7344500 121.3678267
  76.7586327  58.2464480 118.4877631  77.6047522  58.6703893 118.6312280
  76.6984965  57.5898104 119.1816194  80.7284072  63.8693063 114.8696363
  80.0992934  64.0338778 114.1672431  80.3409734  64.2834673 115.6407327
  84.6073304  64.8047501 112.2240727  83.9224342  65.1846403 111.6737760
  84.6917153  65.4142828 112.9572675  79.9085772  55.9068848 120.1458805
  79.6646704  56.6610908 119.6093080  80.1845703  56.2854196 120.9806052
  81.8624235  62.4507460 118.8236070  82.0741130  63.0939220 118.1470451
  81.8153983  61.6169777 118.3558000  79.4650464  55.0625281 115.7272643
  78.6034943  55.3606535 116.0189380  79.4912899  55.2795680 114.7953675
  76.2812034  63.6067472 112.1346448  76.7450379  63.8855175 111.3451071
  76.0168832  62.7050916 111.9519539  73.1736115  63.1538953 115.0726211
  73.7437472  63.5826221 114.4343696  73.7644226  62.8721538 115.7710397
  75.2180920  59.7290624 108.9436013  75.9204963  60.1811668 109.4109940
  74.8861548  59.0874443 109.5715906  73.6661281  58.3202381 123.3187223
  73.0359942  59.0018661 123.5522620  73.5597369  58.2085462 122.3740361
  68.9606254  57.9874177 114.2453147  68.1705308  58.2431705 113.7693258
  69.4517501  58.8022514 114.3505187  82.9770063  65.3279416 116.9958428
  83.7987507  64.9259603 116.7141109  82.9732466  65.2247650 117.9474544
  70.9120999  58.3518756 111.2036624  70.1152162  58.4637450 111.7220119
  70.6846591  58.6905408 110.3377514  76.7426667  64.8763459 119.1519138
  76.8071099  65.3383866 119.9877310  76.0337590  64.2460824 119.2801448
  67.2443957  58.2404667 116.6768138  67.4951995  59.1251677 116.9425714
  67.7803505  58.0609269 115.9043230  91.0676056  61.6718164 113.3443399
  90.3139765  61.1025562 113.1887404  91.2023597  61.6380829 114.2914034
  76.4574684  66.5431567 109.0198119  76.3220359  67.3883102 109.4482966
  76.9984497  66.7450844 108.2564052  72.9442024  52.6223146 125.6812474
  72.5508969  52.0689345 126.3560118  73.7608164  52.9333725 126.0718991
  69.9104082  64.0607005 109.5926044  70.4228602  64.8550255 109.7431608
  70.5626794  63.3633295 109.5259645  71.7198966  67.1772761 111.6748797
  71.8965595  68.0990726 111.4869781  72.5155800  66.8631180 112.1043177
  75.8609985  54.0381025 123.2732730  76.6019698  54.6388179 123.1937193
  76.0927908  53.2958663 122.7150773  71.0051323  59.2237393 121.5510960
  70.8904838  58.3222650 121.8518059  70.1495841  59.4701089 121.1995777
  78.0843161  67.1655133 123.1498461  77.6407015  66.3791512 122.8319365
  78.7460374  67.3534284 122.4842351  72.8430282  68.6950935 117.6759139
  73.3937707  68.5667998 116.9036133  72.0041758  68.9945824 117.3254032
  80.1824399  67.4457933 121.1779862  80.1642874  68.2666814 120.6860131
  81.1044319  67.3212008 121.4030003  76.6397453  64.9602062 122.0203370
  77.1725790  64.1990351 121.7902678  76.1111534  64.6675714 122.7627525
  79.8067148  50.0662128 117.5497012  79.4631417  50.9563770 117.4736123
  80.1746110  49.8763786 116.6866597  67.8752998  62.3895659 110.3685614
  68.7128220  62.7992667 110.1519322  68.0531266  61.4495101 110.3385808
  79.7717430  60.0570739 106.0569447  79.2564054  60.8275344 106.2957835
  79.4994739  59.3835876 106.6802509  77.3564542  54.9020440 111.1154686
  76.5006138  54.5127291 110.9360324  77.7691493  54.9812401 110.2554471
  78.8863688  52.4366784 115.5146245  78.3828484  52.3996919 114.7014051
  79.1794295  53.3459526 115.5742902  75.1306574  52.5205513 114.5212427
  75.9959571  52.3248322 114.1618316  75.1984083  52.2915865 115.4481784
  84.7451705  62.8103094 107.9922621  83.9681147  62.4714254 107.5477783
  85.4243186  62.8155717 107.3177586  79.5603734  57.9297832 107.8829228
  79.2553869  58.2443981 108.7339372  80.5134176  58.0079251 107.9256561
  78.0050166  64.0888055 109.5322182  77.4771527  63.3540814 109.2195420
  77.5037668  64.8662731 109.2862151  82.9843012  62.2837075 114.6489229
  82.3266686  62.9736337 114.7369357  83.7883411  62.6733507 114.9923215
  72.7368893  54.7507721 111.8928794  73.3112645  54.5282903 111.1601987
  73.3239876  54.8196416 112.6457395  81.7948470  60.6381448 112.6993170
  82.3080352  61.2711440 113.2014880  82.4449694  60.0382644 112.3336530
  73.0638480  56.7812182 105.9124679  72.2275792  57.1186869 106.2333954
  72.9243250  56.6461162 104.9751816  75.0391561  51.6248970 110.6203863
  74.3855973  51.3097987 109.9960478  74.9972035  51.0024711 111.3463686
  76.1502766  61.9068265 102.5357155  75.2429827  61.6757519 102.7348304
  76.6473798  61.1105884 102.7231137  79.0570845  70.6165772 105.4553841
  78.3832543  70.9197469 106.0638799  79.4436667  71.4194853 105.1059299
  78.2729301  58.1130904 114.9451511  77.3551863  58.3345851 114.7873199
  78.6889445  58.1877214 114.0863218  79.0564349  59.5122319 110.0754191
  79.8036168  60.0243717 109.7661313  79.3255938  59.1906372 110.9358585
  77.3290999  62.0080860 107.0581145  76.4202218  61.7239893 107.1553615
  77.3586083  62.4279939 106.1984452  82.5610267  65.6187450 110.8272313
  82.1072594  64.7778359 110.8837503  81.9304233  66.2548848 111.1647093
  81.5043186  56.5479436 112.0572980  80.7665943  56.0356822 112.3883223
  81.7569960  56.1079817 111.2456257  81.0043206  67.4563946 111.7622131
  81.2966180  68.0169003 111.0434497  81.5141826  67.7492507 112.5175290
  81.6054813  49.3255688 112.6514750  81.9113690  48.4653051 112.3640665
  82.3307418  49.9173308 112.4513744  67.8979170  59.7286374 111.0396348
  67.7003569  59.1355735 110.3147414  67.3425833  59.4238584 111.7572286
  75.8775893  59.6209481 113.1590941  75.9324503  58.6683317 113.0833417
  75.0667095  59.7768920 113.6432239  77.0267087  63.5489604 104.3969224
  76.5886517  62.8325463 103.9374861  77.7677528  63.7765719 103.8354315
  73.8168253  58.2386540 110.9181320  73.0036119  58.5380711 111.3246512
  74.3127247  57.8442229 111.6355802  75.9676831  68.2344297 112.8515584
  75.9253010  68.4605144 111.9224116  76.8839530  68.0007672 113.0001385
  79.4142465  58.7028365 119.7496214  79.7691852  58.9299838 120.6090679
  80.0614596  59.0346742 119.1273469  85.1440202  61.8246801 110.4545543
  85.0058100  62.0148397 109.5266732  84.7876421  62.5866184 110.9113594
  73.3082328  55.8104896 116.5342555  73.9481707  55.6693655 115.8365518
  72.4759858  55.5239409 116.1581157  85.1709581  63.8923328 115.4656814
  85.6046088  63.7998617 116.3139868  85.8841162  63.8680828 114.8276830
  74.0842632  65.1107326 112.6477547  74.8783230  64.6157646 112.4460122
  73.3734324  64.5825189 112.2845253  78.9037476  67.4925422 116.9989915
  78.9574499  68.0616358 117.7667631  78.0352258  67.6627307 116.6343952
  70.3925395  59.2550408 108.7237300  69.4622983  59.1934864 108.9407262
  70.4882867  58.7326361 107.9273941  70.3110944  55.7805221 111.3115541
  70.5717762  56.6950554 111.2024702  71.1328117  55.3129663 111.4612154
  71.7835870  57.1942978 118.4814366  72.4558923  56.9860340 117.8327015
  70.9565656  56.9965064 118.0419598  86.0325131  63.9347028 117.9989699
  86.2261021  64.8392839 118.2448974  85.9325749  63.4754447 118.8328285
  77.6861442  53.8204919 120.4980027  77.0389357  54.5194869 120.4044503
  78.4562457  54.2541063 120.8656275  81.0940240  64.0853771 123.5730580
  80.9425746  63.8564323 122.6560664  81.0844919  65.0424373 123.5861925
  77.8625576  61.6585684 118.5576847  78.7917636  61.8096844 118.3845814
  77.4416606  61.7469705 117.7025493  76.6613908  65.6836348 116.3275384
  76.5224993  65.3155133 117.2001322  75.8728504  66.1983988 116.1559342
  77.2562060  70.7845445 107.6700921  77.4313815  70.3133488 108.4846543
  76.5694848  71.4111211 107.8982181  78.2119123  65.0617951 113.7164222
  77.8768955  65.0218721 114.6121872  77.7123069  64.3962667 113.2434632
  72.1863367  60.4685581 119.2416803  72.0483165  59.7365820 119.8428342
  73.0968290  60.3794481 118.9600991  81.1478315  62.4073985 103.9901282
  80.5307485  61.6820814 103.8934334  80.6794803  63.1683346 103.6468356
  74.8145668  60.1805540 118.7300483  75.5245286  59.5398733 118.6887101
  74.7714976  60.4318435 119.6526664  82.8032446  67.1172894 121.6507062
  82.7444992  66.4332114 120.9837645  83.2051965  67.8591884 121.1987688
  73.5274601  57.1670758 120.5496122  72.9911959  56.7161497 121.2017719
  72.9391310  57.3016667 119.8066587  71.8223145  73.9334808 114.4440781
  72.0619743  74.5653332 115.1219799  70.9792341  73.5822848 114.7306140
  72.9376860  56.6259410 103.1122586  72.0606327  56.5048210 102.7484833
  73.4134614  55.8345488 102.8601475  82.8049853  65.0812478 119.8821042
  81.9176632  64.7438399 120.0047440  83.3748405  64.3495509 120.1189807
  64.4579001  61.4136569 113.2064093  65.1450040  61.0998299 112.6185108
  64.3027129  62.3177934 112.9331344  69.2613723  56.3026766 117.6349117
  69.1771911  55.6952436 116.8999527  68.4396429  56.7935784 117.6358613
  76.3351007  69.7413930 116.8482285  76.2621178  70.5468901 117.3601589
  75.8928400  69.9405896 116.0230306  76.1240786  68.9785700 110.3585106
  75.3408308  69.5207380 110.4523331  76.8233532  69.4959680 110.7579348
  79.4337437  54.7880329 113.0019312  79.9306136  54.0350292 112.6820382
  78.6624418  54.8244646 112.4362521  87.2867194  60.4920695 114.6437603
  87.2757070  61.3745410 114.2731536  86.4184573  60.1392246 114.4492140
  78.7949690  69.6400764 119.0040443  79.5077663  70.2748229 118.9316345
  78.3039719  69.7364630 118.1880445  80.5167217  63.5452017 110.5757735
  79.5823496  63.6653479 110.4062439  80.6943886  62.6424483 110.3117745
  76.0172405  56.9297712 112.7290996  75.6470193  56.3768753 113.4171902
  76.5131498  56.3255846 112.1765996  83.9039769  59.3869336 111.1107769
  84.3700221  60.2197328 111.0368072  84.3547269  58.9214318 111.8153028
  73.8461604  67.3895207 119.8246014  74.5471063  68.0231690 119.9775409
  73.3756719  67.7309939 119.0641654  81.9716000  65.7313157 108.1093921
  82.2475844  65.6169752 109.0187795  81.1020498  65.3330642 108.0706094
  81.8756431  51.7549923 115.1498671  80.9619511  51.9854150 115.3180878
  82.3049533  51.8388367 116.0012703  81.6462890  59.9439815 117.6498565
  80.9934340  60.1915722 116.9951017  82.0243270  59.1303953 117.3161042
  78.6070064  69.9799508 111.7526735  78.7892458  69.1621164 112.2154487
  79.4303050  70.1967200 111.3151625  78.9412229  68.9067693 109.0141783
  79.4699996  68.3960148 108.4011946  79.2040449  68.5910223 109.8787316
  77.6950463  60.6859626 124.1364602  77.0191100  60.5853755 124.8066977
  78.5178097  60.5298840 124.6000599  69.4429322  66.9231563 116.7577117
  70.0282759  66.1775250 116.8905021  69.2454160  67.2335519 117.6413781
  72.2967977  69.9582810 111.7739559  71.6278352  70.4428938 111.2903599
  72.1580847  70.2052030 112.6882938  64.0346977  59.4937163 115.4781560
  64.0731076  58.9600753 116.2718678  63.5287270  58.9672368 114.8592537
  76.4373246  71.9926553 118.3722218  76.9891554  72.1558175 119.1371303
  76.7779439  72.5830991 117.7002243  71.4137739  54.3401703 118.9744102
  71.4779066  55.2016534 118.5621500  71.3504859  53.7275705 118.2416461
  70.8890012  56.4124836 122.6217137  71.5162050  56.0301913 123.2354661
  70.0317930  56.1939038 122.9872829  67.6655554  58.2201265 108.5535492
  67.9608995  57.3111943 108.5002545  66.7643590  58.1989004 108.2316494
  79.5741633  69.9408529 115.3585900  79.4492773  69.1398269 114.8496845
  80.2320724  70.4354722 114.8699870  71.1949801  56.2957261 114.5363040
  70.4736387  56.9093229 114.3970513  71.9843057  56.8315026 114.4579686
  81.6376541  67.7417549 116.9865450  80.6906877  67.6222900 116.9143777
  81.9859315  66.8540047 117.0691711  73.9976115  53.6311688 120.8103692
  74.5210517  53.8773985 121.5730001  73.7788448  54.4631723 120.3906829
  69.3943396  55.9015363 108.6774817  69.0656102  55.0212741 108.4949923
  69.7482767  55.8463031 109.5651206  78.6422975  67.5370265 113.1869802
  78.4947937  66.6086973 113.3677372  79.4676468  67.5590356 112.7026877
  72.5085219  56.1888332 109.0450294  72.8481292  56.7174254 108.3228903
  72.9557340  56.5268738 109.8208861  82.2457097  68.3598824 114.2734675
  83.1703644  68.1541685 114.1359126  82.0772400  68.1115225 115.1824016
  75.2028660  54.5725383 118.4953362  74.8625480  53.7733196 118.8974042
  74.4967666  54.8727094 117.9230196  75.8545132  51.6574695 116.9480685
  76.6771201  51.1835174 116.8259576  76.0983195  52.4365179 117.4479372
  74.4953366  54.6862954 107.2443587  75.2161729  55.0644207 106.7407304
  73.8718670  55.4051831 107.3478565  78.6384489  55.3908103 108.1801919
  78.8548103  56.2732741 107.8790748  78.1578556  54.9994316 107.4507561
  73.3783710  58.3493816 114.7572664  73.2328291  58.6634119 115.6496946
  72.9008914  58.9678716 114.2043563  75.2380093  55.3396364 114.8053554
  75.2241662  54.4437457 114.4685852  75.9552521  55.3467028 115.4391840
  77.0906224  55.7733704 116.8506681  76.8324002  56.6950775 116.8491011
  76.5591264  55.3764139 117.5407145  82.0352413  68.8784491 109.6296766
  82.2089290  68.3130914 108.8770619  82.5281304  69.6785386 109.4476256
  67.8529373  60.8899161 117.6960325  67.3082841  61.6658968 117.8280600
  68.7308722  61.2369965 117.5379447  74.6416989  54.2210744 110.0741124
  74.7632900  53.2927391 110.2732011  74.3519032  54.2349430 109.1619439
  77.5108180  51.9065655 113.2107844  77.5329876  51.9704988 112.2559823
  77.9276239  51.0670163 113.4048350  87.8891804  61.6420914 111.2487066
  88.3322950  60.8928240 110.8506189  87.0118314  61.6331051 110.8660798
  83.0227585  68.1951256 106.7293665  83.7178490  68.8157949 106.9480979
  83.3650735  67.3446607 107.0046043  68.6395394  60.0169057 120.5890482
  67.8977131  60.1651692 121.1755113  68.3188139  60.2777322 119.7257232
  84.9219008  65.6450961 108.2580995  85.4470332  65.9838234 107.5330315
  84.8341361  64.7097977 108.0744130  76.5839057  69.5585035 120.3870872
  76.8926184  69.3134182 121.2593572  77.3814539  69.7631673 119.8989742
  76.6059669  71.7122945 112.6176249  76.1664659  71.2199323 113.3109105
  77.3567786  71.1695912 112.3768324  69.0852008  67.9034486 112.6200877
  69.9110028  67.6038257 112.2399520  68.7346060  67.1342108 113.0690665
  74.0533541  67.2560954 114.6898550  73.4313551  66.5931659 114.3900778
  74.7238408  67.2822086 114.0072198  67.2860613  65.8220812 113.5789810
  66.4492521  65.3942986 113.3973812  67.2584259  66.0153255 114.5160602
  74.1258069  55.7342742 124.2831056  74.1746224  56.6104865 123.9008826
  74.6680583  55.1920135 123.7102700  84.7310790  63.1276331 120.8764922
  84.7808794  62.9626339 121.8180445  84.6224713  62.2603590 120.4862803
  73.6147048  65.8064877 108.1657011  73.7635169  66.4900341 107.5123684
  74.4213492  65.7869967 108.6806467  82.0214552  59.1107259 122.1924229
  82.9224415  58.9713724 121.9008226  82.0962526  59.2761714 123.1322406
  76.3557357  56.4874114 121.0377415  75.4860667  56.7807680 120.7660004
  76.5916838  57.0714559 121.7584679  86.2328986  65.5473273 121.1206944
  85.9413795  65.9103253 121.9570404  85.6201118  64.8340281 120.9420276
  87.4324669  63.1126153 113.6409514  88.2671560  63.5515957 113.8047074
  87.5683797  62.6364806 112.8217759  84.4816175  60.6705888 119.5887001
  84.9570296  60.8633534 118.7805853  83.5581740  60.7265073 119.3430385
  71.3699681  61.8330055 109.1718080  71.1245723  60.9292385 109.3698290
  71.5395596  61.8347205 108.2297558  79.0596391  52.7053731 118.5542835
  79.5778335  53.4414758 118.2289324  78.7051524  53.0117724 119.3889594
  70.6395329  57.5658412 106.6704241  69.9464574  57.6402767 106.0144277
  70.3947081  56.8018756 107.1925758  79.3108985  49.1254014 114.0743732
  79.5910739  48.4577203 114.7004159  80.0959592  49.3183109 113.5618396
  77.1142454  68.3013008 105.6368758  76.5416421  68.9203195 105.1839230
  77.6875247  68.8512369 106.1708680  83.1817844  57.5471648 117.8215307
  84.1335266  57.6469745 117.8427531  83.0121294  56.7549916 118.3313391
  81.2032223  54.6327231 118.0074708  80.6082155  54.9132244 117.3121197
  80.9181920  55.1221132 118.7791449  80.3339714  68.5850158 106.7677341
  81.2670387  68.5195719 106.9710216  80.2462926  69.4206425 106.3091873
  82.9627730  67.9016028 103.7281288  82.8841362  67.5675892 104.6217046
  83.7837397  68.3937796 103.7272760  85.6605921  60.7677767 116.9357607
  85.6282241  59.8293768 117.1217291  86.2706545  60.8461804 116.2023432
  77.4989252  59.6373820 102.9784811  78.4448357  59.5080028 103.0473229
  77.1203497  58.8988482 103.4554239  85.8100410  57.5588811 116.9815890
  85.2939459  56.7747267 116.7945819  86.6940358  57.2307527 117.1462409
  83.4711137  51.3029826 112.9411703  83.2735958  50.9944915 113.8255035
  84.0810842  52.0291465 113.0709632  91.4782471  61.8293774 116.0763644
  92.2085860  61.5679062 116.6371347  90.8689417  61.0922496 116.1165712
  89.5597768  59.9701637 116.6738095  88.8330932  59.8357602 116.0654586
  89.1445055  60.2778465 117.4794813  77.3827945  63.6891566 124.4385468
  78.3030954  63.8670165 124.6325514  77.3477528  62.7447612 124.2865167
  75.6832169  57.5623797 102.9139696  74.7763625  57.2656909 102.9902410
  75.9608150  57.2653615 102.0473982  66.6010110  58.8830160 113.3638742
  66.2812894  58.0295468 113.0713116  66.0543538  59.0978738 114.1196710
  70.3790017  61.5992601 117.0808249  70.5976027  62.5309709 117.0996283
  70.7915791  61.2400575 117.8663053  77.2994235  52.1060686 109.0683937
  76.4894963  51.7607771 109.4439183  77.9878652  51.7968230 109.6571549
  79.2284783  51.1838733 110.6908234  79.7815822  51.6034187 111.3498257
  79.4654870  50.2574481 110.7331190  75.2517883  57.1725807 126.4710998
  75.1514610  58.1220164 126.4023089  75.0339425  56.8444046 125.5987068
  74.4530954  54.4210732 103.0551675  75.3150118  54.7465630 103.3147493
  74.6381298  53.6342228 102.5424741  66.4698370  62.5033072 115.3331864
  65.7761841  62.0887024 114.8201818  67.2171361  62.5453608 114.7365283
  82.6063590  53.2939258 110.1986898  82.0262260  53.9524062 109.8164951
  82.3399523  52.4716603 109.7874316  81.0567157  52.6944316 112.4008219
  81.5566935  52.8060851 111.5922537  81.7002765  52.3905369 113.0409027
  75.1149153  60.6022946 125.2876060  74.6316234  61.4023306 125.4939949
  75.2010092  60.6130891 124.3343503  68.3835112  62.4351325 113.2097879
  68.3605800  62.5339013 112.2579762  68.6935749  63.2816476 113.5315045
  71.0422490  64.4927480 117.3244493  71.9965744  64.4611423 117.2574425
  70.8435014  64.0318104 118.1394719  71.6321872  63.0628596 119.8915291
  72.4514761  63.5572675 119.9150128  71.9058680  62.1460565 119.8632858
  81.3888469  55.4539349 109.2543246  80.5014324  55.7388999 109.0363441
  81.8042458  55.2933112 108.4070523  84.7403005  55.4785870 112.9697586
  85.5163395  55.9682322 113.2422203  84.0151139  55.9043924 113.4269455
  87.1775563  56.1913489 114.0271526  87.7720054  55.9509225 113.3164835
  87.2502147  55.4720620 114.6545063  69.3972719  70.0347100 114.3414691
  69.2627187  69.2747501 113.7752689  68.9804781  70.7588000 113.8743480
  80.5331682  65.2184023 103.3491266  81.2367532  65.4234026 103.9648922
  79.8094331  65.7860785 103.6140350  81.3629492  60.9693885 109.4693537
  81.3064694  61.4262436 108.6301169  81.9157835  60.2084569 109.2916379
  85.1734298  56.7583617 110.2943656  84.9171232  56.3580252 111.1251864
  84.5487166  57.4727410 110.1693795  89.4846636  59.4979690 112.8014948
  88.9246194  59.5672879 113.5746510  88.8790139  59.3220674 112.0814444
  72.5541845  70.9316417 114.5533134  72.4374229  71.8761849 114.4511824
  71.7334291  70.6289978 114.9418933  82.4418379  65.6566553 105.3989727
  83.2763983  65.2247751 105.2167201  82.2802722  65.4848566 106.3266621
  82.0964272  62.1598666 106.7646066  82.0413075  61.9942937 105.8234510
  81.4710327  62.8674699 106.9208256  66.8856787  57.3966730 120.5907488
  67.5315650  56.8865684 121.0794713  66.6773938  58.1335412 121.1650913
  75.4060397  51.6606775 106.3431384  75.3939067  52.6048615 106.4999655
  76.2983819  51.4776920 106.0490845  73.5796359  71.5844679 117.7689062
  74.4823606  71.6168289 118.0855557  73.3533729  70.6545130 117.7835398
  75.3349961  70.3375665 114.4299141  74.3845592  70.3377527 114.3163513
  75.6382447  69.5908400 113.9135175  79.2212516  48.2549552 110.5977321
  78.4544912  47.7008038 110.7434003  79.6323221  48.3271420 111.4591473
  71.2254278  54.5434347 124.6882502  72.0885739  54.1871152 124.8985827
  70.6519688  54.2048242 125.3757907  83.7379176  77.9799108 111.4203319
  83.1744042  77.8889045 110.6519607  83.6231571  77.1599013 111.9005811
  81.2843608  79.4750300 114.2587539  82.0764900  79.1341124 113.8433839
  81.5240259  79.5845275 115.1789693  89.3178735  81.6470076 106.7317784
  88.6666715  82.2324156 106.3451798  90.1123098  82.1776271 106.7912821
  83.2434362  78.7359213 107.1304918  84.0165238  78.1888200 106.9917794
  83.5959761  79.6003462 107.3419380  85.5800640  74.8951879 104.7623368
  85.8326161  74.3733400 104.0006831  84.6425199  74.7318025 104.8650052
  90.6243923  73.8987658 112.5698111  91.4107012  73.4807081 112.2188528
  90.8882627  74.8033750 112.7379760  90.7954000  79.3360508 107.2686768
  90.1599833  79.4095134 107.9807673  90.4651407  79.9254107 106.5905847
  85.2996929  76.7979985 106.9647743  85.1833187  76.1224889 107.6328827
  85.4099189  76.3112359 106.1479896  87.6428470  76.2590132 110.6694432
  87.2786677  75.7320753 111.3807354  88.4995586  75.8688601 110.4960918
  87.2833957  71.2880032 105.6655781  87.4508359  72.1560268 106.0326252
  87.0931126  71.4507314 104.7417070  83.4921771  76.2010808 113.3658316
  82.5672268  76.0687022 113.5736007  83.7406185  76.9805027 113.8628258
  87.2623178  73.7437689 106.6502448  87.1422803  74.1894740 107.4887928
  86.5675766  74.0923007 106.0915986  80.8530582  75.8444081 114.2002105
  80.9822964  76.0978560 115.1141516  80.1728034  76.4371789 113.8806760
  92.9608244  74.2159163 107.4782782  93.8726100  74.4486549 107.3030479
  92.4517891  74.7996207 106.9157860  90.3044219  70.3917199 115.7272643
  89.4428698  70.6898452 116.0189380  90.3306653  70.6087598 114.7953675
  87.1205788  78.9359389 112.1346448  87.5844134  79.2147092 111.3451071
  86.8562586  78.0342834 111.9519539  86.0574674  75.0582542 108.9436013
  86.7598717  75.5103585 109.4109940  85.7255303  74.4166360 109.5715906
  79.8000008  73.3166094 114.2453147  79.0099062  73.5723623 113.7693258
  80.2911255  74.1314432 114.3505187  81.7514753  73.6810673 111.2036624
  80.9545917  73.7929368 111.7220119  81.5240346  74.0197326 110.3377514
  78.0837711  73.5696585 116.6768138  78.3345749  74.4543595 116.9425714
  78.6197259  73.3901186 115.9043230  87.2968439  81.8723484 109.0198119
  87.1614113  82.7175020 109.4482966  87.8378251  82.0742762 108.2564052
  80.7497836  79.3898922 109.5926044  81.2622357  80.1842172 109.7431608
  81.4020549  78.6925213 109.5259645  82.5592721  82.5064679 111.6748797
  82.7359349  83.4282643 111.4869781  83.3549554  82.1923098 112.1043177
  90.6460902  65.3954046 117.5497012  90.3025172  66.2855688 117.4736123
  91.0139865  65.2055704 116.6866597  78.7146753  77.7187577 110.3685614
  79.5521975  78.1284585 110.1519322  78.8925021  76.7787019 110.3385808
  90.6111185  75.3862657 106.0569447  90.0957808  76.1567262 106.2957835
  90.3388493  74.7127793 106.6802509  88.1958296  70.2312358 111.1154686
  87.3399892  69.8419208 110.9360324  88.6085248  70.3104319 110.2554471
  89.7257443  67.7658701 115.5146245  89.2222238  67.7288836 114.7014051
  90.0188050  68.6751444 115.5742902  85.9700329  67.8497431 114.5212427
  86.8353325  67.6540240 114.1618316  86.0377837  67.6207783 115.4481784
  95.5845459  78.1395012 107.9922621  94.8074902  77.8006171 107.5477783
  96.2636940  78.1447635 107.3177586  90.3997488  73.2589749 107.8829228
  90.0947624  73.5735898 108.7339372  91.3527930  73.3371169 107.9256561
  88.8443920  79.4179973 109.5322182  88.3165282  78.6832732 109.2195420
  88.3431423  80.1954649 109.2862151  83.5762648  70.0799639 111.8928794
  84.1506400  69.8574820 111.1601987  84.1633630  70.1488333 112.6457395
  83.9032235  72.1104100 105.9124679  83.0669547  72.4478786 106.2333954
  83.7637004  71.9753080 104.9751816  85.8785315  66.9540888 110.6203863
  85.2249728  66.6389905 109.9960478  85.8365789  66.3316628 111.3463686
  86.9896520  77.2360183 102.5357155  86.0823582  77.0049436 102.7348304
  87.4867552  76.4397802 102.7231137  89.8964599  85.9457690 105.4553841
  89.2226298  86.2489387 106.0638799  90.2830421  86.7486770 105.1059299
  89.1123056  73.4422821 114.9451511  88.1945617  73.6637768 114.7873199
  89.5283199  73.5169132 114.0863218  89.8958103  74.8414237 110.0754191
  90.6429922  75.3535634 109.7661313  90.1649693  74.5198290 110.9358585
  88.1684754  77.3372778 107.0581145  87.2595973  77.0531811 107.1553615
  88.1979837  77.7571856 106.1984452  92.3436941  71.8771353 112.0572980
  91.6059697  71.3648739 112.3883223  92.5963714  71.4371735 111.2456257
  92.4448568  64.6547605 112.6514750  92.7507445  63.7944969 112.3640665
  93.1701173  65.2465225 112.4513744  78.7372924  75.0578292 111.0396348
  78.5397324  74.4647653 110.3147414  78.1819588  74.7530502 111.7572286
  86.7169648  74.9501398 113.1590941  86.7718257  73.9975235 113.0833417
  85.9060850  75.1060837 113.6432239  87.8660841  78.8781521 104.3969224
  87.4280271  78.1617380 103.9374861  88.6071282  79.1057636 103.8354315
  84.6562008  73.5678458 110.9181320  83.8429873  73.8672629 111.3246512
  85.1521002  73.1734147 111.6355802  95.9833956  77.1538718 110.4545543
  95.8451855  77.3440314 109.5266732  95.6270175  77.9158101 110.9113594
  84.1476082  71.1396814 116.5342555  84.7875462  70.9985573 115.8365518
  83.3153613  70.8531327 116.1581157  84.9236386  80.4399244 112.6477547
  85.7176985  79.9449564 112.4460122  84.2128079  79.9117107 112.2845253
  81.2319150  74.5842326 108.7237300  80.3016738  74.5226781 108.9407262
  81.3276622  74.0618279 107.9273941  81.1504699  71.1097139 111.3115541
  81.4111516  72.0242472 111.2024702  81.9721871  70.6421581 111.4612154
  82.6229624  72.5234896 118.4814366  83.2952678  72.3152258 117.8327015
  81.7959411  72.3256982 118.0419598  88.0955814  86.1137362 107.6700921
  88.2707570  85.6425406 108.4846543  87.4088602  86.7403129 107.8982181
  91.9872069  77.7365903 103.9901282  91.3701240  77.0112731 103.8934334
  91.5188557  78.4975263 103.6468356  83.7770615  71.9551327 103.1122586
  82.9000081  71.8340128 102.7484833  84.2528368  71.1637406 102.8601475
  75.2972755  76.7428487 113.2064093  75.9843795  76.4290217 112.6185108
  75.1420884  77.6469852 112.9331344  80.1007477  71.6318684 117.6349117
  80.0165666  71.0244353 116.8999527  79.2790184  72.1227702 117.6358613
  90.2731191  70.1172247 113.0019312  90.7699891  69.3642209 112.6820382
  89.5018173  70.1536564 112.4362521  91.3560972  78.8743934 110.5757735
  90.4217251  78.9945397 110.4062439  91.5337640  77.9716401 110.3117745
  86.8566160  72.2589630 112.7290996  86.4863947  71.7060671 113.4171902
  87.3525252  71.6547764 112.1765996  94.7433523  74.7161254 111.1107769
  95.2093975  75.5489245 111.0368072  95.1941024  74.2506235 111.8153028
  92.8109754  81.0605075 108.1093921  93.0869598  80.9461670 109.0187795
  91.9414253  80.6622560 108.0706094  92.7150186  67.0841841 115.1498671
  91.8013266  67.3146067 115.3180878  93.1443287  67.1680285 116.0012703
  89.7805984  84.2359611 109.0141783  90.3093750  83.7252066 108.4011946
  90.0434203  83.9202141 109.8787316  74.8740731  74.8229080 115.4781560
  74.9124831  74.2892671 116.2718678  74.3681024  74.2964286 114.8592537
  82.2531493  69.6693621 118.9744102  82.3172820  70.5308452 118.5621500
  82.1898614  69.0567623 118.2416461  78.5049309  73.5493183 108.5535492
  78.8002750  72.6403861 108.5002545  77.6037345  73.5280922 108.2316494
  82.0343556  71.6249179 114.5363040  81.3130142  72.2385147 114.3970513
  82.8236812  72.1606944 114.4579686  80.2337150  71.2307280 108.6774817
  79.9049857  70.3504659 108.4949923  80.5876521  71.1754949 109.5651206
  83.3478974  71.5180250 109.0450294  83.6875046  72.0466171 108.3228903
  83.7951094  71.8560656 109.8208861  86.0422414  69.9017301 118.4953362
  85.7019235  69.1025114 118.8974042  85.3361421  70.2019012 117.9230196
  86.6938886  66.9866613 116.9480685  87.5164955  66.5127091 116.8259576
  86.9376950  67.7657097 117.4479372  85.3347121  70.0154872 107.2443587
  86.0555483  70.3936124 106.7407304  84.7112425  70.7343748 107.3478565
  89.4778244  70.7200021 108.1801919  89.6941858  71.6024658 107.8790748
  88.9972311  70.3286234 107.4507561  84.2177465  73.6785734 114.7572664
  84.0722046  73.9926037 115.6496946  83.7402669  74.2970634 114.2043563
  86.0773848  70.6688282 114.8053554  86.0635417  69.7729375 114.4685852
  86.7946276  70.6758946 115.4391840  87.9299979  71.1025622 116.8506681
  87.6717756  72.0242693 116.8491011  87.3985019  70.7056057 117.5407145
  78.6923127  76.2191078 117.6960325  78.1476595  76.9950886 117.8280600
  79.5702477  76.5661883 117.5379447  85.4810744  69.5502662 110.0741124
  85.6026655  68.6219308 110.2732011  85.1912786  69.5641348 109.1619439
  88.3501934  67.2357573 113.2107844  88.3723631  67.2996906 112.2559823
  88.7669993  66.3962081 113.4048350  93.8621340  83.5243174 106.7293665
  94.5572244  84.1449866 106.9480979  94.2044490  82.6738525 107.0046043
  95.7612763  80.9742879 108.2580995  96.2864087  81.3130152 107.5330315
  95.6735115  80.0389894 108.0744130  79.9245763  83.2326403 112.6200877
  80.7503783  82.9330175 112.2399520  79.5739815  82.4634026 113.0690665
  78.1254368  81.1512730 113.5789810  77.2886276  80.7234904 113.3973812
  78.0978013  81.3445173 114.5160602  84.4540803  81.1356795 108.1657011
  84.6028923  81.8192259 107.5123684  85.2607246  81.1161885 108.6806467
  82.2093436  77.1621972 109.1718080  81.9639478  76.2584302 109.3698290
  82.3789350  77.1639123 108.2297558  81.4789083  72.8950330 106.6704241
  80.7858328  72.9694685 106.0144277  81.2340835  72.1310674 107.1925758
  90.1502740  64.4545931 114.0743732  90.4304494  63.7869120 114.7004159
  90.9353347  64.6475027 113.5618396  87.9536208  83.6304925 105.6368758
  87.3810175  84.2495112 105.1839230  88.5269002  84.1804287 106.1708680
  91.1733468  83.9142075 106.7677341  92.1064141  83.8487637 106.9710216
  91.0856681  84.7498342 106.3091873  93.8021485  83.2307946 103.7281288
  93.7235116  82.8967809 104.6217046  94.6231151  83.7229714 103.7272760
  88.3383007  74.9665738 102.9784811  89.2842111  74.8371946 103.0473229
  87.9597252  74.2280400 103.4554239  94.3104891  66.6321744 112.9411703
  94.1129712  66.3236832 113.8255035  94.9204597  67.3583383 113.0709632
  86.5225924  72.8915714 102.9139696  85.6157379  72.5948827 102.9902410
  86.8001905  72.5945532 102.0473982  77.4403864  74.2122078 113.3638742
  77.1206649  73.3587386 113.0713116  76.8937292  74.4270656 114.1196710
  88.1387990  67.4352604 109.0683937  87.3288718  67.0899689 109.4439183
  88.8272407  67.1260148 109.6571549  90.0678538  66.5130651 110.6908234
  90.6209577  66.9326104 111.3498257  90.3048624  65.5866399 110.7331190
  85.2924709  69.7502650 103.0551675  86.1543873  70.0757548 103.3147493
  85.4775053  68.9634145 102.5424741  77.3092124  77.8324989 115.3331864
  76.6155596  77.4178942 114.8201818  78.0565115  77.8745526 114.7365283
  93.4457345  68.6231176 110.1986898  92.8656014  69.2815980 109.8164951
  93.1793278  67.8008521 109.7874316  91.8960911  68.0236234 112.4008219
  92.3960690  68.1352768 111.5922537  92.5396519  67.7197287 113.0409027
  79.2228867  77.7643243 113.2097879  79.1999555  77.8630930 112.2579762
  79.5329503  78.6108394 113.5315045  92.2282223  70.7831266 109.2543246
  91.3408078  71.0680917 109.0363441  92.6436212  70.6225030 108.4070523
  95.5796759  70.8077787 112.9697586  96.3557149  71.2974240 113.2422203
  94.8544893  71.2335842 113.4269455  91.3725436  80.5475941 103.3491266
  92.0761287  80.7525944 103.9648922  90.6488085  81.1152703 103.6140350
  92.2023247  76.2985802 109.4693537  92.1458448  76.7554354 108.6301169
  92.7551589  75.5376487 109.2916379  96.0128053  72.0875534 110.2943656
  95.7564987  71.6872170 111.1251864  95.3880921  72.8019328 110.1693795
  93.2812134  80.9858470 105.3989727  94.1157738  80.5539669 105.2167201
  93.1196477  80.8140484 106.3266621  92.9358026  77.4890584 106.7646066
  92.8806830  77.3234855 105.8234510  92.3104081  78.1966617 106.9208256
  77.7250541  72.7258648 120.5907488  78.3709405  72.2157602 121.0794713
  77.5167692  73.4627330 121.1650913  86.2454152  66.9898693 106.3431384
  86.2332821  67.9340533 106.4999655  87.1377573  66.8068838 106.0490845
  90.0606271  63.5841469 110.5977321  89.2938667  63.0299956 110.7434003
  90.4716976  63.6563338 111.4591473  94.7425989  87.4396018 105.9124679
  93.9063301  87.7770704 106.2333954  94.6030759  87.3044997 104.9751816
  94.6164369  87.2843245 103.1122586  93.7393836  87.1632046 102.7484833
  95.0922122  86.4929323 102.8601475  92.3182838  88.2242248 106.6704241
  91.6252083  88.2986603 106.0144277  92.0734590  87.4602591 107.1925758
  97.3619678  88.2207632 102.9139696  96.4551134  87.9240745 102.9902410
  97.6395659  87.9237450 102.0473982  96.1318463  85.0794567 103.0551675
  96.9937627  85.4049466 103.3147493  96.3168807  84.2926063 102.5424741
  97.0847906  82.3190610 106.3431384  97.0726576  83.2632450 106.4999655
  97.9771328  82.1360756 106.0490845  46.5389582   1.6352142  92.1799148
  45.8651281   1.9383839  92.7884106  46.9255404   2.4381222  91.8304605
  50.5046323  -0.7862375  93.4538971  51.1997228  -0.1655682  93.6726286
  50.8469473  -1.6367023  93.7291349  44.5961192  -0.6800623  92.3614065
  44.0235159  -0.0610436  91.9084537  45.1693985  -0.1301261  92.8953987
  47.8158451  -0.3963473  93.4922647  48.7489124  -0.4617911  93.6955523
  47.7281664   0.4392794  93.0337180  50.4446468  -1.0797602  90.4526595
  50.3660100  -1.4137739  91.3462353  51.2656135  -0.5875835  90.4518067
  48.0150420  -3.7629607  90.0736573  48.7186270  -3.5579605  90.6894229
  47.2913069  -3.1952845  90.3385657  49.9237117  -3.3247078  92.1235033
  50.7582721  -3.7565879  91.9412508  49.7621460  -3.4965064  93.0511928
  58.5521392   7.1922573 102.2190210  59.1899802   7.0729321 101.5153550
  58.4342235   8.1403417 102.2778162  51.2197914   8.9985478  98.1448626
  50.6562779   8.9075415  97.3764913  51.1050309   8.1785382  98.6251118
  56.7997473  12.6656446  93.4563090  56.1485453  13.2510526  93.0697104
  57.5941836  13.1962640  93.5158128  50.7253100   9.7545583  93.8550225
  51.4983976   9.2074570  93.7163101  51.0778499  10.6189832  94.0664686
  53.0619378   5.9138249  91.4868675  53.3144899   5.3919770  90.7252138
  52.1243937   5.7504394  91.5895358  58.1062661   4.9174027  99.2943418
  58.8925750   4.4993450  98.9433835  58.3701365   5.8220119  99.4625066
  58.2772738  10.3546877  93.9932075  57.6418571  10.4281504  94.7052979
  57.9470145  10.9440476  93.3151154  63.5071088   4.8549260 100.1976396
  64.2396260   4.2848477 100.4314226  62.7510444   4.4670861 100.6382902
  52.7815667   7.8166355  93.6893050  52.6651925   7.1411258  94.3574134
  52.8917927   7.3298729  92.8725203  55.1247208   7.2776502  97.3939739
  54.7605415   6.7507123  98.1052660  55.9814324   6.8874971  97.2206224
  54.7652695   2.3066402  92.3901087  54.9327097   3.1746638  92.7571558
  54.5749864   2.4693683  91.4662377  54.7441915   4.7624059  93.3747754
  54.6241541   5.2081110  94.2133235  54.0494504   5.1109377  92.8161292
  52.5048808  17.5327701  97.0237885  52.4272837  18.4835526  97.1026366
  51.9010451  17.1873573  97.6812812  60.4426982   5.2345532  94.2028088
  61.3544838   5.4672919  94.0275786  59.9336629   5.8182576  93.6403167
  59.0496564  10.2171351 101.5941670  58.4205426  10.3817065 100.8917738
  58.6622226  10.6312960 102.3652634  62.9285796  11.1525789  98.9486034
  62.2436834  11.5324690  98.3983067  63.0129645  11.7621115  99.6817981
  54.6024526   9.9545759  98.8591755  55.0662871  10.2333462  98.0696377
  54.3381324   9.0529203  98.6764846  53.5393412   6.0768911  95.6681320
  54.2417455   6.5289955  96.1355246  53.2074040   5.4352730  96.2961213
  61.2982555  11.6757703 103.7203734  62.1199999  11.2737890 103.4386416
  61.2944958  11.5725937 104.6719850  69.3888548   8.0196451 100.0688706
  68.6352257   7.4503850  99.9132710  69.5236090   7.9859116 101.0159341
  54.7787176  12.8909854  95.7443425  54.6432851  13.7361389  96.1728273
  55.3196989  13.0929131  94.9809359  48.2316574  10.4085292  96.3171350
  48.7441094  11.2028542  96.4676915  48.8839287   9.7111582  96.2504952
  50.0411459  13.5251048  98.3994103  50.2178087  14.4469013  98.2115087
  50.8368292  13.2109467  98.8288483  51.1642774  15.0429222 104.4004446
  51.7150199  14.9146285 103.6281440  50.3254250  15.3424111 104.0499339
  46.1965491   8.7373946  97.0930921  47.0340713   9.1470954  96.8764629
  46.3743758   7.7973388  97.0631115  58.0929923   6.4049027  92.7814754
  57.5776546   7.1753631  93.0203141  57.8207231   5.7314163  93.4047815
  55.6777034   1.2498728  97.8399992  54.8218630   0.8605578  97.6605631
  56.0903986   1.3290688  96.9799778  63.0664197   9.1581381  94.7167927
  62.2893640   8.8192541  94.2723089  63.7455678   9.1634005  94.0422892
  57.8816226   4.2776119  94.6074535  57.5766362   4.5922268  95.4584678
  58.8346668   4.3557539  94.6501868  56.3262658  10.4366342  96.2567489
  55.7984019   9.7019102  95.9440726  55.8250161  11.2141018  96.0107457
  61.3055504   8.6315363 101.3734535  60.6479178   9.3214624 101.4614664
  62.1095903   9.0211795 101.7168522  60.1160963   6.9859735  99.4238477
  60.6292844   7.6189727  99.9260187  60.7662186   6.3860931  99.0581837
  51.3850972   3.1290469  92.6369986  50.5488285   3.4665156  92.9579260
  51.2455742   2.9939449  91.6997123  54.4715258   8.2546552  89.2602462
  53.5642320   8.0235806  89.4593611  54.9686290   7.4584172  89.4476444
  57.3783337  16.9644060  92.1799148  56.7045036  17.2675756  92.7884106
  57.7649159  17.7673140  91.8304605  57.3776841   5.8600607  96.7999498
  58.1248660   6.3722004  96.4906620  57.6468431   5.5384659  97.6603891
  55.6503491   8.3559147  93.7826452  54.7414711   8.0718180  93.8798922
  55.6798575   8.7758226  92.9229759  60.8822759  11.9665737  97.5517620
  60.4285086  11.1256647  97.6082810  60.2516726  12.6027135  97.8892400
  59.8255678   2.8957723  98.7818287  59.0878435   2.3835109  99.1128530
  60.0782452   2.4558104  97.9701564  59.3255698  13.8042233  98.4867438
  59.6178672  14.3647291  97.7679803  59.8354319  14.0970794  99.2420597
  54.1988385   5.9687768  99.8836247  54.2536995   5.0161604  99.8078724
  53.3879587   6.1247207 100.3677546  55.3479579   9.8967891  91.1214531
  54.9099009   9.1803750  90.6620168  56.0890020  10.1244006  90.5599622
  52.1380745   4.5864828  97.6426626  51.3248611   4.8858998  98.0491818
  52.6339740   4.1920516  98.3601109  54.2889323  14.5822585  99.5760891
  54.2465502  14.8083431  98.6469423  55.2052022  14.3485959  99.7246692
  63.4652694   8.1725088  97.1790849  63.3270593   8.3626684  96.2512038
  63.1088913   8.9344471  97.6358900  63.4922074  10.2401615 102.1902121
  63.9258580  10.1476904 103.0385175  64.2053654  10.2159115 101.5522137
  52.4055124  11.4585614  99.3722854  53.1995723  10.9635934  99.1705429
  51.6946816  10.9303477  99.0090559  57.2249968  13.8403709 103.7235221
  57.2786991  14.4094645 104.4912937  56.3564750  14.0105594 103.3589258
  48.7137887   5.6028695  95.4482606  47.7835476   5.5413151  95.6652569
  48.8095359   5.0804648  94.6519248  64.3537623  10.2825316 104.7235006
  64.5473513  11.1871126 104.9694281  64.2538241   9.8232735 105.5573591
  54.9826400  12.0314636 103.0520691  54.8437486  11.6633420 103.9246629
  54.1940996  12.5462275 102.8804649  55.5774552  17.1323732  94.3946227
  55.7526308  16.6611775  95.2091850  54.8907340  17.7589498  94.6227488
  56.5331615  11.4096238 100.4409529  56.1981448  11.3697008 101.3367178
  56.0335561  10.7440954  99.9679939  59.4690807   8.7552273  90.7146588
  58.8519977   8.0299101  90.6179641  59.0007295   9.5161633  90.3713662
  50.1435637  20.2813095 101.1686087  50.3832236  20.9131619 101.8465106
  49.3004834  19.9301135 101.4551447  51.2589353   2.9737697  89.8367893
  50.3818819   2.8526498  89.4730139  51.7347106   2.1823775  89.5846781
  54.6563499  16.0892217 103.5727591  54.5833671  16.8947189 104.0846896
  54.2140892  16.2884183 102.7475613  54.4453279  15.3263987  97.0830413
  53.6620801  15.8685667  97.1768638  55.1446024  15.8437967  97.4824654
  65.6079686   6.8398982 101.3682910  65.5969563   7.7223698 100.9976843
  64.7397066   6.4870533 101.1737447  57.1162183  15.9879051 105.7285750
  57.8290155  16.6226516 105.6561652  56.6252211  16.0842917 104.9125752
  58.8379710   9.8930304  97.3003042  57.9035988  10.0131766  97.1307746
  59.0156378   8.9902771  97.0363052  62.2252261   5.7347623  97.8353076
  62.6912713   6.5675615  97.7613379  62.6759761   5.2692605  98.5398334
  60.2928492  12.0791445  94.8339228  60.5688336  11.9648039  95.7433102
  59.4232991  11.6808929  94.7951401  56.9282556  16.3277795  98.4772042
  57.1104951  15.5099451  98.9399794  57.7515542  16.5445488  98.0396932
  57.2624722  15.2545980  95.7387090  57.7912488  14.7438435  95.1257252
  57.5252941  14.9388511  96.6032623  50.6180469  16.3061097  98.4984866
  49.9490845  16.7907225  98.0148906  50.4793339  16.5530318  99.4128245
  54.7585738  18.3404841 105.0967524  55.3104046  18.5036462 105.8616610
  55.0991932  18.9309279 104.4247549  45.9868047   4.5679552  95.2780798
  46.2821488   3.6590231  95.2247852  45.0856082   4.5467292  94.9561801
  57.8954125  16.2886816 102.0831207  57.7705265  15.4876556 101.5742152
  58.5533216  16.7833010 101.5945177  59.9589034  14.0895836 103.7110757
  59.0119369  13.9701187 103.6389083  60.3071807  13.2018334 103.7937018
  56.9635467  13.8848553  99.9115109  56.8160429  12.9565260 100.0922679
  57.7888961  13.9068643  99.4272184  50.8297711   2.5366620  95.7695601
  51.1693784   3.0652541  95.0474209  51.2769832   2.8747026  96.5454168
  60.5669589  14.7077111 100.9979982  61.4916136  14.5019973 100.8604433
  60.3984892  14.4593512 101.9069323  52.8165858   1.0341241  93.9688894
  53.5374221   1.4122494  93.4652611  52.1931163   1.7530118  94.0723872
  56.9596981   1.7386390  94.9047226  57.1760596   2.6211028  94.6036054
  56.4791048   1.3472604  94.1752868  60.3564905  15.2262779  96.3542073
  60.5301783  14.6609201  95.6015926  60.8493796  16.0263674  96.1721563
  66.2104296   7.9899202  97.9732373  66.6535442   7.2406527  97.5751496
  65.3330807   7.9809338  97.5906105  61.3440078  14.5429543  93.4538971
  62.0390982  15.1636236  93.6726286  61.6863228  13.6924894  93.7291349
  63.2431501  11.9929249  94.9826302  63.7682825  12.3316521  94.2575622
  63.1553853  11.0576264  94.7989437  54.9272161  18.0601232  99.3421555
  54.4877152  17.5677611 100.0354412  55.6780278  17.5174200  99.1013631
  47.4064500  14.2512773  99.3446183  48.2322520  13.9516545  98.9644827
  47.0558552  13.4820395  99.7935972  52.3746034  13.6039241 101.4143857
  51.7526043  12.9409946 101.1146085  53.0450900  13.6300373 100.7317505
  51.9359540  12.1543164  94.8902318  52.0847661  12.8378629  94.2368990
  52.7425984  12.1348254  95.4051773  65.7537161   9.4604440 100.3654820
  66.5884052   9.8994244 100.5292381  65.8896290   8.9843093  99.5463066
  49.6912173   8.1808342  95.8963386  49.4458215   7.2770672  96.0943597
  49.8608088   8.1825492  94.9542864  48.9607821   3.9136700  93.3949548
  48.2677066   3.9881055  92.7389584  48.7159573   3.1497043  93.9171065
  55.4354946  14.6491295  92.3614065  54.8628913  15.2681482  91.9084537
  56.0087740  15.1990656  92.8953987  58.6552206  14.9328445  93.4922647
  59.5882879  14.8674007  93.6955523  58.5675419  15.7684712  93.0337180
  61.2840222  14.2494315  90.4526595  61.2053854  13.9154179  91.3462353
  62.1049889  14.7416083  90.4518067  63.9818414   7.1156055 103.6602913
  63.9494734   6.1772055 103.8462597  64.5919037   7.1940091 102.9268738
  55.8201745   5.9852108  89.7030117  56.7660849   5.8558316  89.7718535
  55.4415989   5.2466769  90.1799546  69.7994964   8.1772061 102.8008950
  70.5298352   7.9157350 103.3616654  69.1901909   7.4400783 102.8411018
  67.8810261   6.3179924 103.3983401  67.1543424   6.1835889 102.7899893
  67.4657548   6.6256753 104.2040119  54.0044662   3.9102084  89.6385003
  53.0976117   3.6135197  89.7147716  54.2820643   3.6131902  88.7719289
  55.6206727  -1.5461026  95.7929244  54.8107456  -1.8913941  96.1684490
  56.3091144  -1.8553483  96.3816856  52.7743446   0.7689019  89.7796982
  53.6362610   1.0943917  90.0392799  52.9593790  -0.0179485  89.2670048
  60.9276083  -0.3582454  96.9232205  60.3474752   0.3002350  96.5410257
  60.6612015  -1.1805110  96.5119622  59.7100961   1.8017636  95.9788553
  58.8226816   2.0867287  95.7608748  60.1254950   1.6411399  95.1315830
  63.0615497   1.8264157  99.6942892  63.8375887   2.3160609  99.9667509
  62.3363631   2.2522211 100.1514762  65.4988056   2.5391776 100.7516833
  66.0932546   2.2987512 100.0410141  65.5714639   1.8198907 101.3790369
  47.7185211  16.3825387 101.0659998  47.5839679  15.6225788 100.4997996
  47.3017274  17.1066287 100.5988787  58.8544174  11.5662311  90.0736573
  59.5580024  11.7712313  90.6894229  58.1306823  12.1339073  90.3385657
  59.6841985   7.3172172  96.1938843  59.6277186   7.7740723  95.3546476
  60.2370327   6.5562857  96.0161686  63.4946790   3.1061904  97.0188963
  63.2383725   2.7058539  97.8497170  62.8699658   3.8205698  96.8939102
  67.8059128   5.8457977  99.5260254  67.2458686   5.9151166 100.2991816
  67.2002632   5.6698962  98.8059750  50.8754337  17.2794704 101.2778440
  50.7586721  18.2240137 101.1757131  50.0546783  16.9768266 101.6664240
  60.7630872  12.0044840  92.1235033  61.5976476  11.5726038  91.9412508
  60.6015215  11.8326854  93.0511928  60.4176764   8.5076953  93.4891372
  60.3625568   8.3421225  92.5479817  59.7922819   9.2152986  93.6453562
  53.7272889  -1.9914938  93.0676691  53.7151559  -1.0473098  93.2244962
  54.6196311  -2.1744792  92.7736152  51.9008851  17.9322966 104.4934369
  52.8036098  17.9646576 104.8100864  51.6746221  17.0023417 104.5080705
  53.6562453  16.6853953 101.1544448  52.7058084  16.6855814 101.0408820
  53.9594939  15.9386687 100.6380482  69.3915147  22.5214491 102.2190210
  70.0293557  22.4021238 101.5153550  69.2735990  23.4695335 102.2778162
  66.2004853  22.4741919 102.1551735  65.8623365  22.3582984 101.2672269
  67.0694621  22.0733084 102.1352741  62.0591669  24.3277395  98.1448626
  61.4956534  24.2367332  97.3764913  61.9444064  23.5077300  98.6251118
  66.6824636  23.6276771 108.1137940  66.6713277  23.2329569 107.2418444
  66.8445276  22.8942843 108.7071712  59.6056101  25.8228587 100.9832846
  60.3977393  25.4819412 100.5679145  59.8452751  25.9323562 101.9034999
  67.6391227  27.9948363  93.4563090  66.9879207  28.5802444  93.0697104
  68.4335590  28.5254558  93.5158128  61.5646855  25.0837500  93.8550225
  62.3377731  24.5366487  93.7163101  61.9172253  25.9481750  94.0664686
  63.4031897  26.4113883 107.0617124  63.1121763  27.3159513 106.9463790
  64.0388882  26.4530410 107.7761194  64.3288104  23.7890731 103.6518484
  64.9251676  23.5646754 102.9375447  64.3863076  23.0475477 104.2543932
  63.9013132  21.2430166  91.4868675  64.1538653  20.7211688  90.7252138
  62.9637692  21.0796312  91.5895358  68.9456415  20.2465945  99.2943418
  69.7319504  19.8285368  98.9433835  69.2095120  21.1512037  99.4625066
  69.1166493  25.6838795  93.9932075  68.4812326  25.7573422  94.7052979
  68.7863899  26.2732394  93.3151154  74.3464842  20.1841178 100.1976396
  75.0790014  19.6140395 100.4314226  73.5904198  19.7962778 100.6382902
  63.6209421  23.1458272  93.6893050  63.5045679  22.4703176  94.3574134
  63.7311681  22.6590646  92.8725203  65.9640962  22.6068420  97.3939739
  65.5999169  22.0799040  98.1052660  66.8208078  22.2166889  97.2206224
  71.8690263  13.8962752 104.6571005  71.5373588  14.7658163 104.4332220
  71.2735876  13.5799036 105.3365035  65.6046449  17.6358319  92.3901087
  65.7720851  18.5038556  92.7571558  65.4143618  17.7985601  91.4662377
  68.3621782  26.0975298 104.0566918  68.0622505  27.0000337 103.9482725
  68.0172842  25.8307481 104.9088071  61.8134264  22.5489095 100.0903622
  60.8884760  22.4165309 100.2981314  62.0618677  23.3283314 100.5873565
  71.7618926  18.6157838 101.7364355  70.8535803  18.5473247 101.4423116
  71.7106522  19.0929783 102.5646181  65.5835670  20.0915977  93.3747754
  65.4635295  20.5373027  94.2133235  64.8888258  20.4401294  92.8161292
  59.1743075  22.1922369 100.9247411  59.3035456  22.4456847 101.8386823
  58.4940526  22.7850077 100.6052066  63.3442562  32.8619618  97.0237885
  63.2666592  33.8127444  97.1026366  62.7404206  32.5165491  97.6812812
  65.8359792  20.0347484 109.6799252  65.0593126  20.5941404 109.6702117
  66.4750355  20.5204267 110.2014122  73.6280572  16.8174277 103.5142229
  72.9854953  17.1106810 102.8682024  73.1235501  16.7027197 104.3195426
  71.2820736  20.5637450  94.2028088  72.1938592  20.7964837  94.0275786
  70.7730383  21.1474494  93.6403167  64.0906164  22.8432937 109.2417219
  64.8320849  23.3817981 108.9652043  63.3843150  23.4699226 109.3988771
  69.5661504  24.9862078 107.8389381  69.9744860  24.5444488 107.0944013
  68.8438765  24.4114705 108.0923574  65.9192574  19.9234684 105.2122938
  66.7653769  20.3474098 105.3557587  65.8591211  19.2668309 105.9061501
  69.8890318  25.5463268 101.5941670  69.2599181  25.7108982 100.8917738
  69.5015980  25.9604878 102.3652634  73.7679550  26.4817706  98.9486034
  73.0830588  26.8616608  98.3983067  73.8523400  27.0913033  99.6817981
  69.0692019  17.5839053 106.8704111  68.8252951  18.3381113 106.3338387
  69.3451950  17.9624400 107.7051359  71.0230482  24.1277665 105.5481377
  71.2347377  24.7709425 104.8715758  70.9760230  23.2939982 105.0803307
  68.6256711  16.7395486 102.4517949  67.7641190  17.0376739 102.7434687
  68.6519146  16.9565885 101.5198982  65.4418280  25.2837676  98.8591755
  65.9056626  25.5625379  98.0696377  65.1775078  24.3821121  98.6764846
  62.3342361  24.8309158 101.7971518  62.9043718  25.2596426 101.1589003
  62.9250473  24.5491743 102.4955704  64.3787166  21.4060829  95.6681320
  65.0811210  21.8581872  96.1355246  64.0467795  20.7644648  96.2961213
  62.8267528  19.9972585 110.0432529  62.1966188  20.6788866 110.2767926
  62.7203616  19.8855667 109.0985668  58.1212500  19.6644381 100.9698454
  57.3311554  19.9201910 100.4938564  58.6123748  20.4792719 101.0750494
  72.1376310  27.0049621 103.7203734  72.9593754  26.6029808 103.4386416
  72.1338713  26.9017855 104.6719850  60.0727246  20.0288961  97.9281930
  59.2758409  20.1407655  98.4465426  59.8452838  20.3675613  97.0622821
  65.9032913  26.5533664 105.8764445  65.9677346  27.0154071 106.7122617
  65.1943837  25.9231029 106.0046755  56.4050203  19.9174872 103.4013444
  56.6558242  20.8021882 103.6671020  56.9409752  19.7379473 102.6288536
  80.2282303  23.3488369 100.0688706  79.4746011  22.7795767  99.9132710
  80.3629844  23.3151034 101.0159341  65.6180931  28.2201771  95.7443425
  65.4826606  29.0653307  96.1728273  66.1590743  28.4221049  94.9809359
  59.0710328  25.7377209  96.3171350  59.5834849  26.5320460  96.4676915
  59.7233041  25.0403500  96.2504952  60.8805213  28.8542966  98.3994103
  61.0571841  29.7760930  98.2115087  61.6762047  28.5401385  98.8288483
  65.0216232  15.7151230 109.9978037  65.7625945  16.3158384 109.9182499
  65.2534154  14.9728868 109.4396080  60.1657570  20.9007598 108.2756267
  60.0511085  19.9992855 108.5763366  59.3102087  21.1471294 107.9241083
  67.2449407  28.8425338 109.8743767  66.8013262  28.0561716 109.5564672
  67.9066621  29.0304488 109.2087658  62.0036529  30.3721140 104.4004446
  62.5543954  30.2438203 103.6281440  61.1648004  30.6716029 104.0499339
  69.3430645  29.1228138 107.9025169  69.3249121  29.9437019 107.4105438
  70.2650565  28.9982213 108.1275310  65.8003700  26.6372267 108.7448677
  66.3332036  25.8760556 108.5147985  65.2717781  26.3445919 109.4872831
  68.9673395  11.7432333 104.2742319  68.6237664  12.6333975 104.1981429
  69.3352357  11.5533991 103.4111904  57.0359245  24.0665864  97.0930921
  57.8734467  24.4762872  96.8764629  57.2137513  23.1265306  97.0631115
  68.9323677  21.7340944  92.7814754  68.4170301  22.5045549  93.0203141
  68.6600986  21.0606081  93.4047815  66.5170788  16.5790645  97.8399992
  65.6612385  16.1897496  97.6605631  66.9297740  16.6582606  96.9799778
  68.0469935  14.1136988 102.2391552  67.5434731  14.0767124 101.4259357
  68.3400542  15.0229731 102.2988209  64.2912821  14.1975718 101.2457734
  65.1565818  14.0018527 100.8863623  64.3590330  13.9686070 102.1727090
  73.9057951  24.4873299  94.7167927  73.1287394  24.1484459  94.2723089
  74.5849432  24.4925922  94.0422892  68.7209980  19.6068037  94.6074535
  68.4160116  19.9214186  95.4584678  69.6740423  19.6849456  94.6501868
  67.1656412  25.7658260  96.2567489  66.6377774  25.0311019  95.9440726
  66.6643915  26.5432936  96.0107457  72.1449258  23.9607280 101.3734535
  71.4872933  24.6506542 101.4614664  72.9489658  24.3503712 101.7168522
  61.8975140  16.4277926  98.6174100  62.4718892  16.2053108  97.8847293
  62.4846122  16.4966621  99.3702702  70.9554717  22.3151653  99.4238477
  71.4686599  22.9481645  99.9260187  71.6055941  21.7152849  99.0581837
  62.2244727  18.4582387  92.6369986  61.3882039  18.7957074  92.9579260
  62.0849497  18.3231367  91.6997123  64.1997808  13.3019175  97.3449170
  63.5462220  12.9868192  96.7205785  64.1578282  12.6794915  98.0708993
  65.3109012  23.5838470  89.2602462  64.4036074  23.3527724  89.4593611
  65.8080044  22.7876089  89.4476444  68.2177091  32.2935977  92.1799148
  67.5438790  32.5967674  92.7884106  68.6042913  33.0965058  91.8304605
  67.4335548  19.7901109 101.6696818  66.5158109  20.0116056 101.5118506
  67.8495692  19.8647419 100.8108525  68.2170596  21.1892524  96.7999498
  68.9642415  21.7013921  96.4906620  68.4862185  20.8676577  97.6603891
  66.4897246  23.6851065  93.7826452  65.5808465  23.4010098  93.8798922
  66.5192330  24.1050144  92.9229759  71.7216513  27.2957654  97.5517620
  71.2678840  26.4548564  97.6082810  71.0910480  27.9319053  97.8892400
  70.6649433  18.2249640  98.7818287  69.9272190  17.7127027  99.1128530
  70.9176206  17.7850022  97.9701564  70.1649453  29.1334151  98.4867438
  70.4572427  29.6939208  97.7679803  70.6748073  29.4262712  99.2420597
  70.7661060  11.0025892  99.3760056  71.0719937  10.1423256  99.0885971
  71.4913665  11.5943513  99.1759050  57.0585416  21.4056579  97.7641654
  56.8609816  20.8125940  97.0392721  56.5032080  21.1008789  98.4817593
  65.0382140  21.2979686  99.8836247  65.0930750  20.3453522  99.8078724
  64.2273342  21.4539125 100.3677546  66.1873334  25.2259809  91.1214531
  65.7492764  24.5095668  90.6620168  66.9283775  25.4535923  90.5599622
  62.9774500  19.9156745  97.6426626  62.1642365  20.2150916  98.0491818
  63.4733494  19.5212434  98.3601109  65.1283078  29.9114502  99.5760891
  65.0859257  30.1375349  98.6469423  66.0445777  29.6777877  99.7246692
  68.5748712  20.3798570 106.4741520  68.9298099  20.6070043 107.3335986
  69.2220843  20.7116947 105.8518775  74.3046448  23.5017006  97.1790849
  74.1664347  23.6918602  96.2512038  73.9482667  24.2636388  97.6358900
  62.4688575  17.4875101 103.2587861  63.1087954  17.3463860 102.5610825
  61.6366105  17.2009614 102.8826463  74.3315828  25.5693533 102.1902121
  74.7652335  25.4768822 103.0385175  75.0447409  25.5451033 101.5522137
  63.2448879  26.7877531  99.3722854  64.0389477  26.2927851  99.1705429
  62.5340571  26.2595394  99.0090559  68.0643723  29.1695627 103.7235221
  68.1180745  29.7386563 104.4912937  67.1958504  29.3397512 103.3589258
  59.5531642  20.9320613  95.4482606  58.6229230  20.8705068  95.6652569
  59.6489114  20.4096566  94.6519248  59.4717191  17.4575426  98.0360848
  59.7324008  18.3720759  97.9270009  60.2934363  16.9899868  98.1857461
  60.9442116  18.8713183 105.2059673  61.6165170  18.6630545 104.5572321
  60.1171903  18.6735269 104.7664905  75.1931378  25.6117233 104.7235006
  75.3867268  26.5163044 104.9694281  75.0931996  25.1524652 105.5573591
  66.8467688  15.4975124 107.2225333  66.1995603  16.1965074 107.1289810
  67.6168704  15.9311268 107.5901582  70.2546486  25.7623976 110.2975887
  70.1031993  25.5334528 109.3805970  70.2451166  26.7194577 110.3107232
  67.0231823  23.3355889 105.2822153  67.9523883  23.4867048 105.1091120
  66.6022853  23.4239910 104.4270800  65.8220155  27.3606553 103.0520691
  65.6831240  26.9925338 103.9246629  65.0334751  27.8754193 102.8804649
  66.4168306  32.4615650  94.3946227  66.5920062  31.9903693  95.2091850
  65.7301095  33.0881416  94.6227488  67.3725370  26.7388156 100.4409529
  67.0375202  26.6988926 101.3367178  66.8729315  26.0732872  99.9679939
  61.3469614  22.1455786 105.9662110  61.2089412  21.4136025 106.5673649
  62.2574537  22.0564686 105.6846297  70.3084561  24.0844190  90.7146588
  69.6913732  23.3591018  90.6179641  69.8401050  24.8453551  90.3713662
  63.9751914  21.8575745 105.4545789  64.6851533  21.2168937 105.4132408
  63.9321222  22.1088640 106.3771970  71.9638693  28.7943099 108.3752369
  71.9051239  28.1102319 107.7082952  72.3658211  29.5362089 107.9232995
  62.6880848  18.8440963 107.2741429  62.1518205  18.3931702 107.9263025
  62.0997557  18.9786872 106.5311893  60.9829392  35.6105012 101.1686087
  61.2225990  36.2423537 101.8465106  60.1398588  35.2593052 101.4551447
  62.0983107  18.3029615  89.8367893  61.2212574  18.1818415  89.4730139
  62.5740860  17.5115693  89.5846781  71.9656100  26.7582683 106.6066348
  71.0782879  26.4208604 106.7292747  72.5354651  26.0265714 106.8435114
  53.6185247  23.0906774  99.9309400  54.3056287  22.7768504  99.3430415
  53.4633376  23.9948139  99.6576651  58.4219969  17.9796971 104.3594423
  58.3378158  17.3722640 103.6244833  57.6002676  18.4705989 104.3603920
  65.4957254  31.4184135 103.5727591  65.4227425  32.2239106 104.0846896
  65.0534647  31.6176101 102.7475613  65.2847033  30.6555905  97.0830413
  64.5014555  31.1977585  97.1768638  65.9839778  31.1729885  97.4824654
  68.5943683  16.4650534  99.7264618  69.0912383  15.7120497  99.4065689
  67.8230665  16.5014851  99.1607828  76.4473441  22.1690900 101.3682910
  76.4363317  23.0515615 100.9976843  75.5790820  21.8162451 101.1737447
  67.9555937  31.3170969 105.7285750  68.6683909  31.9518434 105.6561652
  67.4645966  31.4134835 104.9125752  69.6773464  25.2222222  97.3003042
  68.7429743  25.3423684  97.1307746  69.8550133  24.3194688  97.0363052
  65.1778652  18.6067917  99.4536303  64.8076440  18.0538958 100.1417209
  65.6737745  18.0026051  98.9011303  73.0646015  21.0639541  97.8353076
  73.5306468  21.8967532  97.7613379  73.5153516  20.5984522  98.5398334
  63.0067851  29.0665412 106.5491321  63.7077310  29.7001895 106.7020715
  62.5362966  29.4080144 105.7886960  71.1322247  27.4083362  94.8339228
  71.4082090  27.2939957  95.7433102  70.2626745  27.0100847  94.7951401
  71.0362678  13.4320128 101.8743977  70.1225758  13.6624355 102.0426184
  71.4655780  13.5158572 102.7258010  70.8069137  21.6210020 104.3743871
  70.1540587  21.8685927 103.7196324  71.1849517  20.8074158 104.0406349
  67.7676311  31.6569713  98.4772042  67.9498705  30.8391369  98.9399794
  68.5909297  31.8737405  98.0396932  68.1018476  30.5837898  95.7387090
  68.6306242  30.0730353  95.1257252  68.3646696  30.2680428  96.6032623
  66.8556710  22.3629831 110.8609908  66.1797347  22.2623960 111.5312284
  67.6784344  22.2069045 111.3245906  58.6035569  28.6001767 103.4822424
  59.1889006  27.8545455 103.6150328  58.4060407  28.9105724 104.3659088
  61.4574224  31.6353015  98.4984866  60.7884599  32.1199142  98.0148906
  61.3187094  31.8822235  99.4128245  53.1953223  21.1707368 102.2026867
  53.2337323  20.6370958 102.9963985  52.6893516  20.6442573 101.5837844
  65.5979493  33.6696758 105.0967524  66.1497801  33.8328380 105.8616610
  65.9385686  34.2601196 104.4247549  60.5743986  16.0171908 105.6989409
  60.6385312  16.8786739 105.2866807  60.5111106  15.4045910 104.9661768
  70.4490367  28.4958016 110.9516179  70.9930271  29.1087974 110.4571134
  69.8677212  29.0537594 111.4683192  56.8261801  19.8971470  95.2780798
  57.1215242  18.9882148  95.2247852  55.9249837  19.8759209  94.9561801
  68.7347880  31.6178734 102.0831207  68.6099019  30.8168474 101.5742152
  69.3926971  32.1124927 101.5945177  60.3556048  17.9727466 101.2608347
  59.6342634  18.5863434 101.1215820  61.1449304  18.5085231 101.1824993
  70.7982788  29.4187754 103.7110757  69.8513124  29.2993105 103.6389083
  71.1465561  28.5310252 103.7937018  63.1582362  15.3081893 107.5348999
  63.6816763  15.5544189 108.2975308  62.9394695  16.1401928 107.1152136
  58.5549643  17.5785567  95.4020123  58.2262349  16.6982946  95.2195229
  58.9089013  17.5233236  96.2896513  67.8029222  29.2140470  99.9115109
  67.6554184  28.2857178 100.0922679  68.6282715  29.2360561  99.4272184
  61.6691466  17.8658537  95.7695601  62.0087538  18.3944459  95.0474209
  62.1163586  18.2038943  96.5454168  71.4063343  30.0369029 100.9979982
  72.3309891  29.8311890 100.8604433  71.2378647  29.7885430 101.9069323
  64.3634907  16.2495588 105.2198669  64.0231727  15.4503401 105.6219349
  63.6573913  16.5497299 104.6475502  65.0151378  13.3344900 103.6725992
  65.8377448  12.8605379 103.5504882  65.2589442  14.1135384 104.1724678
  63.6559613  16.3633159  93.9688894  64.3767975  16.7414412  93.4652611
  63.0324917  17.0822036  94.0723872  67.7990736  17.0678308  94.9047226
  68.0154350  17.9502946  94.6036054  67.3184803  16.6764521  94.1752868
  62.5389957  20.0264021 101.4817971  62.3934538  20.3404324 102.3742252
  62.0615161  20.6448921 100.9288869  64.3986340  17.0166569 101.5298860
  64.3847909  16.1207662 101.1931158  65.1158768  17.0237233 102.1637146
  66.2512471  17.4503909 103.5751988  65.9930249  18.3720980 103.5736318
  65.7197511  17.0534344 104.2652452  71.1958660  30.5554696  96.3542073
  71.3695537  29.9901119  95.6015926  71.6887551  31.3555591  96.1721563
  57.0135619  22.5669365 104.4205632  56.4689087  23.3429173 104.5525906
  57.8914969  22.9140170 104.2624753  63.8023236  15.8980949  96.7986430
  63.9239147  14.9697596  96.9977318  63.5125278  15.9119635  95.8864746
  66.6714426  13.5835860  99.9353150  66.6936123  13.6475193  98.9805130
  67.0882485  12.7440368 100.1293656  77.0498051  23.3191119  97.9732373
  77.4929197  22.5698445  97.5751496  76.1724561  23.3101256  97.5906105
  72.1833832  29.8721461  93.4538971  72.8784737  30.4928153  93.6726286
  72.5256982  29.0216812  93.7291349  57.8001641  21.6939262 107.3135789
  57.0583377  21.8421897 107.9000419  57.4794386  21.9547527 106.4502538
  74.0825255  27.3221166  94.9826302  74.6076579  27.6608439  94.2575622
  73.9947608  26.3868182  94.7989437  65.7445304  31.2355240 107.1116179
  66.0532430  30.9904387 107.9838878  66.5420786  31.4401878 106.6235049
  65.7665916  33.3893150  99.3421555  65.3270906  32.8969528 100.0354412
  66.5174033  32.8466117  99.1013631  58.2458255  29.5804690  99.3446183
  59.0716275  29.2808462  98.9644827  57.8952307  28.8112313  99.7935972
  63.2139788  28.9331159 101.4143857  62.5919797  28.2701864 101.1146085
  63.8844655  28.9592291 100.7317505  56.4466860  27.4991017 100.3035117
  55.6098768  27.0713191 100.1219118  56.4190505  27.6923460 101.2405908
  73.7719161  27.9554070 110.2877500  72.9814705  27.9378209 109.7481999
  73.5352516  28.4942364 111.0426537  73.8917036  24.8046536 107.6010229
  73.9415041  24.6396544 108.5425751  73.7830960  23.9373795 107.2108109
  62.7753295  27.4835082  94.8902318  62.9241415  28.1670546  94.2368990
  63.5819738  27.4640172  95.4051773  71.1820799  20.7877464 108.9169535
  72.0830661  20.6483929 108.6253533  71.2568773  20.9531919 109.8567713
  65.5163604  18.1644319 107.7622722  64.6466913  18.4577885 107.4905310
  65.7523084  18.7484764 108.4829985  75.3935233  27.2243478 107.8452250
  75.1020041  27.5873458 108.6815711  74.7807364  26.5110486 107.6665582
  76.5930915  24.7896358 100.3654820  77.4277807  25.2286162 100.5292381
  76.7290044  24.3135011  99.5463066  73.6422421  22.3476092 106.3132308
  74.1176543  22.5403739 105.5051160  72.7187987  22.4035278 106.0675692
  60.5305928  23.5100260  95.8963386  60.2851970  22.6062590  96.0943597
  60.7001843  23.5117410  94.9542864  68.2202638  14.3823936 105.2788142
  68.7384582  15.1184963 104.9534631  67.8657771  14.6887929 106.1134901
  59.8001575  19.2428617  93.3949548  59.1070820  19.3172972  92.7389584
  59.5553327  18.4788961  93.9171065  68.4715232  10.8024219 100.7989039
  68.7516986  10.1347408 101.4249465  69.2565839  10.9953314 100.2863702
  66.2748701  29.9783212  92.3614065  65.7022668  30.5973400  91.9084537
  66.8481494  30.5282574  92.8953987  72.3424090  19.2241853 104.5460614
  73.2941513  19.3239950 104.5672838  72.1727541  18.4320121 105.0558698
  70.3638470  16.3097436 104.7320015  69.7688402  16.5902448 104.0366503
  70.0788167  16.7991337 105.5036756  69.4945960  30.2620363  93.4922647
  70.4276633  30.1965924  93.6955523  69.4069173  31.0976629  93.0337180
  72.1233977  29.5786233  90.4526595  72.0447608  29.2446097  91.3462353
  72.9443644  30.0708001  90.4518067  74.8212168  22.4447972 103.6602913
  74.7888488  21.5063973 103.8462597  75.4312792  22.5232009 102.9268738
  66.6595499  21.3144025  89.7030117  67.6054604  21.1850233  89.7718535
  66.2809744  20.5758687  90.1799546  74.9706657  19.2359016 103.7061197
  74.4545705  18.4517472 103.5191125  75.8546605  18.9077732 103.8707716
  72.6317384  12.9800031  99.6657009  72.4342205  12.6715119 100.5500341
  73.2417089  13.7061670  99.7954939  80.6388718  23.5063979 102.8008950
  81.3692106  23.2449267 103.3616654  80.0295663  22.7692701 102.8411018
  78.7204015  21.6471842 103.3983401  77.9937179  21.5127807 102.7899893
  78.3051302  21.9548670 104.2040119  66.5434192  25.3661771 111.1630774
  67.4637201  25.5440370 111.3570821  66.5083775  24.4217817 111.0110474
  64.8438416  19.2394002  89.6385003  63.9369872  18.9427114  89.7147716
  65.1214397  18.9423820  88.7719289  55.7616357  20.5600365 100.0884049
  55.4419141  19.7065673  99.7958423  55.2149785  20.7748943 100.8442016
  59.5396264  23.2762806 103.8053556  59.7582274  24.2079914 103.8241589
  59.9522038  22.9170780 104.5908359  66.4600482  13.7830891  95.7929244
  65.6501210  13.4377976  96.1684490  67.1484899  13.4738435  96.3816856
  68.3891030  12.8608938  97.4153541  68.9422069  13.2804392  98.0743564
  68.6261117  11.9344686  97.4576497  63.6137201  16.0980937  89.7796982
  64.4756365  16.4235835  90.0392799  63.7987545  15.3112433  89.2670048
  55.6304617  24.1803276 102.0577171  54.9368088  23.7657229 101.5447125
  56.3777608  24.2223813 101.4610590  71.7669837  14.9709463  96.9232205
  71.1868506  15.6294267  96.5410257  71.5005770  14.1486808  96.5119622
  70.2173404  14.3714521  99.1253525  70.7173182  14.4831056  98.3167844
  70.8609012  14.0675574  99.7654334  64.2755399  22.2793151 112.0121366
  63.7922481  23.0793511 112.2185255  64.3616339  22.2901095 111.0588810
  57.5441359  24.1121530  99.9343186  57.5212047  24.2109218  98.9825069
  57.8541996  24.9586681 100.2560352  60.2028737  26.1697685 104.0489800
  61.1571990  26.1381628 103.9819732  60.0041261  25.7088309 104.8640026
  60.7928119  24.7398801 106.6160598  61.6121008  25.2342880 106.6395435
  61.0664927  23.8230769 106.5878165  70.5494715  17.1309554  95.9788553
  69.6620570  17.4159204  95.7608748  70.9648704  16.9703317  95.1315830
  73.9009251  17.1556075  99.6942892  74.6769642  17.6452527  99.9667509
  73.1757386  17.5814129 100.1514762  76.3381810  17.8683694 100.7516833
  76.9326301  17.6279430 100.0410141  76.4108394  17.1490824 101.3790369
  58.5578966  31.7117305 101.0659998  58.4233434  30.9517706 100.4997996
  58.1411028  32.4358205 100.5988787  69.6937929  26.8954228  90.0736573
  70.3973779  27.1004231  90.6894229  68.9700578  27.4630990  90.3385657
  70.5235739  22.6464090  96.1938843  70.4670940  23.1032641  95.3546476
  71.0764081  21.8854774  96.0161686  74.3340545  18.4353821  97.0188963
  74.0777479  18.0350457  97.8497170  73.7093413  19.1497615  96.8939102
  78.6452883  21.1749895  99.5260254  78.0852441  21.2443084 100.2991816
  78.0396386  20.9990879  98.8059750  61.7148092  32.6086622 101.2778440
  61.5980476  33.5532054 101.1757131  60.8940538  32.3060183 101.6664240
  71.6024626  27.3336758  92.1235033  72.4370230  26.9017956  91.9412508
  71.4408969  27.1618771  93.0511928  71.2570518  23.8368871  93.4891372
  71.2019322  23.6713142  92.5479817  70.6316574  24.5444904  93.6453562
  56.0463033  19.0736935 107.3152795  56.6921897  18.5635889 107.8040020
  55.8380184  19.8105617 107.8896220  68.5716426  26.1417783 112.8144935
  69.4407585  26.3158435 112.4531570  68.0923177  26.9612200 112.6920665
  64.5666644  13.3376980  93.0676691  64.5545314  14.2818820  93.2244962
  65.4590066  13.1547125  92.7736152  62.7402606  33.2614884 104.4934369
  63.6429852  33.2938494 104.8100864  62.5139976  32.3315335 104.5080705
  64.4956208  32.0145870 101.1544448  63.5451839  32.0147732 101.0408820
  64.7988694  31.2678605 100.6380482  68.3818763   9.9319756  97.3222628
  67.6151159   9.3778243  97.4679310  68.7929468  10.0041625  98.1836779
  80.2308901  37.8506409 102.2190210  80.8687311  37.7313156 101.5153550
  80.1129744  38.7987253 102.2778162  77.0398608  37.8033837 102.1551735
  76.7017119  37.6874901 101.2672269  77.9088376  37.4025002 102.1352741
  72.8985423  39.6569313  98.1448626  72.3350288  39.5659250  97.3764913
  72.7837818  38.8369218  98.6251118  77.5218391  38.9568688 108.1137940
  77.5107031  38.5621487 107.2418444  77.6839030  38.2234761 108.7071712
  70.4449855  41.1520505 100.9832846  71.2371147  40.8111329 100.5679145
  70.6846505  41.2615480 101.9034999  78.4784982  43.3240281  93.4563090
  77.8272962  43.9094361  93.0697104  79.2729345  43.8546476  93.5158128
  72.4040609  40.4129418  93.8550225  73.1771485  39.8658405  93.7163101
  72.7566008  41.2773667  94.0664686  74.2425652  41.7405800 107.0617124
  73.9515518  42.6451431 106.9463790  74.8782636  41.7822328 107.7761194
  75.1681859  39.1182649 103.6518484  75.7645431  38.8938671 102.9375447
  75.2256830  38.3767394 104.2543932  74.7406887  36.5722084  91.4868675
  74.9932408  36.0503605  90.7252138  73.8031446  36.4088230  91.5895358
  79.7850170  35.5757862  99.2943418  80.5713259  35.1577286  98.9433835
  80.0488874  36.4803955  99.4625066  79.9560247  41.0130713  93.9932075
  79.3206080  41.0865339  94.7052979  79.6257653  41.6024312  93.3151154
  85.1858597  35.5133096 100.1976396  85.9183769  34.9432313 100.4314226
  84.4297953  35.1254696 100.6382902  74.4603176  38.4750190  93.6893050
  74.3439434  37.7995093  94.3574134  74.5705436  37.9882564  92.8725203
  76.8034717  37.9360337  97.3939739  76.4392924  37.4090958  98.1052660
  77.6601832  37.5458806  97.2206224  82.7084017  29.2254670 104.6571005
  82.3767342  30.0950081 104.4332220  82.1129631  28.9090954 105.3365035
  76.4440204  32.9650237  92.3901087  76.6114606  33.8330473  92.7571558
  76.2537373  33.1277519  91.4662377  79.2015537  41.4267216 104.0566918
  78.9016260  42.3292255 103.9482725  78.8566596  41.1599399 104.9088071
  72.6528018  37.8781013 100.0903622  71.7278515  37.7457227 100.2981314
  72.9012431  38.6575232 100.5873565  82.6012681  33.9449756 101.7364355
  81.6929558  33.8765164 101.4423116  82.5500276  34.4221701 102.5646181
  76.4229424  35.4207894  93.3747754  76.3029050  35.8664945  94.2133235
  75.7282013  35.7693212  92.8161292  70.0136829  37.5214286 100.9247411
  70.1429210  37.7748765 101.8386823  69.3334281  38.1141994 100.6052066
  74.1836317  48.1911536  97.0237885  74.1060346  49.1419361  97.1026366
  73.5797960  47.8457409  97.6812812  76.6753546  35.3639402 109.6799252
  75.8986880  35.9233322 109.6702117  77.3144109  35.8496185 110.2014122
  84.4674327  32.1466194 103.5142229  83.8248707  32.4398728 102.8682024
  83.9629255  32.0319115 104.3195426  82.1214491  35.8929368  94.2028088
  83.0332347  36.1256754  94.0275786  81.6124138  36.4766412  93.6403167
  74.9299919  38.1724855 109.2417219  75.6714603  38.7109899 108.9652043
  74.2236904  38.7991144 109.3988771  80.4055258  40.3153995 107.8389381
  80.8138614  39.8736406 107.0944013  79.6832520  39.7406623 108.0923574
  76.7586328  35.2526602 105.2122938  77.6047524  35.6766016 105.3557587
  76.6984966  34.5960226 105.9061501  80.7284073  40.8755186 101.5941670
  80.0992935  41.0400900 100.8917738  80.3409735  41.2896796 102.3652634
  84.6073305  41.8109624  98.9486034  83.9224343  42.1908525  98.3983067
  84.6917154  42.4204951  99.6817981  79.9085774  32.9130971 106.8704111
  79.6646706  33.6673031 106.3338387  80.1845704  33.2916318 107.7051359
  81.8624236  39.4569583 105.5481377  82.0741132  40.1001343 104.8715758
  81.8153985  38.6231899 105.0803307  79.4650465  32.0687404 102.4517949
  78.6034944  32.3668657 102.7434687  79.4912900  32.2857802 101.5198982
  76.2812035  40.6129594  98.8591755  76.7450380  40.8917297  98.0696377
  76.0168833  39.7113039  98.6764846  73.1736116  40.1601076 101.7971518
  73.7437473  40.5888344 101.1589003  73.7644228  39.8783660 102.4955704
  75.2180921  36.7352746  95.6681320  75.9204964  37.1873790  96.1355246
  74.8861549  36.0936565  96.2961213  73.6661282  35.3264503 110.0432529
  73.0359943  36.0080784 110.2767926  73.5597370  35.2147585 109.0985668
  68.9606255  34.9936299 100.9698454  68.1705309  35.2493828 100.4938564
  69.4517502  35.8084637 101.0750494  82.9770064  42.3341538 103.7203734
  83.7987508  41.9321726 103.4386416  82.9732467  42.2309772 104.6719850
  70.9121000  35.3580878  97.9281930  70.1152163  35.4699573  98.4465426
  70.6846592  35.6967531  97.0622821  76.7426668  41.8825582 105.8764445
  76.8071100  42.3445989 106.7122617  76.0337592  41.2522947 106.0046755
  67.2443958  35.2466790 103.4013444  67.4951996  36.1313800 103.6671020
  67.7803506  35.0671391 102.6288536  91.0676057  38.6780287 100.0688706
  90.3139766  38.1087685  99.9132710  91.2023599  38.6442951 101.0159341
  76.4574685  43.5493689  95.7443425  76.3220360  44.3945225  96.1728273
  76.9984498  43.7512967  94.9809359  72.9442025  29.6285269 112.4057780
  72.5508971  29.0751468 113.0805425  73.7608165  29.9395847 112.7964298
  69.9104083  41.0669127  96.3171350  70.4228603  41.8612377  96.4676915
  70.5626796  40.3695418  96.2504952  71.7198968  44.1834883  98.3994103
  71.8965596  45.1052848  98.2115087  72.5155801  43.8693303  98.8288483
  75.8609986  31.0443148 109.9978037  76.6019699  31.6450301 109.9182499
  76.0927909  30.3020786 109.4396080  71.0051324  36.2299515 108.2756267
  70.8904839  35.3284773 108.5763366  70.1495842  36.4763212 107.9241083
  78.0843162  44.1717256 109.8743767  77.6407016  43.3853634 109.5564672
  78.7460375  44.3596406 109.2087658  72.8430283  45.7013057 104.4004446
  73.3937708  45.5730121 103.6281440  72.0041759  46.0007946 104.0499339
  80.1824400  44.4520056 107.9025169  80.1642875  45.2728937 107.4105438
  81.1044320  44.3274131 108.1275310  76.6397454  41.9664185 108.7448677
  77.1725791  41.2052473 108.5147985  76.1111535  41.6737837 109.4872831
  79.8067149  27.0724251 104.2742319  79.4631418  27.9625893 104.1981429
  80.1746112  26.8825909 103.4111904  67.8753000  39.3957781  97.0930921
  68.7128222  39.8054790  96.8764629  68.0531267  38.4557224  97.0631115
  79.7717432  37.0632862  92.7814754  79.2564055  37.8337467  93.0203141
  79.4994740  36.3897998  93.4047815  77.3564543  31.9082563  97.8399992
  76.5006139  31.5189413  97.6605631  77.7691495  31.9874524  96.9799778
  78.8863689  29.4428906 102.2391552  78.3828485  29.4059041 101.4259357
  79.1794296  30.3521649 102.2988209  75.1306575  29.5267636 101.2457734
  75.9959572  29.3310445 100.8863623  75.1984084  29.2977988 102.1727090
  84.7451706  39.8165217  94.7167927  83.9681149  39.4776376  94.2723089
  85.4243187  39.8217840  94.0422892  79.5603735  34.9359954  94.6074535
  79.2553870  35.2506103  95.4584678  80.5134177  35.0141374  94.6501868
  78.0050167  41.0950178  96.2567489  77.4771528  40.3602937  95.9440726
  77.5037669  41.8724854  96.0107457  82.9843013  39.2899198 101.3734535
  82.3266687  39.9798459 101.4614664  83.7883412  39.6795630 101.7168522
  72.7368894  31.7569844  98.6174100  73.3112646  31.5345025  97.8847293
  73.3239877  31.8258538  99.3702702  81.7948472  37.6443571  99.4238477
  82.3080353  38.2773563  99.9260187  82.4449695  37.0444766  99.0581837
  73.0638481  33.7874305  92.6369986  72.2275794  34.1248991  92.9579260
  72.9243251  33.6523285  91.6997123  75.0391562  28.6311093  97.3449170
  74.3855974  28.3160110  96.7205785  74.9972036  28.0086833  98.0708993
  76.1502767  38.9130388  89.2602462  75.2429829  38.6819641  89.4593611
  76.6473799  38.1168007  89.4476444  79.0570846  47.6227895  92.1799148
  78.3832545  47.9259592  92.7884106  79.4436668  48.4256975  91.8304605
  78.2729302  35.1193026 101.6696818  77.3551864  35.3407973 101.5118506
  78.6889446  35.1939337 100.8108525  79.0564350  36.5184442  96.7999498
  79.8036169  37.0305839  96.4906620  79.3255940  36.1968495  97.6603891
  77.3291000  39.0142983  93.7826452  76.4202220  38.7302015  93.8798922
  77.3586084  39.4342061  92.9229759  82.5610268  42.6249572  97.5517620
  82.1072595  41.7840482  97.6082810  81.9304235  43.2610971  97.8892400
  81.5043187  33.5541558  98.7818287  80.7665944  33.0418944  99.1128530
  81.7569961  33.1141940  97.9701564  81.0043207  44.4626069  98.4867438
  81.2966181  45.0231126  97.7679803  81.5141828  44.7554630  99.2420597
  81.6054815  26.3317810  99.3760056  81.9113691  25.4715174  99.0885971
  82.3307419  26.9235430  99.1759050  67.8979171  36.7348497  97.7641654
  67.7003571  36.1417857  97.0392721  67.3425835  36.4300707  98.4817593
  75.8775894  36.6271603  99.8836247  75.9324504  35.6745440  99.8078724
  75.0667096  36.7831042 100.3677546  77.0267088  40.5551726  91.1214531
  76.5886518  39.8387585  90.6620168  77.7677529  40.7827841  90.5599622
  73.8168254  35.2448663  97.6426626  73.0036120  35.5442834  98.0491818
  74.3127249  34.8504352  98.3601109  75.9676832  45.2406420  99.5760891
  75.9253011  45.4667266  98.6469423  76.8839531  45.0069794  99.7246692
  79.4142466  35.7090487 106.4741520  79.7691854  35.9361961 107.3335986
  80.0614597  36.0408864 105.8518775  85.1440203  38.8308923  97.1790849
  85.0058102  39.0210519  96.2512038  84.7876422  39.5928306  97.6358900
  73.3082329  32.8167019 103.2587861  73.9481708  32.6755778 102.5610825
  72.4759860  32.5301532 102.8826463  85.1709583  40.8985450 102.1902121
  85.6046089  40.8060739 103.0385175  85.8841163  40.8742951 101.5522137
  74.0842633  42.1169449  99.3722854  74.8783232  41.6219769  99.1705429
  73.3734325  41.5887312  99.0090559  78.9037477  44.4987544 103.7235221
  78.9574500  45.0678481 104.4912937  78.0352259  44.6689429 103.3589258
  70.3925396  36.2612531  95.4482606  69.4622985  36.1996986  95.6652569
  70.4882868  35.7388483  94.6519248  70.3110946  32.7867343  98.0360848
  70.5717763  33.7012677  97.9270009  71.1328118  32.3191786  98.1857461
  71.7835871  34.2005101 105.2059673  72.4558924  33.9922463 104.5572321
  70.9565657  34.0027187 104.7664905  86.0325132  40.9409151 104.7235006
  86.2261022  41.8454962 104.9694281  85.9325750  40.4816570 105.5573591
  77.6861443  30.8267042 107.2225333  77.0389358  31.5256991 107.1289810
  78.4562458  31.2603186 107.5901582  81.0940241  41.0915894 110.2975887
  80.9425747  40.8626445 109.3805970  81.0844920  42.0486495 110.3107232
  77.8625577  38.6647806 105.2822153  78.7917637  38.8158966 105.1091120
  77.4416607  38.7531827 104.4270800  76.6613909  42.6898471 103.0520691
  76.5224995  42.3217255 103.9246629  75.8728505  43.2046110 102.8804649
  77.2562061  47.7907567  94.3946227  77.4313817  47.3195611  95.2091850
  76.5694849  48.4173334  94.6227488  78.2119124  42.0680074 100.4409529
  77.8768957  42.0280844 101.3367178  77.7123070  41.4024790  99.9679939
  72.1863368  37.4747704 105.9662110  72.0483166  36.7427942 106.5673649
  73.0968292  37.3856604 105.6846297  81.1478316  39.4136108  90.7146588
  80.5307486  38.6882936  90.6179641  80.6794804  40.1745468  90.3713662
  74.8145669  37.1867663 105.4545789  75.5245287  36.5460855 105.4132408
  74.7714977  37.4380558 106.3771970  82.8032447  44.1235016 108.3752369
  82.7444994  43.4394236 107.7082952  83.2051966  44.8654006 107.9232995
  73.5274603  34.1732881 107.2741429  72.9911960  33.7223619 107.9263025
  72.9391311  34.3078790 106.5311893  71.8223146  50.9396930 101.1686087
  72.0619744  51.5715454 101.8465106  70.9792343  50.5884970 101.4551447
  72.9376862  33.6321532  89.8367893  72.0606328  33.5110333  89.4730139
  73.4134615  32.8407611  89.5846781  82.8049855  42.0874600 106.6066348
  81.9176633  41.7500522 106.7292747  83.3748406  41.3557631 106.8435114
  64.4579002  38.4198692  99.9309400  65.1450042  38.1060422  99.3430415
  64.3027131  39.3240057  99.6576651  69.2613724  33.3088889 104.3594423
  69.1771913  32.7014558 103.6244833  68.4396430  33.7997907 104.3603920
  76.3351008  46.7476053 103.5727591  76.2621180  47.5531024 104.0846896
  75.8928401  46.9468018 102.7475613  76.1240788  45.9847823  97.0830413
  75.3408310  46.5269503  97.1768638  76.8233533  46.5021802  97.4824654
  79.4337438  31.7942452  99.7264618  79.9306137  31.0412414  99.4065689
  78.6624419  31.8306769  99.1607828  87.2867195  37.4982818 101.3682910
  87.2757072  38.3807533 100.9976843  86.4184575  37.1454368 101.1737447
  78.7949692  46.6462887 105.7285750  79.5077664  47.2810351 105.6561652
  78.3039720  46.7426753 104.9125752  80.5167219  40.5514139  97.3003042
  79.5823497  40.6715602  97.1307746  80.6943887  39.6486606  97.0363052
  76.0172407  33.9359835  99.4536303  75.6470194  33.3830875 100.1417209
  76.5131499  33.3317969  98.9011303  83.9039770  36.3931459  97.8353076
  84.3700222  37.2259450  97.7613379  84.3547270  35.9276440  98.5398334
  73.8461605  44.3957330 106.5491321  74.5471065  45.0293813 106.7020715
  73.3756720  44.7372062 105.7886960  81.9716001  42.7375280  94.8339228
  82.2475845  42.6231874  95.7433102  81.1020500  42.3392765  94.7951401
  81.8756433  28.7612046 101.8743977  80.9619512  28.9916272 102.0426184
  82.3049534  28.8450490 102.7258010  81.6462891  36.9501938 104.3743871
  80.9934341  37.1977845 103.7196324  82.0243271  36.1366076 104.0406349
  78.6070065  46.9861631  98.4772042  78.7892460  46.1683287  98.9399794
  79.4303051  47.2029323  98.0396932  78.9412231  45.9129816  95.7387090
  79.4699997  45.4022270  95.1257252  79.2040450  45.5972346  96.6032623
  77.6950464  37.6921749 110.8609908  77.0191101  37.5915878 111.5312284
  78.5178098  37.5360962 111.3245906  69.4429323  43.9293685 103.4822424
  70.0282760  43.1837373 103.6150328  69.2454162  44.2397642 104.3659088
  72.2967978  46.9644933  98.4984866  71.6278354  47.4491060  98.0148906
  72.1580848  47.2114153  99.4128245  64.0346978  36.4999285 102.2026867
  64.0731077  35.9662876 102.9963985  63.5287271  35.9734491 101.5837844
  76.4373247  48.9988676 105.0967524  76.9891555  49.1620298 105.8616610
  76.7779441  49.5893114 104.4247549  71.4137740  31.3463826 105.6989409
  71.4779067  32.2078657 105.2866807  71.3504861  30.7337827 104.9661768
  70.8890013  33.4186958 109.3462443  71.5162052  33.0364036 109.9599968
  70.0317932  33.2001160 109.7118136  81.2884121  43.8249934 110.9516179
  81.8324025  44.4379892 110.4571134  80.7070966  44.3829512 111.4683192
  67.6655556  35.2263387  95.2780798  67.9608997  34.3174066  95.2247852
  66.7643591  35.2051127  94.9561801  79.5741634  46.9470652 102.0831207
  79.4492774  46.1460391 101.5742152  80.2320725  47.4416845 101.5945177
  71.1949803  33.3019384 101.2608347  70.4736388  33.9155352 101.1215820
  71.9843058  33.8377149 101.1824993  81.6376543  44.7479672 103.7110757
  80.6906878  44.6285023 103.6389083  81.9859316  43.8602170 103.7937018
  73.9976116  30.6373811 107.5348999  74.5210518  30.8836107 108.2975308
  73.7788449  31.4693845 107.1152136  69.3943397  32.9077485  95.4020123
  69.0656103  32.0274864  95.2195229  69.7482768  32.8525154  96.2896513
  78.6422976  44.5432388  99.9115109  78.4947938  43.6149095 100.0922679
  79.4676470  44.5652479  99.4272184  72.5085220  33.1950455  95.7695601
  72.8481293  33.7236376  95.0474209  72.9557341  33.5330861  96.5454168
  82.2457098  45.3660947 100.9979982  83.1703645  45.1603808 100.8604433
  82.0772401  45.1177348 101.9069323  75.2028661  31.5787506 105.2198669
  74.8625481  30.7795319 105.6219349  74.4967667  31.8789217 104.6475502
  75.8545133  28.6636818 103.6725992  76.6771202  28.1897296 103.5504882
  76.0983196  29.4427302 104.1724678  74.4953367  31.6925077  93.9688894
  75.2161730  32.0706329  93.4652611  73.8718672  32.4113953  94.0723872
  78.6384490  32.3970226  94.9047226  78.8548105  33.2794863  94.6036054
  78.1578557  32.0056439  94.1752868  73.3783712  35.3555939 101.4817971
  73.2328292  35.6696242 102.3742252  72.9008915  35.9740839 100.9288869
  75.2380095  32.3458487 101.5298860  75.2241663  31.4499580 101.1931158
  75.9552523  32.3529150 102.1637146  77.0906225  32.7795827 103.5751988
  76.8324003  33.7012898 103.5736318  76.5591266  32.3826261 104.2652452
  82.0352414  45.8846614  96.3542073  82.2089292  45.3193037  95.6015926
  82.5281305  46.6847509  96.1721563  67.8529374  37.8961283 104.4205632
  67.3082842  38.6721091 104.5525906  68.7308724  38.2432088 104.2624753
  74.6416991  31.2272867  96.7986430  74.7632902  30.2989513  96.9977318
  74.3519033  31.2411553  95.8864746  77.5108181  28.9127777  99.9353150
  77.5329878  28.9767111  98.9805130  77.9276240  28.0732286 100.1293656
  87.8891805  38.6483037  97.9732373  88.3322951  37.8990362  97.5751496
  87.0118316  38.6393173  97.5906105  83.0227587  45.2013378  93.4538971
  83.7178491  45.8220071  93.6726286  83.3650737  44.3508730  93.7291349
  68.6395396  37.0231179 107.3135789  67.8977132  37.1713815 107.9000419
  68.3188140  37.2839445 106.4502538  84.9219010  42.6513084  94.9826302
  85.4470334  42.9900357  94.2575622  84.8341362  41.7160099  94.7989437
  76.5839058  46.5647158 107.1116179  76.8926185  46.3196304 107.9838878
  77.3814540  46.7693796 106.6235049  76.6059670  48.7185067  99.3421555
  76.1664661  48.2261446 100.0354412  77.3567787  48.1758035  99.1013631
  69.0852009  44.9096608  99.3446183  69.9110029  44.6100380  98.9644827
  68.7346061  44.1404231  99.7935972  74.0533543  44.2623076 101.4143857
  73.4313552  43.5993781 101.1146085  74.7238409  44.2884208 100.7317505
  67.2860614  42.8282935 100.3035117  66.4492523  42.4005109 100.1219118
  67.2584260  43.0215378 101.2405908  74.1258070  32.7404864 111.0076363
  74.1746226  33.6166987 110.6254133  74.6680584  32.1982257 110.4348006
  84.6112916  43.2845988 110.2877500  83.8208459  43.2670126 109.7481999
  84.3746270  43.8234281 111.0426537  84.7310791  40.1338454 107.6010229
  84.7808796  39.9688461 108.5425751  84.6224714  39.2665713 107.2108109
  73.6147049  42.8127000  94.8902318  73.7635170  43.4962464  94.2368990
  74.4213493  42.7932090  95.4051773  82.0214553  36.1169382 108.9169535
  82.9224416  35.9775847 108.6253533  82.0962528  36.2823837 109.8567713
  76.3557358  33.4936237 107.7622722  75.4860668  33.7869803 107.4905310
  76.5916839  34.0776682 108.4829985  86.2328988  42.5535396 107.8452250
  85.9413796  42.9165376 108.6815711  85.6201119  41.8402404 107.6665582
  87.4324670  40.1188275 100.3654820  88.2671561  40.5578079 100.5292381
  87.5683799  39.6426929  99.5463066  84.4816176  37.6768010 106.3132308
  84.9570297  37.8695656 105.5051160  83.5581741  37.7327196 106.0675692
  71.3699682  38.8392177  95.8963386  71.1245724  37.9354507  96.0943597
  71.5395597  38.8409328  94.9542864  79.0596392  29.7115854 105.2788142
  79.5778336  30.4476881 104.9534631  78.7051525  30.0179847 106.1134901
  70.6395330  34.5720535  93.3949548  69.9464575  34.6464890  92.7389584
  70.3947082  33.8080879  93.9171065  79.3108986  26.1316136 100.7989039
  79.5910740  25.4639325 101.4249465  80.0959593  26.3245232 100.2863702
  77.1142455  45.3075130  92.3614065  76.5416422  45.9265317  91.9084537
  77.6875249  45.8574492  92.8953987  83.1817845  34.5533770 104.5460614
  84.1335268  34.6531868 104.5672838  83.0121295  33.7612039 105.0558698
  81.2032224  31.6389353 104.7320015  80.6082156  31.9194366 104.0366503
  80.9181921  32.1283254 105.5036756  80.3339715  45.5912280  93.4922647
  81.2670388  45.5257842  93.6955523  80.2462928  46.4268547  93.0337180
  82.9627731  44.9078151  90.4526595  82.8841363  44.5738014  91.3462353
  83.7837398  45.3999919  90.4518067  85.6605923  37.7739890 103.6602913
  85.6282243  36.8355891 103.8462597  86.2706546  37.8523927 102.9268738
  77.4989253  36.6435943  89.7030117  78.4448358  36.5142151  89.7718535
  77.1203498  35.9050605  90.1799546  85.8100411  34.5650933 103.7061197
  85.2939460  33.7809390 103.5191125  86.6940360  34.2369650 103.8707716
  83.4711138  28.3091949  99.6657009  83.2735959  28.0007037 100.5500341
  84.0810844  29.0353588  99.7954939  91.4782472  38.8355897 102.8008950
  92.2085861  38.5741185 103.3616654  90.8689418  38.0984619 102.8411018
  89.5597770  36.9763759 103.3983401  88.8330933  36.8419724 102.7899893
  89.1445056  37.2840588 104.2040119  77.3827946  40.6953689 111.1630774
  78.3030955  40.8732288 111.3570821  77.3477529  39.7509734 111.0110474
  75.6832171  34.5685919  89.6385003  74.7763626  34.2719032  89.7147716
  75.9608152  34.2715737  88.7719289  66.6010111  35.8892283 100.0884049
  66.2812895  35.0357591  99.7958423  66.0543539  36.1040861 100.8442016
  70.3790019  38.6054724 103.8053556  70.5976028  39.5371831 103.8241589
  70.7915792  38.2462698 104.5908359  77.2994236  29.1122809  95.7929244
  76.4894965  28.7669894  96.1684490  77.9878653  28.8030353  96.3816856
  79.2284785  28.1900856  97.4153541  79.7815823  28.6096309  98.0743564
  79.4654871  27.2636604  97.4576497  75.2517884  34.1787929 113.1956305
  75.1514611  35.1282286 113.1268396  75.0339426  33.8506168 112.3232375
  74.4530955  31.4272854  89.7796982  75.3150119  31.7527753  90.0392799
  74.6381299  30.6404350  89.2670048  66.4698371  39.5095194 102.0577171
  65.7761842  39.0949147 101.5447125  67.2171362  39.5515731 101.4610590
  82.6063592  30.3001381  96.9232205  82.0262261  30.9586185  96.5410257
  82.3399524  29.4778726  96.5119622  81.0567158  29.7006439  99.1253525
  81.5566936  29.8122973  98.3167844  81.7002766  29.3967492  99.7654334
  75.1149154  37.6085068 112.0121366  74.6316236  38.4085428 112.2185255
  75.2010093  37.6193013 111.0588810  68.3835114  39.4413448  99.9343186
  68.3605802  39.5401135  98.9825069  68.6935750  40.2878599 100.2560352
  71.0422491  41.4989603 104.0489800  71.9965745  41.4673545 103.9819732
  70.8435015  41.0380227 104.8640026  71.6321874  40.0690719 106.6160598
  72.4514763  40.5634798 106.6395435  71.9058681  39.1522687 106.5878165
  81.3888470  32.4601471  95.9788553  80.5014325  32.7451122  95.7608748
  81.8042459  32.2995235  95.1315830  84.7403006  32.4847992  99.6942892
  85.5163396  32.9744445  99.9667509  84.0151140  32.9106047 100.1514762
  87.1775565  33.1975612 100.7516833  87.7720055  32.9571347 100.0410141
  87.2502148  32.4782742 101.3790369  69.3972720  47.0409222 101.0659998
  69.2627188  46.2809623 100.4997996  68.9804782  47.7650122 100.5988787
  80.5331683  42.2246146  90.0736573  81.2367533  42.4296149  90.6894229
  79.8094332  42.7922908  90.3385657  81.3629494  37.9756007  96.1938843
  81.3064695  38.4324559  95.3546476  81.9157836  37.2146692  96.0161686
  85.1734299  33.7645739  97.0188963  84.9171234  33.3642375  97.8497170
  84.5487167  34.4789533  96.8939102  89.4846637  36.5041812  99.5260254
  88.9246195  36.5735002 100.2991816  88.8790141  36.3282797  98.8059750
  72.5541846  47.9378540 101.2778440  72.4374230  48.8823972 101.1757131
  71.7334292  47.6352101 101.6664240  82.4418381  42.6628675  92.1235033
  83.2763985  42.2309874  91.9412508  82.2802724  42.4910689  93.0511928
  82.0964273  39.1660789  93.4891372  82.0413077  39.0005060  92.5479817
  81.4710328  39.8736821  93.6453562  66.8856788  34.4028853 107.3152795
  67.5315651  33.8927807 107.8040020  66.6773939  35.1397535 107.8896220
  79.4110180  41.4709700 112.8144935  80.2801340  41.6450353 112.4531570
  78.9316931  42.2904117 112.6920665  75.4060398  28.6668898  93.0676691
  75.3939068  29.6110737  93.2244962  76.2983820  28.4839043  92.7736152
  73.5796360  48.5906801 104.4934369  74.4823607  48.6230412 104.8100864
  73.3533730  47.6607252 104.5080705  75.3349962  47.3437788 101.1544448
  74.3845593  47.3439650 101.0408820  75.6382448  46.5970523 100.6380482
  79.2212518  25.2611674  97.3222628  78.4544914  24.7070161  97.4679310
  79.6323223  25.3333543  98.1836779  71.2254279  31.5496470 111.4127809
  72.0885740  31.1933275 111.6231133  70.6519689  31.2110365 112.1003213
  91.0702656  53.1798326 102.2190210  91.7081066  53.0605074 101.5153550
  90.9523499  54.1279170 102.2778162  87.8792362  53.1325754 102.1551735
  87.5410874  53.0166819 101.2672269  88.7482130  52.7316920 102.1352741
  83.7379178  54.9861231  98.1448626  83.1744043  54.8951168  97.3764913
  83.6231573  54.1661135  98.6251118  88.3612145  54.2860606 108.1137940
  88.3500786  53.8913404 107.2418444  88.5232784  53.5526679 108.7071712
  81.2843610  56.4812422 100.9832846  82.0764902  56.1403247 100.5679145
  81.5240260  56.5907397 101.9034999  89.3178736  58.6532199  93.4563090
  88.6666716  59.2386279  93.0697104  90.1123099  59.1838393  93.5158128
  83.2434364  55.7421336  93.8550225  84.0165240  55.1950323  93.7163101
  83.5959762  56.6065585  94.0664686  85.0819406  57.0697718 107.0617124
  84.7909272  57.9743349 106.9463790  85.7176391  57.1114246 107.7761194
  86.0075613  54.4474566 103.6518484  86.6039185  54.2230589 102.9375447
  86.0650585  53.7059312 104.2543932  85.5800641  51.9014002  91.4868675
  85.8326162  51.3795523  90.7252138  84.6425200  51.7380147  91.5895358
  90.6243924  50.9049780  99.2943418  91.4107013  50.4869203  98.9433835
  90.8882629  51.8095872  99.4625066  90.7954002  56.3422630  93.9932075
  90.1599835  56.4157257  94.7052979  90.4651408  56.9316229  93.3151154
  96.0252351  50.8425013 100.1976396  96.7577523  50.2724230 100.4314226
  95.2691707  50.4546614 100.6382902  85.2996930  53.8042108  93.6893050
  85.1833188  53.1287011  94.3574134  85.4099190  53.3174482  92.8725203
  87.6428471  53.2652255  97.3939739  87.2786678  52.7382876  98.1052660
  88.4995587  52.8750724  97.2206224  93.5477772  44.5546587 104.6571005
  93.2161096  45.4241998 104.4332220  92.9523385  44.2382871 105.3365035
  87.2833958  48.2942155  92.3901087  87.4508360  49.1622391  92.7571558
  87.0931127  48.4569436  91.4662377  90.0409291  56.7559133 104.0566918
  89.7410014  57.6584172 103.9482725  89.6960351  56.4891317 104.9088071
  83.4921773  53.2072930 100.0903622  82.5672269  53.0749144 100.2981314
  83.7406186  53.9867150 100.5873565  93.4406435  49.2741674 101.7364355
  92.5323312  49.2057082 101.4423116  93.3894031  49.7513619 102.5646181
  87.2623179  50.7499812  93.3747754  87.1422804  51.1956863  94.2133235
  86.5675767  51.0985130  92.8161292  80.8530584  52.8506204 100.9247411
  80.9822965  53.1040683 101.8386823  80.1728035  53.4433912 100.6052066
  85.0230071  63.5203454  97.0237885  84.9454101  64.4711279  97.1026366
  84.4191715  63.1749326  97.6812812  87.5147301  50.6931319 109.6799252
  86.7380635  51.2525239 109.6702117  88.1537864  51.1788102 110.2014122
  95.3068081  47.4758112 103.5142229  94.6642462  47.7690645 102.8682024
  94.8023010  47.3611032 104.3195426  92.9608245  51.2221285  94.2028088
  93.8726101  51.4548672  94.0275786  92.4517892  51.8058329  93.6403167
  85.7693673  53.5016773 109.2417219  86.5108357  54.0401817 108.9652043
  85.0630659  54.1283061 109.3988771  91.2449013  55.6445913 107.8389381
  91.6532369  55.2028324 107.0944013  90.5226274  55.0698541 108.0923574
  87.5980083  50.5818520 105.2122938  88.4441278  51.0057933 105.3557587
  87.5378720  49.9252144 105.9061501  91.5677827  56.2047104 101.5941670
  90.9386690  56.3692818 100.8917738  91.1803489  56.6188713 102.3652634
  95.4467059  57.1401542  98.9486034  94.7618097  57.5200443  98.3983067
  95.5310909  57.7496868  99.6817981  90.7479528  48.2422888 106.8704111
  90.5040460  48.9964949 106.3338387  91.0239459  48.6208236 107.7051359
  92.7017991  54.7861501 105.5481377  92.9134886  55.4293260 104.8715758
  92.6547739  53.9523817 105.0803307  90.3044220  47.3979321 102.4517949
  89.4428699  47.6960575 102.7434687  90.3306655  47.6149720 101.5198982
  87.1205789  55.9421512  98.8591755  87.5844135  56.2209215  98.0696377
  86.8562587  55.0404956  98.6764846  84.0129870  55.4892993 101.7971518
  84.5831227  55.9180262 101.1589003  84.6037982  55.2075578 102.4955704
  86.0574675  52.0644664  95.6681320  86.7598719  52.5165708  96.1355246
  85.7255304  51.4228483  96.2961213  84.5055037  50.6556421 110.0432529
  83.8753697  51.3372702 110.2767926  84.3991125  50.5439502 109.0985668
  79.8000009  50.3228217 100.9698454  79.0099063  50.5785745 100.4938564
  80.2911257  51.1376555 101.0750494  93.8163819  57.6633456 103.7203734
  94.6381263  57.2613643 103.4386416  93.8126222  57.5601690 104.6719850
  81.7514755  50.6872796  97.9281930  80.9545918  50.7991490  98.4465426
  81.5240347  51.0259448  97.0622821  87.5820422  57.2117499 105.8764445
  87.6464855  57.6737907 106.7122617  86.8731346  56.5814864 106.0046755
  78.0837712  50.5758707 103.4013444  78.3345751  51.4605717 103.6671020
  78.6197261  50.3963309 102.6288536 101.9069812  54.0072204 100.0688706
 101.1533520  53.4379603  99.9132710 102.0417353  53.9734869 101.0159341
  87.2968440  58.8785607  95.7443425  87.1614115  59.7237143  96.1728273
  87.8378252  59.0804884  94.9809359  83.7835780  44.9577187 112.4057780
  83.3902725  44.4043385 113.0805425  84.6001920  45.2687765 112.7964298
  80.7497837  56.3961045  96.3171350  81.2622358  57.1904295  96.4676915
  81.4020550  55.6987335  96.2504952  82.5592722  59.5126801  98.3994103
  82.7359350  60.4344766  98.2115087  83.3549556  59.1985220  98.8288483
  86.7003741  46.3735066 109.9978037  87.4413454  46.9742219 109.9182499
  86.9321663  45.6312704 109.4396080  81.8445079  51.5591433 108.2756267
  81.7298594  50.6576690 108.5763366  80.9889596  51.8055130 107.9241083
  88.9236916  59.5009173 109.8743767  88.4800771  58.7145552 109.5564672
  89.5854130  59.6888324 109.2087658  83.6824038  61.0304975 104.4004446
  84.2331463  60.9022038 103.6281440  82.8435513  61.3299864 104.0499339
  91.0218154  59.7811973 107.9025169  91.0036630  60.6020854 107.4105438
  91.9438074  59.6566048 108.1275310  87.4791209  57.2956103 108.7448677
  88.0119545  56.5344391 108.5147985  86.9505290  57.0029755 109.4872831
  90.6460904  42.4016169 104.2742319  90.3025173  43.2917810 104.1981429
  91.0139866  42.2117826 103.4111904  78.7146754  54.7249699  97.0930921
  79.5521976  55.1346707  96.8764629  78.8925022  53.7849141  97.0631115
  90.6111186  52.3924780  92.7814754  90.0957810  53.1629384  93.0203141
  90.3388495  51.7189916  93.4047815  88.1958297  47.2374481  97.8399992
  87.3399894  46.8481331  97.6605631  88.6085249  47.3166441  96.9799778
  89.7257444  44.7720824 102.2391552  89.2222239  44.7350959 101.4259357
  90.0188051  45.6813567 102.2988209  85.9700330  44.8559554 101.2457734
  86.8353327  44.6602362 100.8863623  86.0377839  44.6269905 102.1727090
  95.5845460  55.1457134  94.7167927  94.8074903  54.8068294  94.2723089
  96.2636941  55.1509758  94.0422892  90.3997489  50.2651872  94.6074535
  90.0947625  50.5798021  95.4584678  91.3527932  50.3433292  94.6501868
  88.8443921  56.4242095  96.2567489  88.3165283  55.6894855  95.9440726
  88.3431424  57.2016772  96.0107457  93.8236767  54.6191116 101.3734535
  93.1660442  55.3090377 101.4614664  94.6277166  55.0087548 101.7168522
  83.5762649  47.0861761  98.6174100  84.1506401  46.8636943  97.8847293
  84.1633631  47.1550456  99.3702702  92.6342226  52.9735488  99.4238477
  93.1474108  53.6065480  99.9260187  93.2843450  52.3736684  99.0581837
  83.9032236  49.1166222  92.6369986  83.0669548  49.4540909  92.9579260
  83.7637006  48.9815202  91.6997123  85.8785317  43.9603010  97.3449170
  85.2249729  43.6452028  96.7205785  85.8365791  43.3378751  98.0708993
  86.9896521  54.2422305  89.2602462  86.0823583  54.0111559  89.4593611
  87.4867553  53.4459925  89.4476444  89.8964600  62.9519813  92.1799148
  89.2226299  63.2551509  92.7884106  90.2830422  63.7548893  91.8304605
  89.1123057  50.4484944 101.6696818  88.1945618  50.6699891 101.5118506
  89.5283201  50.5231254 100.8108525  89.8958105  51.8476360  96.7999498
  90.6429924  52.3597757  96.4906620  90.1649694  51.5260412  97.6603891
  88.1684755  54.3434900  93.7826452  87.2595974  54.0593933  93.8798922
  88.1979839  54.7633979  92.9229759  93.4004022  57.9541490  97.5517620
  92.9466349  57.1132400  97.6082810  92.7697989  58.5902888  97.8892400
  92.3436942  48.8833476  98.7818287  91.6059699  48.3710862  99.1128530
  92.5963715  48.4433857  97.9701564  91.8436962  59.7917987  98.4867438
  92.1359936  60.3523044  97.7679803  92.3535582  60.0846547  99.2420597
  92.4448569  41.6609728  99.3760056  92.7507446  40.8007091  99.0885971
  93.1701174  42.2527348  99.1759050  78.7372925  52.0640414  97.7641654
  78.5397325  51.4709775  97.0392721  78.1819589  51.7592625  98.4817593
  86.7169649  51.9563521  99.8836247  86.7718259  51.0037357  99.8078724
  85.9060851  52.1122960 100.3677546  87.8660843  55.8843644  91.1214531
  87.4280273  55.1679503  90.6620168  88.6071284  56.1119759  90.5599622
  84.6562009  50.5740581  97.6426626  83.8429874  50.8734751  98.0491818
  85.1521003  50.1796269  98.3601109  86.8070587  60.5698338  99.5760891
  86.7646766  60.7959184  98.6469423  87.7233286  60.3361712  99.7246692
  90.2536221  51.0382405 106.4741520  90.6085608  51.2653878 107.3335986
  90.9008352  51.3700782 105.8518775  95.9833957  54.1600841  97.1790849
  95.8451856  54.3502437  96.2512038  95.6270176  54.9220224  97.6358900
  84.1476084  48.1458936 103.2587861  84.7875463  48.0047695 102.5610825
  83.3153614  47.8593450 102.8826463  96.0103337  56.2277368 102.1902121
  96.4439844  56.1352657 103.0385175  96.7234918  56.2034868 101.5522137
  84.9236387  57.4461367  99.3722854  85.7176986  56.9511687  99.1705429
  84.2128080  56.9179230  99.0090559  89.7431232  59.8279462 103.7235221
  89.7968254  60.3970398 104.4912937  88.8746013  59.9981347 103.3589258
  81.2319151  51.5904448  95.4482606  80.3016739  51.5288904  95.6652569
  81.3276623  51.0680401  94.6519248  81.1504700  48.1159261  98.0360848
  81.4111517  49.0304594  97.9270009  81.9721872  47.6483704  98.1857461
  82.6229625  49.5297018 105.2059673  83.2952679  49.3214380 104.5572321
  81.7959412  49.3319104 104.7664905  96.8718887  56.2701069 104.7235006
  97.0654777  57.1746879 104.9694281  96.7719505  55.8108488 105.5573591
  88.5255197  46.1558959 107.2225333  87.8783112  46.8548909 107.1289810
  89.2956213  46.5895103 107.5901582  91.9333995  56.4207811 110.2975887
  91.7819502  56.1918363 109.3805970  91.9238675  57.3778413 110.3107232
  88.7019332  53.9939724 105.2822153  89.6311392  54.1450884 105.1091120
  88.2810362  54.0823745 104.4270800  87.5007663  58.0190389 103.0520691
  87.3618749  57.6509173 103.9246629  86.7122260  58.5338028 102.8804649
  88.0955815  63.1199485  94.3946227  88.2707571  62.6487528  95.2091850
  87.4088603  63.7465251  94.6227488  89.0512879  57.3971991 100.4409529
  88.7162711  57.3572761 101.3367178  88.5516824  56.7316707  99.9679939
  83.0257123  52.8039621 105.9662110  82.8876921  52.0719860 106.5673649
  83.9362046  52.7148521 105.6846297  91.9872070  54.7428026  90.7146588
  91.3701241  54.0174854  90.6179641  91.5188559  55.5037386  90.3713662
  85.6539423  52.5159581 105.4545789  86.3639042  51.8752773 105.4132408
  85.6108731  52.7672475 106.3771970  93.6426202  59.4526934 108.3752369
  93.5838748  58.7686154 107.7082952  94.0445720  60.1945924 107.9232995
  84.3668357  49.5024799 107.2741429  83.8305714  49.0515537 107.9263025
  83.7785066  49.6370707 106.5311893  82.6616901  66.2688848 101.1686087
  82.9013499  66.9007372 101.8465106  81.8186097  65.9176888 101.4551447
  83.7770616  48.9613450  89.8367893  82.9000083  48.8402251  89.4730139
  84.2528369  48.1699528  89.5846781  93.6443609  57.4166518 106.6066348
  92.7570388  57.0792440 106.7292747  94.2142160  56.6849549 106.8435114
  75.2972756  53.7490610  99.9309400  75.9843796  53.4352340  99.3430415
  75.1420885  54.6531974  99.6576651  80.1007478  48.6380806 104.3594423
  80.0165667  48.0306476 103.6244833  79.2790185  49.1289825 104.3603920
  87.1744763  62.0767970 103.5727591  87.1014934  62.8822942 104.0846896
  86.7322156  62.2759936 102.7475613  86.9634542  61.3139740  97.0830413
  86.1802064  61.8561420  97.1768638  87.6627287  61.8313720  97.4824654
  90.2731192  47.1234370  99.7264618  90.7699892  46.3704332  99.4065689
  89.5018174  47.1598686  99.1607828  98.1260950  52.8274735 101.3682910
  98.1150826  53.7099451 100.9976843  97.2578329  52.4746286 101.1737447
  89.6343446  61.9754804 105.7285750  90.3471418  62.6102269 105.6561652
  89.1433475  62.0718670 104.9125752  91.3560973  55.8806057  97.3003042
  90.4217252  56.0007519  97.1307746  91.5337642  54.9778524  97.0363052
  86.8566161  49.2651753  99.4536303  86.4863949  48.7122793 100.1417209
  87.3525254  48.6609886  98.9011303  94.7433524  51.7223376  97.8353076
  95.2093977  52.5551368  97.7613379  95.1941025  51.2568358  98.5398334
  84.6855360  59.7249248 106.5491321  85.3864819  60.3585731 106.7020715
  84.2150475  60.0663979 105.7886960  92.8109756  58.0667198  94.8339228
  93.0869599  57.9523792  95.7433102  91.9414254  57.6684682  94.7951401
  92.7150187  44.0903963 101.8743977  91.8013267  44.3208190 102.0426184
  93.1443289  44.1742407 102.7258010  92.4856646  52.2793855 104.3743871
  91.8328096  52.5269763 103.7196324  92.8637026  51.4657993 104.0406349
  89.4463820  62.3153548  98.4772042  89.6286214  61.4975204  98.9399794
  90.2696806  62.5321241  98.0396932  89.7805985  61.2421734  95.7387090
  90.3093751  60.7314188  95.1257252  90.0434205  60.9264264  96.6032623
  88.5344219  53.0213666 110.8609908  87.8584856  52.9207796 111.5312284
  89.3571853  52.8652880 111.3245906  80.2823078  59.2585603 103.4822424
  80.8676515  58.5129291 103.6150328  80.0847916  59.5689560 104.3659088
  83.1361733  62.2936850  98.4984866  82.4672108  62.7782978  98.0148906
  82.9974603  62.5406071  99.4128245  74.8740732  51.8291203 102.2026867
  74.9124832  51.2954794 102.9963985  74.3681025  51.3026409 101.5837844
  87.2767002  64.3280594 105.0967524  87.8285310  64.4912215 105.8616610
  87.6173195  64.9185032 104.4247549  82.2531495  46.6755744 105.6989409
  82.3172821  47.5370574 105.2866807  82.1898615  46.0629745 104.9661768
  81.7283767  48.7478876 109.3462443  82.3555806  48.3655953 109.9599968
  80.8711686  48.5293078 109.7118136  92.1277876  59.1541851 110.9516179
  92.6717780  59.7671810 110.4571134  91.5464721  59.7121430 111.4683192
  78.5049310  50.5555305  95.2780798  78.8002751  49.6465984  95.2247852
  77.6037346  50.5343045  94.9561801  90.4135389  62.2762569 102.0831207
  90.2886528  61.4752309 101.5742152  91.0714480  62.7708763 101.5945177
  82.0343557  48.6311302 101.2608347  81.3130143  49.2447269 101.1215820
  82.8236813  49.1669067 101.1824993  92.4770297  60.0771589 103.7110757
  91.5300633  59.9576941 103.6389083  92.8253070  59.1894087 103.7937018
  84.8369871  45.9665728 107.5348999  85.3604272  46.2128025 108.2975308
  84.6182204  46.7985763 107.1152136  80.2337152  48.2369403  95.4020123
  79.9049858  47.3566782  95.2195229  80.5876522  48.1817072  96.2896513
  89.4816731  59.8724306  99.9115109  89.3341693  58.9441013 100.0922679
  90.3070224  59.8944396  99.4272184  83.3478975  48.5242373  95.7695601
  83.6875047  49.0528294  95.0474209  83.7951095  48.8622779  96.5454168
  93.0850852  60.6952864 100.9979982  94.0097400  60.4895726 100.8604433
  92.9166156  60.4469265 101.9069323  86.0422416  46.9079423 105.2198669
  85.7019236  46.1087236 105.6219349  85.3361422  47.2081134 104.6475502
  86.6938887  43.9928736 103.6725992  87.5164957  43.5189214 103.5504882
  86.9376951  44.7719220 104.1724678  85.3347122  47.0216994  93.9688894
  86.0555484  47.3998247  93.4652611  84.7112426  47.7405871  94.0723872
  89.4778245  47.7262143  94.9047226  89.6941859  48.6086781  94.6036054
  88.9972312  47.3348357  94.1752868  84.2177466  50.6847856 101.4817971
  84.0722047  50.9988159 102.3742252  83.7402670  51.3032757 100.9288869
  86.0773849  47.6750404 101.5298860  86.0635418  46.7791498 101.1931158
  86.7946277  47.6821068 102.1637146  87.9299980  48.1087745 103.5751988
  87.6717758  49.0304815 103.5736318  87.3985020  47.7118179 104.2652452
  92.8746169  61.2138532  96.3542073  93.0483046  60.6484954  95.6015926
  93.3675060  62.0139427  96.1721563  78.6923128  53.2253201 104.4205632
  78.1476596  54.0013009 104.5525906  79.5702478  53.5724005 104.2624753
  85.4810745  46.5564785  96.7986430  85.6026656  45.6281431  96.9977318
  85.1912787  46.5703471  95.8864746  88.3501935  44.2419695  99.9353150
  88.3723632  44.3059028  98.9805130  88.7669994  43.4024204 100.1293656
  98.7285560  53.9774955  97.9732373  99.1716706  53.2282280  97.5751496
  97.8512070  53.9685091  97.5906105  93.8621341  60.5305296  93.4538971
  94.5572246  61.1511989  93.6726286  94.2044491  59.6800647  93.7291349
  79.4789150  52.3523097 107.3135789  78.7370886  52.5005732 107.9000419
  79.1581894  52.6131363 106.4502538  95.7612764  57.9805002  94.9826302
  96.2864088  58.3192274  94.2575622  95.6735117  57.0452017  94.7989437
  87.4232813  61.8939075 107.1116179  87.7319939  61.6488222 107.9838878
  88.2208295  62.0985714 106.6235049  87.4453425  64.0476985  99.3421555
  87.0058415  63.5553364 100.0354412  88.1961542  63.5049953  99.1013631
  79.9245764  60.2388526  99.3446183  80.7503784  59.9392298  98.9644827
  79.5739816  59.4696148  99.7935972  84.8927297  59.5914994 101.4143857
  84.2707306  58.9285699 101.1146085  85.5632164  59.6176126 100.7317505
  78.1254369  58.1574852 100.3035117  77.2886277  57.7297027 100.1219118
  78.0978014  58.3507296 101.2405908  84.9651825  48.0696782 111.0076363
  85.0139980  48.9458905 110.6254133  85.5074339  47.5274175 110.4348006
  95.4506670  58.6137905 110.2877500  94.6602214  58.5962044 109.7481999
  95.2140025  59.1526199 111.0426537  95.5704545  55.4630372 107.6010229
  95.6202550  55.2980379 108.5425751  95.4618469  54.5957631 107.2108109
  84.4540804  58.1418917  94.8902318  84.6028924  58.8254382  94.2368990
  85.2607247  58.1224007  95.4051773  92.8608308  51.4461300 108.9169535
  93.7618170  51.3067765 108.6253533  92.9356282  51.6115755 109.8567713
  87.1951113  48.8228154 107.7622722  86.3254422  49.1161721 107.4905310
  87.4310593  49.4068599 108.4829985  97.0722742  57.8827313 107.8452250
  96.7807550  58.2457294 108.6815711  96.4594873  57.1694321 107.6665582
  98.2718424  55.4480193 100.3654820  99.1065316  55.8869997 100.5292381
  98.4077553  54.9718846  99.5463066  95.3209930  53.0059928 106.3132308
  95.7964052  53.1987574 105.5051160  94.3975496  53.0619114 106.0675692
  82.2093437  54.1684095  95.8963386  81.9639479  53.2646425  96.0943597
  82.3789351  54.1701245  94.9542864  89.8990147  45.0407771 105.2788142
  90.4172091  45.7768798 104.9534631  89.5445280  45.3471765 106.1134901
  81.4789084  49.9012453  93.3949548  80.7858329  49.9756808  92.7389584
  81.2340836  49.1372796  93.9171065  90.1502741  41.4608054 100.7989039
  90.4304495  40.7931243 101.4249465  90.9353348  41.6537150 100.2863702
  87.9536209  60.6367048  92.3614065  87.3810177  61.2557235  91.9084537
  88.5269003  61.1866410  92.8953987  94.0211599  49.8825688 104.5460614
  94.9729022  49.9823786 104.5672838  93.8515050  49.0903956 105.0558698
  92.0425979  46.9681271 104.7320015  91.4475911  47.2486284 104.0366503
  91.7575676  47.4575172 105.5036756  91.1733469  60.9204198  93.4922647
  92.1064142  60.8549760  93.6955523  91.0856682  61.7560465  93.0337180
  93.8021486  60.2370068  90.4526595  93.7235117  59.9029932  91.3462353
  94.6231153  60.7291836  90.4518067  96.4999677  53.1031808 103.6602913
  96.4675997  52.1647808 103.8462597  97.1100301  53.1815844 102.9268738
  88.3383008  51.9727861  89.7030117  89.2842113  51.8434069  89.7718535
  87.9597253  51.2342522  90.1799546  96.6494166  49.8942851 103.7061197
  96.1333214  49.1101308 103.5191125  97.5334114  49.5661568 103.8707716
  94.3104893  43.6383867  99.6657009  94.1129714  43.3298955 100.5500341
  94.9204598  44.3645506  99.7954939 102.3176227  54.1647814 102.8008950
 103.0479615  53.9033103 103.3616654 101.7083172  53.4276536 102.8411018
 100.3991524  52.3055677 103.3983401  99.6724688  52.1711642 102.7899893
  99.9838811  52.6132506 104.2040119  88.2221701  56.0245607 111.1630774
  89.1424710  56.2024206 111.3570821  88.1871284  55.0801652 111.0110474
  86.5225925  49.8977837  89.6385003  85.6157381  49.6010950  89.7147716
  86.8001906  49.6007655  88.7719289  77.4403866  51.2184200 100.0884049
  77.1206650  50.3649509  99.7958423  76.8937294  51.4332779 100.8442016
  81.2183773  53.9346641 103.8053556  81.4369783  54.8663749 103.8241589
  81.6309547  53.5754616 104.5908359  88.1387991  44.4414727  95.7929244
  87.3288719  44.0961812  96.1684490  88.8272408  44.1322270  96.3816856
  90.0678539  43.5192773  97.4153541  90.6209578  43.9388227  98.0743564
  90.3048626  42.5928522  97.4576497  86.0911638  49.5079847 113.1956305
  85.9908365  50.4574204 113.1268396  85.8733180  49.1798086 112.3232375
  85.2924710  46.7564772  89.7796982  86.1543874  47.0819670  90.0392799
  85.4775054  45.9696268  89.2670048  77.3092126  54.8387112 102.0577171
  76.6155597  54.4241065 101.5447125  78.0565117  54.8807648 101.4610590
  93.4457346  45.6293299  96.9232205  92.8656015  46.2878103  96.5410257
  93.1793279  44.8070643  96.5119622  91.8960913  45.0298356  99.1253525
  92.3960691  45.1414891  98.3167844  92.5396521  44.7259409  99.7654334
  85.9542908  52.9376986 112.0121366  85.4709990  53.7377346 112.2185255
  86.0403847  52.9484931 111.0588810  79.2228868  54.7705366  99.9343186
  79.1999556  54.8693053  98.9825069  79.5329505  55.6170516 100.2560352
  81.8816246  56.8281521 104.0489800  82.8359499  56.7965463 103.9819732
  81.6828770  56.3672144 104.8640026  82.4715628  55.3982637 106.6160598
  83.2908517  55.8926715 106.6395435  82.7452436  54.4814605 106.5878165
  92.2282224  47.7893389  95.9788553  91.3408079  48.0743040  95.7608748
  92.6436213  47.6287152  95.1315830  95.5796760  47.8139910  99.6942892
  96.3557151  48.3036362  99.9667509  94.8544895  48.2397964 100.1514762
  98.0169319  48.5267529 100.7516833  98.6113810  48.2863265 100.0410141
  98.0895903  47.8074660 101.3790369  80.2366475  62.3701140 101.0659998
  80.1020943  61.6101541 100.4997996  79.8198537  63.0942040 100.5988787
  91.3725438  57.5538064  90.0736573  92.0761288  57.7588066  90.6894229
  90.6488086  58.1214826  90.3385657  92.2023248  53.3047925  96.1938843
  92.1458449  53.7616476  95.3546476  92.7551590  52.5438610  96.0161686
  96.0128054  49.0937657  97.0188963  95.7564988  48.6934292  97.8497170
  95.3880922  49.8081451  96.8939102 100.3240392  51.8333730  99.5260254
  99.7639950  51.9026919 100.2991816  99.7183895  51.6574715  98.8059750
  83.3935601  63.2670457 101.2778440  83.2767985  64.2115890 101.1757131
  82.5728047  62.9644019 101.6664240  93.2812135  57.9920593  92.1235033
  94.1157739  57.5601791  91.9412508  93.1196478  57.8202607  93.0511928
  92.9358027  54.4952706  93.4891372  92.8806831  54.3296978  92.5479817
  92.3104083  55.2028739  93.6453562  77.7250542  49.7320771 107.3152795
  78.3709406  49.2219725 107.8040020  77.5167693  50.4689452 107.8896220
  90.2503934  56.8001618 112.8144935  91.1195094  56.9742270 112.4531570
  89.7710686  57.6196035 112.6920665  86.2454153  43.9960815  93.0676691
  86.2332823  44.9402655  93.2244962  87.1377575  43.8130961  92.7736152
  84.4190115  63.9198719 104.4934369  85.3217361  63.9522329 104.8100864
  84.1927485  62.9899170 104.5080705  86.1743717  62.6729706 101.1544448
  85.2239348  62.6731567 101.0408820  86.4776203  61.9262440 100.6380482
  90.0606272  40.5903592  97.3222628  89.2938668  40.0362079  97.4679310
  90.4716977  40.6625461  98.1836779  82.0648033  46.8788388 111.4127809
  82.9279495  46.5225193 111.6231133  81.4913444  46.5402282 112.1003213
 101.9096410  68.5090244 102.2190210 102.5474820  68.3896991 101.5153550
 101.7917253  69.4571088 102.2778162  98.7186117  68.4617672 102.1551735
  98.3804628  68.3458737 101.2672269  99.5875885  68.0608837 102.1352741
  94.5772932  70.3153149  98.1448626  94.0137797  70.2243085  97.3764913
  94.4625327  69.4953053  98.6251118  99.2005900  69.6152524 108.1137940
  99.1894540  69.2205322 107.2418444  99.3626539  68.8818596 108.7071712
  92.1237364  71.8104340 100.9832846  92.9158656  71.4695165 100.5679145
  92.3634014  71.9199315 101.9034999 100.1572491  73.9824116  93.4563090
  99.5060471  74.5678197  93.0697104 100.9516854  74.5130311  93.5158128
  94.0828118  71.0713253  93.8550225  94.8558994  70.5242240  93.7163101
  94.4353517  71.9357503  94.0664686  95.9213161  72.3989636 107.0617124
  95.6303027  73.3035266 106.9463790  96.5570145  72.4406163 107.7761194
  96.8469367  69.7766484 103.6518484  97.4432940  69.5522507 102.9375447
  96.9044339  69.0351230 104.2543932  96.4194396  67.2305919  91.4868675
  96.6719917  66.7087441  90.7252138  95.4818955  67.0672065  91.5895358
 101.4637679  66.2341698  99.2943418 102.2500768  65.8161121  98.9433835
 101.7276383  67.1387790  99.4625066 101.6347756  71.6714548  93.9932075
 100.9993589  71.7449175  94.7052979 101.3045162  72.2608147  93.3151154
 106.8646106  66.1716931 100.1976396 107.5971278  65.6016148 100.4314226
 106.1085462  65.7838531 100.6382902  96.1390685  69.1334025  93.6893050
  96.0226943  68.4578929  94.3574134  96.2492945  68.6466399  92.8725203
  98.4822226  68.5944173  97.3939739  98.1180433  68.0674794  98.1052660
  99.3389341  68.2042642  97.2206224 104.3871526  59.8838505 104.6571005
 104.0554851  60.7533916 104.4332220 103.7917140  59.5674789 105.3365035
  98.1227713  63.6234072  92.3901087  98.2902115  64.4914309  92.7571558
  97.9324882  63.7861354  91.4662377 100.8803046  72.0851051 104.0566918
 100.5803769  72.9876090 103.9482725 100.5354105  71.8183234 104.9088071
  94.3315527  68.5364848 100.0903622  93.4066024  68.4041062 100.2981314
  94.5799940  69.3159067 100.5873565 104.2800190  64.6033591 101.7364355
 103.3717067  64.5349000 101.4423116 104.2287785  65.0805536 102.5646181
  98.1016933  66.0791730  93.3747754  97.9816559  66.5248781  94.2133235
  97.4069522  66.4277047  92.8161292  91.6924338  68.1798122 100.9247411
  91.8216719  68.4332600 101.8386823  91.0121790  68.7725830 100.6052066
  95.8623826  78.8495371  97.0237885  95.7847855  79.8003197  97.1026366
  95.2585469  78.5041244  97.6812812  98.3541055  66.0223237 109.6799252
  97.5774389  66.5817157 109.6702117  98.9931618  66.5080020 110.2014122
 106.1461836  62.8050030 103.5142229 105.5036216  63.0982563 102.8682024
 105.6416764  62.6902950 104.3195426 103.8002000  66.5513203  94.2028088
 104.7119856  66.7840590  94.0275786 103.2911647  67.1350247  93.6403167
  96.6087428  68.8308690 109.2417219  97.3502112  69.3693734 108.9652043
  95.9024413  69.4574979 109.3988771 102.0842767  70.9737831 107.8389381
 102.4926123  70.5320241 107.0944013 101.3620029  70.3990458 108.0923574
  98.4373837  65.9110438 105.2122938  99.2835032  66.3349851 105.3557587
  98.3772475  65.2544062 105.9061501 102.4071582  71.5339021 101.5941670
 101.7780444  71.6984736 100.8917738 102.0197244  71.9480631 102.3652634
 106.2860814  72.4693459  98.9486034 105.6011852  72.8492361  98.3983067
 106.3704663  73.0788786  99.6817981 101.5873283  63.5714806 106.8704111
 101.3434214  64.3256866 106.3338387 101.8633213  63.9500153 107.7051359
 103.5411745  70.1153418 105.5481377 103.7528641  70.7585178 104.8715758
 103.4941494  69.2815735 105.0803307 101.1437974  62.7271239 102.4517949
 100.2822453  63.0252492 102.7434687 101.1700409  62.9441638 101.5198982
  97.9599544  71.2713429  98.8591755  98.4237889  71.5501132  98.0696377
  97.6956342  70.3696874  98.6764846  94.8523625  70.8184911 101.7971518
  95.4224982  71.2472179 101.1589003  95.4431737  70.5367496 102.4955704
  96.8968430  67.3936582  95.6681320  97.5992473  67.8457625  96.1355246
  96.5649058  66.7520401  96.2961213  95.3448791  65.9848338 110.0432529
  94.7147452  66.6664619 110.2767926  95.2384879  65.8731420 109.0985668
  90.6393764  65.6520134 100.9698454  89.8492818  65.9077663 100.4938564
  91.1305011  66.4668472 101.0750494 104.6557573  72.9925374 103.7203734
 105.4775017  72.5905561 103.4386416 104.6519976  72.8893608 104.6719850
  92.5908509  66.0164714  97.9281930  91.7939672  66.1283408  98.4465426
  92.3634101  66.3551366  97.0622821  98.4214177  72.5409417 105.8764445
  98.4858609  73.0029824 106.7122617  97.7125101  71.9106782 106.0046755
  88.9231467  65.9050625 103.4013444  89.1739505  66.7897635 103.6671020
  89.4591015  65.7255226 102.6288536 112.7463566  69.3364122 100.0688706
 111.9927275  68.7671520  99.9132710 112.8811108  69.3026787 101.0159341
  98.1362194  74.2077524  95.7443425  98.0007869  75.0529060  96.1728273
  98.6772007  74.4096802  94.9809359  94.6229534  60.2869104 112.4057780
  94.2296480  59.7335303 113.0805425  95.4395674  60.5979683 112.7964298
  91.5891592  71.7252962  96.3171350  92.1016112  72.5196213  96.4676915
  92.2414305  71.0279253  96.2504952  93.3986477  74.8418719  98.3994103
  93.5753105  75.7636683  98.2115087  94.1943310  74.5277138  98.8288483
  97.5397495  61.7026983 109.9978037  98.2807208  62.3034137 109.9182499
  97.7715418  60.9604621 109.4396080  92.6838833  66.8883351 108.2756267
  92.5692348  65.9868608 108.5763366  91.8283351  67.1347047 107.9241083
  99.7630671  74.8301091 109.8743767  99.3194525  74.0437470 109.5564672
 100.4247884  75.0180241 109.2087658  94.5217792  76.3596893 104.4004446
  95.0725217  76.2313956 103.6281440  93.6829268  76.6591782 104.0499339
 101.8611909  75.1103891 107.9025169 101.8430384  75.9312772 107.4105438
 102.7831829  74.9857966 108.1275310  98.3184963  72.6248020 108.7448677
  98.8513300  71.8636309 108.5147985  97.7899044  72.3321672 109.4872831
 101.4854658  57.7308086 104.2742319 101.1418927  58.6209728 104.1981429
 101.8533621  57.5409744 103.4111904  89.5540509  70.0541617  97.0930921
  90.3915731  70.4638625  96.8764629  89.7318776  69.1141059  97.0631115
 101.4504941  67.7216697  92.7814754 100.9351564  68.4921302  93.0203141
 101.1782249  67.0481834  93.4047815  99.0352052  62.5666398  97.8399992
  98.1793648  62.1773249  97.6605631  99.4479004  62.6458359  96.9799778
 100.5651198  60.1012741 102.2391552 100.0615994  60.0642877 101.4259357
 100.8581805  61.0105484 102.2988209  96.8094084  60.1851471 101.2457734
  97.6747081  59.9894280 100.8863623  96.8771593  59.9561823 102.1727090
 106.4239215  70.4749052  94.7167927 105.6468658  70.1360212  94.2723089
 107.1030696  70.4801675  94.0422892 101.2391244  65.5943790  94.6074535
 100.9341379  65.9089939  95.4584678 102.1921686  65.6725209  94.6501868
  99.6837676  71.7534013  96.2567489  99.1559037  71.0186772  95.9440726
  99.1825178  72.5308689  96.0107457 104.6630522  69.9483033 101.3734535
 104.0054196  70.6382295 101.4614664 105.4670921  70.3379465 101.7168522
  94.4156403  62.4153679  98.6174100  94.9900155  62.1928861  97.8847293
  95.0027386  62.4842374  99.3702702 103.4735981  68.3027406  99.4238477
 103.9867862  68.9357398  99.9260187 104.1237204  67.7028602  99.0581837
  94.7425990  64.4458140  92.6369986  93.9063303  64.7832827  92.9579260
  94.6030760  64.3107120  91.6997123  96.7179071  59.2894928  97.3449170
  96.0643483  58.9743945  96.7205785  96.6759545  58.6670669  98.0708993
  97.8290276  69.5714223  89.2602462  96.9217338  69.3403477  89.4593611
  98.3261308  68.7751842  89.4476444 100.7358355  78.2811730  92.1799148
 100.0620054  78.5843427  92.7884106 101.1224177  79.0840811  91.8304605
  99.9516811  65.7776862 101.6696818  99.0339373  65.9991809 101.5118506
 100.3676955  65.8523172 100.8108525 100.7351859  67.1768277  96.7999498
 101.4823678  67.6889674  96.4906620 101.0043449  66.8552330  97.6603891
  99.0078509  69.6726818  93.7826452  98.0989729  69.3885851  93.8798922
  99.0373593  70.0925897  92.9229759 104.2397777  73.2833407  97.5517620
 103.7860104  72.4424317  97.6082810 103.6091743  73.9194806  97.8892400
 103.1830696  64.2125394  98.7818287 102.4453453  63.7002780  99.1128530
 103.4357470  63.7725775  97.9701564 102.6830716  75.1209904  98.4867438
 102.9753690  75.6814961  97.7679803 103.1929337  75.4138465  99.2420597
 103.2842324  56.9901646  99.3760056 103.5901200  56.1299009  99.0885971
 104.0094928  57.5819266  99.1759050  89.5766680  67.3932332  97.7641654
  89.3791080  66.8001693  97.0392721  89.0213344  67.0884542  98.4817593
  97.5563403  67.2855439  99.8836247  97.6112013  66.3329275  99.8078724
  96.7454605  67.4414878 100.3677546  98.7054597  71.2135562  91.1214531
  98.2674027  70.4971421  90.6620168  99.4465038  71.4411676  90.5599622
  95.4955763  65.9032498  97.6426626  94.6823629  66.2026669  98.0491818
  95.9914758  65.5088187  98.3601109  97.6464341  75.8990255  99.5760891
  97.6040520  76.1251102  98.6469423  98.5627040  75.6653630  99.7246692
 101.0929975  66.3674323 106.4741520 101.4479363  66.5945796 107.3335986
 101.7402106  66.6992700 105.8518775 106.8227712  69.4892759  97.1790849
 106.6845611  69.6794355  96.2512038 106.4663931  70.2512142  97.6358900
  94.9869838  63.4750854 103.2587861  95.6269217  63.3339613 102.5610825
  94.1547369  63.1885367 102.8826463 106.8497092  71.5569286 102.1902121
 107.2833598  71.4644575 103.0385175 107.5628672  71.5326786 101.5522137
  95.7630142  72.7753284  99.3722854  96.5570740  72.2803604  99.1705429
  95.0521834  72.2471147  99.0090559 100.5824986  75.1571380 103.7235221
 100.6362009  75.7262316 104.4912937  99.7139768  75.3273265 103.3589258
  92.0712905  66.9196366  95.4482606  91.1410494  66.8580822  95.6652569
  92.1670377  66.3972319  94.6519248  91.9898455  63.4451179  98.0360848
  92.2505272  64.3596512  97.9270009  92.8115627  62.9775621  98.1857461
  93.4623380  64.8588936 105.2059673  94.1346433  64.6506298 104.5572321
  92.6353166  64.6611022 104.7664905 107.7112641  71.5992986 104.7235006
 107.9048531  72.5038797 104.9694281 107.6113259  71.1400405 105.5573591
  99.3648952  61.4850877 107.2225333  98.7176867  62.1840827 107.1289810
 100.1349967  61.9187021 107.5901582 102.7727750  71.7499729 110.2975887
 102.6213256  71.5210281 109.3805970 102.7632429  72.7070331 110.3107232
  99.5413086  69.3231642 105.2822153 100.4705146  69.4742801 105.1091120
  99.1204116  69.4115663 104.4270800  98.3401418  73.3482306 103.0520691
  98.2012504  72.9801091 103.9246629  97.5516014  73.8629946 102.8804649
  98.9349570  78.4491403  94.3946227  99.1101326  77.9779446  95.2091850
  98.2482358  79.0757169  94.6227488  99.8906633  72.7263909 100.4409529
  99.5556466  72.6864679 101.3367178  99.3910579  72.0608625  99.9679939
  93.8650877  68.1331539 105.9662110  93.7270675  67.4011778 106.5673649
  94.7755801  68.0440439 105.6846297 102.8265825  70.0719943  90.7146588
 102.2094995  69.3466771  90.6179641 102.3582313  70.8329304  90.3713662
  96.4933178  67.8451498 105.4545789  97.2032796  67.2044691 105.4132408
  96.4502486  68.0964393 106.3771970 104.4819956  74.7818852 108.3752369
 104.4232503  74.0978072 107.7082952 104.8839475  75.5237842 107.9232995
  95.2062112  64.8316716 107.2741429  94.6699469  64.3807455 107.9263025
  94.6178820  64.9662625 106.5311893  93.5010655  81.5980765 101.1686087
  93.7407253  82.2299290 101.8465106  92.6579852  81.2468806 101.4551447
  94.6164371  64.2905368  89.8367893  93.7393837  64.1694168  89.4730139
  95.0922124  63.4991446  89.5846781 104.4837364  72.7458436 106.6066348
 103.5964142  72.4084357 106.7292747 105.0535915  72.0141467 106.8435114
  86.1366511  69.0782527  99.9309400  86.8237551  68.7644257  99.3430415
  85.9814640  69.9823892  99.6576651  90.9401233  63.9672724 104.3594423
  90.8559422  63.3598393 103.6244833  90.1183939  64.4581742 104.3603920
  98.0138517  77.4059888 103.5727591  97.9408689  78.2114859 104.0846896
  97.5715910  77.6051854 102.7475613  97.8028297  76.6431658  97.0830413
  97.0195819  77.1853338  97.1768638  98.5021042  77.1605638  97.4824654
 101.1124947  62.4526287  99.7264618 101.6093646  61.6996250  99.4065689
 100.3411928  62.4890604  99.1607828 108.9654704  68.1566653 101.3682910
 108.9544580  69.0391368 100.9976843 108.0972084  67.8038204 101.1737447
 100.4737201  77.3046722 105.7285750 101.1865173  77.9394187 105.6561652
  99.9827229  77.4010588 104.9125752 102.1954728  71.2097975  97.3003042
 101.2611006  71.3299437  97.1307746 102.3731396  70.3070441  97.0363052
  97.6959916  64.5943670  99.4536303  97.3257703  64.0414711 100.1417209
  98.1919008  63.9901804  98.9011303 105.5827279  67.0515294  97.8353076
 106.0487731  67.8843286  97.7613379 106.0334779  66.5860276  98.5398334
  95.5249114  75.0541165 106.5491321  96.2258574  75.6877648 106.7020715
  95.0544229  75.3955897 105.7886960 103.6503510  73.3959115  94.8339228
 103.9263354  73.2815710  95.7433102 102.7808009  72.9976600  94.7951401
 103.5543942  59.4195881 101.8743977 102.6407021  59.6500108 102.0426184
 103.9837043  59.5034325 102.7258010 103.3250400  67.6085773 104.3743871
 102.6721850  67.8561680 103.7196324 103.7030780  66.7949911 104.0406349
 100.2857574  77.6445466  98.4772042 100.4679969  76.8267122  98.9399794
 101.1090560  77.8613158  98.0396932 100.6199740  76.5713651  95.7387090
 101.1487506  76.0606106  95.1257252 100.8827959  76.2556181  96.6032623
  99.3737973  68.3505584 110.8609908  98.6978610  68.2499713 111.5312284
 100.1965607  68.1944798 111.3245906  91.1216832  74.5877520 103.4822424
  91.7070269  73.8421208 103.6150328  90.9241671  74.8981477 104.3659088
  93.9755487  77.6228768  98.4984866  93.3065863  78.1074896  98.0148906
  93.8368357  77.8697988  99.4128245  85.7134487  67.1583121 102.2026867
  85.7518586  66.6246711 102.9963985  85.2074780  66.6318326 101.5837844
  98.1160756  79.6572511 105.0967524  98.6679064  79.8204133 105.8616610
  98.4566949  80.2476949 104.4247549  93.0925249  62.0047661 105.6989409
  93.1566576  62.8662492 105.2866807  93.0292369  61.3921663 104.9661768
  92.5677522  64.0770794 109.3462443  93.1949561  63.6947871 109.9599968
  91.7105441  63.8584996 109.7118136  89.3443065  65.8847223  95.2780798
  89.6396506  64.9757901  95.2247852  88.4431100  65.8634962  94.9561801
 101.2529143  77.6054487 102.0831207 101.1280283  76.8044227 101.5742152
 101.9108234  78.1000680 101.5945177  92.8737312  63.9603219 101.2608347
  92.1523897  64.5739187 101.1215820  93.6630567  64.4960984 101.1824993
 103.3164052  75.4063507 103.7110757 102.3694387  75.2868858 103.6389083
 103.6646825  74.5186005 103.7937018  95.6763625  61.2957646 107.5348999
  96.1998027  61.5419942 108.2975308  95.4575958  62.1277681 107.1152136
  91.0730906  63.5661321  95.4020123  90.7443612  62.6858699  95.2195229
  91.4270277  63.5108989  96.2896513 100.3210485  75.2016223  99.9115109
 100.1735447  74.2732931 100.0922679 101.1463978  75.2236314  99.4272184
  94.1872729  63.8534290  95.7695601  94.5268802  64.3820212  95.0474209
  94.6344850  64.1914696  96.5454168 103.9244607  76.0244782 100.9979982
 104.8491154  75.8187643 100.8604433 103.7559910  75.7761183 101.9069323
  96.8816170  62.2371341 105.2198669  96.5412990  61.4379154 105.6219349
  96.1755176  62.5373052 104.6475502  97.5332642  59.3220653 103.6725992
  98.3558711  58.8481132 103.5504882  97.7770705  60.1011137 104.1724678
  96.1740876  62.3508912  93.9688894  96.8949239  62.7290165  93.4652611
  95.5506181  63.0697789  94.0723872 100.3171999  63.0554061  94.9047226
 100.5335614  63.9378699  94.6036054  99.8366066  62.6640274  94.1752868
  95.0571221  66.0139774 101.4817971  94.9115801  66.3280077 102.3742252
  94.5796424  66.6324674 100.9288869  96.9167604  63.0042322 101.5298860
  96.9029172  62.1083415 101.1931158  97.6340032  63.0112986 102.1637146
  98.7693734  63.4379662 103.5751988  98.5111512  64.3596733 103.5736318
  98.2378775  63.0410097 104.2652452 103.7139923  76.5430449  96.3542073
 103.8876801  75.9776872  95.6015926 104.2068814  77.3431344  96.1721563
  89.5316883  68.5545118 104.4205632  88.9870351  69.3304926 104.5525906
  90.4096233  68.9015923 104.2624753  96.3204499  61.8856702  96.7986430
  96.4420411  60.9573349  96.9977318  96.0306542  61.8995388  95.8864746
  99.1895690  59.5711613  99.9353150  99.2117387  59.6350946  98.9805130
  99.6063749  58.7316121 100.1293656 109.5679314  69.3066872  97.9732373
 110.0110460  68.5574198  97.5751496 108.6905824  69.2977009  97.5906105
 104.7015096  75.8597214  93.4538971 105.3966000  76.4803906  93.6726286
 105.0438246  75.0092565  93.7291349  90.3182905  67.6815015 107.3135789
  89.5764641  67.8297650 107.9000419  89.9975649  67.9423280 106.4502538
 106.6006519  73.3096919  94.9826302 107.1257843  73.6484192  94.2575622
 106.5128871  72.3743935  94.7989437  98.2626567  77.2230993 107.1116179
  98.5713694  76.9780140 107.9838878  99.0602049  77.4277631 106.6235049
  98.2847179  79.3768903  99.3421555  97.8452170  78.8845281 100.0354412
  99.0355296  78.8341870  99.1013631  90.7639518  75.5680443  99.3446183
  91.5897538  75.2684215  98.9644827  90.4133570  74.7988066  99.7935972
  95.7321052  74.9206912 101.4143857  95.1101061  74.2577617 101.1146085
  96.4025918  74.9468044 100.7317505  88.9648123  73.4866770 100.3035117
  88.1280032  73.0588944 100.1219118  88.9371769  73.6799213 101.2405908
  95.8045579  63.3988700 111.0076363  95.8533735  64.2750823 110.6254133
  96.3468093  62.8566093 110.4348006 106.4098300  70.7922289 107.6010229
 106.4596305  70.6272297 108.5425751 106.3012223  69.9249548 107.2108109
  95.2934558  73.4710835  94.8902318  95.4422679  74.1546299  94.2368990
  96.1001002  73.4515925  95.4051773 103.7002062  66.7753217 108.9169535
 104.6011925  66.6359682 108.6253533 103.7750037  66.9407672 109.8567713
  98.0344867  64.1520072 107.7622722  97.1648177  64.4453638 107.4905310
  98.2704348  64.7360517 108.4829985 107.9116497  73.2119231 107.8452250
 107.6201305  73.5749211 108.6815711 107.2988628  72.4986239 107.6665582
 109.1112179  70.7772111 100.3654820 109.9459070  71.2161915 100.5292381
 109.2471308  70.3010764  99.5463066 106.1603685  68.3351845 106.3132308
 106.6357806  68.5279492 105.5051160 105.2369250  68.3911031 106.0675692
  93.0487191  69.4976013  95.8963386  92.8033233  68.5938343  96.0943597
  93.2183106  69.4993163  94.9542864 100.7383901  60.3699689 105.2788142
 101.2565845  61.1060716 104.9534631 100.3839034  60.6763682 106.1134901
  92.3182839  65.2304370  93.3949548  91.6252084  65.3048725  92.7389584
  92.0734591  64.4664714  93.9171065 100.9896495  56.7899972 100.7989039
 101.2698249  56.1223161 101.4249465 101.7747102  56.9829067 100.2863702
  98.7929964  75.9658965  92.3614065  98.2203931  76.5849153  91.9084537
  99.3662758  76.5158327  92.8953987 104.8605354  65.2117606 104.5460614
 105.8122777  65.3115703 104.5672838 104.6908804  64.4195874 105.0558698
 102.8819733  62.2973189 104.7320015 102.2869665  62.5778202 104.0366503
 102.5969430  62.7867090 105.5036756 102.0127224  76.2496116  93.4922647
 102.9457897  76.1841677  93.6955523 101.9250437  77.0852382  93.0337180
 104.6415240  75.5661986  90.4526595 104.5628872  75.2321850  91.3462353
 105.4624907  76.0583754  90.4518067 107.3393432  68.4323725 103.6602913
 107.3069752  67.4939726 103.8462597 107.9494055  68.5107762 102.9268738
  99.1776762  67.3019778  89.7030117 100.1235867  67.1725986  89.7718535
  98.7991007  66.5634440  90.1799546 107.4887920  65.2234769 103.7061197
 106.9726969  64.4393225 103.5191125 108.3727869  64.8953485 103.8707716
 105.1498647  58.9675784  99.6657009 104.9523468  58.6590872 100.5500341
 105.7598353  59.6937423  99.7954939 113.1569981  69.4939732 102.8008950
 113.8873370  69.2325020 103.3616654 112.5476927  68.7568454 102.8411018
 111.2385279  67.6347595 103.3983401 110.5118442  67.5003560 102.7899893
 110.8232565  67.9424423 104.2040119  99.0615455  71.3537524 111.1630774
  99.9818464  71.5316123 111.3570821  99.0265038  70.4093570 111.0110474
  97.3619680  65.2269755  89.6385003  96.4551135  64.9302867  89.7147716
  97.6395661  64.9299573  88.7719289  88.2797620  66.5476118 100.0884049
  87.9600404  65.6941426  99.7958423  87.7331048  66.7624696 100.8442016
  92.0577528  69.2638559 103.8053556  92.2763537  70.1955667 103.8241589
  92.4703301  68.9046533 104.5908359  98.9781745  59.7706644  95.7929244
  98.1682474  59.4253729  96.1684490  99.6666162  59.4614188  96.3816856
 100.9072294  58.8484691  97.4153541 101.4603332  59.2680145  98.0743564
 101.1442380  57.9220439  97.4576497  96.9305393  64.8371765 113.1956305
  96.8302120  65.7866122 113.1268396  96.7126935  64.5090004 112.3232375
  96.1318464  62.0856690  89.7796982  96.9937628  62.4111588  90.0392799
  96.3168808  61.2988186  89.2670048  88.1485880  70.1679030 102.0577171
  87.4549351  69.7532982 101.5447125  88.8958871  70.2099566 101.4610590
 104.2851101  60.9585216  96.9232205 103.7049770  61.6170020  96.5410257
 104.0187033  60.1362561  96.5119622 102.7354667  60.3590274  99.1253525
 103.2354445  60.4706809  98.3167844 103.3790275  60.0551327  99.7654334
  96.7936663  68.2668904 112.0121366  96.3103745  69.0669264 112.2185255
  96.8797602  68.2776849 111.0588810  90.0622623  70.0997283  99.9343186
  90.0393311  70.1984971  98.9825069  90.3723259  70.9462434 100.2560352
  92.7210000  72.1573438 104.0489800  93.6753254  72.1257381 103.9819732
  92.5222524  71.6964062 104.8640026  93.3109383  70.7274554 106.6160598
  94.1302272  71.2218633 106.6395435  93.5846190  69.8106523 106.5878165
 103.0675979  63.1185307  95.9788553 102.1801834  63.4034957  95.7608748
 103.4829968  62.9579070  95.1315830 106.4190515  63.1431828  99.6942892
 107.1950905  63.6328280  99.9667509 105.6938649  63.5689882 100.1514762
 108.8563074  63.8559447 100.7516833 109.4507564  63.6155183 100.0410141
 108.9289657  63.1366577 101.3790369  91.0760229  77.6993058 101.0659998
  90.9414697  76.9393459 100.4997996  90.6592291  78.4233958 100.5988787
 102.2119192  72.8829981  90.0736573 102.9155042  73.0879984  90.6894229
 101.4881841  73.4506743  90.3385657 103.0417002  68.6339843  96.1938843
 102.9852204  69.0908394  95.3546476 103.5945345  67.8730527  96.0161686
 106.8521808  64.4229574  97.0188963 106.5958743  64.0226210  97.8497170
 106.2274676  65.1373368  96.8939102 111.1634146  67.1625648  99.5260254
 110.6033704  67.2318837 100.2991816 110.5577650  66.9866632  98.8059750
  94.2329355  78.5962375 101.2778440  94.1161739  79.5407807 101.1757131
  93.4121801  78.2935936 101.6664240 104.1205890  73.3212511  92.1235033
 104.9551494  72.8893709  91.9412508 103.9590233  73.1494524  93.0511928
 103.7751782  69.8244624  93.4891372 103.7200586  69.6588895  92.5479817
 103.1497837  70.5320657  93.6453562  88.5644297  65.0612688 107.3152795
  89.2103160  64.5511642 107.8040020  88.3561448  65.7981370 107.8896220
  97.0847907  59.3252733  93.0676691  97.0726577  60.2694573  93.2244962
  97.9771329  59.1422878  92.7736152  95.2583869  79.2490637 104.4934369
  96.1611116  79.2814247 104.8100864  95.0321239  78.3191088 104.5080705
  97.0137471  78.0021623 101.1544448  96.0633102  78.0023485 101.0408820
  97.3169957  77.2554358 100.6380482 100.9000027  55.9195510  97.3222628
 100.1332423  55.3653996  97.4679310 101.3110732  55.9917378  98.1836779
  92.9041788  62.2080305 111.4127809  93.7673249  61.8517110 111.6231133
  92.3307198  61.8694200 112.1003213 105.4166687  85.6445066  98.1448626
 104.8531552  85.5535003  97.3764913 105.3019082  84.8244971  98.6251118
 102.9631119  87.1396258 100.9832846 103.7552411  86.7987082 100.5679145
 103.2027769  87.2491233 101.9034999 110.9966245  89.3116034  93.4563090
 110.3454225  89.8970114  93.0697104 111.7910608  89.8422229  93.5158128
 104.9221873  86.4005171  93.8550225 105.6952749  85.8534158  93.7163101
 105.2747271  87.2649420  94.0664686 107.2588150  82.5597837  91.4868675
 107.5113671  82.0379358  90.7252138 106.3212709  82.3963983  91.5895358
 112.3031433  81.5633616  99.2943418 113.0894522  81.1453039  98.9433835
 112.5670138  82.4679708  99.4625066 112.4741511  87.0006466  93.9932075
 111.8387344  87.0741092  94.7052979 112.1438917  87.5900065  93.3151154
 106.9784439  84.4625943  93.6893050 106.8620697  83.7870847  94.3574134
 107.0886699  83.9758317  92.8725203 109.3215980  83.9236090  97.3939739
 108.9574187  83.3966711  98.1052660 110.1783096  83.5334559  97.2206224
 108.9621467  78.9525990  92.3901087 109.1295869  79.8206226  92.7571558
 108.7718636  79.1153272  91.4662377 105.1709282  83.8656766 100.0903622
 104.2459778  83.7332980 100.2981314 105.4193695  84.6450985 100.5873565
 108.9410688  81.4083647  93.3747754 108.8210313  81.8540698  94.2133235
 108.2463276  81.7568965  92.8161292 102.5318093  83.5090039 100.9247411
 102.6610474  83.7624518 101.8386823 101.8515544  84.1017747 100.6052066
 114.6395754  81.8805121  94.2028088 115.5513610  82.1132507  94.0275786
 114.1305401  82.4642165  93.6403167 111.9831729  78.0563157 102.4517949
 111.1216208  78.3544410 102.7434687 112.0094163  78.2733555 101.5198982
 108.7993298  86.6005347  98.8591755 109.2631644  86.8793050  98.0696377
 108.5350096  85.6988792  98.6764846 107.7362184  82.7228500  95.6681320
 108.4386228  83.1749543  96.1355246 107.4042813  82.0812318  96.2961213
 101.4787518  80.9812052 100.9698454 100.6886572  81.2369581 100.4938564
 101.9698766  81.7960390 101.0750494 103.4302264  81.3456631  97.9281930
 102.6333427  81.4575326  98.4465426 103.2027856  81.6843284  97.0622821
  99.7625221  81.2342543 103.4013444 100.0133260  82.1189553 103.6671020
 100.2984770  81.0547144 102.6288536 108.9755949  89.5369442  95.7443425
 108.8401624  90.3820978  96.1728273 109.5165761  89.7388720  94.9809359
 102.4285346  87.0544880  96.3171350 102.9409867  87.8488130  96.4676915
 103.0808059  86.3571171  96.2504952 104.2380231  90.1710636  98.3994103
 104.4146859  91.0928601  98.2115087 105.0337065  89.8569056  98.8288483
 112.3248413  73.0600004 104.2742319 111.9812682  73.9501646 104.1981429
 112.6927375  72.8701662 103.4111904 100.3934263  85.3833534  97.0930921
 101.2309485  85.7930543  96.8764629 100.5712531  84.4432977  97.0631115
 112.2898695  83.0508615  92.7814754 111.7745319  83.8213220  93.0203141
 112.0176004  82.3773751  93.4047815 109.8745806  77.8958316  97.8399992
 109.0187403  77.5065166  97.6605631 110.2872758  77.9750277  96.9799778
 111.4044953  75.4304659 102.2391552 110.9009748  75.3934794 101.4259357
 111.6975560  76.3397402 102.2988209 107.6487839  75.5143389 101.2457734
 108.5140836  75.3186198 100.8863623 107.7165348  75.2853741 102.1727090
 117.2632969  85.8040970  94.7167927 116.4862412  85.4652129  94.2723089
 117.9424450  85.8093593  94.0422892 112.0784998  80.9235707  94.6074535
 111.7735134  81.2381856  95.4584678 113.0315441  81.0017127  94.6501868
 110.5231430  87.0825931  96.2567489 109.9952792  86.3478690  95.9440726
 110.0218933  87.8600607  96.0107457 105.2550158  77.7445597  98.6174100
 105.8293910  77.5220778  97.8847293 105.8421140  77.8134291  99.3702702
 105.5819745  79.7750058  92.6369986 104.7457057  80.1124744  92.9579260
 105.4424515  79.6399038  91.6997123 107.5572826  74.6186846  97.3449170
 106.9037238  74.3035863  96.7205785 107.5153300  73.9962586  98.0708993
 108.6684030  84.9006141  89.2602462 107.7611092  84.6695394  89.4593611
 109.1655062  84.1043760  89.4476444 111.5752109  93.6103648  92.1799148
 110.9013808  93.9135345  92.7884106 111.9617931  94.4132728  91.8304605
 110.7910566  81.1068779 101.6696818 109.8733127  81.3283726 101.5118506
 111.2070710  81.1815090 100.8108525 111.5745614  82.5060195  96.7999498
 112.3217433  83.0181592  96.4906620 111.8437203  82.1844248  97.6603891
 109.8472264  85.0018736  93.7826452 108.9383483  84.7177768  93.8798922
 109.8767348  85.4217814  92.9229759 114.0224451  79.5417311  98.7818287
 113.2847208  79.0294697  99.1128530 114.2751224  79.1017693  97.9701564
 114.1236078  72.3193563  99.3760056 114.4294955  71.4590927  99.0885971
 114.8488683  72.9111183  99.1759050 100.4160434  82.7224250  97.7641654
 100.2184834  82.1293610  97.0392721  99.8607098  82.4176460  98.4817593
 108.3957158  82.6147356  99.8836247 108.4505768  81.6621193  99.8078724
 107.5848360  82.7706795 100.3677546 109.5448352  86.5427479  91.1214531
 109.1067782  85.8263338  90.6620168 110.2858793  86.7703594  90.5599622
 106.3349518  81.2324416  97.6426626 105.5217383  81.5318587  98.0491818
 106.8308512  80.8380105  98.3601109 117.6621466  84.8184676  97.1790849
 117.5239365  85.0086272  96.2512038 117.3057685  85.5804059  97.6358900
 105.8263593  78.8042772 103.2587861 106.4662972  78.6631531 102.5610825
 104.9941123  78.5177285 102.8826463 106.6023896  88.1045202  99.3722854
 107.3964495  87.6095522  99.1705429 105.8915589  87.5763065  99.0090559
 102.9106660  82.2488284  95.4482606 101.9804248  82.1872739  95.6652569
 103.0064132  81.7264236  94.6519248 102.8292209  78.7743097  98.0360848
 103.0899026  79.6888430  97.9270009 103.6509381  78.3067539  98.1857461
 104.3017134  80.1880854 105.2059673 104.9740188  79.9798216 104.5572321
 103.4746921  79.9902940 104.7664905 109.7743324  93.7783320  94.3946227
 109.9495080  93.3071364  95.2091850 109.0876112  94.4049087  94.6227488
 113.6659579  85.4011861  90.7146588 113.0488750  84.6758689  90.6179641
 113.1976068  86.1621221  90.3713662 105.4558125  79.6197285  89.8367893
 104.5787592  79.4986086  89.4730139 105.9315878  78.8283364  89.5846781
  96.9760265  84.4074445  99.9309400  97.6631305  84.0936175  99.3430415
  96.8208394  85.3115810  99.6576651 101.7794987  79.2964642 104.3594423
 101.6953176  78.6890311 103.6244833 100.9577694  79.7873660 104.3603920
 111.9518701  77.7818205  99.7264618 112.4487401  77.0288167  99.4065689
 111.1805683  77.8182522  99.1607828 113.0348482  86.5389892  97.3003042
 112.1004761  86.6591355  97.1307746 113.2125150  85.6362359  97.0363052
 108.5353670  79.9235588  99.4536303 108.1651458  79.3706628 100.1417209
 109.0312763  79.3193722  98.9011303 116.4221033  82.3807212  97.8353076
 116.8881486  83.2135203  97.7613379 116.8728534  81.9152193  98.5398334
 114.4897264  88.7251033  94.8339228 114.7657108  88.6107627  95.7433102
 113.6201763  88.3268518  94.7951401 114.3937696  74.7487799 101.8743977
 113.4800776  74.9792025 102.0426184 114.8230798  74.8326243 102.7258010
 111.4593494  91.9005569  95.7387090 111.9881260  91.3898023  95.1257252
 111.7221714  91.5848099  96.6032623  96.5528241  82.4875038 102.2026867
  96.5912341  81.9538629 102.9963985  96.0468534  81.9610244 101.5837844
 103.9319004  77.3339579 105.6989409 103.9960330  78.1954410 105.2866807
 103.8686124  76.7213581 104.9661768 100.1836819  81.2139141  95.2780798
 100.4790260  80.3049819  95.2247852  99.2824855  81.1926880  94.9561801
 103.7131066  79.2895137 101.2608347 102.9917652  79.9031105 101.1215820
 104.5024322  79.8252902 101.1824993 101.9124661  78.8953238  95.4020123
 101.5837367  78.0150617  95.2195229 102.2664031  78.8400907  96.2896513
 105.0266484  79.1826208  95.7695601 105.3662556  79.7112129  95.0474209
 105.4738604  79.5206614  96.5454168 107.7209925  77.5663259 105.2198669
 107.3806745  76.7671072 105.6219349 107.0148931  77.8664970 104.6475502
 108.3726396  74.6512571 103.6725992 109.1952466  74.1773049 103.5504882
 108.6164460  75.4303055 104.1724678 107.0134631  77.6800830  93.9688894
 107.7342993  78.0582082  93.4652611 106.3899935  78.3989706  94.0723872
 111.1565754  78.3845979  94.9047226 111.3729368  79.2670616  94.6036054
 110.6759821  77.9932192  94.1752868 105.8964975  81.3431692 101.4817971
 105.7509556  81.6571995 102.3742252 105.4190179  81.9616592 100.9288869
 107.7561358  78.3334240 101.5298860 107.7422927  77.4375333 101.1931158
 108.4733786  78.3404903 102.1637146 109.6087489  78.7671580 103.5751988
 109.3505267  79.6888651 103.5736318 109.0772529  78.3702014 104.2652452
 100.3710637  83.8837036 104.4205632  99.8264105  84.6596844 104.5525906
 101.2489987  84.2307841 104.2624753 107.1598254  77.2148620  96.7986430
 107.2814165  76.2865266  96.9977318 106.8700296  77.2287306  95.8864746
 110.0289444  74.9003530  99.9353150 110.0511141  74.9642864  98.9805130
 110.4457503  74.0608039 100.1293656 115.5408850  91.1889131  93.4538971
 116.2359755  91.8095824  93.6726286 115.8832000  90.3384483  93.7291349
 117.4400273  88.6388837  94.9826302 117.9651597  88.9776110  94.2575622
 117.3522626  87.7035852  94.7989437 101.6033273  90.8972361  99.3446183
 102.4291293  90.5976133  98.9644827 101.2527325  90.1279984  99.7935972
  99.8041878  88.8158688 100.3035117  98.9673786  88.3880862 100.1219118
  99.7765523  89.0091131 101.2405908 106.1328313  88.8002753  94.8902318
 106.2816433  89.4838217  94.2368990 106.9394756  88.7807843  95.4051773
 103.8880946  84.8267930  95.8963386 103.6426988  83.9230260  96.0943597
 104.0576860  84.8285081  94.9542864 103.1576593  80.5596288  93.3949548
 102.4645838  80.6340643  92.7389584 102.9128345  79.7956632  93.9171065
 111.8290250  72.1191889 100.7989039 112.1092004  71.4515078 101.4249465
 112.6140857  72.3120985 100.2863702 109.6323718  91.2950883  92.3614065
 109.0597686  91.9141070  91.9084537 110.2056512  91.8450245  92.8953987
 112.8520978  91.5788033  93.4922647 113.7851651  91.5133595  93.6955523
 112.7644191  92.4144300  93.0337180 115.4808995  90.8953904  90.4526595
 115.4022626  90.5613767  91.3462353 116.3018662  91.3875672  90.4518067
 110.0170517  82.6311696  89.7030117 110.9629622  82.5017904  89.7718535
 109.6384762  81.8926358  90.1799546 115.9892402  74.2967702  99.6657009
 115.7917223  73.9882790 100.5500341 116.5992107  75.0229341  99.7954939
 108.2013434  80.5561672  89.6385003 107.2944890  80.2594785  89.7147716
 108.4789415  80.2591490  88.7719289  99.1191375  81.8768036 100.0884049
  98.7994159  81.0233344  99.7958423  98.5724803  82.0916614 100.8442016
 109.8175500  75.0998562  95.7929244 109.0076228  74.7545647  96.1684490
 110.5059917  74.7906106  96.3816856 111.7466048  74.1776609  97.4153541
 112.2997087  74.5972062  98.0743564 111.9836134  73.2512357  97.4576497
 106.9712219  77.4148608  89.7796982 107.8331383  77.7403506  90.0392799
 107.1562563  76.6280103  89.2670048  98.9879635  85.4970947 102.0577171
  98.2943106  85.0824900 101.5447125  99.7352626  85.5391484 101.4610590
 115.1244855  76.2877134  96.9232205 114.5443524  76.9461938  96.5410257
 114.8580788  75.4654479  96.5119622 113.5748422  75.6882192  99.1253525
 114.0748200  75.7998726  98.3167844 114.2184030  75.3843245  99.7654334
 100.9016377  85.4289201  99.9343186 100.8787065  85.5276888  98.9825069
 101.2117014  86.2754352 100.2560352 113.9069733  78.4477224  95.9788553
 113.0195588  78.7326875  95.7608748 114.3223722  78.2870988  95.1315830
 117.2584269  78.4723745  99.6942892 118.0344659  78.9620198  99.9667509
 116.5332404  78.8981800 100.1514762 113.0512947  88.2121899  90.0736573
 113.7548797  88.4171902  90.6894229 112.3275595  88.7798661  90.3385657
 113.8810757  83.9631760  96.1938843 113.8245958  84.4200312  95.3546476
 114.4339099  83.2022445  96.0161686 117.6915563  79.7521492  97.0188963
 117.4352497  79.3518128  97.8497170 117.0668431  80.4665286  96.8939102
 114.9599644  88.6504428  92.1235033 115.7945248  88.2185627  91.9412508
 114.7983987  88.4786442  93.0511928 114.6145536  85.1536542  93.4891372
 114.5594340  84.9880813  92.5479817 113.9891592  85.8612574  93.6453562
  99.4038051  80.3904606 107.3152795 100.0496915  79.8803560 107.8040020
  99.1955202  81.1273288 107.8896220 107.9241662  74.6544651  93.0676691
 107.9120332  75.5986490  93.2244962 108.8165084  74.4714796  92.7736152
 111.7393781  71.2487427  97.3222628 110.9726177  70.6945914  97.4679310
 112.1504486  71.3209296  98.1836779 116.4213499  95.1041976  92.6369986
 115.5850812  95.4416662  92.9579260 116.2818269  94.9690955  91.6997123
 116.2951880  94.9489203  89.8367893 115.4181346  94.8278004  89.4730139
 116.7709633  94.1575281  89.5846781 113.9970348  95.8888206  93.3949548
 113.3039593  95.9632561  92.7389584 113.7522100  95.1248549  93.9171065
 119.0407189  95.8853590  89.6385003 118.1338644  95.5886703  89.7147716
 119.3183170  95.5883408  88.7719289 117.8105973  92.7440525  89.7796982
 118.6725137  93.0695424  90.0392799 117.9956317  91.9572021  89.2670048
 118.7635416  89.9836568  93.0676691 118.7514086  90.9278408  93.2244962
 119.6558838  89.8006714  92.7736152  52.5048809  -5.4610177  83.7483192
  52.4272839  -4.5102352  83.8271673  51.9010452  -5.8064304  84.4058118
  50.1435639  -2.7124783  87.8931394  50.3832237  -2.0806258  88.5710413
  49.3004835  -3.0636743  88.1796753  50.6180471  -6.6876780  85.2230173
  49.9490846  -6.2030653  84.7394213  50.4793340  -6.4407560  86.1373551
  54.7585739  -4.6533037  91.8212831  55.3104047  -4.4901415  92.5861916
  55.0991933  -4.0628599  91.1492856  47.7185213  -6.6112490  87.7905304
  47.5839680  -7.3712089  87.2243302  47.3017275  -5.8871590  87.3234093
  50.8754338  -5.7143173  88.0023747  50.7586723  -4.7697741  87.9002437
  50.0546785  -6.0169612  88.3909546  51.9008853  -5.0614911  91.2179676
  52.8036099  -5.0291301  91.5346170  51.6746223  -5.9914460  91.2326011
  66.2004854  -0.5195958  88.8797041  65.8623366  -0.6354894  87.9917576
  67.0694622  -0.9204793  88.8598047  62.0591670   1.3339518  84.8693932
  61.4956535   1.2429455  84.1010220  61.9444065   0.5139423  85.3496425
  66.6824637   0.6338893  94.8383247  66.6713278   0.2391692  93.9663750
  66.8445277  -0.0995034  95.4317018  59.6056102   2.8290710  87.7078153
  60.3977394   2.4881534  87.2924452  59.8452752   2.9385685  88.6280306
  67.6391229   5.0010486  80.1808397  66.9879208   5.5864566  79.7942411
  68.4335592   5.5316681  80.2403435  61.5646856   2.0899623  80.5795531
  62.3377732   1.5428610  80.4408407  61.9172255   2.9543872  80.7909993
  63.4031898   3.4176005  93.7862431  63.1121764   4.3221636  93.6709097
  64.0388883   3.4592533  94.5006500  64.3288105   0.7952854  90.3763790
  64.9251678   0.5708876  89.6620753  64.3863077   0.0537599  90.9789238
  69.1166494   2.6900918  80.7177381  68.4812327   2.7635544  81.4298286
  68.7863900   3.2794517  80.0396461  63.6209422   0.1520395  80.4138356
  63.5045681  -0.5234702  81.0819441  63.7311682  -0.3347231  79.5970509
  65.9640963  -0.3869458  84.1185046  65.5999171  -0.9138837  84.8297967
  66.8208079  -0.7770989  83.9451531  68.3621784   3.1037421  90.7812224
  68.0622507   4.0062460  90.6728032  68.0172843   2.8369604  91.6333377
  61.8134265  -0.4448782  86.8148929  60.8884761  -0.5772568  87.0226621
  62.0618678   0.3345437  87.3118871  59.1743076  -0.8015509  87.6492718
  59.3035457  -0.5481030  88.5632130  58.4940527  -0.2087801  87.3297373
  63.3442563   9.8681741  83.7483192  63.2666593  10.8189566  83.8271673
  62.7404207   9.5227614  84.4058118  64.0906165  -0.1504940  95.9662526
  64.8320850   0.3880104  95.6897350  63.3843151   0.4761349  96.1234078
  69.5661505   1.9924200  94.5634688  69.9744861   1.5506611  93.8189320
  68.8438767   1.4176828  94.8168880  69.8890320   2.5525391  88.3186976
  69.2599182   2.7171105  87.6163044  69.5015982   2.9667000  89.0897940
  73.7679552   3.4879829  85.6731340  73.0830590   3.8678730  85.1228373
  73.8523401   4.0975155  86.4063288  71.0230483   1.1339788  92.2726684
  71.2347378   1.7771548  91.5961065  70.9760231   0.3002104  91.8048614
  65.4418282   2.2899799  85.5837061  65.9056627   2.5687502  84.7941684
  65.1775080   1.3883244  85.4010152  62.3342363   1.8371281  88.5216825
  62.9043720   2.2658549  87.8834309  62.9250474   1.5553865  89.2201010
  58.1212502  -3.3293496  87.6943760  57.3311556  -3.0735967  87.2183871
  58.6123749  -2.5145158  87.7995801  72.1376311   4.0111743  90.4449041
  72.9593755   3.6091931  90.1631723  72.1338714   3.9079977  91.3965157
  60.0727247  -2.9648917  84.6527237  59.2758410  -2.8530222  85.1710733
  59.8452839  -2.6262264  83.7868127  65.9032915   3.5595787  92.6009752
  65.9677347   4.0216194  93.4367923  65.1943838   2.9293151  92.7292061
  56.4050205  -3.0763005  90.1258751  56.6558243  -2.1915996  90.3916327
  56.9409753  -3.2558404  89.3533843  65.6180932   5.2263894  82.4688732
  65.4826607   6.0715430  82.8973580  66.1590745   5.4283172  81.7054666
  59.0710330   2.7439332  83.0416657  59.5834850   3.5382582  83.1922222
  59.7233042   2.0465623  82.9750258  60.8805214   5.8605088  85.1239410
  61.0571843   6.7823053  84.9360394  61.6762048   5.5463508  85.5533790
  60.1657571  -2.0930280  95.0001573  60.0511086  -2.9945023  95.3008672
  59.3102089  -1.8466583  94.6486390  67.2449409   5.8487461  96.5989074
  66.8013263   5.0623839  96.2809978  67.9066622   6.0366611  95.9332965
  62.0036530   7.3783262  91.1249752  62.5543955   7.2500325  90.3526746
  61.1648006   7.6778151  90.7744645  69.3430647   6.1290260  94.6270475
  69.3249122   6.9499142  94.1350744  70.2650567   6.0044336  94.8520616
  65.8003701   3.6434390  95.4693984  66.3332038   2.8822678  95.2393292
  65.2717782   3.3508042  96.2118138  57.0359246   1.0727986  83.8176227
  57.8734468   1.4824995  83.6009935  57.2137514   0.1327429  83.7876421
  67.1656414   2.7720382  82.9812796  66.6377775   2.0373142  82.6686033
  66.6643916   3.5495059  82.7352764  72.1449260   0.9669403  88.0979842
  71.4872934   1.6568664  88.1859971  72.9489659   1.3565835  88.4413828
  65.3109014   0.5900593  75.9847769  64.4036075   0.3589846  76.1838918
  65.8080046  -0.2061788  76.1721750  68.2177093   9.2998100  78.9044455
  67.5438791   9.6029797  79.5129413  68.6042915  10.1027180  78.5549912
  66.4897247   0.6913188  80.5071759  65.5808466   0.4072220  80.6044228
  66.5192331   1.1112266  79.6475066  71.7216515   4.3019777  84.2762926
  71.2678842   3.4610687  84.3328117  71.0910481   4.9381175  84.6137706
  70.1649454   6.1396274  85.2112744  70.4572428   6.7001331  84.4925110
  70.6748074   6.4324835  85.9665904  57.0585418  -1.5881298  84.4886961
  56.8609817  -2.1811938  83.7638027  56.5032082  -1.8929088  85.2062900
  66.1873335   2.2321931  77.8459837  65.7492765   1.5157790  77.3865475
  66.9283776   2.4598046  77.2844929  65.1283079   6.9176625  86.3006198
  65.0859258   7.1437471  85.3714730  66.0445778   6.6839999  86.4491999
  74.3315829   2.5755655  88.9147427  74.7652336   2.4830944  89.7630481
  75.0447410   2.5513156  88.2767443  63.2448880   3.7939654  86.0968160
  64.0389478   3.2989974  85.8950735  62.5340572   3.2657517  85.7335866
  68.0643724   6.1757749  90.4480528  68.1180747   6.7448686  91.2158244
  67.1958506   6.3459634  90.0834565  59.5531643  -2.0617264  82.1727913
  58.6229231  -2.1232809  82.3897875  59.6489115  -2.5841312  81.3764554
  75.1931379   2.6179356  91.4480313  75.3867269   3.5225166  91.6939588
  75.0931997   2.1586775  92.2818898  70.2546488   2.7686099  97.0221193
  70.1031994   2.5396650  96.1051277  70.2451167   3.7256700  97.0352538
  67.0231824   0.3418011  92.0067460  67.9523884   0.4929171  91.8336427
  66.6022854   0.4302032  91.1516106  65.8220156   4.3668676  89.7765997
  65.6831241   3.9987460  90.6491936  65.0334752   4.8816315  89.6049955
  66.4168308   9.4677772  81.1191534  66.5920063   8.9965815  81.9337157
  65.7301096  10.0943538  81.3472795  67.3725371   3.7450279  87.1654835
  67.0375204   3.7051048  88.0612485  66.8729317   3.0794994  86.6925245
  61.3469615  -0.8482091  92.6907416  61.2089413  -1.5801853  93.2918955
  62.2574538  -0.9373191  92.4091604  70.3084563   1.0906313  77.4391895
  69.6913733   0.3653141  77.3424948  69.8401051   1.8515673  77.0958969
  63.9751916  -1.1362132  92.1791096  64.6851534  -1.7768940  92.1377714
  63.9321224  -0.8849237  93.1017277  71.9638694   5.8005221  95.0997675
  71.9051240   5.1164441  94.4328258  72.3658213   6.5424211  94.6478301
  60.9829393  12.6167135  87.8931394  61.2225991  13.2485659  88.5710413
  60.1398590  12.2655175  88.1796753  71.9656101   3.7644805  93.3311655
  71.0782880   3.4270727  93.4538054  72.5354653   3.0327836  93.5680420
  53.6185249   0.0968897  86.6554706  54.3056288  -0.2169373  86.0675722
  53.4633377   1.0010262  86.3821958  65.4957255   8.4246258  90.2972898
  65.4227426   9.2301229  90.8092203  65.0534648   8.6238223  89.4720919
  65.2847035   7.6618028  83.8075720  64.5014556   8.2039708  83.9013944
  65.9839780   8.1792007  84.2069961  67.9555938   8.3233092  92.4531057
  68.6683911   8.9580556  92.3806958  67.4645967   8.4196958  91.6371059
  69.6773465   2.2284344  84.0248348  68.7429744   2.3485807  83.8553053
  69.8550134   1.3256811  83.7608358  63.0067852   6.0727535  93.2736628
  63.7077311   6.7064018  93.4266022  62.5362967   6.4142267  92.5132267
  71.1322248   4.4145485  81.5584535  71.4082092   4.3002079  82.4678409
  70.2626747   4.0162970  81.5196708  67.7676312   8.6631836  85.2017348
  67.9498706   7.8453492  85.6645101  68.5909298   8.8799528  84.7642238
  68.1018477   7.5900021  82.4632397  68.6306244   7.0792475  81.8502559
  68.3646697   7.2742551  83.3277930  66.8556711  -0.6308046  97.5855215
  66.1797348  -0.7313917  98.2557590  67.6784345  -0.7868833  98.0491212
  58.6035570   5.6063890  90.2067730  59.1889007   4.8607578  90.3395634
  58.4060408   5.9167847  91.0904394  61.4574225   8.6415137  85.2230173
  60.7884600   9.1261265  84.7394213  61.3187095   8.8884358  86.1373551
  53.1953225  -1.8230510  88.9272173  53.2337324  -2.3566919  89.7209292
  52.6893518  -2.3495304  88.3083151  65.5979494  10.6758881  91.8212831
  66.1497802  10.8390502  92.5861916  65.9385687  11.2663319  91.1492856
  70.4490368   5.5020138  97.6761485  70.9930272   6.1150097  97.1816440
  69.8677213   6.0599717  98.1928498  56.8261802  -3.0966408  82.0026105
  57.1215243  -4.0055729  81.9493159  55.9249838  -3.1178668  81.6807107
  68.7347881   8.6240856  88.8076513  68.6099021   7.8230596  88.2987459
  69.3926972   9.1187050  88.3190483  70.7982789   6.4249877  90.4356063
  69.8513125   6.3055228  90.3634390  71.1465563   5.5372375  90.5182325
  67.8029223   6.2202593  86.6360415  67.6554185   5.2919300  86.8167986
  68.6282716   6.2422683  86.1517491  71.4063345   7.0431152  87.7225288
  72.3309892   6.8374013  87.5849739  71.2378648   6.7947553  88.6314630
  71.1958661   7.5616819  83.0787380  71.3695538   6.9963241  82.3261232
  71.6887552   8.3617714  82.8966870  57.0135621  -0.4268512  91.1450939
  56.4689089   0.3491296  91.2771213  57.8914970  -0.0797707  90.9870060
  72.1833833   6.8783583  80.1784278  72.8784738   7.4990276  80.3971593
  72.5256983   6.0278935  80.4536656  57.8001642  -1.2998616  94.0381095
  57.0583379  -1.1515980  94.6245726  57.4794387  -1.0390350  93.1747845
  74.0825256   4.3283289  81.7071609  74.6076581   4.6670562  80.9820929
  73.9947609   3.3930304  81.5234743  65.7445305   8.2417363  93.8361485
  66.0532432   7.9966509  94.7084185  66.5420787   8.4464001  93.3480356
  65.7665917  10.3955272  86.0666862  65.3270907   9.9031651  86.7599719
  66.5174034   9.8528240  85.8258937  58.2458256   6.5866813  86.0691490
  59.0716276   6.2870585  85.6890134  57.8952308   5.8174435  86.5181279
  63.2139789   5.9393281  88.1389164  62.5919799   5.2763986  87.8391391
  63.8844656   5.9654413  87.4562811  56.4466861   4.5053139  87.0280424
  55.6098770   4.0775314  86.8464425  56.4190507   4.6985583  87.9651215
  73.7719163   4.9616193  97.0122807  72.9814706   4.9440331  96.4727306
  73.5352517   5.5004486  97.7671843  62.7753296   4.4897205  81.6147624
  62.9241417   5.1732669  80.9614297  63.5819740   4.4702295  82.1297080
  75.3935234   4.2305600  94.5697557  75.1020043   4.5935581  95.4061018
  74.7807366   3.5172609  94.3910889  60.5305929   0.5162382  82.6208693
  60.2851971  -0.3875288  82.8188903  60.7001844   0.5179533  81.6788171
  66.2748702   6.9845335  79.0859372  65.7022669   7.6035522  78.6329843
  66.8481495   7.5344697  79.6199294  69.4945962   7.2682485  80.2167954
  70.4276635   7.2028047  80.4200829  69.4069174   8.1038752  79.7582487
  72.1233978   6.5848356  77.1771901  72.0447610   6.2508219  78.0707659
  72.9443645   7.0770123  77.1763374  66.5434193   2.3723894  97.8876081
  67.4637202   2.5502493  98.0816128  66.5083776   1.4279939  97.7355780
  55.7616358  -2.4337512  86.8129356  55.4419142  -3.2872204  86.5203730
  55.2149786  -2.2188934  87.5687323  59.5396265   0.2824929  90.5298862
  59.7582275   1.2142036  90.5486896  59.9522039  -0.0767097  91.3153666
  55.6304618   1.1865399  88.7822477  54.9368089   0.7719352  88.2692432
  56.3777609   1.2285936  88.1855896  64.2755401  -0.7144727  98.7366673
  63.7922482   0.0855633  98.9430562  64.3616340  -0.7036782  97.7834117
  57.5441360   1.1183653  86.6588492  57.5212048   1.2171340  85.7070375
  57.8541997   1.9648804  86.9805658  60.2028738   3.1759808  90.7735107
  61.1571992   3.1443750  90.7065038  60.0041262   2.7150432  91.5885332
  60.7928120   1.7460924  93.3405904  61.6121009   2.2405003  93.3640742
  61.0664928   0.8292892  93.3123472  58.5578967   8.7179427  87.7905304
  58.4233435   7.9579828  87.2243302  58.1411029   9.4420327  87.3234093
  69.6937930   3.9016351  76.7981880  70.3973780   4.1066353  77.4139535
  68.9700579   4.4693113  77.0630963  61.7148093   9.6148744  88.0023747
  61.5980477  10.5594177  87.9002437  60.8940539   9.3122306  88.3909546
  71.6024627   4.3398880  78.8480340  72.4370231   3.9080079  78.6657815
  71.4408970   4.1680894  79.7757234  71.2570520   0.8430993  80.2136679
  71.2019323   0.6775265  79.2725123  70.6316575   1.5507026  80.3698869
  56.0463035  -3.9200942  94.0398101  56.6921898  -4.4301988  94.5285326
  55.8380186  -3.1832261  94.6141527  68.5716427   3.1479905  99.5390242
  69.4407586   3.3220558  99.1776877  68.0923178   3.9674322  99.4165971
  62.7402607  10.2677006  91.2179676  63.6429854  10.3000617  91.5346170
  62.5139977   9.3377457  91.2326011  64.4956209   9.0207993  87.8789754
  63.5451840   9.0209854  87.7654126  64.7988695   8.2740727  87.3625789
  80.2308902  14.8568531  88.9435517  80.8687312  14.7375279  88.2398857
  80.1129745  15.8049375  89.0023469  77.0398609  14.8095959  88.8797041
  76.7017120  14.6937024  87.9917576  77.9088377  14.4087124  88.8598047
  72.8985424  16.6631436  84.8693932  72.3350290  16.5721373  84.1010220
  72.7837820  15.8431340  85.3496425  77.5218392  15.9630811  94.8383247
  77.5107033  15.5683609  93.9663750  77.6839031  15.2296884  95.4317018
  70.4449856  18.1582627  87.7078153  71.2371148  17.8173452  87.2924452
  70.6846507  18.2677602  88.6280306  78.4784983  20.3302403  80.1808397
  77.8272963  20.9156484  79.7942411  79.2729346  20.8608598  80.2403435
  72.4040610  17.4191541  80.5795531  73.1771486  16.8720528  80.4408407
  72.7566009  18.2835790  80.7909993  74.2425653  18.7467923  93.7862431
  73.9515519  19.6513554  93.6709097  74.8782637  18.7884450  94.5006500
  75.1681860  16.1244771  90.3763790  75.7645432  15.9000794  89.6620753
  75.2256831  15.3829517  90.9789238  74.7406888  13.5784207  78.2113981
  74.9932409  13.0565728  77.4497444  73.8031447  13.4150352  78.3140665
  79.7850171  12.5819985  86.0188725  80.5713260  12.1639408  85.6679142
  80.0488875  13.4866077  86.1870373  79.9560248  18.0192835  80.7177381
  79.3206081  18.0927462  81.4298286  79.6257655  18.6086434  80.0396461
  85.1858598  12.5195218  86.9221703  85.9183770  11.9494435  87.1559533
  84.4297954  12.1316819  87.3628209  74.4603177  15.4812313  80.4138356
  74.3439435  14.8057216  81.0819441  74.5705437  14.9944687  79.5970509
  76.8034718  14.9422460  84.1185046  76.4392925  14.4153081  84.8297967
  77.6601834  14.5520929  83.9451531  82.7084018   6.2316792  91.3816312
  82.3767343   7.1012203  91.1577527  82.1129632   5.9153076  92.0610342
  76.4440205   9.9712359  79.1146394  76.6114607  10.8392596  79.4816865
  76.2537374  10.1339641  78.1907683  79.2015538  18.4329338  90.7812224
  78.9016261  19.3354377  90.6728032  78.8566598  18.1661522  91.6333377
  72.6528019  14.8843135  86.8148929  71.7278516  14.7519349  87.0226621
  72.9012433  15.6637354  87.3118871  82.6012682  10.9511879  88.4609662
  81.6929559  10.8827287  88.1668423  82.5500278  11.4283824  89.2891487
  76.4229426  12.4270017  80.0993061  76.3029051  12.8727068  80.9378541
  75.7282014  12.7755335  79.5406599  70.0136831  14.5276409  87.6492718
  70.1429212  14.7810888  88.5632130  69.3334282  15.1204117  87.3297373
  74.1836318  25.1973659  83.7483192  74.1060347  26.1481484  83.8271673
  73.5797961  24.8519531  84.4058118  76.6753548  12.3701524  96.4044559
  75.8986882  12.9295444  96.3947424  77.3144111  12.8558307  96.9259429
  84.4674328   9.1528317  90.2387536  83.8248708   9.4460850  89.5927330
  83.9629257   9.0381237  91.0440732  82.1214492  12.8991490  80.9273395
  83.0332348  13.1318877  80.7521092  81.6124139  13.4828534  80.3648474
  74.9299920  15.1786978  95.9662526  75.6714604  15.7172021  95.6897350
  74.2236905  15.8053266  96.1234078  80.4055260  17.3216118  94.5634688
  80.8138616  16.8798529  93.8189320  79.6832521  16.7468746  94.8168880
  76.7586330  12.2588725  91.9368244  77.6047525  12.6828138  92.0802893
  76.6984967  11.6022349  92.6306808  80.7284074  17.8817309  88.3186976
  80.0992937  18.0463023  87.6163044  80.3409736  18.2958918  89.0897940
  84.6073306  18.8171746  85.6731340  83.9224344  19.1970648  85.1228373
  84.6917155  19.4267073  86.4063288  79.9085775   9.9193093  93.5949418
  79.6646707  10.6735154  93.0583694  80.1845705  10.2978441  94.4296665
  81.8624238  16.4631705  92.2726684  82.0741133  17.1063465  91.5961065
  81.8153986  15.6294022  91.8048614  79.4650467   9.0749526  89.1763256
  78.6034946   9.3730780  89.4679993  79.4912901   9.2919925  88.2444288
  76.2812036  17.6191717  85.5837061  76.7450382  17.8979420  84.7941684
  76.0168834  16.7175161  85.4010152  73.1736117  17.1663198  88.5216825
  73.7437474  17.5950467  87.8834309  73.7644229  16.8845783  89.2201010
  75.2180922  13.7414869  82.3926627  75.9204965  14.1935913  82.8600553
  74.8861551  13.0998688  83.0206520  73.6661284  12.3326626  96.7677836
  73.0359944  13.0142907  97.0013233  73.5597372  12.2209707  95.8230974
  68.9606256  11.9998422  87.6943760  68.1705310  12.2555950  87.2183871
  69.4517503  12.8146760  87.7995801  82.9770066  19.3403661  90.4449041
  83.7987509  18.9383848  90.1631723  82.9732468  19.2371895  91.3965157
  70.9121001  12.3643001  84.6527237  70.1152165  12.4761695  85.1710733
  70.6846594  12.7029653  83.7868127  76.7426669  18.8887704  92.6009752
  76.8071102  19.3508111  93.4367923  76.0337593  18.2585069  92.7292061
  67.2443959  12.2528912  90.1258751  67.4951997  13.1375922  90.3916327
  67.7803507  12.0733514  89.3533843  91.0676059  15.6842409  86.7934012
  90.3139767  15.1149807  86.6378017  91.2023600  15.6505074  87.7404647
  76.4574687  20.5555812  82.4688732  76.3220361  21.4007347  82.8973580
  76.9984499  20.7575089  81.7054666  72.9442026   6.6347392  99.1303087
  72.5508972   6.0813590  99.8050731  73.7608167   6.9457970  99.5209605
  69.9104084  18.0731250  83.0416657  70.4228605  18.8674500  83.1922222
  70.5626797  17.3757540  82.9750258  71.7198969  21.1897006  85.1239410
  71.8965597  22.1114971  84.9360394  72.5155802  20.8755425  85.5533790
  75.8609987   8.0505271  96.7223344  76.6019701   8.6512424  96.6427806
  76.0927910   7.3082908  96.1641386  71.0051325  13.2361638  95.0001573
  70.8904840  12.3346895  95.3008672  70.1495843  13.4825335  94.6486390
  78.0843163  21.1779378  96.5989074  77.6407017  20.3915757  96.2809978
  78.7460377  21.3658529  95.9332965  72.8430284  22.7075180  91.1249752
  73.3937709  22.5792243  90.3526746  72.0041760  23.0070069  90.7744645
  80.1824401  21.4582178  94.6270475  80.1642877  22.2791059  94.1350744
  81.1044321  21.3336253  94.8520616  76.6397455  18.9726308  95.4693984
  77.1725792  18.2114596  95.2393292  76.1111536  18.6799959  96.2118138
  79.8067150   4.0786374  90.9987625  79.4631420   4.9688015  90.9226736
  80.1746113   3.8888031  90.1357210  67.8753001  16.4019904  83.8176227
  68.7128223  16.8116912  83.6009935  68.0531269  15.4619346  83.7876421
  79.7717433  14.0694985  79.5060060  79.2564056  14.8399589  79.7448448
  79.4994741  13.3960121  80.1293122  77.3564544   8.9144685  84.5645299
  76.5006140   8.5251536  84.3850938  77.7691496   8.9936646  83.7045084
  78.8863691   6.4491029  88.9636859  78.3828486   6.4121164  88.1504664
  79.1794298   7.3583771  89.0233515  75.1306577   6.5329758  87.9703040
  75.9959573   6.3372567  87.6108930  75.1984085   6.3040110  88.8972397
  84.7451707  16.8227339  81.4413234  83.9681150  16.4838499  80.9968396
  85.4243188  16.8279962  80.7668199  79.5603736  11.9422077  81.3319842
  79.2553872  12.2568226  82.1829985  80.5134178  12.0203497  81.3747175
  78.0050168  18.1012300  82.9812796  77.4771530  17.3665060  82.6686033
  77.5037671  18.8786976  82.7352764  82.9843014  16.2961321  88.0979842
  82.3266688  16.9860582  88.1859971  83.7883413  16.6857753  88.4413828
  72.7368896   8.7631966  85.3419407  73.3112648   8.5407148  84.6092600
  73.3239878   8.8320661  86.0948008  81.7948473  14.6505693  86.1483784
  82.3080355  15.2835685  86.6505493  82.4449697  14.0506889  85.7827144
  73.0638483  10.7936427  79.3615292  72.2275795  11.1311114  79.6824567
  72.9243252  10.6585407  78.4242429  75.0391563   5.6373215  84.0694477
  74.3855976   5.3222232  83.4451091  74.9972037   5.0148956  84.7954299
  76.1502768  15.9192510  75.9847769  75.2429830  15.6881764  76.1838918
  76.6473800  15.1230130  76.1721750  79.0570847  24.6290018  78.9044455
  78.3832546  24.9321714  79.5129413  79.4436669  25.4319098  78.5549912
  78.2729304  12.1255149  88.3942124  77.3551865  12.3470096  88.2363812
  78.6889447  12.2001459  87.5353831  79.0564351  13.5246565  83.5244804
  79.8036170  14.0367962  83.2151926  79.3255941  13.2030617  84.3849198
  77.3291002  16.0205105  80.5071759  76.4202221  15.7364138  80.6044228
  77.3586085  16.4404184  79.6475066  82.5610269  19.6311695  84.2762926
  82.1072596  18.7902605  84.3328117  81.9304236  20.2673093  84.6137706
  81.5043189  10.5603681  85.5063594  80.7665945  10.0481067  85.8373836
  81.7569962  10.1204062  84.6946871  81.0043208  21.4688191  85.2112744
  81.2966183  22.0293249  84.4925110  81.5141829  21.7616752  85.9665904
  67.8979172  13.7410619  84.4886961  67.7003572  13.1479980  83.7638027
  67.3425836  13.4362830  85.2062900  75.8775896  13.6333726  86.6081554
  75.9324505  12.6807562  86.5324031  75.0667098  13.7893165  87.0922852
  77.0267089  17.5613849  77.8459837  76.5886519  16.8449708  77.3865475
  77.7677530  17.7889964  77.2844929  73.8168256  12.2510786  84.3671933
  73.0036121  12.5504956  84.7737125  74.3127250  11.8566474  85.0846415
  75.9676833  22.2468543  86.3006198  75.9253012  22.4729389  85.3714730
  76.8839532  22.0131917  86.4491999  79.4142467  12.7152610  93.1986827
  79.7691855  12.9424083  94.0581293  80.0614599  13.0470987  92.5764082
  85.1440204  15.8371046  83.9036156  85.0058103  16.0272642  82.9757345
  84.7876423  16.5990429  84.3604207  73.3082330   9.8229141  89.9833168
  73.9481710   9.6817900  89.2856131  72.4759861   9.5363654  89.6071770
  85.1709584  17.9047573  88.9147427  85.6046090  17.8122862  89.7630481
  85.8841165  17.8805073  88.2767443  74.0842634  19.1231572  86.0968160
  74.8783233  18.6281892  85.8950735  73.3734327  18.5949435  85.7335866
  78.9037479  21.5049667  90.4480528  78.9574501  22.0740603  91.2158244
  78.0352260  21.6751552  90.0834565  70.3925398  13.2674653  82.1727913
  69.4622986  13.2059109  82.3897875  70.4882870  12.7450606  81.3764554
  70.3110947   9.7929466  84.7606155  70.5717764  10.7074799  84.6515315
  71.1328119   9.3253909  84.9102767  71.7835872  11.2067223  91.9304979
  72.4558926  10.9984585  91.2817628  70.9565659  11.0089309  91.4910212
  86.0325133  17.9471274  91.4480313  86.2261023  18.8517084  91.6939588
  85.9325752  17.4878693  92.2818898  77.6861444   7.8329164  93.9470640
  77.0389359   8.5319114  93.8535116  78.4562460   8.2665308  94.3146888
  81.0940242  18.0978016  97.0221193  80.9425748  17.8688568  96.1051277
  81.0844922  19.0548618  97.0352538  77.8625578  15.6709929  92.0067460
  78.7917638  15.8221089  91.8336427  77.4416608  15.7593950  91.1516106
  76.6613910  19.6960594  89.7765997  76.5224996  19.3279378  90.6491936
  75.8728506  20.2108233  89.6049955  77.2562062  24.7969690  81.1191534
  77.4313818  24.3257733  81.9337157  76.5694850  25.4235456  81.3472795
  78.2119125  19.0742196  87.1654835  77.8768958  19.0342966  88.0612485
  77.7123071  18.4086912  86.6925245  72.1863369  14.4809826  92.6907416
  72.0483167  13.7490065  93.2918955  73.0968293  14.3918726  92.4091604
  81.1478317  16.4198231  77.4391895  80.5307488  15.6945059  77.3424948
  80.6794806  17.1807591  77.0958969  74.8145670  14.1929786  92.1791096
  75.5245289  13.5522978  92.1377714  74.7714978  14.4442680  93.1017277
  82.8032449  21.1297139  95.0997675  82.7444995  20.4456359  94.4328258
  83.2051967  21.8716129  94.6478301  73.5274604  11.1795003  93.9986735
  72.9911961  10.7285742  94.6508332  72.9391312  11.3140912  93.2557200
  71.8223148  27.9459053  87.8931394  72.0619746  28.5777577  88.5710413
  70.9792344  27.5947093  88.1796753  72.9376863  10.6383655  76.5613199
  72.0606329  10.5172456  76.1975446  73.4134616   9.8469733  76.3092088
  82.8049856  19.0936723  93.3311655  81.9176635  18.7562645  93.4538054
  83.3748407  18.3619754  93.5680420  64.4579003  15.4260815  86.6554706
  65.1450043  15.1122545  86.0675722  64.3027132  16.3302179  86.3821958
  69.2613725  10.3151011  91.0839730  69.1771914   9.7076681  90.3490140
  68.4396432  10.8060029  91.0849226  76.3351009  23.7538175  90.2972898
  76.2621181  24.5593147  90.8092203  75.8928402  23.9530141  89.4720919
  76.1240789  22.9909945  83.8075720  75.3408311  23.5331625  83.9013944
  76.8233534  23.5083925  84.2069961  79.4337439   8.8004575  86.4509925
  79.9306139   8.0474537  86.1310995  78.6624421   8.8368891  85.8853134
  87.2867197  14.5044940  88.0928217  87.2757073  15.3869656  87.7222150
  86.4184576  14.1516491  87.8982754  78.7949693  23.6525009  92.4531057
  79.5077665  24.2872474  92.3806958  78.3039722  23.7488875  91.6371059
  80.5167220  17.5576262  84.0248348  79.5823499  17.6777724  83.8553053
  80.6943888  16.6548729  83.7608358  76.0172408  10.9421958  86.1781610
  75.6470195  10.3892998  86.8662515  76.5131500  10.3380091  85.6256610
  83.9039771  13.3993581  84.5598383  84.3700223  14.2321573  84.4858685
  84.3547272  12.9338563  85.2643641  73.8461606  21.4019453  93.2736628
  74.5471066  22.0355936  93.4266022  73.3756721  21.7434184  92.5132267
  81.9716002  19.7437402  81.5584535  82.2475846  19.6293997  82.4678409
  81.1020501  19.3454887  81.5196708  81.8756434   5.7674168  88.5989284
  80.9619514   5.9978395  88.7671491  82.3049535   5.8512612  89.4503316
  81.6462892  13.9564060  91.0989178  80.9934343  14.2039968  90.4441631
  82.0243272  13.1428198  90.7651655  78.6070066  23.9923753  85.2017348
  78.7892461  23.1745409  85.6645101  79.4303052  24.2091446  84.7642238
  78.9412232  22.9191938  82.4632397  79.4699998  22.4084393  81.8502559
  79.2040451  22.6034469  83.3277930  77.6950465  14.6983871  97.5855215
  77.0191102  14.5978001  98.2557590  78.5178099  14.5423085  98.0491212
  69.4429324  20.9355808  90.2067730  70.0282761  20.1899496  90.3395634
  69.2454163  21.2459764  91.0904394  72.2967980  23.9707055  85.2230173
  71.6278355  24.4553183  84.7394213  72.1580849  24.2176276  86.1373551
  64.0346979  13.5061408  88.9272173  64.0731079  12.9724999  89.7209292
  63.5287272  12.9796613  88.3083151  76.4373248  26.0050799  91.8212831
  76.9891556  26.1682420  92.5861916  76.7779442  26.5955236  91.1492856
  71.4137742   8.3525948  92.4234716  71.4779068   9.2140779  92.0112113
  71.3504862   7.7399950  91.6907074  70.8890014  10.4249081  96.0707750
  71.5162053  10.0426158  96.6845274  70.0317933  10.2063283  96.4363442
  81.2884123  20.8312056  97.6761485  81.8324027  21.4442014  97.1816440
  80.7070967  21.3891635  98.1928498  67.6655557  12.2325510  82.0026105
  67.9608998  11.3236189  81.9493159  66.7643593  12.2113250  81.6807107
  79.5741636  23.9532774  88.8076513  79.4492775  23.1522514  88.2987459
  80.2320727  24.4478968  88.3190483  71.1949804  10.3081507  87.9853653
  70.4736390  10.9217474  87.8461127  71.9843060  10.8439271  87.9070299
  81.6376544  21.7541794  90.4356063  80.6906879  21.6347145  90.3634390
  81.9859317  20.8664292  90.5182325  73.9976117   7.6435933  94.2594305
  74.5210519   7.8898230  95.0220614  73.7788451   8.4755968  93.8397442
  69.3943398   9.9139608  82.1265430  69.0656105   9.0336987  81.9440536
  69.7482769   9.8587276  83.0141819  78.6422977  21.5494510  86.6360415
  78.4947940  20.6211218  86.8167986  79.4676471  21.5714601  86.1517491
  72.5085222  10.2012578  82.4940908  72.8481294  10.7298499  81.7719516
  72.9557342  10.5392984  83.2699474  82.2457099  22.3723069  87.7225288
  83.1703647  22.1665931  87.5849739  82.0772402  22.1239470  88.6314630
  75.2028662   8.5849628  91.9443976  74.8625483   7.7857441  92.3464656
  74.4967669   8.8851339  91.3720809  75.8545134   5.6698941  90.3971299
  76.6771204   5.1959419  90.2750189  76.0983198   6.4489424  90.8969985
  74.4953369   8.6987199  80.6934200  75.2161731   9.0768452  80.1897917
  73.8718673   9.4176076  80.7969178  78.6384492   9.4032348  81.6292533
  78.8548106  10.2856986  81.3281361  78.1578559   9.0118562  80.8998175
  73.3783713  12.3618061  88.2063277  73.2328294  12.6758364  89.0987559
  72.9008917  12.9802962  87.6534176  75.2380096   9.3520609  88.2544167
  75.2241665   8.4561703  87.9176465  75.9552524   9.3591273  88.8882453
  77.0906227   9.7857950  90.2997294  76.8324004  10.7075020  90.2981625
  76.5591267   9.3888384  90.9897758  82.0352415  22.8908737  83.0787380
  82.2089293  22.3255159  82.3261232  82.5281307  23.6909632  82.8966870
  67.8529375  14.9023406  91.1450939  67.3082843  15.6783214  91.2771213
  68.7308725  15.2494210  90.9870060  74.6416992   8.2334990  83.5231737
  74.7632903   7.3051636  83.7222625  74.3519034   8.2473676  82.6110052
  77.5108182   5.9189900  86.6598457  77.5329879   5.9829233  85.7050436
  77.9276241   5.0794409  86.8538963  87.8891806  15.6545160  84.6977679
  88.3322953  14.9052485  84.2996803  87.0118317  15.6455296  84.3151411
  83.0227588  22.2075501  80.1784278  83.7178492  22.8282194  80.3971593
  83.3650738  21.3570852  80.4536656  68.6395397  14.0293302  94.0381095
  67.8977133  14.1775937  94.6245726  68.3188141  14.2901568  93.1747845
  84.9219011  19.6575207  81.7071609  85.4470335  19.9962479  80.9820929
  84.8341363  18.7222222  81.5234743  76.5839060  23.5709280  93.8361485
  76.8926186  23.3258427  94.7084185  77.3814542  23.7755919  93.3480356
  76.6059672  25.7247190  86.0666862  76.1664662  25.2323569  86.7599719
  77.3567789  25.1820158  85.8258937  69.0852011  21.9158731  86.0691490
  69.9110031  21.6162503  85.6890134  68.7346063  21.1466353  86.5181279
  74.0533544  21.2685199  88.1389164  73.4313553  20.6055904  87.8391391
  74.7238411  21.2946331  87.4562811  67.2860616  19.8345057  87.0280424
  66.4492524  19.4067232  86.8464425  67.2584261  20.0277501  87.9651215
  74.1258071   9.7466987  97.7321670  74.1746227  10.6229110  97.3499439
  74.6680586   9.2044380  97.1593313  84.6112917  20.2908110  97.0122807
  83.8208461  20.2732249  96.4727306  84.3746272  20.8296404  97.7671843
  84.7310792  17.1400577  94.3255535  84.7808797  16.9750584  95.2671058
  84.6224715  16.2727836  93.9353416  73.6147051  19.8189122  81.6147624
  73.7635171  20.5024587  80.9614297  74.4213494  19.7994212  82.1297080
  82.0214554  13.1231505  95.6414842  82.9224417  12.9837969  95.3498840
  82.0962529  13.2885959  96.5813019  76.3557360  10.4998359  94.4868028
  75.4860669  10.7931925  94.2150617  76.5916840  11.0838804  95.2075292
  86.2328989  19.5597518  94.5697557  85.9413797  19.9227499  95.4061018
  85.6201120  18.8464526  94.3910889  87.4324671  17.1250398  87.0900127
  88.2671563  17.5640202  87.2537687  87.5683800  16.6489051  86.2708373
  84.4816177  14.6830133  93.0377615  84.9570299  14.8757779  92.2296466
  83.5581742  14.7389319  92.7920998  71.3699684  15.8454300  82.6208693
  71.1245726  14.9416630  82.8188903  71.5395598  15.8471450  81.6788171
  79.0596394   6.7177976  92.0033449  79.5778337   7.4539003  91.6779937
  78.7051526   7.0241970  92.8380208  70.6395331  11.5782658  80.1194855
  69.9464576  11.6527012  79.4634890  70.3947083  10.8143001  80.6416371
  77.1142456  22.3137253  79.0859372  76.5416423  22.9327440  78.6329843
  77.6875250  22.8636614  79.6199294  83.1817846  11.5595893  91.2705920
  84.1335269  11.6593990  91.2918144  83.0121297  10.7674161  91.7804005
  81.2032226   8.6451476  91.4565321  80.6082158   8.9256489  90.7611810
  80.9181922   9.1345377  92.2282062  80.3339716  22.5974403  80.2167954
  81.2670389  22.5319965  80.4200829  80.2462929  23.4330670  79.7582487
  82.9627733  21.9140273  77.1771901  82.8841364  21.5800137  78.0707659
  83.7837400  22.4062041  77.1763374  85.6605924  14.7802013  90.3848220
  85.6282244  13.8418013  90.5707904  86.2706548  14.8586049  89.6514045
  77.4989255  13.6498065  76.4275424  78.4448359  13.5204274  76.4963842
  77.1203500  12.9112727  76.9044852  85.8100412  11.5713056  90.4306503
  85.2939461  10.7871513  90.2436432  86.6940361  11.2431773  90.5953023
  83.4711139   5.3154072  86.3902316  83.2735960   5.0069160  87.2745648
  84.0810845   6.0415710  86.5200246  91.4782474  15.8418019  89.5254257
  92.2085862  15.5803307  90.0861960  90.8689419  15.1046741  89.5656325
  89.5597771  13.9825882  90.1228708  88.8330934  13.8481847  89.5145200
  89.1445058  14.2902711  90.9285426  77.3827947  17.7015812  97.8876081
  78.3030957  17.8794411  98.0816128  77.3477530  16.7571857  97.7355780
  75.6832172  11.5748042  76.3630309  74.7763627  11.2781155  76.4393023
  75.9608153  11.2777860  75.4964596  66.6010112  12.8954405  86.8129356
  66.2812897  12.0419713  86.5203730  66.0543540  13.1102983  87.5687323
  70.3790020  15.6116846  90.5298862  70.5976030  16.5433954  90.5486896
  70.7915794  15.2524821  91.3153666  77.2994238   6.1184932  82.5174551
  76.4894966   5.7732017  82.8929797  77.9878655   5.8092475  83.1062162
  79.2284786   5.1962978  84.1398847  79.7815825   5.6158432  84.7988870
  79.4654872   4.2698727  84.1821803  75.2517885  11.1850052  99.9201611
  75.1514612  12.1344409  99.8513702  75.0339427  10.8568291  99.0477681
  74.4530957   8.4334977  76.5042288  75.3150121   8.7589875  76.7638106
  74.6381301   7.6466473  75.9915354  66.4698372  16.5157317  88.7822477
  65.7761844  16.1011270  88.2692432  67.2171363  16.5577853  88.1855896
  82.6063593   7.3063504  83.6477511  82.0262262   7.9648308  83.2655564
  82.3399526   6.4840848  83.2364929  81.0567159   6.7068561  85.8498832
  81.5566938   6.8185096  85.0413151  81.7002767   6.4029614  86.4899640
  75.1149155  14.6147191  98.7366673  74.6316237  15.4147551  98.9430562
  75.2010094  14.6255136  97.7834117  68.3835115  16.4475571  86.6588492
  68.3605803  16.5463258  85.7070375  68.6935751  17.2940721  86.9805658
  71.0422493  18.5051726  90.7735107  71.9965746  18.4735668  90.7065038
  70.8435016  18.0442349  91.5885332  71.6321875  17.0752842  93.3405904
  72.4514764  17.5696920  93.3640742  71.9058683  16.1584810  93.3123472
  81.3888471   9.4663594  82.7033860  80.5014326   9.7513245  82.4854055
  81.8042460   9.3057357  81.8561137  84.7403007   9.4910115  86.4188199
  85.5163397   9.9806567  86.6912816  84.0151141   9.9168169  86.8760068
  87.1775566  10.2037734  87.4762140  87.7720057   9.9633470  86.7655448
  87.2502149   9.4844865  88.1035676  69.3972721  24.0471345  87.7905304
  69.2627189  23.2871746  87.2243302  68.9804784  24.7712245  87.3234093
  80.5331684  19.2308269  76.7981880  81.2367535  19.4358271  77.4139535
  79.8094333  19.7985031  77.0630963  81.3629495  14.9818130  82.9184150
  81.3064696  15.4386681  82.0791782  81.9157837  14.2208814  82.7406993
  85.1734301  10.7707862  83.7434269  84.9171235  10.3704497  84.5742477
  84.5487169  11.4851656  83.6184409  89.4846639  13.5103935  86.2505561
  88.9246197  13.5797124  87.0237123  88.8790142  13.3344920  85.5305057
  72.5541847  24.9440662  88.0023747  72.4374232  25.8886095  87.9002437
  71.7334294  24.6414224  88.3909546  82.4418382  19.6690798  78.8480340
  83.2763986  19.2371996  78.6657815  82.2802725  19.4972811  79.7757234
  82.0964274  16.1722911  80.2136679  82.0413078  16.0067183  79.2725123
  81.4710329  16.8798944  80.3698869  66.8856789  11.4090975  94.0398101
  67.5315653  10.8989929  94.5285326  66.6773940  12.1459657  94.6141527
  79.4110181  18.4771823  99.5390242  80.2801341  18.6512475  99.1776877
  78.9316933  19.2966240  99.4165971  75.4060400   5.6731020  79.7921997
  75.3939069   6.6172860  79.9490268  76.2983821   5.4901166  79.4981459
  73.5796361  25.5968924  91.2179676  74.4823608  25.6292534  91.5346170
  73.3533732  24.6669375  91.2326011  75.3349964  24.3499911  87.8789754
  74.3845595  24.3501772  87.7654126  75.6382450  23.6032645  87.3625789
  71.2254280   8.5558593  98.1373116  72.0885742   8.1995397  98.3476440
  70.6519691   8.2172487  98.8248520  91.0702657  30.1860449  88.9435517
  91.7081067  30.0667196  88.2398857  90.9523500  31.1341293  89.0023469
  87.8792363  30.1387877  88.8797041  87.5410875  30.0228942  87.9917576
  88.7482131  29.7379042  88.8598047  83.7379179  31.9923353  84.8693932
  83.1744044  31.9013290  84.1010220  83.6231574  31.1723258  85.3496425
  88.3612146  31.2922729  94.8383247  88.3500787  30.8975527  93.9663750
  88.5232786  30.5588801  95.4317018  81.2843611  33.4874545  87.7078153
  82.0764903  33.1465370  87.2924452  81.5240261  33.5969520  88.6280306
  89.3178738  35.6594321  80.1808397  88.6666717  36.2448402  79.7942411
  90.1123100  36.1900516  80.2403435  83.2434365  32.7483458  80.5795531
  84.0165241  32.2012445  80.4408407  83.5959764  33.6127708  80.7909993
  85.0819407  34.0759841  93.7862431  84.7909273  34.9805471  93.6709097
  85.7176392  34.1176368  94.5006500  86.0075614  31.4536689  90.3763790
  86.6039187  31.2292711  89.6620753  86.0650586  30.7121435  90.9789238
  85.5800643  28.9076124  78.2113981  85.8326163  28.3857646  77.4497444
  84.6425202  28.7442270  78.3140665  90.6243925  27.9111903  86.0188725
  91.4107015  27.4931326  85.6679142  90.8882630  28.8157995  86.1870373
  90.7954003  33.3484753  80.7177381  90.1599836  33.4219380  81.4298286
  90.4651409  33.9378352  80.0396461  96.0252353  27.8487136  86.9221703
  96.7577525  27.2786353  87.1559533  95.2691708  27.4608736  87.3628209
  85.2996931  30.8104230  80.4138356  85.1833189  30.1349134  81.0819441
  85.4099191  30.3236604  79.5970509  87.6428472  30.2714377  84.1185046
  87.2786680  29.7444998  84.8297967  88.4995588  29.8812847  83.9451531
  93.5477773  21.5608710  91.3816312  93.2161098  22.4304121  91.1577527
  92.9523386  21.2444994  92.0610342  87.2833959  25.3004277  79.1146394
  87.4508362  26.1684514  79.4816865  87.0931128  25.4631559  78.1907683
  90.0409292  33.7621256  90.7812224  89.7410016  34.6646295  90.6728032
  89.6960352  33.4953439  91.6333377  83.4921774  30.2135053  86.8148929
  82.5672270  30.0811267  87.0226621  83.7406187  30.9929272  87.3118871
  93.4406436  26.2803796  88.4609662  92.5323314  26.2119205  88.1668423
  93.3894032  26.7575741  89.2891487  87.2623180  27.7561935  80.0993061
  87.1422805  28.2018985  80.9378541  86.5675769  28.1047252  79.5406599
  80.8530585  29.8568326  87.6492718  80.9822966  30.1102805  88.5632130
  80.1728036  30.4496034  87.3297373  85.0230072  40.5265576  83.7483192
  84.9454102  41.4773402  83.8271673  84.4191716  40.1811449  84.4058118
  87.5147302  27.6993442  96.4044559  86.7380636  28.2587362  96.3947424
  88.1537865  28.1850225  96.9259429  95.3068083  24.4820235  90.2387536
  94.6642463  24.7752768  89.5927330  94.8023011  24.3673155  91.0440732
  92.9608246  28.2283408  80.9273395  93.8726102  28.4610795  80.7521092
  92.4517893  28.8120452  80.3648474  85.7693674  30.5078895  95.9662526
  86.5108359  31.0463939  95.6897350  85.0630660  31.1345184  96.1234078
  91.2449014  32.6508036  94.5634688  91.6532370  32.2090446  93.8189320
  90.5226276  32.0760663  94.8168880  87.5980084  27.5880642  91.9368244
  88.4441279  28.0120056  92.0802893  87.5378722  26.9314267  92.6306808
  91.5677829  33.2109226  88.3186976  90.9386691  33.3754940  87.6163044
  91.1803491  33.6250836  89.0897940  95.4467061  34.1463664  85.6731340
  94.7618099  34.5262566  85.1228373  95.5310910  34.7558991  86.4063288
  90.7479529  25.2485011  93.5949418  90.5040461  26.0027071  93.0583694
  91.0239460  25.6270358  94.4296665  92.7017992  31.7923623  92.2726684
  92.9134887  32.4355383  91.5961065  92.6547740  30.9585940  91.8048614
  90.3044221  24.4041444  89.1763256  89.4428700  24.7022697  89.4679993
  90.3306656  24.6211843  88.2444288  87.1205791  32.9483634  85.5837061
  87.5844136  33.2271337  84.7941684  86.8562589  32.0467079  85.4010152
  84.0129872  32.4955116  88.5216825  84.5831229  32.9242384  87.8834309
  84.6037983  32.2137701  89.2201010  86.0574677  29.0706787  82.3926627
  86.7598720  29.5227830  82.8600553  85.7255305  28.4290606  83.0206520
  84.5055038  27.6618543  96.7677836  83.8753699  28.3434824  97.0013233
  84.3991126  27.5501625  95.8230974  79.8000011  27.3290339  87.6943760
  79.0099065  27.5847868  87.2183871  80.2911258  28.1438677  87.7995801
  93.8163820  34.6695579  90.4449041  94.6381264  34.2675766  90.1631723
  93.8126223  34.5663813  91.3965157  81.7514756  27.6934919  84.6527237
  80.9545919  27.8053613  85.1710733  81.5240348  28.0321571  83.7868127
  87.5820424  34.2179622  92.6009752  87.6464856  34.6800029  93.4367923
  86.8731347  33.5876987  92.7292061  78.0837714  27.5820830  90.1258751
  78.3345752  28.4667840  90.3916327  78.6197262  27.4025431  89.3533843
 101.9069813  31.0134327  86.7934012 101.1533522  30.4441725  86.6378017
 102.0417354  30.9796992  87.7404647  87.2968441  35.8847729  82.4688732
  87.1614116  36.7299265  82.8973580  87.8378254  36.0867007  81.7054666
  83.7835781  21.9639309  99.1303087  83.3902726  21.4105508  99.8050731
  84.6001921  22.2749888  99.5209605  80.7497839  33.4023167  83.0416657
  81.2622359  34.1966418  83.1922222  81.4020551  32.7049458  82.9750258
  82.5592723  36.5188924  85.1239410  82.7359352  37.4406888  84.9360394
  83.3549557  36.2047343  85.5533790  86.7003742  23.3797188  96.7223344
  87.4413455  23.9804341  96.6427806  86.9321665  22.6374826  96.1641386
  81.8445080  28.5653556  95.0001573  81.7298595  27.6638813  95.3008672
  80.9889598  28.8117252  94.6486390  88.9236918  36.5071296  96.5989074
  88.4800772  35.7207674  96.2809978  89.5854131  36.6950446  95.9332965
  83.6824039  38.0367097  91.1249752  84.2331464  37.9084161  90.3526746
  82.8435515  38.3361986  90.7744645  91.0218156  36.7874096  94.6270475
  91.0036631  37.6082977  94.1350744  91.9438076  36.6628171  94.8520616
  87.4791210  34.3018225  95.4693984  88.0119547  33.5406513  95.2393292
  86.9505291  34.0091877  96.2118138  90.6460905  19.4078291  90.9987625
  90.3025174  20.2979933  90.9226736  91.0139867  19.2179949  90.1357210
  78.7146755  31.7311822  83.8176227  79.5521977  32.1408830  83.6009935
  78.8925023  30.7911264  83.7876421  90.6111187  29.3986902  79.5060060
  90.0957811  30.1691507  79.7448448  90.3388496  28.7252039  80.1293122
  88.1958299  24.2436603  84.5645299  87.3399895  23.8543454  84.3850938
  88.6085250  24.3228564  83.7045084  89.7257445  21.7782946  88.9636859
  89.2222241  21.7413082  88.1504664  90.0188052  22.6875689  89.0233515
  85.9700331  21.8621676  87.9703040  86.8353328  21.6664485  87.6108930
  86.0377840  21.6332028  88.8972397  95.5845462  32.1519257  81.4413234
  94.8074904  31.8130417  80.9968396  96.2636943  32.1571880  80.7668199
  90.3997491  27.2713994  81.3319842  90.0947626  27.5860144  82.1829985
  91.3527933  27.3495414  81.3747175  88.8443923  33.4304218  82.9812796
  88.3165284  32.6956977  82.6686033  88.3431425  34.2078894  82.7352764
  93.8236769  31.6253238  88.0979842  93.1660443  32.3152500  88.1859971
  94.6277168  32.0149670  88.4413828  83.5762650  24.0923884  85.3419407
  84.1506402  23.8699066  84.6092600  84.1633633  24.1612579  86.0948008
  92.6342227  29.9797611  86.1483784  93.1474109  30.6127603  86.6505493
  93.2843451  29.3798806  85.7827144  83.9032237  26.1228345  79.3615292
  83.0669549  26.4603032  79.6824567  83.7637007  25.9877325  78.4242429
  85.8785318  20.9665133  84.0694477  85.2249730  20.6514150  83.4451091
  85.8365792  20.3440873  84.7954299  86.9896523  31.2484428  75.9847769
  86.0823584  31.0173681  76.1838918  87.4867555  30.4522047  76.1721750
  89.8964602  39.9581935  78.9044455  89.2226300  40.2613632  79.5129413
  90.2830424  40.7611016  78.5549912  89.1123058  27.4547067  88.3942124
  88.1945620  27.6762014  88.2363812  89.5283202  27.5293377  87.5353831
  89.8958106  28.8538482  83.5244804  90.6429925  29.3659879  83.2151926
  90.1649696  28.5322535  84.3849198  88.1684756  31.3497023  80.5071759
  87.2595975  31.0656056  80.6044228  88.1979840  31.7696101  79.6475066
  93.4004024  34.9603612  84.2762926  92.9466351  34.1194522  84.3328117
  92.7697990  35.5965011  84.6137706  92.3436943  25.8895598  85.5063594
  91.6059700  25.3772985  85.8373836  92.5963717  25.4495980  84.6946871
  91.8436963  36.7980109  85.2112744  92.1359937  37.3585166  84.4925110
  92.3535583  37.0908670  85.9665904  92.4448570  18.6671850  86.1005363
  92.7507447  17.8069214  85.8131278  93.1701175  19.2589471  85.9004357
  78.7372927  29.0702537  84.4886961  78.5397326  28.4771898  83.7638027
  78.1819591  28.7654747  85.2062900  86.7169650  28.9625644  86.6081554
  86.7718260  28.0099480  86.5324031  85.9060852  29.1185083  87.0922852
  87.8660844  32.8905767  77.8459837  87.4280274  32.1741626  77.3865475
  88.6071285  33.1181881  77.2844929  84.6562010  27.5802703  84.3671933
  83.8429876  27.8796874  84.7737125  85.1521004  27.1858392  85.0846415
  86.8070588  37.5760460  86.3006198  86.7646767  37.8021306  85.3714730
  87.7233287  37.3423835  86.4491999  90.2536222  28.0444528  93.1986827
  90.6085609  28.2716001  94.0581293  90.9008353  28.3762905  92.5764082
  95.9833959  31.1662964  83.9036156  95.8451857  31.3564560  82.9757345
  95.6270178  31.9282346  84.3604207  84.1476085  25.1521059  89.9833168
  84.7875464  25.0109818  89.2856131  83.3153615  24.8655572  89.6071770
  96.0103338  33.2339491  88.9147427  96.4439845  33.1414780  89.7630481
  96.7234919  33.2096991  88.2767443  84.9236389  34.4523489  86.0968160
  85.7176987  33.9573809  85.8950735  84.2128081  33.9241352  85.7335866
  89.7431233  36.8341585  90.4480528  89.7968256  37.4032521  91.2158244
  88.8746015  37.0043470  90.0834565  81.2319152  28.5966571  82.1727913
  80.3016740  28.5351026  82.3897875  81.3276624  28.0742524  81.3764554
  81.1504701  25.1221384  84.7606155  81.4111519  26.0366717  84.6515315
  81.9721874  24.6545826  84.9102767  82.6229627  26.5359141  91.9304979
  83.2952680  26.3276503  91.2817628  81.7959413  26.3381227  91.4910212
  96.8718888  33.2763191  91.4480313  97.0654778  34.1809002  91.6939588
  96.7719506  32.8170610  92.2818898  88.5255199  23.1621082  93.9470640
  87.8783114  23.8611032  93.8535116  89.2956214  23.5957226  94.3146888
  91.9333997  33.4269934  97.0221193  91.7819503  33.1980486  96.1051277
  91.9238676  34.3840535  97.0352538  88.7019333  31.0001847  92.0067460
  89.6311393  31.1513006  91.8336427  88.2810363  31.0885868  91.1516106
  87.5007665  35.0252511  89.7765997  87.3618750  34.6571296  90.6491936
  86.7122261  35.5400151  89.6049955  88.0955817  40.1261608  81.1191534
  88.2707572  39.6549651  81.9337157  87.4088605  40.7527374  81.3472795
  89.0512880  34.4034114  87.1654835  88.7162713  34.3634884  88.0612485
  88.5516826  33.7378830  86.6925245  83.0257124  29.8101744  92.6907416
  82.8876922  29.0781983  93.2918955  83.9362047  29.7210644  92.4091604
  91.9872072  31.7490148  77.4391895  91.3701242  31.0236976  77.3424948
  91.5188560  32.5099508  77.0958969  85.6539425  29.5221703  92.1791096
  86.3639043  28.8814895  92.1377714  85.6108733  29.7734598  93.1017277
  93.6426203  36.4589057  95.0997675  93.5838749  35.7748277  94.4328258
  94.0445722  37.2008047  94.6478301  84.3668359  26.5086921  93.9986735
  83.8305716  26.0577660  94.6508332  83.7785067  26.6432830  93.2557200
  82.6616902  43.2750970  87.8931394  82.9013500  43.9069495  88.5710413
  81.8186098  42.9239010  88.1796753  83.7770617  25.9675573  76.5613199
  82.9000084  25.8464373  76.1975446  84.2528371  25.1761651  76.3092088
  93.6443610  34.4228641  93.3311655  92.7570389  34.0854562  93.4538054
  94.2142162  33.6911672  93.5680420  75.2972758  30.7552732  86.6554706
  75.9843797  30.4414462  86.0675722  75.1420886  31.6594097  86.3821958
  80.1007480  25.6442929  91.0839730  80.0165668  25.0368598  90.3490140
  79.2790186  26.1351947  91.0849226  87.1744764  39.0830093  90.2972898
  87.1014935  39.8885064  90.8092203  86.7322157  39.2822059  89.4720919
  86.9634543  38.3201863  83.8075720  86.1802065  38.8623543  83.9013944
  87.6627289  38.8375843  84.2069961  90.2731194  24.1296492  86.4509925
  90.7699893  23.3766455  86.1310995  89.5018175  24.1660809  85.8853134
  98.1260951  29.8336858  88.0928217  98.1150827  30.7161573  87.7222150
  97.2578330  29.4808409  87.8982754  89.6343447  38.9816927  92.4531057
  90.3471420  39.6164392  92.3806958  89.1433476  39.0780793  91.6371059
  91.3560974  32.8868180  84.0248348  90.4217253  33.0069642  83.8553053
  91.5337643  31.9840646  83.7608358  86.8566162  26.2713875  86.1781610
  86.4863950  25.7184916  86.8662515  87.3525255  25.6672009  85.6256610
  94.7433526  28.7285499  84.5598383  95.2093978  29.5613490  84.4858685
  95.1941026  28.2630480  85.2643641  84.6855361  36.7311370  93.2736628
  85.3864820  37.3647853  93.4266022  84.2150476  37.0726102  92.5132267
  92.8109757  35.0729320  81.5584535  93.0869601  34.9585915  82.4678409
  91.9414255  34.6746805  81.5196708  92.7150188  21.0966086  88.5989284
  91.8013268  21.3270313  88.7671491  93.1443290  21.1804530  89.4503316
  92.4856647  29.2855978  91.0989178  91.8328097  29.5331885  90.4441631
  92.8637027  28.4720116  90.7651655  89.4463821  39.3215671  85.2017348
  89.6286215  38.5037327  85.6645101  90.2696807  39.5383363  84.7642238
  89.7805986  38.2483856  82.4632397  90.3093753  37.7376311  81.8502559
  90.0434206  37.9326386  83.3277930  88.5344220  30.0275789  97.5855215
  87.8584857  29.9269918  98.2557590  89.3571854  29.8715003  98.0491212
  80.2823079  36.2647725  90.2067730  80.8676516  35.5191413  90.3395634
  80.0847917  36.5751682  91.0904394  83.1361734  39.2998973  85.2230173
  82.4672109  39.7845100  84.7394213  82.9974604  39.5468193  86.1373551
  74.8740734  28.8353326  88.9272173  74.9124833  28.3016916  89.7209292
  74.3681027  28.3088531  88.3083151  87.2767003  41.3342716  91.8212831
  87.8285311  41.4974338  92.5861916  87.6173196  41.9247154  91.1492856
  82.2531496  23.6817866  92.4234716  82.3172823  24.5432697  92.0112113
  82.1898616  23.0691868  91.6907074  81.7283769  25.7540999  96.0707750
  82.3555807  25.3718076  96.6845274  80.8711687  25.5355201  96.4363442
  92.1277877  36.1603974  97.6761485  92.6717781  36.7733932  97.1816440
  91.5464722  36.7183552  98.1928498  78.5049311  27.5617428  82.0026105
  78.8002752  26.6528106  81.9493159  77.6037347  27.5405167  81.6807107
  90.4135390  39.2824692  88.8076513  90.2886530  38.4814432  88.2987459
  91.0714481  39.7770885  88.3190483  82.0343558  25.6373424  87.9853653
  81.3130144  26.2509392  87.8461127  82.8236814  26.1731189  87.9070299
  92.4770298  37.0833712  90.4356063  91.5300634  36.9639063  90.3634390
  92.8253072  36.1956210  90.5182325  84.8369872  22.9727851  94.2594305
  85.3604274  23.2190147  95.0220614  84.6182205  23.8047886  93.8397442
  80.2337153  25.2431525  82.1265430  79.9049859  24.3628904  81.9440536
  80.5876524  25.1879194  83.0141819  89.4816732  36.8786428  86.6360415
  89.3341694  35.9503136  86.8167986  90.3070225  36.9006519  86.1517491
  83.3478976  25.5304495  82.4940908  83.6875049  26.0590416  81.7719516
  83.7951097  25.8684901  83.2699474  93.0850854  37.7014987  87.7225288
  94.0097401  37.4957848  87.5849739  92.9166157  37.4531388  88.6314630
  86.0422417  23.9141546  91.9443976  85.7019237  23.1149359  92.3464656
  85.3361423  24.2143257  91.3720809  86.6938889  20.9990858  90.3971299
  87.5164958  20.5251337  90.2750189  86.9376952  21.7781342  90.8969985
  85.3347123  24.0279117  80.6934200  86.0555486  24.4060370  80.1897917
  84.7112427  24.7467994  80.7969178  89.4778246  24.7324266  81.6292533
  89.6941860  25.6148904  81.3281361  88.9972313  24.3410479  80.8998175
  84.2177467  27.6909979  88.2063277  84.0722048  28.0050282  89.0987559
  83.7402671  28.3094879  87.6534176  86.0773850  24.6812527  88.2544167
  86.0635419  23.7853620  87.9176465  86.7946278  24.6883191  88.8882453
  87.9299981  25.1149867  90.2997294  87.6717759  26.0366938  90.2981625
  87.3985021  24.7180302  90.9897758  92.8746170  38.2200654  83.0787380
  93.0483047  37.6547077  82.3261232  93.3675061  39.0201549  82.8966870
  78.6923130  30.2315323  91.1450939  78.1476598  31.0075131  91.2771213
  79.5702479  30.5786128  90.9870060  85.4810746  23.5626907  83.5231737
  85.6026657  22.6343553  83.7222625  85.1912789  23.5765593  82.6110052
  88.3501937  21.2481818  86.6598457  88.3723633  21.3121151  85.7050436
  88.7669996  20.4086326  86.8538963  98.7285561  30.9837077  84.6977679
  99.1716707  30.2344402  84.2996803  97.8512071  30.9747214  84.3151411
  93.8621342  37.5367419  80.1784278  94.5572247  38.1574111  80.3971593
  94.2044492  36.6862770  80.4536656  79.4789151  29.3585220  94.0381095
  78.7370888  29.5067855  94.6245726  79.1581896  29.6193485  93.1747845
  95.7612765  34.9867124  81.7071609  96.2864090  35.3254397  80.9820929
  95.6735118  34.0514140  81.5234743  87.4232814  38.9001198  93.8361485
  87.7319941  38.6550345  94.7084185  88.2208296  39.1047836  93.3480356
  87.4453426  41.0539108  86.0666862  87.0058416  40.5615486  86.7599719
  88.1961543  40.5112075  85.8258937  79.9245765  37.2450648  86.0691490
  80.7503785  36.9454420  85.6890134  79.5739817  36.4758271  86.5181279
  84.8927298  36.5977117  88.1389164  84.2707308  35.9347822  87.8391391
  85.5632165  36.6238249  87.4562811  78.1254370  35.1636975  87.0280424
  77.2886279  34.7359149  86.8464425  78.0978016  35.3569418  87.9651215
  84.9651826  25.0758905  97.7321670  85.0139981  25.9521027  97.3499439
  85.5074340  24.5336298  97.1593313  95.4506671  35.6200028  97.0122807
  94.6602215  35.6024167  96.4727306  95.2140026  36.1588322  97.7671843
  95.5704547  32.4692494  94.3255535  95.6202551  32.3042502  95.2671058
  95.4618470  31.6019753  93.9353416  84.4540805  35.1481040  81.6147624
  84.6028926  35.8316504  80.9614297  85.2607249  35.1286130  82.1297080
  92.8608309  28.4523422  95.6414842  93.7618172  28.3129887  95.3498840
  92.9356283  28.6177877  96.5813019  87.1951114  25.8290277  94.4868028
  86.3254424  26.1223843  94.2150617  87.4310595  26.4130722  95.2075292
  97.0722743  34.8889436  94.5697557  96.7807552  35.2519416  95.4061018
  96.4594875  34.1756444  94.3910889  98.2718426  32.4542316  87.0900127
  99.1065317  32.8932120  87.2537687  98.4077554  31.9780969  86.2708373
  95.3209932  30.0122050  93.0377615  95.7964053  30.2049697  92.2296466
  94.3975497  30.0681236  92.7920998  82.2093438  31.1746218  82.6208693
  81.9639480  30.2708548  82.8188903  82.3789353  31.1763368  81.6788171
  89.8990148  22.0469894  92.0033449  90.4172092  22.7830921  91.6779937
  89.5445281  22.3533887  92.8380208  81.4789086  26.9074575  80.1194855
  80.7858331  26.9818930  79.4634890  81.2340838  26.1434919  80.6416371
  90.1502742  18.4670177  87.5234345  90.4304496  17.7993366  88.1494772
  90.9353349  18.6599272  87.0109009  87.9536211  37.6429170  79.0859372
  87.3810178  38.2619358  78.6329843  88.5269004  38.1928532  79.6199294
  94.0211601  26.8887810  91.2705920  94.9729023  26.9885908  91.2918144
  93.8515051  26.0966079  91.7804005  92.0425980  23.9743394  91.4565321
  91.4475912  24.2548406  90.7611810  91.7575677  24.4637295  92.2282062
  91.1733471  37.9266321  80.2167954  92.1064144  37.8611882  80.4200829
  91.0856683  38.7622587  79.7582487  93.8021487  37.2432191  77.1771901
  93.7235119  36.9092054  78.0707659  94.6231154  37.7353959  77.1763374
  96.4999678  30.1093930  90.3848220  96.4675998  29.1709931  90.5707904
  97.1100302  30.1877967  89.6514045  88.3383009  28.9789983  76.4275424
  89.2842114  28.8496191  76.4963842  87.9597254  28.2404645  76.9044852
  96.6494167  26.9004974  90.4306503  96.1333216  26.1163430  90.2436432
  97.5334115  26.5723690  90.5953023  94.3104894  20.6445989  86.3902316
  94.1129715  20.3361077  87.2745648  94.9204599  21.3707628  86.5200246
 102.3176228  31.1709937  89.5254257 103.0479617  30.9095225  90.0861960
 101.7083174  30.4338659  89.5656325 100.3991525  29.3117800  90.1228708
  99.6724689  29.1773765  89.5145200  99.9838812  29.6194628  90.9285426
  88.2221702  33.0307729  97.8876081  89.1424711  33.2086328  98.0816128
  88.1871285  32.0863775  97.7355780  86.5225926  26.9039960  76.3630309
  85.6157382  26.6073072  76.4393023  86.8001907  26.6069778  75.4964596
  77.4403867  28.2246323  86.8129356  77.1206651  27.3711631  86.5203730
  76.8937295  28.4394901  87.5687323  81.2183774  30.9408764  90.5298862
  81.4369784  31.8725872  90.5486896  81.6309548  30.5816738  91.3153666
  88.1387992  21.4476849  82.5174551  87.3288720  21.1023934  82.8929797
  88.8272409  21.1384393  83.1062162  90.0678540  20.5254896  84.1398847
  90.6209579  20.9450349  84.7988870  90.3048627  19.5990644  84.1821803
  86.0911640  26.5141970  99.9201611  85.9908367  27.4636327  99.8513702
  85.8733182  26.1860209  99.0477681  85.2924711  23.7626895  76.5042288
  86.1543875  24.0881793  76.7638106  85.4775055  22.9758391  75.9915354
  77.3092127  31.8449234  88.7822477  76.6155598  31.4303187  88.2692432
  78.0565118  31.8869771  88.1855896  93.4457347  22.6355421  83.6477511
  92.8656017  23.2940225  83.2655564  93.1793280  21.8132766  83.2364929
  91.8960914  22.0360479  85.8498832  92.3960692  22.1477013  85.0413151
  92.5396522  21.7321532  86.4899640  85.9542910  29.9439109  98.7366673
  85.4709991  30.7439469  98.9430562  86.0403849  29.9547053  97.7834117
  79.2228869  31.7767488  86.6588492  79.1999557  31.8755176  85.7070375
  79.5329506  32.6232639  86.9805658  81.8816247  33.8343643  90.7735107
  82.8359501  33.8027586  90.7065038  81.6828771  33.3734267  91.5885332
  82.4715629  32.4044759  93.3405904  83.2908518  32.8988838  93.3640742
  82.7452437  31.4876727  93.3123472  92.2282226  24.7955512  82.7033860
  91.3408081  25.0805162  82.4854055  92.6436215  24.6349275  81.8561137
  95.5796762  24.8202033  86.4188199  96.3557152  25.3098485  86.6912816
  94.8544896  25.2460087  86.8760068  98.0169320  25.5329652  87.4762140
  98.6113811  25.2925388  86.7655448  98.0895904  24.8136782  88.1035676
  80.2366476  39.3763263  87.7905304  80.1020944  38.6163664  87.2243302
  79.8198538  40.1004163  87.3234093  91.3725439  34.5600186  76.7981880
  92.0761289  34.7650189  77.4139535  90.6488088  35.1276948  77.0630963
  92.2023249  30.3110048  82.9184150  92.1458451  30.7678599  82.0791782
  92.7551592  29.5500732  82.7406993  96.0128055  26.0999779  83.7434269
  95.7564989  25.6996415  84.5742477  95.3880923  26.8143573  83.6184409
 100.3240393  28.8395853  86.2505561  99.7639951  28.9089042  87.0237123
  99.7183896  28.6636837  85.5305057  83.3935602  40.2732580  88.0023747
  83.2767986  41.2178012  87.9002437  82.5728048  39.9706141  88.3909546
  93.2812136  34.9982715  78.8480340  94.1157740  34.5663914  78.6657815
  93.1196479  34.8264729  79.7757234  92.9358029  31.5014829  80.2136679
  92.8806832  31.3359100  79.2725123  92.3104084  32.2090862  80.3698869
  77.7250544  26.7382893  94.0398101  78.3709407  26.2281847  94.5285326
  77.5167695  27.4751575  94.6141527  90.2503936  33.8063741  99.5390242
  91.1195095  33.9804393  99.1776877  89.7710687  34.6258157  99.4165971
  86.2454154  21.0022938  79.7921997  86.2332824  21.9464778  79.9490268
  87.1377576  20.8193083  79.4981459  84.4190116  40.9260842  91.2179676
  85.3217363  40.9584452  91.5346170  84.1927486  39.9961293  91.2326011
  86.1743718  39.6791828  87.8789754  85.2239349  39.6793690  87.7654126
  86.4776204  38.9324563  87.3625789  90.0606273  17.5965714  84.0467934
  89.2938669  17.0424201  84.1924617  90.4716978  17.6687583  84.9082086
  82.0648035  23.8850510  98.1373116  82.9279496  23.5287315  98.3476440
  81.4913445  23.5464405  98.8248520 101.9096411  45.5152367  88.9435517
 102.5474821  45.3959114  88.2398857 101.7917254  46.4633211  89.0023469
  98.7186118  45.4679795  88.8797041  98.3804629  45.3520859  87.9917576
  99.5875886  45.0670960  88.8598047  94.5772933  47.3215271  84.8693932
  94.0137799  47.2305208  84.1010220  94.4625329  46.5015176  85.3496425
  99.2005901  46.6214646  94.8383247  99.1894542  46.2267445  93.9663750
  99.3626540  45.8880719  95.4317018  92.1237365  48.8166463  87.7078153
  92.9158657  48.4757287  87.2924452  92.3634016  48.9261438  88.6280306
 100.1572492  50.9886239  80.1808397  99.5060472  51.5740319  79.7942411
 100.9516855  51.5192434  80.2403435  94.0828119  48.0775376  80.5795531
  94.8558995  47.5304363  80.4408407  94.4353518  48.9419625  80.7909993
  95.9213162  49.4051758  93.7862431  95.6303028  50.3097389  93.6709097
  96.5570146  49.4468286  94.5006500  96.8469369  46.7828607  90.3763790
  97.4432941  46.5584629  89.6620753  96.9044340  46.0413352  90.9789238
  96.4194397  44.2368042  78.2113981  96.6719918  43.7149563  77.4497444
  95.4818956  44.0734188  78.3140665 101.4637680  43.2403820  86.0188725
 102.2500769  42.8223244  85.6679142 101.7276384  44.1449913  86.1870373
 101.6347757  48.6776671  80.7177381 100.9993590  48.7511297  81.4298286
 101.3045164  49.2670270  80.0396461 106.8646107  43.1779054  86.9221703
 107.5971279  42.6078270  87.1559533 106.1085463  42.7900654  87.3628209
  96.1390686  46.1396148  80.4138356  96.0226944  45.4641051  81.0819441
  96.2492946  45.6528522  79.5970509  98.4822227  45.6006295  84.1185046
  98.1180434  45.0736916  84.8297967  99.3389343  45.2104764  83.9451531
 104.3871527  36.8900628  91.3816312 104.0554852  37.7596039  91.1577527
 103.7917141  36.5736912  92.0610342  98.1227714  40.6296195  79.1146394
  98.2902116  41.4976431  79.4816865  97.9324883  40.7923477  78.1907683
 100.8803047  49.0913174  90.7812224 100.5803770  49.9938213  90.6728032
 100.5354106  48.8245357  91.6333377  94.3315528  45.5426971  86.8148929
  93.4066025  45.4103185  87.0226621  94.5799942  46.3221190  87.3118871
 104.2800191  41.6095714  88.4609662 103.3717068  41.5411122  88.1668423
 104.2287787  42.0867659  89.2891487  98.1016935  43.0853852  80.0993061
  97.9816560  43.5310903  80.9378541  97.4069523  43.4339170  79.5406599
  91.6924339  45.1860244  87.6492718  91.8216721  45.4394723  88.5632130
  91.0121791  45.7787952  87.3297373  95.8623827  55.8557494  83.7483192
  95.7847856  56.8065319  83.8271673  95.2585470  55.5103367  84.4058118
  98.3541057  43.0285360  96.4044559  97.5774391  43.5879280  96.3947424
  98.9931620  43.5142142  96.9259429 106.1461837  39.8112152  90.2387536
 105.5036217  40.1044685  89.5927330 105.6416766  39.6965073  91.0440732
 103.8002001  43.5575326  80.9273395 104.7119857  43.7902712  80.7521092
 103.2911648  44.1412370  80.3648474  96.6087429  45.8370813  95.9662526
  97.3502113  46.3755857  95.6897350  95.9024414  46.4637102  96.1234078
 102.0842768  47.9799953  94.5634688 102.4926125  47.5382364  93.8189320
 101.3620030  47.4052581  94.8168880  98.4373839  42.9172560  91.9368244
  99.2835034  43.3411974  92.0802893  98.3772476  42.2606184  92.6306808
 102.4071583  48.5401144  88.3186976 101.7780446  48.7046858  87.6163044
 102.0197245  48.9542754  89.0897940 106.2860815  49.4755582  85.6731340
 105.6011853  49.8554483  85.1228373 106.3704664  50.0850908  86.4063288
 101.5873284  40.5776928  93.5949418 101.3434216  41.3318989  93.0583694
 101.8633214  40.9562276  94.4296665 103.5411747  47.1215541  92.2726684
 103.7528642  47.7647301  91.5961065 103.4941495  46.2877857  91.8048614
 101.1437976  39.7333361  89.1763256 100.2822455  40.0314615  89.4679993
 101.1700410  39.9503760  88.2444288  97.9599545  48.2775552  85.5837061
  98.4237891  48.5563255  84.7941684  97.6956343  47.3758997  85.4010152
  94.8523626  47.8247034  88.5216825  95.4224983  48.2534302  87.8834309
  95.4431738  47.5429618  89.2201010  96.8968431  44.3998704  82.3926627
  97.5992474  44.8519748  82.8600553  96.5649060  43.7582523  83.0206520
  95.3448793  42.9910461  96.7677836  94.7147453  43.6726742  97.0013233
  95.2384880  42.8793543  95.8230974  90.6393765  42.6582257  87.6943760
  89.8492819  42.9139786  87.2183871  91.1305012  43.4730595  87.7995801
 104.6557575  49.9987496  90.4449041 105.4775018  49.5967684  90.1631723
 104.6519977  49.8955730  91.3965157  92.5908510  43.0226836  84.6527237
  91.7939674  43.1345531  85.1710733  92.3634103  43.3613489  83.7868127
  98.4214178  49.5471540  92.6009752  98.4858611  50.0091947  93.4367923
  97.7125102  48.9168904  92.7292061  88.9231468  42.9112748  90.1258751
  89.1739506  43.7959757  90.3916327  89.4591016  42.7317349  89.3533843
 112.7463568  46.3426245  86.7934012 111.9927276  45.7733643  86.6378017
 112.8811109  46.3088909  87.7404647  98.1362196  51.2139647  82.4688732
  98.0007870  52.0591183  82.8973580  98.6772008  51.4158925  81.7054666
  94.6229535  37.2931227  99.1303087  94.2296481  36.7397425  99.8050731
  95.4395676  37.6041805  99.5209605  91.5891593  48.7315085  83.0416657
  92.1016114  49.5258335  83.1922222  92.2414306  48.0341376  82.9750258
  93.3986478  51.8480841  85.1239410  93.5753106  52.7698806  84.9360394
  94.1943311  51.5339261  85.5533790  97.5397496  38.7089106  96.7223344
  98.2807210  39.3096259  96.6427806  97.7715419  37.9666744  96.1641386
  92.6838834  43.8945473  95.0001573  92.5692349  42.9930730  95.3008672
  91.8283352  44.1409170  94.6486390  99.7630672  51.8363214  96.5989074
  99.3194526  51.0499592  96.2809978 100.4247886  52.0242364  95.9332965
  94.5217793  53.3659015  91.1249752  95.0725218  53.2376079  90.3526746
  93.6829269  53.6653904  90.7744645 101.8611910  52.1166013  94.6270475
 101.8430385  52.9374895  94.1350744 102.7831830  51.9920089  94.8520616
  98.3184964  49.6310143  95.4693984  98.8513301  48.8698431  95.2393292
  97.7899045  49.3383795  96.2118138 101.4854659  34.7370209  90.9987625
 101.1418929  35.6271851  90.9226736 101.8533622  34.5471867  90.1357210
  89.5540510  47.0603739  83.8176227  90.3915732  47.4700748  83.6009935
  89.7318778  46.1203182  83.7876421 101.4504942  44.7278820  79.5060060
 100.9351565  45.4983425  79.7448448 101.1782250  44.0543956  80.1293122
  99.0352053  39.5728521  84.5645299  98.1793649  39.1835371  84.3850938
  99.4479005  39.6520482  83.7045084 100.5651200  37.1074864  88.9636859
 100.0615995  37.0704999  88.1504664 100.8581807  38.0167607  89.0233515
  96.8094086  37.1913594  87.9703040  97.6747082  36.9956402  87.6108930
  96.8771594  36.9623946  88.8972397 106.4239216  47.4811175  81.4413234
 105.6468659  47.1422334  80.9968396 107.1030697  47.4863798  80.7668199
 101.2391245  42.6005912  81.3319842 100.9341381  42.9152061  82.1829985
 102.1921687  42.6787332  81.3747175  99.6837677  48.7596135  82.9812796
  99.1559039  48.0248895  82.6686033  99.1825180  49.5370812  82.7352764
 104.6630523  46.9545156  88.0979842 104.0054197  47.6444417  88.1859971
 105.4670922  47.3441588  88.4413828  94.4156405  39.4215802  85.3419407
  94.9900157  39.1990983  84.6092600  95.0027387  39.4904496  86.0948008
 103.4735982  45.3089529  86.1483784 103.9867864  45.9419520  86.6505493
 104.1237206  44.7090724  85.7827144  94.7425992  41.4520263  79.3615292
  93.9063304  41.7894949  79.6824567  94.6030761  41.3169243  78.4242429
  96.7179072  36.2957051  84.0694477  96.0643485  35.9806068  83.4451091
  96.6759546  35.6732791  84.7954299  97.8290277  46.5776346  75.9847769
  96.9217339  46.3465599  76.1838918  98.3261309  45.7813965  76.1721750
 100.7358356  55.2873853  78.9044455 100.0620055  55.5905550  79.5129413
 101.1224178  56.0902933  78.5549912  99.9516813  42.7838984  88.3942124
  99.0339374  43.0053931  88.2363812 100.3676956  42.8585295  87.5353831
 100.7351860  44.1830400  83.5244804 101.4823679  44.6951797  83.2151926
 101.0043450  43.8614453  84.3849198  99.0078511  46.6788941  80.5071759
  98.0989730  46.3947973  80.6044228  99.0373594  47.0988019  79.6475066
 104.2397778  50.2895530  84.2762926 103.7860105  49.4486440  84.3328117
 103.6091745  50.9256928  84.6137706 103.1830698  41.2187516  85.5063594
 102.4453454  40.7064902  85.8373836 103.4357471  40.7787898  84.6946871
 102.6830717  52.1272027  85.2112744 102.9753692  52.6877084  84.4925110
 103.1929338  52.4200588  85.9665904 103.2842325  33.9963768  86.1005363
 103.5901202  33.1361132  85.8131278 104.0094930  34.5881388  85.9004357
  89.5766681  44.3994455  84.4886961  89.3791081  43.8063815  83.7638027
  89.0213345  44.0946665  85.2062900  97.5563405  44.2917561  86.6081554
  97.6112014  43.3391398  86.5324031  96.7454607  44.4477000  87.0922852
  98.7054598  48.2197684  77.8459837  98.2674028  47.5033543  77.3865475
  99.4465039  48.4473799  77.2844929  95.4955765  42.9094621  84.3671933
  94.6823630  43.2088791  84.7737125  95.9914759  42.5150310  85.0846415
  97.6464342  52.9052378  86.3006198  97.6040521  53.1313224  85.3714730
  98.5627041  52.6715752  86.4491999 101.0929976  43.3736445  93.1986827
 101.4479364  43.6007919  94.0581293 101.7402107  43.7054822  92.5764082
 106.8227713  46.4954881  83.9036156 106.6845612  46.6856477  82.9757345
 106.4663932  47.2574264  84.3604207  94.9869839  40.4812976  89.9833168
  95.6269219  40.3401736  89.2856131  94.1547370  40.1947490  89.6071770
 106.8497093  48.5631408  88.9147427 107.2833599  48.4706697  89.7630481
 107.5628674  48.5388909  88.2767443  95.7630143  49.7815407  86.0968160
  96.5570742  49.2865727  85.8950735  95.0521836  49.2533270  85.7335866
 100.5824988  52.1633502  90.4480528 100.6362010  52.7324439  91.2158244
  99.7139769  52.3335387  90.0834565  92.0712907  43.9258489  82.1727913
  91.1410495  43.8642944  82.3897875  92.1670379  43.4034441  81.3764554
  91.9898456  40.4513301  84.7606155  92.2505273  41.3658635  84.6515315
  92.8115628  39.9837744  84.9102767  93.4623381  41.8651059  91.9304979
  94.1346435  41.6568421  91.2817628  92.6353168  41.6673145  91.4910212
 107.7112642  48.6055109  91.4480313 107.9048532  49.5100919  91.6939588
 107.6113261  48.1462528  92.2818898  99.3648953  38.4913000  93.9470640
  98.7176868  39.1902949  93.8535116 100.1349969  38.9249143  94.3146888
 102.7727751  48.7561852  97.0221193 102.6213257  48.5272403  96.1051277
 102.7632431  49.7132453  97.0352538  99.5413087  46.3293764  92.0067460
 100.4705147  46.4804924  91.8336427  99.1204117  46.4177785  91.1516106
  98.3401419  50.3544429  89.7765997  98.2012505  49.9863213  90.6491936
  97.5516015  50.8692068  89.6049955  98.9349571  55.4553525  81.1191534
  99.1101327  54.9841569  81.9337157  98.2482359  56.0819292  81.3472795
  99.8906634  49.7326032  87.1654835  99.5556467  49.6926802  88.0612485
  99.3910580  49.0670747  86.6925245  93.8650878  45.1393662  92.6907416
  93.7270676  44.4073900  93.2918955  94.7755802  45.0502562  92.4091604
 102.8265826  47.0782066  77.4391895 102.2094997  46.3528894  77.3424948
 102.3582314  47.8391426  77.0958969  96.4933179  44.8513621  92.1791096
  97.2032798  44.2106813  92.1377714  96.4502487  45.1026516  93.1017277
 104.4819958  51.7880974  95.0997675 104.4232504  51.1040194  94.4328258
 104.8839476  52.5299964  94.6478301  95.2062113  41.8378839  93.9986735
  94.6699470  41.3869577  94.6508332  94.6178821  41.9724748  93.2557200
  93.5010656  58.6042888  87.8931394  93.7407255  59.2361412  88.5710413
  92.6579853  58.2530928  88.1796753  94.6164372  41.2967490  76.5613199
  93.7393838  41.1756291  76.1975446  95.0922125  40.5053569  76.3092088
 104.4837365  49.7520558  93.3311655 103.5964144  49.4146480  93.4538054
 105.0535916  49.0203589  93.5680420  86.1366512  46.0844650  86.6554706
  86.8237552  45.7706380  86.0675722  85.9814641  46.9886015  86.3821958
  90.9401234  40.9734846  91.0839730  90.8559423  40.3660516  90.3490140
  90.1183941  41.4643865  91.0849226  98.0138518  54.4122011  90.2972898
  97.9408690  55.2176982  90.8092203  97.5715911  54.6113976  89.4720919
  97.8028298  53.6493781  83.8075720  97.0195820  54.1915461  83.9013944
  98.5021043  54.1667760  84.2069961 101.1124948  39.4588410  86.4509925
 101.6093648  38.7058372  86.1310995 100.3411930  39.4952727  85.8853134
 108.9654706  45.1628776  88.0928217 108.9544582  46.0453491  87.7222150
 108.0972085  44.8100326  87.8982754 100.4737202  54.3108845  92.4531057
 101.1865174  54.9456309  92.3806958  99.9827231  54.4072711  91.6371059
 102.1954729  48.2160097  84.0248348 101.2611008  48.3361560  83.8553053
 102.3731397  47.3132564  83.7608358  97.6959917  41.6005793  86.1781610
  97.3257704  41.0476833  86.8662515  98.1919009  40.9963926  85.6256610
 105.5827280  44.0577417  84.5598383 106.0487732  44.8905408  84.4858685
 106.0334781  43.5922398  85.2643641  95.5249115  52.0603288  93.2736628
  96.2258575  52.6939771  93.4266022  95.0544230  52.4018020  92.5132267
 103.6503511  50.4021238  81.5584535 103.9263355  50.2877832  82.4678409
 102.7808010  50.0038723  81.5196708 103.5543943  36.4258004  88.5989284
 102.6407023  36.6562230  88.7671491 103.9837044  36.5096448  89.4503316
 103.3250401  44.6147895  91.0989178 102.6721852  44.8623803  90.4441631
 103.7030781  43.8012034  90.7651655 100.2857575  54.6507589  85.2017348
 100.4679970  53.8329245  85.6645101 101.1090561  54.8675281  84.7642238
 100.6199741  53.5775774  82.4632397 101.1487507  53.0668228  81.8502559
 100.8827960  53.2618304  83.3277930  99.3737974  45.3567707  97.5855215
  98.6978611  45.2561836  98.2557590 100.1965608  45.2006920  98.0491212
  91.1216833  51.5939643  90.2067730  91.7070270  50.8483331  90.3395634
  90.9241672  51.9043600  91.0904394  93.9755489  54.6290890  85.2230173
  93.3065864  55.1137018  84.7394213  93.8368358  54.8760111  86.1373551
  85.7134488  44.1645243  88.9272173  85.7518588  43.6308834  89.7209292
  85.2074781  43.6380449  88.3083151  98.1160757  56.6634634  91.8212831
  98.6679065  56.8266255  92.5861916  98.4566951  57.2539072  91.1492856
  93.0925251  39.0109784  92.4234716  93.1566577  39.8724615  92.0112113
  93.0292371  38.3983785  91.6907074  92.5677523  41.0832916  96.0707750
  93.1949562  40.7009994  96.6845274  91.7105442  40.8647118  96.4363442
 102.9671632  51.4895891  97.6761485 103.5111536  52.1025850  97.1816440
 102.3858476  52.0475470  98.1928498  89.3443066  42.8909345  82.0026105
  89.6396507  41.9820024  81.9493159  88.4431102  42.8697085  81.6807107
 101.2529145  54.6116610  88.8076513 101.1280284  53.8106349  88.2987459
 101.9108236  55.1062803  88.3190483  92.8737313  40.9665342  87.9853653
  92.1523899  41.5801310  87.8461127  93.6630569  41.5023107  87.9070299
 103.3164053  52.4125630  90.4356063 102.3694388  52.2930981  90.3634390
 103.6646826  51.5248128  90.5182325  95.6763626  38.3019769  94.2594305
  96.1998028  38.5482065  95.0220614  95.4575960  39.1339803  93.8397442
  91.0730907  40.5723443  82.1265430  90.7443614  39.6920822  81.9440536
  91.4270278  40.5171112  83.0141819 100.3210486  52.2078346  86.6360415
 100.1735449  51.2795053  86.8167986 101.1463980  52.2298437  86.1517491
  94.1872731  40.8596413  82.4940908  94.5268803  41.3882334  81.7719516
  94.6344851  41.1976819  83.2699474 103.9244608  53.0306905  87.7225288
 104.8491156  52.8249766  87.5849739 103.7559911  52.7823306  88.6314630
  96.8816171  39.2433464  91.9443976  96.5412992  38.4441277  92.3464656
  96.1755178  39.5435174  91.3720809  97.5332643  36.3282776  90.3971299
  98.3558712  35.8543254  90.2750189  97.7770707  37.1073260  90.8969985
  96.1740878  39.3571034  80.6934200  96.8949240  39.7352287  80.1897917
  95.5506182  40.0759911  80.7969178 100.3172001  40.0616183  81.6292533
 100.5335615  40.9440821  81.3281361  99.8366068  39.6702397  80.8998175
  95.0571222  43.0201897  88.2063277  94.9115803  43.3342200  89.0987559
  94.5796426  43.6386797  87.6534176  96.9167605  40.0104445  88.2544167
  96.9029174  39.1145538  87.9176465  97.6340033  40.0175108  88.8882453
  98.7693736  40.4441785  90.2997294  98.5111513  41.3658856  90.2981625
  98.2378776  40.0472219  90.9897758 103.7139924  53.5492572  83.0787380
 103.8876802  52.9838994  82.3261232 104.2068816  54.3493467  82.8966870
  89.5316884  45.5607241  91.1450939  88.9870352  46.3367049  91.2771213
  90.4096234  45.9078046  90.9870060  96.3204501  38.8918825  83.5231737
  96.4420412  37.9635471  83.7222625  96.0306543  38.9057511  82.6110052
  99.1895691  36.5773735  86.6598457  99.2117388  36.6413068  85.7050436
  99.6063750  35.7378244  86.8538963 109.5679315  46.3128995  84.6977679
 110.0110462  45.5636320  84.2996803 108.6905826  46.3039131  84.3151411
 104.7015097  52.8659336  80.1784278 105.3966001  53.4866029  80.3971593
 105.0438247  52.0154688  80.4536656  90.3182906  44.6877137  94.0381095
  89.5764642  44.8359773  94.6245726  89.9975650  44.9485403  93.1747845
 106.6006520  50.3159042  81.7071609 107.1257844  50.6546315  80.9820929
 106.5128872  49.3806057  81.5234743  98.2626569  54.2293116  93.8361485
  98.5713695  53.9842262  94.7084185  99.0602051  54.4339754  93.3480356
  98.2847181  56.3831025  86.0666862  97.8452171  55.8907404  86.7599719
  99.0355298  55.8403993  85.8258937  90.7639520  52.5742566  86.0691490
  91.5897540  52.2746338  85.6890134  90.4133572  51.8050189  86.5181279
  95.7321053  51.9269034  88.1389164  95.1101062  51.2639739  87.8391391
  96.4025920  51.9530166  87.4562811  88.9648125  50.4928893  87.0280424
  88.1280033  50.0651067  86.8464425  88.9371770  50.6861336  87.9651215
  95.8045580  40.4050822  97.7321670  95.8533736  41.2812945  97.3499439
  96.3468095  39.8628215  97.1593313 106.2900426  50.9491946  97.0122807
 105.4995970  50.9316084  96.4727306 106.0533781  51.4880239  97.7671843
 106.4098301  47.7984412  94.3255535 106.4596306  47.6334419  95.2671058
 106.3012224  46.9311671  93.9353416  95.2934560  50.4772958  81.6147624
  95.4422680  51.1608422  80.9614297  96.1001003  50.4578048  82.1297080
 103.7002063  43.7815340  95.6414842 104.6011926  43.6421805  95.3498840
 103.7750038  43.9469795  96.5813019  98.0344869  41.1582195  94.4868028
  97.1648178  41.4515761  94.2150617  98.2704349  41.7422640  95.2075292
 107.9116498  50.2181353  94.5697557 107.6201306  50.5811334  95.4061018
 107.2988629  49.5048362  94.3910889 109.1112180  47.7834233  87.0900127
 109.9459072  48.2224037  87.2537687 109.2471309  47.3072886  86.2708373
 106.1603686  45.3413968  93.0377615 106.6357808  45.5341614  92.2296466
 105.2369251  45.3973154  92.7920998  93.0487193  46.5038135  82.6208693
  92.8033235  45.6000465  82.8188903  93.2183107  46.5055286  81.6788171
 100.7383903  37.3761812  92.0033449 101.2565846  38.1122839  91.6779937
 100.3839035  37.6825805  92.8380208  92.3182840  42.2366493  80.1194855
  91.6252085  42.3110848  79.4634890  92.0734592  41.4726836  80.6416371
 100.9896497  33.7962094  87.5234345 101.2698251  33.1285283  88.1494772
 101.7747104  33.9891190  87.0109009  98.7929965  52.9721088  79.0859372
  98.2203932  53.5911275  78.6329843  99.3662759  53.5220450  79.6199294
 104.8605355  42.2179728  91.2705920 105.8122778  42.3177826  91.2918144
 104.6908806  41.4257997  91.7804005 102.8819735  39.3035311  91.4565321
 102.2869667  39.5840324  90.7611810 102.5969431  39.7929212  92.2282062
 102.0127225  53.2558238  80.2167954 102.9457898  53.1903800  80.4200829
 101.9250438  54.0914505  79.7582487 104.6415242  52.5724109  77.1771901
 104.5628873  52.2383972  78.0707659 105.4624908  53.0645876  77.1763374
 107.3393433  45.4385848  90.3848220 107.3069753  44.5001849  90.5707904
 107.9494057  45.5169885  89.6514045  99.1776764  44.3081901  76.4275424
 100.1235868  44.1788109  76.4963842  98.7991009  43.5696563  76.9044852
 107.4887921  42.2296891  90.4306503 106.9726970  41.4455348  90.2436432
 108.3727870  41.9015608  90.5953023 105.1498648  35.9737907  86.3902316
 104.9523469  35.6652995  87.2745648 105.7598354  36.6999546  86.5200246
 113.1569983  46.5001855  89.5254257 113.8873371  46.2387143  90.0861960
 112.5476928  45.7630577  89.5656325 111.2385280  44.6409717  90.1228708
 110.5118443  44.5065682  89.5145200 110.8232567  44.9486546  90.9285426
  99.0615456  48.3599647  97.8876081  99.9818466  48.5378246  98.0816128
  99.0265039  47.4155692  97.7355780  97.3619681  42.2331877  76.3630309
  96.4551136  41.9364990  76.4393023  97.6395662  41.9361695  75.4964596
  88.2797621  43.5538241  86.8129356  87.9600406  42.7003549  86.5203730
  87.7331049  43.7686819  87.5687323  92.0577529  46.2700682  90.5298862
  92.2763539  47.2017789  90.5486896  92.4703303  45.9108656  91.3153666
  98.9781747  36.7768767  82.5174551  98.1682475  36.4315852  82.8929797
  99.6666164  36.4676311  83.1062162 100.9072295  35.8546814  84.1398847
 101.4603334  36.2742267  84.7988870 101.1442381  34.9282562  84.1821803
  96.9305394  41.8433887  99.9201611  96.8302121  42.7928244  99.8513702
  96.7126936  41.5152126  99.0477681  96.1318466  39.0918812  76.5042288
  96.9937630  39.4173711  76.7638106  96.3168810  38.3050308  75.9915354
  88.1485881  47.1741152  88.7822477  87.4549353  46.7595105  88.2692432
  88.8958872  47.2161689  88.1855896 104.2851102  37.9647339  83.6477511
 103.7049771  38.6232143  83.2655564 104.0187035  37.1424684  83.2364929
 102.7354668  37.3652397  85.8498832 103.2354447  37.4768931  85.0413151
 103.3790276  37.0613449  86.4899640  96.7936664  45.2731026  98.7366673
  96.3103746  46.0731386  98.9430562  96.8797603  45.2838971  97.7834117
  90.0622624  47.1059406  86.6588492  90.0393312  47.2047093  85.7070375
  90.3723260  47.9524557  86.9805658  92.7210002  49.1635561  90.7735107
  93.6753255  49.1319503  90.7065038  92.5222525  48.7026185  91.5885332
  93.3109384  47.7336677  93.3405904  94.1302273  48.2280756  93.3640742
  93.5846192  46.8168645  93.3123472 103.0675980  40.1247429  82.7033860
 102.1801835  40.4097080  82.4854055 103.4829969  39.9641193  81.8561137
 106.4190516  40.1493950  86.4188199 107.1950906  40.6390403  86.6912816
 105.6938650  40.5752004  86.8760068 108.8563075  40.8621569  87.4762140
 109.4507566  40.6217305  86.7655448 108.9289658  40.1428700  88.1035676
  91.0760230  54.7055180  87.7905304  90.9414698  53.9455581  87.2243302
  90.6592293  55.4296080  87.3234093 102.2119193  49.8892104  76.7981880
 102.9155044  50.0942106  77.4139535 101.4881842  50.4568866  77.0630963
 103.0417004  45.6401965  82.9184150 102.9852205  46.0970517  82.0791782
 103.5945346  44.8792650  82.7406993 106.8521810  41.4291697  83.7434269
 106.5958744  41.0288333  84.5742477 106.2274678  42.1435491  83.6184409
 111.1634148  44.1687770  86.2505561 110.6033705  44.2380960  87.0237123
 110.5577651  43.9928755  85.5305057  94.2329356  55.6024497  88.0023747
  94.1161740  56.5469930  87.9002437  93.4121803  55.2998059  88.3909546
 104.1205891  50.3274633  78.8480340 104.9551495  49.8955832  78.6657815
 103.9590234  50.1556647  79.7757234 103.7751783  46.8306746  80.2136679
 103.7200587  46.6651018  79.2725123 103.1497838  47.5382779  80.3698869
  88.5644298  42.0674811  94.0398101  89.2103162  41.5573765  94.5285326
  88.3561449  42.8043492  94.6141527 101.0897690  49.1355658  99.5390242
 101.9588850  49.3096311  99.1776877 100.6104442  49.9550075  99.4165971
  97.0847909  36.3314855  79.7921997  97.0726578  37.2756695  79.9490268
  97.9771330  36.1485001  79.4981459  95.2583870  56.2552759  91.2179676
  96.1611117  56.2876370  91.5346170  95.0321241  55.3253210  91.2326011
  97.0137472  55.0083746  87.8789754  96.0633103  55.0085607  87.7654126
  97.3169959  54.2616480  87.3625789 100.9000028  32.9257632  84.0467934
 100.1332424  32.3716119  84.1924617 101.3110733  32.9979501  84.9082086
  92.9041789  39.2142428  98.1373116  93.7673251  38.8579233  98.3476440
  92.3307200  38.8756323  98.8248520 112.7490166  60.8444284  88.9435517
 113.3868576  60.7251032  88.2398857 112.6311009  61.7925128  89.0023469
 109.5579872  60.7971712  88.8797041 109.2198384  60.6812777  87.9917576
 110.4269640  60.3962877  88.8598047 105.4166688  62.6507189  84.8693932
 104.8531553  62.5597126  84.1010220 105.3019083  61.8307093  85.3496425
 110.0399655  61.9506564  94.8383247 110.0288296  61.5559362  93.9663750
 110.2020295  61.2172637  95.4317018 102.9631120  64.1458380  87.7078153
 103.7552412  63.8049205  87.2924452 103.2027770  64.2553355  88.6280306
 110.9966247  66.3178156  80.1808397 110.3454226  66.9032237  79.7942411
 111.7910609  66.8484351  80.2403435 104.9221874  63.4067294  80.5795531
 105.6952750  62.8596281  80.4408407 105.2747273  64.2711543  80.7909993
 106.7606916  64.7343676  93.7862431 106.4696782  65.6389307  93.6709097
 107.3963901  64.7760204  94.5006500 107.6863123  62.1120524  90.3763790
 108.2826695  61.8876547  89.6620753 107.7438095  61.3705270  90.9789238
 107.2588152  59.5659960  78.2113981 107.5113672  59.0441481  77.4497444
 106.3212711  59.4026105  78.3140665 112.3031434  58.5695738  86.0188725
 113.0894524  58.1515161  85.6679142 112.5670139  59.4741830  86.1870373
 112.4741512  64.0068588  80.7177381 111.8387345  64.0803215  81.4298286
 112.1438918  64.5962187  80.0396461 117.7039862  58.5070971  86.9221703
 118.4365034  57.9370188  87.1559533 116.9479217  58.1192572  87.3628209
 106.9784440  61.4688066  80.4138356 106.8620698  60.7932969  81.0819441
 107.0886700  60.9820440  79.5970509 109.3215981  60.9298213  84.1185046
 108.9574189  60.4028834  84.8297967 110.1783097  60.5396682  83.9451531
 115.2265282  52.2192545  91.3816312 114.8948607  53.0887956  91.1577527
 114.6310895  51.9028829  92.0610342 108.9621468  55.9588113  79.1146394
 109.1295871  56.8268349  79.4816865 108.7718637  56.1215394  78.1907683
 111.7196801  64.4205091  90.7812224 111.4197525  65.3230130  90.6728032
 111.3747861  64.1537275  91.6333377 105.1709283  60.8718888  86.8148929
 104.2459779  60.7395102  87.0226621 105.4193696  61.6513108  87.3118871
 115.1193945  56.9387632  88.4609662 114.2110823  56.8703040  88.1668423
 115.0681541  57.4159577  89.2891487 108.9410689  58.4145770  80.0993061
 108.8210314  58.8602821  80.9378541 108.2463278  58.7631088  79.5406599
 102.5318094  60.5152162  87.6492718 102.6610475  60.7686641  88.5632130
 101.8515545  61.1079870  87.3297373 106.7017581  71.1849412  83.7483192
 106.6241611  72.1357237  83.8271673 106.0979225  70.8395284  84.4058118
 109.1934811  58.3577277  96.4044559 108.4168145  58.9171197  96.3947424
 109.8325374  58.8434060  96.9259429 116.9855592  55.1404070  90.2387536
 116.3429972  55.4336603  89.5927330 116.4810520  55.0256990  91.0440732
 114.6395755  58.8867243  80.9273395 115.5513611  59.1194630  80.7521092
 114.1305402  59.4704287  80.3648474 107.4481183  61.1662731  95.9662526
 108.1895868  61.7047775  95.6897350 106.7418169  61.7929019  96.1234078
 112.9236523  63.3091871  94.5634688 113.3319879  62.8674282  93.8189320
 112.2013784  62.7344499  94.8168880 109.2767593  58.2464478  91.9368244
 110.1228788  58.6703891  92.0802893 109.2166231  57.5898102  92.6306808
 113.2465338  63.8693062  88.3186976 112.6174200  64.0338776  87.6163044
 112.8591000  64.2834671  89.0897940 117.1254570  64.8047499  85.6731340
 116.4405608  65.1846401  85.1228373 117.2098419  65.4142826  86.4063288
 112.4267038  55.9068846  93.5949418 112.1827970  56.6610907  93.0583694
 112.7026969  56.2854194  94.4296665 114.3805501  62.4507459  92.2726684
 114.5922396  63.0939218  91.5961065 114.3335249  61.6169775  91.8048614
 111.9831730  55.0625279  89.1763256 111.1216209  55.3606533  89.4679993
 112.0094165  55.2795678  88.2444288 108.7993300  63.6067470  85.5837061
 109.2631645  63.8855173  84.7941684 108.5350098  62.7050914  85.4010152
 105.6917381  63.1538951  88.5216825 106.2618738  63.5826220  87.8834309
 106.2825492  62.8721536  89.2201010 107.7362186  59.7290622  82.3926627
 108.4386229  60.1811666  82.8600553 107.4042814  59.0874441  83.0206520
 106.1842547  58.3202379  96.7677836 105.5541208  59.0018660  97.0013233
 106.0778635  58.2085460  95.8230974 101.4787520  57.9874175  87.6943760
 100.6886574  58.2431703  87.2183871 101.9698767  58.8022513  87.7995801
 115.4951329  65.3279414  90.4449041 116.3168773  64.9259601  90.1631723
 115.4913732  65.2247648  91.3965157 103.4302265  58.3518754  84.6527237
 102.6333428  58.4637448  85.1710733 103.2027857  58.6905406  83.7868127
 109.2607933  64.8763457  92.6009752 109.3252365  65.3383864  93.4367923
 108.5518856  64.2460822  92.7292061  99.7625223  58.2404665  90.1258751
 100.0133261  59.1251675  90.3916327 100.2984771  58.0609267  89.3533843
 108.9755950  66.5431565  82.4688732 108.8401625  67.3883100  82.8973580
 109.5165763  66.7450842  81.7054666 105.4623290  52.6223145  99.1303087
 105.0690235  52.0689343  99.8050731 106.2789430  52.9333723  99.5209605
 102.4285348  64.0607003  83.0416657 102.9409868  64.8550253  83.1922222
 103.0808060  63.3633293  82.9750258 104.2380232  67.1772759  85.1239410
 104.4146861  68.0990724  84.9360394 105.0337066  66.8631178  85.5533790
 108.3791251  54.0381024  96.7223344 109.1200964  54.6388177  96.6427806
 108.6109174  53.2958661  96.1641386 103.5232589  59.2237391  95.0001573
 103.4086104  58.3222648  95.3008672 102.6677107  59.4701088  94.6486390
 110.6024427  67.1655131  96.5989074 110.1588281  66.3791510  96.2809978
 111.2641640  67.3534282  95.9332965 105.3611548  68.6950933  91.1249752
 105.9118973  68.5667996  90.3526746 104.5223024  68.9945822  90.7744645
 112.7005665  67.4457931  94.6270475 112.6824140  68.2666812  94.1350744
 113.6225585  67.3212006  94.8520616 109.1578719  64.9602061  95.4693984
 109.6907056  64.1990349  95.2393292 108.6292800  64.6675712  96.2118138
 112.3248414  50.0662127  90.9987625 111.9812683  50.9563768  90.9226736
 112.6927376  49.8763784  90.1357210 100.3934264  62.3895657  83.8176227
 101.2309486  62.7992665  83.6009935 100.5712532  61.4495099  83.7876421
 112.2898696  60.0570738  79.5060060 111.7745320  60.8275342  79.7448448
 112.0176005  59.3835874  80.1293122 109.8745808  54.9020438  84.5645299
 109.0187404  54.5127289  84.3850938 110.2872759  54.9812399  83.7045084
 111.4044954  52.4366782  88.9636859 110.9009750  52.3996917  88.1504664
 111.6975561  53.3459524  89.0233515 107.6487840  52.5205511  87.9703040
 108.5140837  52.3248320  87.6108930 107.7165349  52.2915863  88.8972397
 117.2632971  62.8103092  81.4413234 116.4862413  62.4714252  80.9968396
 117.9424452  62.8155716  80.7668199 112.0785000  57.9297830  81.3319842
 111.7735135  58.2443979  82.1829985 113.0315442  58.0079250  81.3747175
 110.5231431  64.0888053  82.9812796 109.9952793  63.3540813  82.6686033
 110.0218934  64.8662729  82.7352764 115.5024278  62.2837074  88.0979842
 114.8447952  62.9736335  88.1859971 116.3064677  62.6733506  88.4413828
 105.2550159  54.7507719  85.3419407 105.8293911  54.5282901  84.6092600
 105.8421142  54.8196414  86.0948008 114.3129736  60.6381446  86.1483784
 114.8261618  61.2711438  86.6505493 114.9630960  60.0382642  85.7827144
 105.5819746  56.7812180  79.3615292 104.7457058  57.1186867  79.6824567
 105.4424516  56.6461160  78.4242429 107.5572827  51.6248968  84.0694477
 106.9037239  51.3097985  83.4451091 107.5153301  51.0024709  84.7954299
 108.6684032  61.9068263  75.9847769 107.7611093  61.6757517  76.1838918
 109.1655064  61.1105883  76.1721750 111.5752111  70.6165771  78.9044455
 110.9013809  70.9197467  79.5129413 111.9617933  71.4194851  78.5549912
 110.7910567  58.1130902  88.3942124 109.8733129  58.3345849  88.2363812
 111.2070711  58.1877212  87.5353831 111.5745615  59.5122318  83.5244804
 112.3217434  60.0243715  83.2151926 111.8437204  59.1906370  84.3849198
 109.8472265  62.0080858  80.5071759 108.9383484  61.7239891  80.6044228
 109.8767349  62.4279937  79.6475066 115.0791533  65.6187448  84.2762926
 114.6253860  64.7778358  84.3328117 114.4485499  66.2548846  84.6137706
 114.0224452  56.5479434  85.5063594 113.2847209  56.0356820  85.8373836
 114.2751226  56.1079815  84.6946871 113.5224472  67.4563944  85.2112744
 113.8147446  68.0169002  84.4925110 114.0323092  67.7492505  85.9665904
 114.1236079  49.3255686  86.1005363 114.4294956  48.4653049  85.8131278
 114.8488684  49.9173306  85.9004357 100.4160435  59.7286372  84.4886961
 100.2184835  59.1355733  83.7638027  99.8607099  59.4238583  85.2062900
 108.3957159  59.6209479  86.6081554 108.4505769  58.6683315  86.5324031
 107.5848361  59.7768918  87.0922852 109.5448353  63.5489602  77.8459837
 109.1067783  62.8325461  77.3865475 110.2858794  63.7765717  77.2844929
 106.3349519  58.2386539  84.3671933 105.5217385  58.5380709  84.7737125
 106.8308513  57.8442227  85.0846415 108.4858097  68.2344296  86.3006198
 108.4434276  68.4605142  85.3714730 109.4020796  68.0007670  86.4491999
 111.9323731  58.7028363  93.1986827 112.2873118  58.9299836  94.0581293
 112.5795862  59.0346740  92.5764082 117.6621468  61.8246799  83.9036156
 117.5239366  62.0148395  82.9757345 117.3057687  62.5866182  84.3604207
 105.8263594  55.8104894  89.9833168 106.4662973  55.6693653  89.2856131
 104.9941124  55.5239408  89.6071770 117.6890847  63.8923326  88.9147427
 118.1227354  63.7998615  89.7630481 118.4022428  63.8680826  88.2767443
 106.6023898  65.1107325  86.0968160 107.3964496  64.6157645  85.8950735
 105.8915590  64.5825188  85.7335866 111.4218742  67.4925420  90.4480528
 111.4755764  68.0616356  91.2158244 110.5533524  67.6627305  90.0834565
 102.9106661  59.2550406  82.1727913 101.9804249  59.1934862  82.3897875
 103.0064133  58.7326359  81.3764554 102.8292210  55.7805219  84.7606155
 103.0899028  56.6950552  84.6515315 103.6509383  55.3129662  84.9102767
 104.3017136  57.1942976  91.9304979 104.9740189  56.9860338  91.2817628
 103.4746922  56.9965062  91.4910212 118.5506397  63.9347027  91.4480313
 118.7442287  64.8392837  91.6939588 118.4507015  63.4754446  92.2818898
 110.2042708  53.8204917  93.9470640 109.5570623  54.5194867  93.8535116
 110.9743723  54.2541061  94.3146888 113.6121506  64.0853769  97.0221193
 113.4607012  63.8564321  96.1051277 113.6026185  65.0424371  97.0352538
 110.3806842  61.6585682  92.0067460 111.3098902  61.8096842  91.8336427
 109.9597872  61.7469703  91.1516106 109.1795174  65.6836347  89.7765997
 109.0406259  65.3155131  90.6491936 108.3909770  66.1983986  89.6049955
 109.7743326  70.7845443  81.1191534 109.9495081  70.3133486  81.9337157
 109.0876114  71.4111209  81.3472795 110.7300389  65.0617949  87.1654835
 110.3950221  65.0218719  88.0612485 110.2304335  64.3962665  86.6925245
 104.7044633  60.4685579  92.6907416 104.5664431  59.7365818  93.2918955
 105.6149556  60.3794479  92.4091604 113.6659581  62.4073984  77.4391895
 113.0488751  61.6820812  77.3424948 113.1976069  63.1683344  77.0958969
 107.3326934  60.1805539  92.1791096 108.0426552  59.5398731  92.1377714
 107.2896242  60.4318433  93.1017277 115.3213712  67.1172892  95.0997675
 115.2626258  66.4332112  94.4328258 115.7233231  67.8591882  94.6478301
 106.0455867  57.1670756  93.9986735 105.5093225  56.7161495  94.6508332
 105.4572576  57.3016665  93.2557200 104.3404411  73.9334806  87.8931394
 104.5801009  74.5653330  88.5710413 103.4973607  73.5822846  88.1796753
 105.4558126  56.6259408  76.5613199 104.5787593  56.5048209  76.1975446
 105.9315880  55.8345486  76.3092088 115.3231119  65.0812476  93.3311655
 114.4357898  64.7438398  93.4538054 115.8929671  64.3495507  93.5680420
  96.9760267  61.4136568  86.6554706  97.6631306  61.0998298  86.0675722
  96.8208395  62.3177932  86.3821958 101.7794989  56.3026764  91.0839730
 101.6953177  55.6952434  90.3490140 100.9577695  56.7935782  91.0849226
 108.8532273  69.7413928  90.2972898 108.7802444  70.5468900  90.8092203
 108.4109666  69.9405894  89.4720919 108.6422052  68.9785698  83.8075720
 107.8589574  69.5207378  83.9013944 109.3414798  69.4959678  84.2069961
 111.9518703  54.7880328  86.4509925 112.4487402  54.0350290  86.1310995
 111.1805684  54.8244644  85.8853134 119.8048460  60.4920693  88.0928217
 119.7938336  61.3745409  87.7222150 118.9365839  60.1392244  87.8982754
 111.3130956  69.6400762  92.4531057 112.0258929  70.2748227  92.3806958
 110.8220985  69.7364628  91.6371059 113.0348483  63.5452015  84.0248348
 112.1004762  63.6653477  83.8553053 113.2125152  62.6424482  83.7608358
 108.5353671  56.9297711  86.1781610 108.1651459  56.3768751  86.8662515
 109.0312764  56.3255844  85.6256610 116.4221035  59.3869334  84.5598383
 116.8881487  60.2197326  84.4858685 116.8728535  58.9214316  85.2643641
 106.3642870  67.3895206  93.2736628 107.0652329  68.0231689  93.4266022
 105.8937985  67.7309937  92.5132267 114.4897266  65.7313155  81.5584535
 114.7657110  65.6169750  82.4678409 113.6201764  65.3330640  81.5196708
 114.3937697  51.7549921  88.5989284 113.4800777  51.9854148  88.7671491
 114.8230799  51.8388365  89.4503316 114.1644156  59.9439813  91.0989178
 113.5115606  60.1915721  90.4441631 114.5424536  59.1303951  90.7651655
 111.1251330  69.9799506  85.2017348 111.3073724  69.1621162  85.6645101
 111.9484316  70.1967199  84.7642238 111.4593495  68.9067691  82.4632397
 111.9881262  68.3960146  81.8502559 111.7221715  68.5910222  83.3277930
 110.2131729  60.6859624  97.5855215 109.5372366  60.5853754  98.2557590
 111.0359363  60.5298838  98.0491212 101.9610588  66.9231561  90.2067730
 102.5464025  66.1775249  90.3395634 101.7635426  67.2335517  91.0904394
 104.8149243  69.9582808  85.2230173 104.1459618  70.4428936  84.7394213
 104.6762113  70.2052029  86.1373551  96.5528243  59.4937161  88.9272173
  96.5912342  58.9600752  89.7209292  96.0468536  58.9672366  88.3083151
 108.9554512  71.9926552  91.8212831 109.5072820  72.1558173  92.5861916
 109.2960705  72.5830989  91.1492856 103.9319005  54.3401701  92.4234716
 103.9960331  55.2016532  92.0112113 103.8686125  53.7275703  91.6907074
 103.4071278  56.4124834  96.0707750 104.0343316  56.0301911  96.6845274
 102.5499196  56.1939036  96.4363442 113.8065386  66.8187809  97.6761485
 114.3505290  67.4317767  97.1816440 113.2252231  67.3767388  98.1928498
 100.1836820  58.2201263  82.0026105 100.4790261  57.3111942  81.9493159
  99.2824856  58.1989003  81.6807107 112.0922899  69.9408527  88.8076513
 111.9674039  69.1398267  88.2987459 112.7501990  70.4354721  88.3190483
 103.7131067  56.2957260  87.9853653 102.9917653  56.9093227  87.8461127
 104.5024323  56.8315025  87.9070299 114.1557807  67.7417547  90.4356063
 113.2088143  67.6222898  90.3634390 114.5040581  66.8540045  90.5182325
 106.5157381  53.6311686  94.2594305 107.0391783  53.8773983  95.0220614
 106.2969714  54.4631721  93.8397442 101.9124662  55.9015361  82.1265430
 101.5837368  55.0212740  81.9440536 102.2664033  55.8463029  83.0141819
 111.1604241  67.5370263  86.6360415 111.0129203  66.6086971  86.8167986
 111.9857734  67.5590354  86.1517491 105.0266485  56.1888331  82.4940908
 105.3662558  56.7174252  81.7719516 105.4738605  56.5268737  83.2699474
 114.7638363  68.3598822  87.7225288 115.6884910  68.1541684  87.5849739
 114.5953666  68.1115223  88.6314630 107.7209926  54.5725381  91.9443976
 107.3806746  53.7733194  92.3464656 107.0148932  54.8727092  91.3720809
 108.3726398  51.6574694  90.3971299 109.1952467  51.1835172  90.2750189
 108.6164461  52.4365177  90.8969985 107.0134632  54.6862952  80.6934200
 107.7342995  55.0644205  80.1897917 106.3899936  55.4051829  80.7969178
 111.1565755  55.3908101  81.6292533 111.3729369  56.2732739  81.3281361
 110.6759822  54.9994315  80.8998175 105.8964976  58.3493814  88.2063277
 105.7509557  58.6634117  89.0987559 105.4190180  58.9678715  87.6534176
 107.7561359  55.3396362  88.2544167 107.7422928  54.4437456  87.9176465
 108.4733787  55.3467026  88.8882453 109.6087490  55.7733703  90.2997294
 109.3505268  56.6950773  90.2981625 109.0772530  55.3764137  90.9897758
 114.5533679  68.8784490  83.0787380 114.7270556  68.3130912  82.3261232
 115.0462570  69.6785385  82.8966870 100.3710639  60.8899159  91.1450939
  99.8264107  61.6658967  91.2771213 101.2489988  61.2369963  90.9870060
 107.1598255  54.2210743  83.5231737 107.2814166  53.2927389  83.7222625
 106.8700298  54.2349429  82.6110052 110.0289446  51.9065653  86.6598457
 110.0511142  51.9704986  85.7050436 110.4457505  51.0670162  86.8538963
 120.4073070  61.6420913  84.6977679 120.8504216  60.8928238  84.2996803
 119.5299580  61.6331049  84.3151411 115.5408851  68.1951254  80.1784278
 116.2359756  68.8157947  80.3971593 115.8832001  67.3446605  80.4536656
 101.1576660  60.0169055  94.0381095 100.4158396  60.1651690  94.6245726
 100.8369405  60.2777321  93.1747845 117.4400274  65.6450960  81.7071609
 117.9651598  65.9838232  80.9820929 117.3522627  64.7097975  81.5234743
 109.1020323  69.5585033  93.8361485 109.4107450  69.3134180  94.7084185
 109.8995805  69.7631672  93.3480356 109.1240935  71.7122943  86.0666862
 108.6845925  71.2199322  86.7599719 109.8749052  71.1695911  85.8258937
 101.6033274  67.9034484  86.0691490 102.4291294  67.6038256  85.6890134
 101.2527326  67.1342106  86.5181279 106.5714807  67.2560952  88.1389164
 105.9494817  66.5931657  87.8391391 107.2419674  67.2822084  87.4562811
  99.8041879  65.8220810  87.0280424  98.9673787  65.3942985  86.8464425
  99.7765525  66.0153254  87.9651215 106.6439335  55.7342740  97.7321670
 106.6927490  56.6104863  97.3499439 107.1861849  55.1920133  97.1593313
 117.1294180  66.2783863  97.0122807 116.3389724  66.2608002  96.4727306
 116.8927535  66.8172157  97.7671843 117.2492056  63.1276330  94.3255535
 117.2990060  62.9626337  95.2671058 117.1405979  62.2603589  93.9353416
 106.1328314  65.8064875  81.6147624 106.2816435  66.4900340  80.9614297
 106.9394758  65.7869965  82.1297080 114.5395818  59.1107258  95.6414842
 115.4405681  58.9713723  95.3498840 114.6143792  59.2761712  96.5813019
 108.8738623  56.4874112  94.4868028 108.0041933  56.7807678  94.2150617
 109.1098104  57.0714557  95.2075292 118.7510252  65.5473271  94.5697557
 118.4595061  65.9103252  95.4061018 118.1382384  64.8340279  94.3910889
 119.9505935  63.1126151  87.0900127 120.7852826  63.5515955  87.2537687
 120.0865063  62.6364804  86.2708373 116.9997441  60.6705886  93.0377615
 117.4751562  60.8633532  92.2296466 116.0763006  60.7265072  92.7920998
 103.8880947  61.8330053  82.6208693 103.6426989  60.9292383  82.8188903
 104.0576862  61.8347203  81.6788171 111.5777657  52.7053729  92.0033449
 112.0959601  53.4414756  91.6779937 111.2232790  53.0117723  92.8380208
 103.1576595  57.5658411  80.1194855 102.4645840  57.6402766  79.4634890
 102.9128347  56.8018754  80.6416371 111.8290251  49.1254012  87.5234345
 112.1092005  48.4577201  88.1494772 112.6140858  49.3183107  87.0109009
 109.6323720  68.3013006  79.0859372 109.0597687  68.9203193  78.6329843
 110.2056513  68.8512367  79.6199294 115.6999110  57.5471646  91.2705920
 116.6516532  57.6469744  91.2918144 115.5302560  56.7549914  91.7804005
 113.7213489  54.6327229  91.4565321 113.1263421  54.9132242  90.7611810
 113.4363186  55.1221130  92.2282062 112.8520980  68.5850156  80.2167954
 113.7851653  68.5195718  80.4200829 112.7644192  69.4206423  79.7582487
 115.4808996  67.9016026  77.1771901 115.4022628  67.5675890  78.0707659
 116.3018663  68.3937794  77.1763374 118.1787187  60.7677766  90.3848220
 118.1463507  59.8293766  90.5707904 118.7887811  60.8461802  89.6514045
 110.0170518  59.6373819  76.4275424 110.9629623  59.5080027  76.4963842
 109.6384763  58.8988480  76.9044852 118.3281676  57.5588809  90.4306503
 117.8120724  56.7747266  90.2436432 119.2121624  57.2307526  90.5953023
 115.9892403  51.3029825  86.3902316 115.7917224  50.9944913  87.2745648
 116.5992108  52.0291463  86.5200246 109.9009211  63.6891565  97.8876081
 110.8212220  63.8670164  98.0816128 109.8658794  62.7447610  97.7355780
 108.2013435  57.5623795  76.3630309 107.2944891  57.2656908  76.4393023
 108.4789416  57.2653613  75.4964596  99.1191376  58.8830158  86.8129356
  98.7994160  58.0295467  86.5203730  98.5724804  59.0978736  87.5687323
 102.8971283  61.5992599  90.5298862 103.1157293  62.5309707  90.5486896
 103.3097057  61.2400574  91.3153666 109.8175501  52.1060685  82.5174551
 109.0076229  51.7607770  82.8929797 110.5059918  51.7968228  83.1062162
 111.7466049  51.1838731  84.1398847 112.2997088  51.6034185  84.7988870
 111.9836136  50.2574480  84.1821803 107.7699149  57.1725805  99.9201611
 107.6695876  58.1220162  99.8513702 107.5520691  56.8444044  99.0477681
 106.9712220  54.4210730  76.5042288 107.8331384  54.7465628  76.7638106
 107.1562564  53.6342226  75.9915354  98.9879636  62.5033070  88.7822477
  98.2943107  62.0887023  88.2692432  99.7352627  62.5453606  88.1855896
 115.1244856  53.2939257  83.6477511 114.5443526  53.9524061  83.2655564
 114.8580789  52.4716601  83.2364929 113.5748423  52.6944314  85.8498832
 114.0748201  52.8060849  85.0413151 114.2184031  52.3905367  86.4899640
 107.6330419  60.6022944  98.7366673 107.1497500  61.4023304  98.9430562
 107.7191358  60.6130889  97.7834117 100.9016378  62.4351324  86.6588492
 100.8787066  62.5339011  85.7070375 101.2117015  63.2816474  86.9805658
 103.5603756  64.4927479  90.7735107 104.5147010  64.4611421  90.7065038
 103.3616280  64.0318102  91.5885332 104.1503138  63.0628595  93.3405904
 104.9696027  63.5572673  93.3640742 104.4239946  62.1460563  93.3123472
 113.9069735  55.4539347  82.7033860 113.0195590  55.7388998  82.4854055
 114.3223724  55.2933110  81.8561137 117.2584271  55.4785868  86.4188199
 118.0344661  55.9682320  86.6912816 116.5332405  55.9043922  86.8760068
 119.6956829  56.1913487  87.4762140 120.2901320  55.9509223  86.7655448
 119.7683413  55.4720618  88.1035676 101.9153985  70.0347098  87.7905304
 101.7808453  69.2747499  87.2243302 101.4986047  70.7587998  87.3234093
 113.0512948  65.2184022  76.7981880 113.7548798  65.4234024  77.4139535
 112.3275597  65.7860784  77.0630963 113.8810758  60.9693883  82.9184150
 113.8245960  61.4262434  82.0791782 114.4339101  60.2084567  82.7406993
 117.6915564  56.7583615  83.7434269 117.4352498  56.3580250  84.5742477
 117.0668432  57.4727409  83.6184409 105.0723111  70.9316415  88.0023747
 104.9555495  71.8761848  87.9002437 104.2515557  70.6289977  88.3909546
 114.9599645  65.6566551  78.8480340 115.7945249  65.2247749  78.6657815
 114.7983988  65.4848565  79.7757234 114.6145538  62.1598664  80.2136679
 114.5594341  61.9942936  79.2725123 113.9891593  62.8674697  80.3698869
  99.4038053  57.3966729  94.0398101 100.0496916  56.8865683  94.5285326
  99.1955204  58.1335410  94.6141527 111.9291445  64.4647576  99.5390242
 112.7982604  64.6388228  99.1776877 111.4498196  65.2841993  99.4165971
 107.9241663  51.6606773  79.7921997 107.9120333  52.6048613  79.9490268
 108.8165085  51.4776919  79.4981459 106.0977625  71.5844677  91.2179676
 107.0004872  71.6168287  91.5346170 105.8714995  70.6545128  91.2326011
 107.8531227  70.3375664  87.8789754 106.9026858  70.3377525  87.7654126
 108.1563713  69.5908398  87.3625789 111.7393782  48.2549550  84.0467934
 110.9726178  47.7008036  84.1924617 112.1504487  48.3271419  84.9082086
 103.7435544  54.5434346  98.1373116 104.6067005  54.1871150  98.3476440
 103.1700954  54.2048240  98.8248520 120.3973627  76.1263630  88.8797041
 120.0592138  76.0104695  87.9917576 121.2663395  75.7254795  88.8598047
 116.2560442  77.9799106  84.8693932 115.6925308  77.8889043  84.1010220
 116.1412837  77.1599011  85.3496425 120.8793410  77.2798482  94.8383247
 120.8682051  76.8851280  93.9663750 121.0414049  76.5464554  95.4317018
 113.8024874  79.4750298  87.7078153 114.5946166  79.1341123  87.2924452
 114.0421525  79.5845273  88.6280306 115.7615628  78.7359211  80.5795531
 116.5346504  78.1888198  80.4408407 116.1141027  79.6003461  80.7909993
 117.6000671  80.0635594  93.7862431 117.3090537  80.9681224  93.6709097
 118.2357655  80.1052121  94.5006500 118.5256878  77.4412442  90.3763790
 119.1220450  77.2168465  89.6620753 118.5831849  76.6997188  90.9789238
 118.0981906  74.8951877  78.2113981 118.3507427  74.3733399  77.4497444
 117.1606465  74.7318023  78.3140665 117.8178195  76.7979983  80.4138356
 117.7014453  76.1224887  81.0819441 117.9280455  76.3112357  79.5970509
 120.1609736  76.2590130  84.1185046 119.7967943  75.7320751  84.8297967
 121.0176852  75.8688600  83.9451531 119.8015223  71.2880030  79.1146394
 119.9689625  72.1560267  79.4816865 119.6112392  71.4507312  78.1907683
 116.0103037  76.2010806  86.8148929 115.0853534  76.0687020  87.0226621
 116.2587451  76.9805025  87.3118871 119.7804444  73.7437688  80.0993061
 119.6604069  74.1894738  80.9378541 119.0857032  74.0923005  79.5406599
 113.3711848  75.8444079  87.6492718 113.5004230  76.0978558  88.5632130
 112.6909300  76.4371787  87.3297373 117.5411336  86.5141329  83.7483192
 117.4635365  87.4649155  83.8271673 116.9372979  86.1687202  84.4058118
 120.0328566  73.6869195  96.4044559 119.2561900  74.2463115  96.3947424
 120.6719129  74.1725978  96.9259429 118.2874938  76.4954648  95.9662526
 119.0289622  77.0339692  95.6897350 117.5811923  77.1220937  96.1234078
 120.1161348  73.5756395  91.9368244 120.9622543  73.9995809  92.0802893
 120.0559985  72.9190020  92.6306808 119.6387054  78.9359387  85.5837061
 120.1025400  79.2147090  84.7941684 119.3743852  78.0342832  85.4010152
 116.5311135  78.4830869  88.5216825 117.1012492  78.9118137  87.8834309
 117.1219247  78.2013454  89.2201010 118.5755940  75.0582540  82.3926627
 119.2779983  75.5103583  82.8600553 118.2436569  74.4166359  83.0206520
 117.0236302  73.6494296  96.7677836 116.3934962  74.3310577  97.0013233
 116.9172389  73.5377378  95.8230974 112.3181274  73.3166092  87.6943760
 111.5280328  73.5723621  87.2183871 112.8092521  74.1314430  87.7995801
 114.2696019  73.6810672  84.6527237 113.4727183  73.7929366  85.1710733
 114.0421612  74.0197324  83.7868127 120.1001687  80.2055375  92.6009752
 120.1646120  80.6675782  93.4367923 119.3912611  79.5752740  92.7292061
 110.6018977  73.5696583  90.1258751 110.8527015  74.4543593  90.3916327
 111.1378525  73.3901184  89.3533843 119.8149705  81.8723482  82.4688732
 119.6795379  82.7175018  82.8973580 120.3559517  82.0742760  81.7054666
 116.3017044  67.9515062  99.1303087 115.9083990  67.3981261  99.8050731
 117.1183185  68.2625641  99.5209605 113.2679102  79.3898920  83.0416657
 113.7803623  80.1842171  83.1922222 113.9201815  78.6925211  82.9750258
 115.0773987  82.5064677  85.1239410 115.2540615  83.4282641  84.9360394
 115.8730820  82.1923096  85.5533790 119.2185005  69.3672941  96.7223344
 119.9594719  69.9680094  96.6427806 119.4502928  68.6250579  96.1641386
 114.3626343  74.5529309  95.0001573 114.2479858  73.6514566  95.3008672
 113.5070861  74.7993005  94.6486390 116.2005302  84.0242851  91.1249752
 116.7512727  83.8959914  90.3526746 115.3616778  84.3237740  90.7744645
 119.9972473  80.2893978  95.4693984 120.5300810  79.5282267  95.2393292
 119.4686554  79.9967630  96.2118138 111.2328019  77.7187575  83.8176227
 112.0703241  78.1284583  83.6009935 111.4106287  76.7787017  83.7876421
 120.7139562  70.2312356  84.5645299 119.8581158  69.8419207  84.3850938
 121.1266514  70.3104317  83.7045084 118.4881595  67.8497429  87.9703040
 119.3534591  67.6540238  87.6108930 118.5559103  67.6207781  88.8972397
 121.3625186  79.4179971  82.9812796 120.8346548  78.6832730  82.6686033
 120.8612689  80.1954647  82.7352764 116.0943914  70.0799637  85.3419407
 116.6687665  69.8574819  84.6092600 116.6814896  70.1488332  86.0948008
 116.4213501  72.1104098  79.3615292 115.5850813  72.4478785  79.6824567
 116.2818270  71.9753078  78.4242429 118.3966581  66.9540886  84.0694477
 117.7430994  66.6389903  83.4451091 118.3547055  66.3316626  84.7954299
 119.5077786  77.2360181  75.9847769 118.6004848  77.0049435  76.1838918
 120.0048818  76.4397800  76.1721750 120.6866020  77.3372776  80.5071759
 119.7777239  77.0531809  80.6044228 120.7161103  77.7571854  79.6475066
 111.2554190  75.0578290  84.4886961 111.0578590  74.4647651  83.7638027
 110.7000854  74.7530500  85.2062900 119.2350914  74.9501397  86.6081554
 119.2899523  73.9975233  86.5324031 118.4242116  75.1060836  87.0922852
 120.3842107  78.8781520  77.8459837 119.9461537  78.1617379  77.3865475
 121.1252548  79.1057634  77.2844929 117.1743274  73.5678456  84.3671933
 116.3611139  73.8672627  84.7737125 117.6702268  73.1734145  85.0846415
 119.3251851  83.5636213  86.3006198 119.2828030  83.7897060  85.3714730
 120.2414550  83.3299588  86.4491999 116.6657348  71.1396812  89.9833168
 117.3056728  70.9985571  89.2856131 115.8334879  70.8531325  89.6071770
 117.4417652  80.4399242  86.0968160 118.2358251  79.9449562  85.8950735
 116.7309345  79.9117105  85.7335866 113.7500416  74.5842324  82.1727913
 112.8198004  74.5226779  82.3897875 113.8457888  74.0618277  81.3764554
 113.6685965  71.1097137  84.7606155 113.9292782  72.0242470  84.6515315
 114.4903137  70.6421579  84.9102767 115.1410890  72.5234894  91.9304979
 115.8133943  72.3152256  91.2817628 114.3140677  72.3256980  91.4910212
 120.0188928  81.0128264  89.7765997 119.8800014  80.6447049  90.6491936
 119.2303524  81.5275904  89.6049955 120.6137080  86.1137361  81.1191534
 120.7888836  85.6425404  81.9337157 119.9269868  86.7403127  81.3472795
 121.5694143  80.3909867  87.1654835 121.2343976  80.3510637  88.0612485
 121.0698089  79.7254583  86.6925245 115.5438387  75.7977497  92.6907416
 115.4058185  75.0657736  93.2918955 116.4543311  75.7086397  92.4091604
 118.1720688  75.5097456  92.1791096 118.8820307  74.8690648  92.1377714
 118.1289996  75.7610351  93.1017277 116.8849622  72.4962674  93.9986735
 116.3486979  72.0453413  94.6508332 116.2966330  72.6308583  93.2557200
 115.1798165  89.2626723  87.8931394 115.4194764  89.8945248  88.5710413
 114.3367362  88.9114763  88.1796753 116.2951881  71.9551326  76.5613199
 115.4181347  71.8340126  76.1975446 116.7709634  71.1637404  76.3092088
 107.8154021  76.7428485  86.6554706 108.5025061  76.4290215  86.0675722
 107.6602150  77.6469850  86.3821958 112.6188743  71.6318682  91.0839730
 112.5346932  71.0244351  90.3490140 111.7971450  72.1227700  91.0849226
 119.6926027  85.0705846  90.2972898 119.6196199  85.8760817  90.8092203
 119.2503420  85.2697812  89.4720919 119.4815807  84.3077616  83.8075720
 118.6983329  84.8499296  83.9013944 120.1808552  84.8251596  84.2069961
 119.3747426  72.2589628  86.1781610 119.0045213  71.7060669  86.8662515
 119.8706518  71.6547762  85.6256610 117.2036624  82.7187123  93.2736628
 117.9046084  83.3523606  93.4266022 116.7331739  83.0601855  92.5132267
 112.8004342  82.2523478  90.2067730 113.3857779  81.5067166  90.3395634
 112.6029181  82.5627435  91.0904394 115.6542998  85.2874726  85.2230173
 114.9853373  85.7720853  84.7394213 115.5155867  85.5343946  86.1373551
 107.3921997  74.8229079  88.9272173 107.4306097  74.2892669  89.7209292
 106.8862290  74.2964284  88.3083151 119.7948266  87.3218469  91.8212831
 120.3466574  87.4850091  92.5861916 120.1354460  87.9122907  91.1492856
 114.7712759  69.6693619  92.4234716 114.8354086  70.5308450  92.0112113
 114.7079880  69.0567621  91.6907074 114.2465032  71.7416752  96.0707750
 114.8737071  71.3593829  96.6845274 113.3892951  71.5230954  96.4363442
 111.0230575  73.5493181  82.0026105 111.3184016  72.6403859  81.9493159
 110.1218611  73.5280920  81.6807107 114.5524822  71.6249177  87.9853653
 113.8311408  72.2385145  87.8461127 115.3418078  72.1606942  87.9070299
 117.3551135  68.9603604  94.2594305 117.8785537  69.2065900  95.0220614
 117.1363469  69.7923639  93.8397442 112.7518416  71.2307278  82.1265430
 112.4231123  70.3504657  81.9440536 113.1057787  71.1754947  83.0141819
 115.8660240  71.5180248  82.4940908 116.2056312  72.0466170  81.7719516
 116.3132360  71.8560654  83.2699474 118.5603680  69.9017299  91.9443976
 118.2200501  69.1025112  92.3464656 117.8542687  70.2019010  91.3720809
 119.2120152  66.9866611  90.3971299 120.0346221  66.5127090  90.2750189
 119.4558216  67.7657095  90.8969985 117.8528387  70.0154870  80.6934200
 118.5736749  70.3936123  80.1897917 117.2293691  70.7343747  80.7969178
 116.7358731  73.6785732  88.2063277 116.5903312  73.9926035  89.0987559
 116.2583935  74.2970632  87.6534176 118.5955114  70.6688280  88.2544167
 118.5816683  69.7729373  87.9176465 119.3127542  70.6758944  88.8882453
 120.4481245  71.1025620  90.2997294 120.1899022  72.0242691  90.2981625
 119.9166285  70.7056055  90.9897758 111.2104393  76.2191076  91.1450939
 110.6657861  76.9950884  91.2771213 112.0883743  76.5661881  90.9870060
 117.9992010  69.5502660  83.5231737 118.1207921  68.6219306  83.7222625
 117.7094052  69.5641346  82.6110052 120.8683200  67.2357571  86.6598457
 120.8904897  67.2996904  85.7050436 121.2851259  66.3962079  86.8538963
 111.9970415  75.3460973  94.0381095 111.2552151  75.4943608  94.6245726
 111.6763159  75.6069238  93.1747845 119.9414078  84.8876951  93.8361485
 120.2501204  84.6426098  94.7084185 120.7389560  85.0923589  93.3480356
 119.9634690  87.0414861  86.0666862 119.5239680  86.5491239  86.7599719
 120.7142807  86.4987828  85.8258937 112.4427029  83.2326401  86.0691490
 113.2685049  82.9330173  85.6890134 112.0921081  82.4634024  86.5181279
 117.4108562  82.5852870  88.1389164 116.7888571  81.9223575  87.8391391
 118.0813429  82.6114002  87.4562811 110.6435634  81.1512728  87.0280424
 109.8067542  80.7234902  86.8464425 110.6159279  81.3445171  87.9651215
 117.4833089  71.0634658  97.7321670 117.5321245  71.9396780  97.3499439
 118.0255603  70.5212051  97.1593313 116.9722069  81.1356793  81.6147624
 117.1210189  81.8192257  80.9614297 117.7788512  81.1161883  82.1297080
 119.7132378  71.8166030  94.4868028 118.8435687  72.1099596  94.2150617
 119.9491858  72.4006475  95.2075292 114.7274702  77.1621971  82.6208693
 114.4820744  76.2584301  82.8188903 114.8970616  77.1639121  81.6788171
 113.9970349  72.8950328  80.1194855 113.3039594  72.9694683  79.4634890
 113.7522101  72.1310672  80.6416371 120.4717474  83.6304923  79.0859372
 119.8991441  84.2495111  78.6329843 121.0450268  84.1804285  79.6199294
 119.0407190  72.8915713  76.3630309 118.1338645  72.5948825  76.4393023
 119.3183171  72.5945531  75.4964596 109.9585130  74.2122076  86.8129356
 109.6387915  73.3587384  86.5203730 109.4118558  74.4270654  87.5687323
 113.7365038  76.9284517  90.5298862 113.9551048  77.8601625  90.5486896
 114.1490812  76.5692491  91.3153666 120.6569256  67.4352602  82.5174551
 119.8469984  67.0899687  82.8929797 121.3453673  67.1260146  83.1062162
 118.6092903  72.5017723  99.9201611 118.5089630  73.4512080  99.8513702
 118.3914445  72.1735962  99.0477681 117.8105975  69.7502648  76.5042288
 118.6725138  70.0757546  76.7638106 117.9956319  68.9634144  75.9915354
 109.8273390  77.8324987  88.7822477 109.1336862  77.4178940  88.2692432
 110.5746381  77.8745524  88.1855896 118.4724173  75.9314862  98.7366673
 117.9891255  76.7315222  98.9430562 118.5585112  75.9422806  97.7834117
 111.7410133  77.7643241  86.6588492 111.7180821  77.8630929  85.7070375
 112.0510769  78.6108392  86.9805658 114.3997511  79.8219396  90.7735107
 115.3540764  79.7903339  90.7065038 114.2010034  79.3610020  91.5885332
 114.9896893  78.3920512  93.3405904 115.8089782  78.8864591  93.3640742
 115.2633700  77.4752480  93.3123472 112.7547739  85.3639016  87.7905304
 112.6202207  84.6039417  87.2243302 112.3379802  86.0879916  87.3234093
 115.9116865  86.2608333  88.0023747 115.7949249  87.2053765  87.9002437
 115.0909312  85.9581894  88.3909546 110.2431807  72.7258646  94.0398101
 110.8890671  72.2157600  94.5285326 110.0348958  73.4627328  94.6141527
 118.7635418  66.9898691  79.7921997 118.7514087  67.9340531  79.9490268
 119.6558839  66.8068836  79.4981459 116.9371379  86.9136595  91.2179676
 117.8398626  86.9460205  91.5346170 116.7108750  85.9837046  91.2326011
 118.6924981  85.6667581  87.8789754 117.7420612  85.6669443  87.7654126
 118.9957468  84.9200316  87.3625789 114.5829298  69.8726263  98.1373116
 115.4460760  69.5163068  98.3476440 114.0094709  69.5340158  98.8248520
 118.6547776  92.0720403  86.6554706 119.3418815  91.7582133  86.0675722
 118.4995904  92.9761768  86.3821958 118.2315752  90.1520996  88.9272173
 118.2699851  89.6184587  89.7209292 117.7256045  89.6256202  88.3083151
 121.4829388  96.4804646  87.0280424 120.6461296  96.0526820  86.8464425
 121.4553034  96.6737089  87.9651215 120.7978885  89.5413994  86.8129356
 120.4781669  88.6879302  86.5203730 120.2512313  89.7562572  87.5687323
 120.6667145  93.1616905  88.7822477 119.9730616  92.7470858  88.2692432
 121.4140136  93.2037442  88.1855896  74.1836319   2.2035781  70.4728499
  74.1060349   3.1543606  70.5516979  73.5797963   1.8581654  71.1303425
  71.8223149   4.9521175  74.6176701  72.0619747   5.5839699  75.2955719
  70.9792345   4.6009215  74.9042060  72.2967981   0.9769178  71.9475479
  71.6278356   1.4615305  71.4639519  72.1580851   1.2238398  72.8618858
  76.4373250   3.0112921  78.5458138  76.9891558   3.1744543  79.3107223
  76.7779443   3.6017359  77.8738162  69.3972723   1.0533468  74.5150611
  69.2627191   0.2933869  73.9488609  68.9804785   1.7774368  74.0479400
  72.5541849   1.9502785  74.7269054  72.4374233   2.8948217  74.6247744
  71.7334295   1.6476346  75.1154853  73.5796363   2.6031047  77.9424982
  74.4823609   2.6354657  78.2591477  73.3533733   1.6731498  77.9571318
  87.8792365   7.1450000  75.6042348  87.5410876   7.0291064  74.7162883
  88.7482133   6.7441165  75.5843354  83.7379180   8.9985476  71.5939239
  83.1744045   8.9075413  70.8255527  83.6231575   8.1785380  72.0741731
  88.3612148   8.2984851  81.5628553  88.3500788   7.9037650  80.6909057
  88.5232787   7.5650924  82.1562325  81.2843612  10.4936668  74.4323459
  82.0764904  10.1527492  74.0169759  81.5240262  10.6031643  75.3525613
  89.3178739  12.6656444  66.9053704  88.6666719  13.2510524  66.5187718
  90.1123102  13.1962639  66.9648741  83.2434366   9.7545581  67.3040838
  84.0165242   9.2074568  67.1653714  83.5959765  10.6189830  67.5155299
  85.0819409  11.0821963  80.5107737  84.7909275  11.9867594  80.3954404
  85.7176393  11.1238491  81.2251807  86.0075616   8.4598812  77.1009097
  86.6039188   8.2354834  76.3866060  86.0650587   7.7183557  77.7034545
  90.7954004  10.3546876  67.4422688  90.1599837  10.4281502  68.1543593
  90.4651411  10.9440475  66.7641767  85.2996933   7.8166353  67.1383663
  85.1833191   7.1411256  67.8064747  85.4099193   7.3298727  66.3215816
  87.6428474   7.2776500  70.8430352  87.2786681   6.7507121  71.5543274
  88.4995590   6.8874969  70.6696838  90.0409294  10.7683379  77.5057531
  89.7410017  11.6708417  77.3973338  89.6960353  10.5015562  78.3578684
  83.4921775   7.2197176  73.5394235  82.5672272   7.0873390  73.7471927
  83.7406188   7.9991395  74.0364178  80.8530586   6.8630449  74.3738025
  80.9822967   7.1164928  75.2877436  80.1728038   7.4558157  74.0542680
  85.0230074  17.5327699  70.4728499  84.9454103  18.4835524  70.5516979
  84.4191717  17.1873572  71.1303425  85.7693676   7.5141018  82.6907833
  86.5108360   8.0526062  82.4142656  85.0630661   8.1407307  82.8479384
  91.2449015   9.6570158  81.2879994  91.6532371   9.2152569  80.5434627
  90.5226277   9.0822786  81.5414187  91.5677830  10.2171349  75.0432283
  90.9386692  10.3817063  74.3408351  91.1803492  10.6312958  75.8143247
  95.4467062  11.1525787  72.3976647  94.7618100  11.5324688  71.8473680
  95.5310911  11.7621113  73.1308595  92.7017993   8.7985746  78.9971990
  92.9134889   9.4417506  78.3206371  92.6547742   7.9648062  78.5293920
  87.1205792   9.9545757  72.3082368  87.5844137  10.2333460  71.5186991
  86.8562590   9.0529202  72.1255459  84.0129873   9.5017239  75.2462131
  84.5831230   9.9304507  74.6079616  84.6037985   9.2199823  75.9446317
  79.8000012   4.3352462  74.4189067  79.0099066   4.5909991  73.9429177
  80.2911259   5.1500800  74.5241107  93.8163821  11.6757701  77.1694348
  94.6381265  11.2737888  76.8877029  93.8126224  11.5725935  78.1210463
  81.7514757   4.6997041  71.3772544  80.9545920   4.8115736  71.8956039
  81.5240349   5.0383693  70.5113434  87.5820425  11.2241744  79.3255058
  87.6464857  11.6862152  80.1613230  86.8731349  10.5939109  79.4537368
  78.0837715   4.5882952  76.8504058  78.3345753   5.4729962  77.1161634
  78.6197263   4.4087554  76.0779149  87.2968442  12.8909852  69.1934038
  87.1614117  13.7361388  69.6218886  87.8378255  13.0929130  68.4299972
  80.7497840  10.4085290  69.7661964  81.2622360  11.2028540  69.9167528
  81.4020553   9.7111580  69.6995565  82.5592725  13.5251046  71.8484717
  82.7359353  14.4469011  71.6605701  83.3549558  13.2109465  72.2779097
  81.8445081   5.5715678  81.7246880  81.7298596   4.6700935  82.0253979
  80.9889599   5.8179375  81.3731696  88.9236919  13.5133418  83.3234381
  88.4800773  12.7269797  83.0055285  89.5854132  13.7012569  82.6578271
  83.6824040  15.0429220  77.8495059  84.2331465  14.9146283  77.0772053
  82.8435516  15.3424109  77.4989952  91.0218157  13.7936218  81.3515782
  91.0036632  14.6145099  80.8596051  91.9438077  13.6690294  81.5765923
  87.4791211  11.3080348  82.1939290  88.0119548  10.5468636  81.9638598
  86.9505292  11.0154000  82.9363445  78.7146757   8.7373944  70.5421534
  79.5521979   9.1470953  70.3255242  78.8925024   7.7973386  70.5121728
  88.8443924  10.4366340  69.7058102  88.3165285   9.7019100  69.3931340
  88.3431426  11.2141017  69.4598071  93.8236770   8.6315361  74.8225149
  93.1660444   9.3214622  74.9105277  94.6277169   9.0211793  75.1659135
  86.9896524   8.2546551  62.7093075  86.0823586   8.0235804  62.9084224
  87.4867556   7.4584170  62.8967057  89.8964603  16.9644058  65.6289761
  89.2226302  17.2675755  66.2374719  90.2830425  17.7673138  65.2795218
  88.1684757   8.3559146  67.2317065  87.2595977   8.0718178  67.3289535
  88.1979841   8.7758224  66.3720372  93.4004025  11.9665735  71.0008233
  92.9466352  11.1256645  71.0573423  92.7697992  12.6027133  71.3383013
  91.8436964  13.8042232  71.9358051  92.1359938  14.3647289  71.2170417
  92.3535585  14.0970793  72.6911210  78.7372928   6.0764660  71.2132268
  78.5397328   5.4834020  70.4883334  78.1819592   5.7716870  71.9308206
  87.8660845   9.8967889  64.5705144  87.4280275   9.1803748  64.1110781
  88.6071286  10.1244004  64.0090235  86.8070589  14.5822583  73.0251504
  86.7646768  14.8083429  72.0960036  87.7233288  14.3485957  73.1737305
  96.0103340  10.2401613  75.6392734  96.4439846  10.1476902  76.4875788
  96.7234920  10.2159114  75.0012750  84.9236390  11.4585612  72.8213467
  85.7176989  10.9635932  72.6196042  84.2128082  10.9303475  72.4581173
  89.7431234  13.8403707  77.1725835  89.7968257  14.4094644  77.9403550
  88.8746016  14.0105592  76.8079872  81.2319153   5.6028694  68.8973220
  80.3016742   5.5413149  69.1143182  81.3276625   5.0804646  68.1009861
  96.8718889  10.2825314  78.1725619  97.0654779  11.1871124  78.4184894
  96.7719507   9.8232733  79.0064204  91.9333998  10.4332057  83.7466500
  91.7819504  10.2042608  82.8296584  91.9238677  11.3902658  83.7597845
  88.7019334   8.0063969  78.7312766  89.6311394   8.1575129  78.5581734
  88.2810364   8.0947990  77.8761413  87.5007666  12.0314634  76.5011304
  87.3618752  11.6633418  77.3737242  86.7122262  12.5462273  76.3295262
  88.0955818  17.1323730  67.8436841  88.2707574  16.6611773  68.6582463
  87.4088606  17.7589496  68.0718101  89.0512881  11.4096236  73.8900142
  88.7162714  11.3697006  74.7857792  88.5516827  10.7440952  73.4170552
  83.0257125   6.8163867  79.4152723  82.8876923   6.0844105  80.0164262
  83.9362049   6.7272767  79.1336911  91.9872073   8.7552271  64.1637202
  91.3701243   8.0299099  64.0670254  91.5188561   9.5161631  63.8204276
  85.6539426   6.5283826  78.9036403  86.3639044   5.8877018  78.8623021
  85.6108734   6.7796721  79.8262583  93.6426204  13.4651179  81.8242982
  93.5838751  12.7810399  81.1573565  94.0445723  14.2070169  81.3723608
  82.6616903  20.2813093  74.6176701  82.9013501  20.9131617  75.2955719
  81.8186100  19.9301133  74.9042060  93.6443612  11.4290763  80.0556962
  92.7570390  11.0916685  80.1783360  94.2142163  10.6973794  80.2925727
  75.2972759   7.7614855  73.3800013  75.9843799   7.4476585  72.7921028
  75.1420888   8.6656219  73.1067264  87.1744765  16.0892215  77.0218205
  87.1014937  16.8947187  77.5337509  86.7322158  16.2884181  76.1966226
  86.9634545  15.3263985  70.5321026  86.1802067  15.8685666  70.6259251
  87.6627290  15.8437965  70.9315267  89.6343449  15.9879049  79.1776363
  90.3471421  16.6226514  79.1052265  89.1433477  16.0842915  78.3616365
  91.3560976   9.8930302  70.7493655  90.4217254  10.0131765  70.5798359
  91.5337644   8.9902769  70.4853665  84.6855362  13.7373493  79.9981934
  85.3864822  14.3709976  80.1511328  84.2150477  14.0788224  79.2377573
  92.8109758  12.0791443  68.2829841  93.0869602  11.9648037  69.1923715
  91.9414257  11.6808928  68.2442014  89.4463822  16.3277794  71.9262655
  89.6286217  15.5099450  72.3890407  90.2696808  16.5445486  71.4887545
  89.7805988  15.2545979  69.1877703  90.3093754  14.7438433  68.5747865
  90.0434207  14.9388509  70.0523236  88.5344221   7.0337911  84.3100522
  87.8584858   6.9332041  84.9802897  89.3571855   6.8777125  84.7736519
  80.2823080  13.2709848  76.9313037  80.8676517  12.5253536  77.0640941
  80.0847919  13.5813805  77.8149701  83.1361735  16.3061095  71.9475479
  82.4672111  16.7907223  71.4639519  82.9974605  16.5530316  72.8618858
  74.8740735   5.8415448  75.6517480  74.9124834   5.3079039  76.4454598
  74.3681028   5.3150654  75.0328457  87.2767004  18.3404839  78.5458138
  87.8285312  18.5036460  79.3107223  87.6173198  18.9309277  77.8738162
  92.1277878  13.1666096  84.4006792  92.6717782  13.7796055  83.9061747
  91.5464723  13.7245675  84.9173805  78.5049313   4.5679550  68.7271411
  78.8002754   3.6590229  68.6738465  77.6037348   4.5467290  68.4052414
  90.4135391  16.2886814  75.5321820  90.2886531  15.4876554  75.0232765
  91.0714482  16.7833008  75.0435790  92.4770300  14.0895835  77.1601370
  91.5300635  13.9701186  77.0879697  92.8253073  13.2018333  77.2427631
  89.4816733  13.8848551  73.3605722  89.3341695  12.9565258  73.5413292
  90.3070227  13.9068641  72.8762797  93.0850855  14.7077109  74.4470595
  94.0097402  14.5019971  74.3095046  92.9166158  14.4593511  75.3559936
  92.8746171  15.2262777  69.8032686  93.0483049  14.6609199  69.0506539
  93.3675062  16.0263672  69.6212176  78.6923131   7.2377446  77.8696245
  78.1476599   8.0137254  78.0016519  79.5702481   7.5848250  77.7115367
  93.8621344  14.5429541  66.9029585  94.5572248  15.1636234  67.1216899
  94.2044494  13.6924893  67.1781962  79.4789153   6.3647342  80.7626402
  78.7370889   6.5129978  81.3491032  79.1581897   6.6255608  79.8993151
  95.7612767  11.9929247  68.4316915  96.2864091  12.3316520  67.7066235
  95.6735119  11.0576262  68.2480050  87.4232815  15.9063321  80.5606792
  87.7319942  15.6612467  81.4329492  88.2208297  16.1109959  80.0725662
  87.4453427  18.0601230  72.7912169  87.0058418  17.5677609  73.4845025
  88.1961544  17.5174198  72.5504244  79.9245766  14.2512771  72.7936797
  80.7503786  13.9516543  72.4135440  79.5739818  13.4820393  73.2426585
  84.8927300  13.6039239  74.8634470  84.2707309  12.9409944  74.5636698
  85.5632166  13.6300371  74.1808118  78.1254371  12.1699097  73.7525730
  77.2886280  11.7421272  73.5709731  78.0978017  12.3631541  74.6896521
  95.4506673  12.6262150  83.7368113  94.6602216  12.6086289  83.1972613
  95.2140027  13.1650444  84.4917150  84.4540806  12.1543163  68.3392931
  84.6028927  12.8378627  67.6859604  85.2607250  12.1348253  68.8542387
  97.0722745  11.8951558  81.2942863  96.7807553  12.2581539  82.1306324
  96.4594876  11.1818567  81.1156195  82.2093439   8.1808340  69.3454000
  81.9639481   7.2770670  69.5434210  82.3789354   8.1825491  68.4033478
  87.9536212  14.6491293  65.8104678  87.3810179  15.2681480  65.3575150
  88.5269006  15.1990655  66.3444600  91.1733472  14.9328443  66.9413260
  92.1064145  14.8674005  67.1446136  91.0856685  15.7684710  66.4827793
  93.8021488  14.2494313  63.9017208  93.7235120  13.9154177  64.7952966
  94.6231155  14.7416081  63.9008680  88.2221703  10.0369852  84.6121388
  89.1424713  10.2148451  84.8061434  88.1871286   9.0925897  84.4601087
  77.4403868   5.2308446  73.5374662  77.1206652   4.3773754  73.2449036
  76.8937296   5.4457024  74.2932630  81.2183776   7.9470887  77.2544169
  81.4369785   8.8787994  77.2732203  81.6309549   7.5878861  78.0398973
  77.3092128   8.8511357  75.5067784  76.6155599   8.4365310  74.9937738
  78.0565119   8.8931894  74.9101203  85.9542911   6.9501231  85.4611979
  85.4709993   7.7501591  85.6675868  86.0403850   6.9609176  84.5079423
  79.2228871   8.7829611  73.3833799  79.1999559   8.8817298  72.4315682
  79.5329507   9.6294762  73.7050965  81.8816248  10.8405766  77.4980413
  82.8359502  10.8089708  77.4310345  81.6828772  10.3796390  78.3130639
  82.4715631   9.4106882  80.0651211  83.2908520   9.9050961  80.0886048
  82.7452438   8.4938850  80.0368778  80.2366477  16.3825385  74.5150611
  80.1020945  15.6225786  73.9488609  79.8198539  17.1066285  74.0479400
  91.3725440  11.5662309  63.5227186  92.0761290  11.7712311  64.1384842
  90.6488089  12.1339071  63.7876270  83.3935603  17.2794702  74.7269054
  83.2767987  18.2240135  74.6247744  82.5728049  16.9768264  75.1154853
  93.2812138  12.0044838  65.5725646  94.1157742  11.5726037  65.3903121
  93.1196481  11.8326852  66.5002541  92.9358030   8.5076951  66.9381986
  92.8806834   8.3421223  65.9970430  92.3104085   9.2152984  67.0944175
  77.7250545   3.7445016  80.7643408  78.3709408   3.2343970  81.2530633
  77.5167696   4.4813697  81.3386833  90.2503937  10.8125863  86.2635548
  91.1195097  10.9866516  85.9022183  89.7710688  11.6320280  86.1411278
  84.4190117  17.9322964  77.9424982  85.3217364  17.9646575  78.2591477
  84.1927487  17.0023415  77.9571318  86.1743719  16.6853951  74.6035061
  85.2239350  16.6855812  74.4899433  86.4776205  15.9386685  74.0871095
 101.9096413  22.5214489  75.6680823 102.5474823  22.4021237  74.9644163
 101.7917256  23.4695333  75.7268775  98.7186119  22.4741917  75.6042348
  98.3804631  22.3582982  74.7162883  99.5875887  22.0733082  75.5843354
  94.5772935  24.3277394  71.5939239  94.0137800  24.2367331  70.8255527
  94.4625330  23.5077298  72.0741731  99.2005902  23.6276769  81.5628553
  99.1894543  23.2329567  80.6909057  99.3626541  22.8942842  82.1562325
  92.1237367  25.8228585  74.4323459  92.9158659  25.4819410  74.0169759
  92.3634017  25.9323560  75.3525613 100.1572493  27.9948361  66.9053704
  99.5060473  28.5802442  66.5187718 100.9516856  28.5254556  66.9648741
  94.0828121  25.0837499  67.3040838  94.8558997  24.5366486  67.1653714
  94.4353519  25.9481748  67.5155299  95.9213163  26.4113881  80.5107737
  95.6303029  27.3159512  80.3954404  96.5570148  26.4530408  81.2251807
  96.8469370  23.7890729  77.1009097  97.4432942  23.5646752  76.3866060
  96.9044342  23.0475475  77.7034545  96.4194398  21.2430165  64.9359288
  96.6719919  20.7211686  64.1742751  95.4818957  21.0796310  65.0385972
 101.4637681  20.2465943  72.7434031 102.2500770  19.8285366  72.3924448
 101.7276386  21.1512035  72.9115680 101.6347759  25.6838793  67.4422688
 100.9993592  25.7573420  68.1543593 101.3045165  26.2732392  66.7641767
 106.8646108  20.1841176  73.6467010 107.5971280  19.6140393  73.8804839
 106.1085464  19.7962777  74.0873515  96.1390687  23.1458271  67.1383663
  96.0226945  22.4703174  67.8064747  96.2492947  22.6590645  66.3215816
  98.4822228  22.6068418  70.8430352  98.1180435  22.0799039  71.5543274
  99.3389344  22.2166887  70.6696838 104.3871529  13.8962750  78.1061618
 104.0554853  14.7658161  77.8822833 103.7917142  13.5799034  78.7855649
  98.1227715  17.6358317  65.8391701  98.2902117  18.5038554  66.2062172
  97.9324884  17.7985599  64.9152990 100.8803048  26.0975296  77.5057531
 100.5803771  27.0000335  77.3973338 100.5354108  25.8307480  78.3578684
  94.3315530  22.5489093  73.5394235  93.4066026  22.4165307  73.7471927
  94.5799943  23.3283312  74.0364178 104.2800192  18.6157837  75.1854968
 103.3717069  18.5473245  74.8913729 104.2287788  19.0929781  76.0136794
  98.1016936  20.0915975  66.8238368  97.9816561  20.5373026  67.6623848
  97.4069524  20.4401293  66.2651906  91.6924341  22.1922367  74.3738025
  91.8216722  22.4456846  75.2877436  91.0121792  22.7850075  74.0542680
  95.8623828  32.8619617  70.4728499  95.7847858  33.8127442  70.5516979
  95.2585472  32.5165489  71.1303425  98.3541058  20.0347482  83.1289866
  97.5774392  20.5941402  83.1192730  98.9931621  20.5204265  83.6504736
 106.1461838  16.8174275  76.9632842 105.5036219  17.1106808  76.3172637
 105.6416767  16.7027195  77.7686039 103.8002002  20.5637448  67.6518702
 104.7119858  20.7964835  67.4766399 103.2911649  21.1474492  67.0893780
  96.6087430  22.8432935  82.6907833  97.3502114  23.3817979  82.4142656
  95.9024416  23.4699224  82.8479384 102.0842770  24.9862076  81.2879994
 102.4926126  24.5444486  80.5434627 101.3620031  24.4114703  81.5414187
  98.4373840  19.9234683  78.6613551  99.2835035  20.3474096  78.8048200
  98.3772477  19.2668307  79.3552114 102.4071584  25.5463267  75.0432283
 101.7780447  25.7108981  74.3408351 102.0197246  25.9604876  75.8143247
 106.2860816  26.4817704  72.3976647 105.6011854  26.8616606  71.8473680
 106.3704666  27.0913031  73.1308595 101.5873285  17.5839051  80.3194725
 101.3434217  18.3381112  79.7829000 101.8633216  17.9624399  81.1541972
 103.5411748  24.1277663  78.9971990 103.7528643  24.7709423  78.3206371
 103.4941496  23.2939980  78.5293920 101.1437977  16.7395484  75.9008562
 100.2822456  17.0376738  76.1925300 101.1700412  16.9565883  74.9689595
  97.9599546  25.2837675  72.3082368  98.4237892  25.5625378  71.5186991
  97.6956344  24.3821119  72.1255459  94.8523627  24.8309156  75.2462131
  95.4224984  25.2596425  74.6079616  95.4431739  24.5491741  75.9446317
  96.8968432  21.4060827  69.1171933  97.5992476  21.8581871  69.5845860
  96.5649061  20.7644646  69.7451826  95.3448794  19.9972584  83.4923143
  94.7147454  20.6788865  83.7258539  95.2384882  19.8855665  82.5476281
  90.6393766  19.6644380  74.4189067  89.8492820  19.9201908  73.9429177
  91.1305014  20.4792718  74.5241107 104.6557576  27.0049619  77.1694348
 105.4775020  26.6029806  76.8877029 104.6519979  26.9017853  78.1210463
  92.5908512  20.0288959  71.3772544  91.7939675  20.1407653  71.8956039
  92.3634104  20.3675611  70.5113434  98.4214179  26.5533662  79.3255058
  98.4858612  27.0154069  80.1613230  97.7125103  25.9231027  79.4537368
  88.9231469  19.9174870  76.8504058  89.1739508  20.8021880  77.1161634
  89.4591018  19.7379472  76.0779149 112.7463569  23.3488367  73.5179319
 111.9927277  22.7795765  73.3623324 112.8811110  23.3151032  74.4649954
  98.1362197  28.2201770  69.1934038  98.0007872  29.0653305  69.6218886
  98.6772009  28.4221047  68.4299972  94.6229537  14.2993350  85.8548394
  94.2296482  13.7459548  86.5296038  95.4395677  14.6103928  86.2454911
  91.5891594  25.7377208  69.7661964  92.1016115  26.5320458  69.9167528
  92.2414307  25.0403498  69.6995565  93.3986479  28.8542964  71.8484717
  93.5753107  29.7760929  71.6605701  94.1943313  28.5401383  72.2779097
  97.5397498  15.7151229  83.4468650  98.2807211  16.3158382  83.3673113
  97.7715420  14.9728866  82.8886693  92.6838836  20.9007596  81.7246880
  92.5692351  19.9992853  82.0253979  91.8283353  21.1471293  81.3731696
  99.7630673  28.8425336  83.3234381  99.3194528  28.0561715  83.0055285
 100.4247887  29.0304487  82.6578271  94.5217795  30.3721138  77.8495059
  95.0725220  30.2438201  77.0772053  93.6829270  30.6716027  77.4989952
 101.8611911  29.1228136  81.3515782 101.8430387  29.9437017  80.8596051
 102.7831831  28.9982211  81.5765923  98.3184966  26.6372266  82.1939290
  98.8513302  25.8760554  81.9638598  97.7899047  26.3445917  82.9363445
 101.4854661  11.7432332  77.7232932 101.1418930  12.6333973  77.6472043
 101.8533623  11.5533989  76.8602517  89.5540511  24.0665862  70.5421534
  90.3915733  24.4762870  70.3255242  89.7318779  23.1265304  70.5121728
 101.4504943  21.7340943  66.2305367 100.9351567  22.5045547  66.4693754
 101.1782252  21.0606079  66.8538429  99.0352054  16.5790643  71.2890605
  98.1793651  16.1897494  71.1096244  99.4479006  16.6582604  70.4290391
 100.5651201  14.1136987  75.6882165 100.0615996  14.0767122  74.8749970
 100.8581808  15.0229729  75.7478822  96.8094087  14.1975716  74.6948347
  97.6747084  14.0018525  74.3354236  96.8771596  13.9686068  75.6217704
 106.4239217  24.4873297  68.1658541 105.6468660  24.1484457  67.7213703
 107.1030698  24.4925920  67.4913506 101.2391246  19.6068035  68.0565148
 100.9341382  19.9214184  68.9075291 102.1921689  19.6849455  68.0992481
  99.6837678  25.7658258  69.7058102  99.1559040  25.0311018  69.3931340
  99.1825181  26.5432934  69.4598071 104.6630524  23.9607279  74.8225149
 104.0054199  24.6506540  74.9105277 105.4670923  24.3503710  75.1659135
  94.4156406  16.4277924  72.0664714  94.9900158  16.2053106  71.3337907
  95.0027388  16.4966619  72.8193315 103.4735983  22.3151651  72.8729090
 103.9867865  22.9481643  73.3750800 104.1237207  21.7152847  72.5072450
  94.7425993  18.4582385  66.0860599  93.9063305  18.7957072  66.4069874
  94.6030763  18.3231365  65.1487736  96.7179074  13.3019173  70.7939783
  96.0643486  12.9868190  70.1696398  96.6759548  12.6794914  71.5199606
  97.8290278  23.5838468  62.7093075  96.9217340  23.3527722  62.9084224
  98.3261310  22.7876088  62.8967057 100.7358357  32.2935976  65.6289761
 100.0620056  32.5967672  66.2374719 101.1224179  33.0965056  65.2795218
  99.9516814  19.7901107  75.1187431  99.0339375  20.0116054  74.9609119
 100.3676958  19.8647417  74.2599138 100.7351862  21.1892522  70.2490111
 101.4823681  21.7013920  69.9397233 101.0043451  20.8676575  71.1094505
  99.0078512  23.6851063  67.2317065  98.0989731  23.4010096  67.3289535
  99.0373596  24.1050142  66.3720372 104.2397779  27.2957653  71.0008233
 103.7860106  26.4548563  71.0573423 103.6091746  27.9319051  71.3383013
 103.1830699  18.2249639  72.2308900 102.4453456  17.7127025  72.5619143
 103.4357472  17.7850020  71.4192177 102.6830719  29.1334149  71.9358051
 102.9753693  29.6939206  71.2170417 103.1929339  29.4262710  72.6911210
  89.5766682  21.4056577  71.2132268  89.3791082  20.8125938  70.4883334
  89.0213346  21.1008787  71.9308206  97.5563406  21.2979684  73.3326861
  97.6112016  20.3453520  73.2569337  96.7454608  21.4539123  73.8168159
  98.7054600  25.2259807  64.5705144  98.2674030  24.5095666  64.1110781
  99.4465041  25.4535922  64.0090235  95.4955766  19.9156744  71.0917240
  94.6823631  20.2150914  71.4982432  95.9914760  19.5212432  71.8091722
  97.6464344  29.9114500  73.0251504  97.6040523  30.1375347  72.0960036
  98.5627043  29.6777875  73.1737305 101.0929978  20.3798568  79.9232133
 101.4479365  20.6070041  80.7826599 101.7402109  20.7116945  79.3009389
 106.8227714  23.5017004  70.6281462 106.6845613  23.6918600  69.7002652
 106.4663933  24.2636387  71.0849514  94.9869841  17.4875099  76.7078475
  95.6269220  17.3463858  76.0101438  94.1547371  17.2009612  76.3317077
 106.8497094  25.5693531  75.6392734 107.2833601  25.4768820  76.4875788
 107.5628675  25.5451031  75.0012750  95.7630145  26.7877529  72.8213467
  96.5570743  26.2927850  72.6196042  95.0521837  26.2595393  72.4581173
 100.5824989  29.1695625  77.1725835 100.6362011  29.7386561  77.9403550
  99.7139770  29.3397510  76.8079872  92.0712908  20.9320611  68.8973220
  91.1410496  20.8705067  69.1143182  92.1670380  20.4096564  68.1009861
  91.9898457  17.4575424  71.4851461  92.2505274  18.3720757  71.3760622
  92.8115629  16.9899867  71.6348074  93.4623382  18.8713181  78.6550286
  94.1346436  18.6630543  78.0062935  92.6353169  18.6735267  78.2155518
 107.7112644  25.6117232  78.1725619 107.9048534  26.5163042  78.4184894
 107.6113262  25.1524651  79.0064204  99.3648954  15.4975122  80.6715947
  98.7176869  16.1965072  80.5780423 100.1349970  15.9311266  81.0392195
 102.7727752  25.7623974  83.7466500 102.6213259  25.5334526  82.8296584
 102.7632432  26.7194576  83.7597845  99.5413089  23.3355887  78.7312766
 100.4705149  23.4867047  78.5581734  99.1204119  23.4239908  77.8761413
  98.3401420  27.3606551  76.5011304  98.2012506  26.9925336  77.3737242
  97.5516017  27.8754191  76.3295262  98.9349572  32.4615648  67.8436841
  99.1101328  31.9903691  68.6582463  98.2482360  33.0881414  68.0718101
  99.8906636  26.7388154  73.8900142  99.5556468  26.6988924  74.7857792
  99.3910581  26.0732870  73.4170552  93.8650880  22.1455784  79.4152723
  93.7270678  21.4136023  80.0164262  94.7755803  22.0564684  79.1336911
 102.8265827  24.0844188  64.1637202 102.2094998  23.3591017  64.0670254
 102.3582316  24.8453549  63.8204276  96.4933180  21.8575744  78.9036403
  97.2032799  21.2168936  78.8623021  96.4502488  22.1088638  79.8262583
 104.4819959  28.7943097  81.8242982 104.4232505  28.1102317  81.1573565
 104.8839477  29.5362087  81.3723608  95.2062114  18.8440961  80.7232042
  94.6699471  18.3931700  81.3753638  94.6178823  18.9786870  79.9802506
  93.5010658  35.6105011  74.6176701  93.7407256  36.2423535  75.2955719
  92.6579854  35.2593051  74.9042060  94.6164373  18.3029613  63.2858506
  93.7393840  18.1818414  62.9220752  95.0922126  17.5115691  63.0337394
 104.4837366  26.7582681  80.0556962 103.5964145  26.4208603  80.1783360
 105.0535917  26.0265712  80.2925727  86.1366513  23.0906773  73.3800013
  86.8237553  22.7768503  72.7921028  85.9814642  23.9948137  73.1067264
  90.9401235  17.9796969  77.8085037  90.8559424  17.3722639  77.0735447
  90.1183942  18.4705987  77.8094533  98.0138520  31.4184133  77.0218205
  97.9408691  32.2239105  77.5337509  97.5715913  31.6176099  76.1966226
  97.8028299  30.6555903  70.5321026  97.0195821  31.1977583  70.6259251
  98.5021044  31.1729883  70.9315267 101.1124949  16.4650533  73.1755232
 101.6093649  15.7120495  72.8556302 100.3411931  16.5014849  72.6098441
 108.9654707  22.1690898  74.8173523 108.9544583  23.0515614  74.4467456
 108.0972086  21.8162449  74.6228060 100.4737203  31.3170967  79.1776363
 101.1865175  31.9518432  79.1052265  99.9827232  31.4134833  78.3616365
 102.1954730  25.2222220  70.7493655 101.2611009  25.3423682  70.5798359
 102.3731399  24.3194687  70.4853665  97.6959918  18.6067916  72.9026916
  97.3257706  18.0538956  73.5907822  98.1919011  18.0026049  72.3501916
 105.5827281  21.0639539  71.2843689 106.0487734  21.8967531  71.2103992
 106.0334782  20.5984521  71.9888948  95.5249117  29.0665411  79.9981934
  96.2258576  29.7001894  80.1511328  95.0544232  29.4080142  79.2377573
 103.6503513  27.4083360  68.2829841 103.9263356  27.2939955  69.1923715
 102.7808011  27.0100845  68.2442014 103.5543944  13.4320126  75.3234591
 102.6407024  13.6624353  75.4916797 103.9837046  13.5158570  76.1748623
 103.3250403  21.6210018  77.8234485 102.6721853  21.8685926  77.1686937
 103.7030783  20.8074156  77.4896962 100.2857577  31.6569711  71.9262655
 100.4679971  30.8391367  72.3890407 101.1090563  31.8737404  71.4887545
 100.6199742  30.5837896  69.1877703 101.1487508  30.0730351  68.5747865
 100.8827962  30.2680427  70.0523236  99.3737976  22.3629829  84.3100522
  98.6978613  22.2623958  84.9802897 100.1965610  22.2069043  84.7736519
  91.1216835  28.6001766  76.9313037  91.7070272  27.8545454  77.0640941
  90.9241673  28.9105722  77.8149701  93.9755490  31.6353013  71.9475479
  93.3065865  32.1199141  71.4639519  93.8368360  31.8822234  72.8618858
  85.7134489  21.1707366  75.6517480  85.7518589  20.6370957  76.4454598
  85.2074782  20.6442571  75.0328457  98.1160759  33.6696757  78.5458138
  98.6679067  33.8328378  79.3107223  98.4566952  34.2601194  77.8738162
  93.0925252  16.0171906  79.1480022  93.1566578  16.8786737  78.7357420
  93.0292372  15.4045908  78.4152381  92.5677524  18.0895039  82.7953057
  93.1949563  17.7072116  83.4090581  91.7105443  17.8709241  83.1608749
 102.9671633  28.4958014  84.4006792 103.5111537  29.1087972  83.9061747
 102.3858478  29.0537593  84.9173805  89.3443067  19.8971468  68.7271411
  89.6396508  18.9882146  68.6738465  88.4431103  19.8759207  68.4052414
 101.2529146  31.6178732  75.5321820 101.1280285  30.8168472  75.0232765
 101.9108237  32.1124925  75.0435790  92.8737314  17.9727465  74.7098960
  92.1523900  18.5863432  74.5706433  93.6630570  18.5085229  74.6315606
 103.3164054  29.4187752  77.1601370 102.3694390  29.2993103  77.0879697
 103.6646827  28.5310250  77.2427631  95.6763628  15.3081891  80.9839612
  96.1998029  15.5544188  81.7465921  95.4575961  16.1401926  80.5642749
  91.0730909  17.5785566  68.8510737  90.7443615  16.6982945  68.6685843
  91.4270279  17.5233234  69.7387126 100.3210488  29.2140468  73.3605722
 100.1735450  28.2857176  73.5413292 101.1463981  29.2360559  72.8762797
  94.1872732  17.8658535  69.2186214  94.5268804  18.3944457  68.4964823
  94.6344852  18.2038942  69.9944781 103.9244609  30.0369027  74.4470595
 104.8491157  29.8311888  74.3095046 103.7559913  29.7885428  75.3559936
  96.8816173  16.2495586  78.6689282  96.5412993  15.4503399  79.0709962
  96.1755179  16.5497297  78.0966116  97.5332644  13.3344899  77.1216605
  98.3558714  12.8605377  76.9995496  97.7770708  14.1135382  77.6215292
  96.1740879  16.3633157  67.4179507  96.8949241  16.7414410  66.9143224
  95.5506183  17.0822034  67.5214485 100.3172002  17.0678306  68.3537839
 100.5335616  17.9502944  68.0526668  99.8366069  16.6764519  67.6243481
  95.0571223  20.0264019  74.9308584  94.9115804  20.3404322  75.8232865
  94.5796427  20.6448920  74.3779483  96.9167606  17.0166567  74.9789474
  96.9029175  16.1207661  74.6421771  97.6340034  17.0237231  75.6127760
  98.7693737  17.4503907  77.0242601  98.5111515  18.3720978  77.0226931
  98.2378777  17.0534342  77.7143065 103.7139926  30.5554695  69.8032686
 103.8876803  29.9901117  69.0506539 104.2068817  31.3555589  69.6212176
  89.5316885  22.5669364  77.8696245  88.9870353  23.3429172  78.0016519
  90.4096235  22.9140168  77.7115367  96.3204502  15.8980948  70.2477044
  96.4420413  14.9697594  70.4467931  96.0306544  15.9119634  69.3355359
  99.1895692  13.5835858  73.3843763  99.2117389  13.6475191  72.4295743
  99.6063751  12.7440367  73.5784270 109.5679317  23.3191118  71.4222986
 110.0110463  22.5698443  71.0242109 108.6905827  23.3101254  71.0396718
 104.7015098  29.8721459  66.9029585 105.3966003  30.4928152  67.1216899
 105.0438248  29.0216810  67.1781962  90.3182907  21.6939260  80.7626402
  89.5764643  21.8421895  81.3491032  89.9975652  21.9547526  79.8993151
 106.6006521  27.3221165  68.4316915 107.1257845  27.6608437  67.7066235
 106.5128874  26.3868180  68.2480050  98.2626570  31.2355238  80.5606792
  98.5713696  30.9904385  81.4329492  99.0602052  31.4401877  80.0725662
  98.2847182  33.3893148  72.7912169  97.8452172  32.8969527  73.4845025
  99.0355299  32.8466115  72.5504244  90.7639521  29.5804689  72.7936797
  91.5897541  29.2808461  72.4135440  90.4133573  28.8112311  73.2426585
  95.7321054  28.9331157  74.8634470  95.1101063  28.2701862  74.5636698
  96.4025921  28.9592289  74.1808118  88.9648126  27.4991015  73.7525730
  88.1280034  27.0713189  73.5709731  88.9371771  27.6923458  74.6896521
  95.8045582  17.4112945  84.4566976  95.8533737  18.2875068  84.0744746
  96.3468096  16.8690338  83.8838619 106.2900427  27.9554068  83.7368113
 105.4995971  27.9378207  83.1972613 106.0533782  28.4942362  84.4917150
 106.4098302  24.8046535  81.0500842 106.4596307  24.6396542  81.9916365
 106.3012226  23.9373794  80.6598723  95.2934561  27.4835080  68.3392931
  95.4422681  28.1670545  67.6859604  96.1001004  27.4640170  68.8542387
 103.7002065  20.7877463  82.3660149 104.6011927  20.6483927  82.0744146
 103.7750039  20.9531917  83.3058326  98.0344870  18.1644317  81.2113335
  97.1648179  18.4577883  80.9395923  98.2704350  18.7484762  81.9320599
 107.9116499  27.2243476  81.2942863 107.6201307  27.5873457  82.1306324
 107.2988630  26.5110484  81.1156195 109.1112181  24.7896356  73.8145434
 109.9459073  25.2286160  73.9782994 109.2471310  24.3135009  72.9953679
 106.1603687  22.3476091  79.7622921 106.6357809  22.5403737  78.9541773
 105.2369253  22.4035277  79.5166305  93.0487194  23.5100258  69.3454000
  92.8033236  22.6062588  69.5434210  93.2183108  23.5117408  68.4033478
 100.7383904  14.3823934  78.7278755 101.2565848  15.1184961  78.4025244
 100.3839037  14.6887928  79.5625514  92.3182841  19.2428615  66.8440161
  91.6252086  19.3172970  66.1880197  92.0734593  18.4788959  67.3661678
  98.7929966  29.9783211  65.8104678  98.2203934  30.5973398  65.3575150
  99.3662760  30.5282572  66.3444600 104.8605356  19.2241851  77.9951227
 105.8122779  19.3239948  78.0163451 104.6908807  18.4320119  78.5049311
 102.8819736  16.3097434  78.1810628 102.2869668  16.5902447  77.4857117
 102.5969433  16.7991335  78.9527369 102.0127226  30.2620361  66.9413260
 102.9457899  30.1965922  67.1446136 101.9250439  31.0976628  66.4827793
 104.6415243  29.5786231  63.9017208 104.5628874  29.2446095  64.7952966
 105.4624910  30.0707999  63.9008680 107.3393434  22.4447970  77.1093527
 107.3069754  21.5063971  77.2953210 107.9494058  22.5232007  76.3759352
  99.1776765  21.3144023  63.1520731 100.1235870  21.1850232  63.2209149
  98.7991010  20.5758685  63.6290159 107.4887923  19.2359014  77.1551810
 106.9726971  18.4517471  76.9681739 108.3727871  18.9077731  77.3198329
 105.1498650  12.9800029  73.1147623 104.9523471  12.6715118  73.9990954
 105.7598355  13.7061668  73.2445552 113.1569984  23.5063977  76.2499563
 113.8873372  23.2449265  76.8107267 112.5476929  22.7692699  76.2901631
 111.2385281  21.6471840  76.8474015 110.5118445  21.5127805  76.2390506
 110.8232568  21.9548669  77.6530733  99.0615458  25.3661770  84.6121388
  99.9818467  25.5440369  84.8061434  99.0265041  24.4217815  84.4601087
  97.3619682  19.2394000  63.0875616  96.4551138  18.9427113  63.1638330
  97.6395663  18.9423818  62.2209902  88.2797623  20.5600363  73.5374662
  87.9600407  19.7065671  73.2449036  87.7331051  20.7748941  74.2932630
  92.0577530  23.2762804  77.2544169  92.2763540  24.2079912  77.2732203
  92.4703304  22.9170779  78.0398973  98.9781748  13.7830890  69.2419857
  98.1682476  13.4377975  69.6175103  99.6666165  13.4738433  69.8307469
 100.9072296  12.8608936  70.8644154 101.4603335  13.2804390  71.5234177
 101.1442383  11.9344684  70.9067110  96.9305395  18.8496010  86.6446918
  96.8302122  19.7990367  86.5759009  96.7126937  18.5214249  85.7722988
  96.1318467  16.0980935  63.2287595  96.9937631  16.4235833  63.4883412
  96.3168811  15.3112431  62.7160661  88.1485883  24.1803275  75.5067784
  87.4549354  23.7657228  74.9937738  88.8958874  24.2223811  74.9101203
 104.2851103  14.9709462  70.3722818 103.7049772  15.6294266  69.9900871
 104.0187036  14.1486806  69.9610236 102.7354670  14.3714519  72.5744138
 103.2354448  14.4831054  71.7658457 103.3790278  14.0675572  73.2144947
  96.7936665  22.2793149  85.4611979  96.3103747  23.0793509  85.6675868
  96.8797604  22.2901094  84.5079423  90.0622625  24.1121529  73.3833799
  90.0393313  24.2109216  72.4315682  90.3723262  24.9586679  73.7050965
  92.7210003  26.1697684  77.4980413  93.6753256  26.1381626  77.4310345
  92.5222527  25.7088307  78.3130639  93.3109385  24.7398800  80.0651211
  94.1302274  25.2342878  80.0886048  93.5846193  23.8230768  80.0368778
 103.0675981  17.1309552  69.4279166 102.1801836  17.4159203  69.2099361
 103.4829970  16.9703315  68.5806443 106.4190517  17.1556073  73.1433506
 107.1950908  17.6452525  73.4158122 105.6938652  17.5814127  73.6005375
 108.8563076  17.8683692  74.2007446 109.4507567  17.6279428  73.4900754
 108.9289660  17.1490823  74.8280983  91.0760232  31.7117303  74.5150611
  90.9414700  30.9517704  73.9488609  90.6592294  32.4358203  74.0479400
 102.2119195  26.8954227  63.5227186 102.9155045  27.1004229  64.1384842
 101.4881844  27.4630988  63.7876270 103.0417005  22.6464088  69.6429457
 102.9852206  23.1032639  68.8037089 103.5945347  21.8854772  69.4652299
 106.8521811  18.4353820  70.4679576 106.5958745  18.0350455  71.2987784
 106.2274679  19.1497614  70.3429715 111.1634149  21.1749893  72.9750867
 110.6033707  21.2443082  73.7482429 110.5577652  20.9990878  72.2550364
  94.2329358  32.6086620  74.7269054  94.1161742  33.5532053  74.6247744
  93.4121804  32.3060182  75.1154853 104.1205892  27.3336756  65.5725646
 104.9551496  26.9017954  65.3903121 103.9590235  27.1618769  66.5002541
 103.7751784  23.8368869  66.9381986 103.7200588  23.6713140  65.9970430
 103.1497840  24.5444902  67.0944175  88.5644299  19.0736933  80.7643408
  89.2103163  18.5635887  81.2530633  88.3561450  19.8105615  81.3386833
 101.0897692  26.1417781  86.2635548 101.9588851  26.3158433  85.9022183
 100.6104443  26.9612198  86.1411278  97.0847910  13.3376978  66.5167304
  97.0726580  14.2818818  66.6735575  97.9771332  13.1547123  66.2226765
  95.2583872  33.2614882  77.9424982  96.1611118  33.2938492  78.2591477
  95.0321242  32.3315333  77.9571318  97.0137474  32.0145868  74.6035061
  96.0633105  32.0147730  74.4899433  97.3169960  31.2678603  74.0871095
  92.9041790  16.2204551  84.8618422  93.7673252  15.8641355  85.0721747
  92.3307201  15.8818445  85.5493826 112.7490167  37.8506407  75.6680823
 113.3868577  37.7313154  74.9644163 112.6311010  38.7987251  75.7268775
 109.5579874  37.8033835  75.6042348 109.2198385  37.6874900  74.7162883
 110.4269642  37.4025000  75.5843354 105.4166689  39.6569311  71.5939239
 104.8531554  39.5659248  70.8255527 105.3019084  38.8369216  72.0741731
 110.0399657  38.9568687  81.5628553 110.0288297  38.5621485  80.6909057
 110.2020296  38.2234759  82.1562325 102.9631121  41.1520503  74.4323459
 103.7552413  40.8111328  74.0169759 103.2027771  41.2615478  75.3525613
 110.9966248  43.3240279  66.9053704 110.3454228  43.9094360  66.5187718
 111.7910611  43.8546474  66.9648741 104.9221875  40.4129416  67.3040838
 105.6952751  39.8658403  67.1653714 105.2747274  41.2773666  67.5155299
 106.7606918  41.7405799  80.5107737 106.4696784  42.6451429  80.3954404
 107.3963902  41.7822326  81.2251807 107.6863125  39.1182647  77.1009097
 108.2826697  38.8938669  76.3866060 107.7438096  38.3767393  77.7034545
 107.2588153  36.5722082  64.9359288 107.5113674  36.0503604  64.1742751
 106.3212712  36.4088228  65.0385972 112.3031436  35.5757861  72.7434031
 113.0894525  35.1577284  72.3924448 112.5670140  36.4803953  72.9115680
 112.4741513  41.0130711  67.4422688 111.8387346  41.0865338  68.1543593
 112.1438919  41.6024310  66.7641767 117.7039863  35.5133094  73.6467010
 118.4365035  34.9432311  73.8804839 116.9479219  35.1254694  74.0873515
 106.9784442  38.4750188  67.1383663 106.8620700  37.7995092  67.8064747
 107.0886702  37.9882562  66.3215816 109.3215983  37.9360335  70.8430352
 108.9574190  37.4090956  71.5543274 110.1783098  37.5458804  70.6696838
 115.2265283  29.2254668  78.1061618 114.8948608  30.0950079  77.8822833
 114.6310897  28.9090952  78.7855649 108.9621470  32.9650235  65.8391701
 109.1295872  33.8330472  66.2062172 108.7718639  33.1277517  64.9152990
 111.7196803  41.4267214  77.5057531 111.4197526  42.3292253  77.3973338
 111.3747862  41.1599397  78.3578684 105.1709284  37.8781011  73.5394235
 104.2459781  37.7457225  73.7471927 105.4193697  38.6575230  74.0364178
 115.1193947  33.9449754  75.1854968 114.2110824  33.8765163  74.8913729
 115.0681542  34.4221699  76.0136794 108.9410690  35.4207893  66.8238368
 108.8210316  35.8664943  67.6623848 108.2463279  35.7693210  66.2651906
 102.5318095  37.5214284  74.3738025 102.6610476  37.7748763  75.2877436
 101.8515547  38.1141992  74.0542680 106.7017583  48.1911534  70.4728499
 106.6241612  49.1419359  70.5516979 106.0979226  47.8457407  71.1303425
 109.1934812  35.3639400  83.1289866 108.4168146  35.9233320  83.1192730
 109.8325375  35.8496183  83.6504736 116.9855593  32.1466193  76.9632842
 116.3429973  32.4398726  76.3172637 116.4810521  32.0319113  77.7686039
 114.6395757  35.8929366  67.6518702 115.5513613  36.1256753  67.4766399
 114.1305404  36.4766410  67.0893780 107.4481185  38.1724853  82.6907833
 108.1895869  38.7109897  82.4142656 106.7418170  38.7991142  82.8479384
 112.9236524  40.3153994  81.2879994 113.3319880  39.8736404  80.5434627
 112.2013786  39.7406621  81.5414187 109.2767594  35.2526600  78.6613551
 110.1228789  35.6766014  78.8048200 109.2166232  34.5960225  79.3552114
 113.2465339  40.8755184  75.0432283 112.6174201  41.0400898  74.3408351
 112.8591001  41.2896794  75.8143247 117.1254571  41.8109622  72.3976647
 116.4405609  42.1908523  71.8473680 117.2098420  42.4204949  73.1308595
 112.4267040  32.9130969  80.3194725 112.1827972  33.6673029  79.7829000
 112.7026970  33.2916316  81.1541972 114.3805502  39.4569581  78.9971990
 114.5922398  40.1001341  78.3206371 114.3335251  38.6231898  78.5293920
 111.9831731  32.0687402  75.9008562 111.1216210  32.3668655  76.1925300
 112.0094166  32.2857801  74.9689595 108.7993301  40.6129592  72.3082368
 109.2631646  40.8917295  71.5186991 108.5350099  39.7113037  72.1255459
 105.6917382  40.1601074  75.2462131 106.2618739  40.5888342  74.6079616
 106.2825494  39.8783659  75.9446317 107.7362187  36.7352745  69.1171933
 108.4386230  37.1873788  69.5845860 107.4042815  36.0936564  69.7451826
 106.1842548  35.3264501  83.4923143 105.5541209  36.0080782  83.7258539
 106.0778636  35.2147583  82.5476281 101.4787521  34.9936297  74.4189067
 100.6886575  35.2493826  73.9429177 101.9698768  35.8084635  74.5241107
 115.4951330  42.3341537  77.1694348 116.3168774  41.9321724  76.8877029
 115.4913733  42.2309771  78.1210463 103.4302266  35.3580877  71.3772544
 102.6333429  35.4699571  71.8956039 103.2027858  35.6967529  70.5113434
 109.2607934  41.8825580  79.3255058 109.3252366  42.3445987  80.1613230
 108.5518858  41.2522945  79.4537368  99.7625224  35.2466788  76.8504058
 100.0133262  36.1313798  77.1161634 100.2984772  35.0671389  76.0779149
 108.9755951  43.5493687  69.1934038 108.8401626  44.3945223  69.6218886
 109.5165764  43.7512965  68.4299972 105.4623291  29.6285267  85.8548394
 105.0690237  29.0751466  86.5296038 106.2789431  29.9395846  86.2454911
 102.4285349  41.0669125  69.7661964 102.9409869  41.8612376  69.9167528
 103.0808062  40.3695416  69.6995565 104.2380234  44.1834882  71.8484717
 104.4146862  45.1052846  71.6605701 105.0337067  43.8693301  72.2779097
 108.3791252  31.0443146  83.4468650 109.1200965  31.6450299  83.3673113
 108.6109175  30.3020784  82.8886693 103.5232590  36.2299514  81.7246880
 103.4086105  35.3284771  82.0253979 102.6677108  36.4763210  81.3731696
 110.6024428  44.1717254  83.3234381 110.1588282  43.3853632  83.0055285
 111.2641641  44.3596404  82.6578271 105.3611549  45.7013055  77.8495059
 105.9118974  45.5730119  77.0772053 104.5223025  46.0007944  77.4989952
 112.7005666  44.4520054  81.3515782 112.6824141  45.2728935  80.8596051
 113.6225586  44.3274129  81.5765923 109.1578720  41.9664183  82.1939290
 109.6907057  41.2052471  81.9638598 108.6292801  41.6737835  82.9363445
 112.3248415  27.0724249  77.7232932 111.9812684  27.9625891  77.6472043
 112.6927378  26.8825907  76.8602517 100.3934266  39.3957780  70.5421534
 101.2309488  39.8054788  70.3255242 100.5712533  38.4557222  70.5121728
 112.2898698  37.0632860  66.2305367 111.7745321  37.8337465  66.4693754
 112.0176006  36.3897996  66.8538429 109.8745809  31.9082561  71.2890605
 109.0187405  31.5189411  71.1096244 110.2872761  31.9874522  70.4290391
 111.4044955  29.4428904  75.6882165 110.9009751  29.4059040  74.8749970
 111.6975562  30.3521647  75.7478822 107.6487841  29.5267634  74.6948347
 108.5140838  29.3310443  74.3354236 107.7165350  29.2977986  75.6217704
 117.2632972  39.8165215  68.1658541 116.4862415  39.4776374  67.7213703
 117.9424453  39.8217838  67.4913506 112.0785001  34.9359952  68.0565148
 111.7735136  35.2506102  68.9075291 113.0315443  35.0141372  68.0992481
 110.5231433  41.0950176  69.7058102 109.9952794  40.3602935  69.3931340
 110.0218935  41.8724852  69.4598071 115.5024279  39.2899196  74.8225149
 114.8447953  39.9798458  74.9105277 116.3064678  39.6795628  75.1659135
 105.2550160  31.7569842  72.0664714 105.8293912  31.5345024  71.3337907
 105.8421143  31.8258537  72.8193315 114.3129738  37.6443569  72.8729090
 114.8261619  38.2773561  73.3750800 114.9630961  37.0444764  72.5072450
 105.5819747  33.7874303  66.0860599 104.7457060  34.1248990  66.4069874
 105.4424517  33.6523283  65.1487736 107.5572828  28.6311091  70.7939783
 106.9037240  28.3160108  70.1696398 107.5153302  28.0086831  71.5199606
 108.6684033  38.9130386  62.7093075 107.7611095  38.6819639  62.9084224
 109.1655065  38.1168005  62.8967057 111.5752112  47.6227893  65.6289761
 110.9013811  47.9259590  66.2374719 111.9617934  48.4256974  65.2795218
 110.7910568  35.1193024  75.1187431 109.8733130  35.3407971  74.9609119
 111.2070712  35.1939335  74.2599138 111.5745616  36.5184440  70.2490111
 112.3217435  37.0305837  69.9397233 111.8437206  36.1968493  71.1094505
 109.8472266  39.0142981  67.2317065 108.9383486  38.7302014  67.3289535
 109.8767350  39.4342059  66.3720372 115.0791534  42.6249570  71.0008233
 114.6253861  41.7840480  71.0573423 114.4485500  43.2610969  71.3383013
 114.0224453  33.5541556  72.2308900 113.2847210  33.0418943  72.5619143
 114.2751227  33.1141938  71.4192177 113.5224473  44.4626067  71.9358051
 113.8147447  45.0231124  71.2170417 114.0323094  44.7554628  72.6911210
 114.1236081  26.3317808  72.8250670 114.4294957  25.4715172  72.5376585
 114.8488685  26.9235429  72.6249664 100.4160437  36.7348495  71.2132268
 100.2184837  36.1417856  70.4883334  99.8607101  36.4300705  71.9308206
 108.3957160  36.6271601  73.3326861 108.4505770  35.6745438  73.2569337
 107.5848362  36.7831041  73.8168159 109.5448354  40.5551725  64.5705144
 109.1067784  39.8387583  64.1110781 110.2858795  40.7827839  64.0090235
 106.3349520  35.2448661  71.0917240 105.5217386  35.5442832  71.4982432
 106.8308515  34.8504350  71.8091722 108.4858098  45.2406418  73.0251504
 108.4434277  45.4667264  72.0960036 109.4020797  45.0069793  73.1737305
 111.9323732  35.7090486  79.9232133 112.2873120  35.9361959  80.7826599
 112.5795863  36.0408862  79.3009389 117.6621469  38.8308922  70.6281462
 117.5239368  39.0210518  69.7002652 117.3057688  39.5928304  71.0849514
 105.8263595  32.8167017  76.7078475 106.4662974  32.6755776  76.0101438
 104.9941126  32.5301530  76.3317077 117.6890849  40.8985449  75.6392734
 118.1227355  40.8060738  76.4875788 118.4022429  40.8742949  75.0012750
 106.6023899  42.1169447  72.8213467 107.3964497  41.6219767  72.6196042
 105.8915591  41.5887310  72.4581173 111.4218743  44.4987543  77.1725835
 111.4755766  45.0678479  77.9403550 110.5533525  44.6689428  76.8079872
 102.9106662  36.2612529  68.8973220 101.9804251  36.1996984  69.1143182
 103.0064134  35.7388482  68.1009861 102.8292212  32.7867342  71.4851461
 103.0899029  33.7012675  71.3760622 103.6509384  32.3191784  71.6348074
 104.3017137  34.2005099  78.6550286 104.9740190  33.9922461  78.0062935
 103.4746923  34.0027185  78.2155518 118.5506398  40.9409149  78.1725619
 118.7442288  41.8454960  78.4184894 118.4507016  40.4816568  79.0064204
 110.2042709  30.8267040  80.6715947 109.5570624  31.5256989  80.5780423
 110.9743724  31.2603184  81.0392195 113.6121507  41.0915892  83.7466500
 113.4607013  40.8626444  82.8296584 113.6026186  42.0486493  83.7597845
 110.3806843  38.6647805  78.7312766 111.3098903  38.8158964  78.5581734
 109.9597873  38.7531826  77.8761413 109.1795175  42.6898469  76.5011304
 109.0406261  42.3217254  77.3737242 108.3909771  43.2046109  76.3295262
 109.7743327  47.7907566  67.8436841 109.9495083  47.3195609  68.6582463
 109.0876115  48.4173332  68.0718101 110.7300390  42.0680072  73.8900142
 110.3950223  42.0280842  74.7857792 110.2304336  41.4024788  73.4170552
 104.7044634  37.4747702  79.4152723 104.5664432  36.7427941  80.0164262
 105.6149558  37.3856602  79.1336911 113.6659582  39.4136106  64.1637202
 113.0488752  38.6882934  64.0670254 113.1976070  40.1745466  63.8204276
 107.3326935  37.1867661  78.9036403 108.0426553  36.5460853  78.8623021
 107.2896243  37.4380556  79.8262583 115.3213713  44.1235015  81.8242982
 115.2626260  43.4394235  81.1573565 115.7233232  44.8654005  81.3723608
 106.0455869  34.1732879  80.7232042 105.5093226  33.7223618  81.3753638
 105.4572577  34.3078788  79.9802506 104.3404412  50.9396928  74.6176701
 104.5801010  51.5715453  75.2955719 103.4973609  50.5884968  74.9042060
 105.4558128  33.6321530  63.2858506 104.5787594  33.5110331  62.9220752
 105.9315881  32.8407609  63.0337394 115.3231121  42.0874598  80.0556962
 114.4357899  41.7500520  80.1783360 115.8929672  41.3557630  80.2925727
  96.9760268  38.4198690  73.3800013  97.6631308  38.1060420  72.7921028
  96.8208397  39.3240055  73.1067264 101.7794990  33.3088887  77.8085037
 101.6953179  32.7014556  77.0735447 100.9577696  33.7997905  77.8094533
 108.8532274  46.7476051  77.0218205 108.7802446  47.5531022  77.5337509
 108.4109667  46.9468017  76.1966226 108.6422054  45.9847821  70.5321026
 107.8589576  46.5269501  70.6259251 109.3414799  46.5021800  70.9315267
 111.9518704  31.7942450  73.1755232 112.4487403  31.0412413  72.8556302
 111.1805685  31.8306767  72.6098441 119.8048461  37.4982816  74.8173523
 119.7938337  38.3807531  74.4467456 118.9365841  37.1454367  74.6228060
 111.3130958  46.6462885  79.1776363 112.0258930  47.2810350  79.1052265
 110.8220986  46.7426751  78.3616365 113.0348485  40.5514138  70.7493655
 112.1004763  40.6715600  70.5798359 113.2125153  39.6486604  70.4853665
 108.5353673  33.9359833  72.9026916 108.1651460  33.3830874  73.5907822
 109.0312765  33.3317967  72.3501916 116.4221036  36.3931457  71.2843689
 116.8881488  37.2259448  71.2103992 116.8728536  35.9276438  71.9888948
 106.3642871  44.3957328  79.9981934 107.0652331  45.0293811  80.1511328
 105.8937986  44.7372060  79.2377573 114.4897267  42.7375278  68.2829841
 114.7657111  42.6231873  69.1923715 113.6201766  42.3392763  68.2442014
 114.3937699  28.7612044  75.3234591 113.4800778  28.9916271  75.4916797
 114.8230800  28.8450488  76.1748623 114.1644157  36.9501936  77.8234485
 113.5115607  37.1977843  77.1686937 114.5424537  36.1366074  77.4896962
 111.1251331  46.9861629  71.9262655 111.3073726  46.1683285  72.3890407
 111.9484317  47.2029321  71.4887545 111.4593497  45.9129814  69.1877703
 111.9881263  45.4022269  68.5747865 111.7221716  45.5972344  70.0523236
 110.2131730  37.6921747  84.3100522 109.5372367  37.5915876  84.9802897
 111.0359364  37.5360961  84.7736519 101.9610589  43.9293683  76.9313037
 102.5464026  43.1837371  77.0640941 101.7635428  44.2397640  77.8149701
 104.8149244  46.9644931  71.9475479 104.1459620  47.4491058  71.4639519
 104.6762114  47.2114151  72.8618858  96.5528244  36.4999284  75.6517480
  96.5912343  35.9662874  76.4454598  96.0468537  35.9734489  75.0328457
 108.9554513  48.9988674  78.5458138 109.5072821  49.1620296  79.3107223
 109.2960706  49.5893112  77.8738162 103.9319006  31.3463824  79.1480022
 103.9960333  32.2078655  78.7357420 103.8686127  30.7337826  78.4152381
 103.4071279  33.4186957  82.7953057 104.0343318  33.0364034  83.4090581
 102.5499198  33.2001159  83.1608749 113.8065387  43.8249932  84.4006792
 114.3505291  44.4379890  83.9061747 113.2252232  44.3829510  84.9173805
 100.1836822  35.2263386  68.7271411 100.4790263  34.3174064  68.6738465
  99.2824857  35.2051125  68.4052414 112.0922900  46.9470650  75.5321820
 111.9674040  46.1460390  75.0232765 112.7501991  47.4416843  75.0435790
 103.7131069  33.3019382  74.7098960 102.9917654  33.9155350  74.5706433
 104.5024324  33.8377147  74.6315606 114.1557809  44.7479670  77.1601370
 113.2088144  44.6285021  77.0879697 114.5040582  43.8602168  77.2427631
 106.5157382  30.6373809  80.9839612 107.0391784  30.8836105  81.7465921
 106.2969715  31.4693844  80.5642749 101.9124663  32.9077483  68.8510737
 101.5837369  32.0274862  68.6685843 102.2664034  32.8525152  69.7387126
 111.1604242  44.5432386  73.3605722 111.0129204  43.6149094  73.5413292
 111.9857735  44.5652477  72.8762797 105.0266486  33.1950453  69.2186214
 105.3662559  33.7236374  68.4964823 105.4738607  33.5330859  69.9944781
 114.7638364  45.3660945  74.4470595 115.6884911  45.1603806  74.3095046
 114.5953667  45.1177346  75.3559936 107.7209927  31.5787504  78.6689282
 107.3806747  30.7795317  79.0709962 107.0148933  31.8789215  78.0966116
 108.3726399  28.6636816  77.1216605 109.1952468  28.1897295  76.9995496
 108.6164462  29.4427300  77.6215292 107.0134633  31.6925075  67.4179507
 107.7342996  32.0706328  66.9143224 106.3899938  32.4113952  67.5214485
 111.1565756  32.3970224  68.3537839 111.3729371  33.2794862  68.0526668
 110.6759823  32.0056437  67.6243481 105.8964978  35.3555937  74.9308584
 105.7509558  35.6696240  75.8232865 105.4190181  35.9740837  74.3779483
 107.7561361  32.3458485  74.9789474 107.7422929  31.4499578  74.6421771
 108.4733789  32.3529149  75.6127760 109.6087491  32.7795825  77.0242601
 109.3505269  33.7012896  77.0226931 109.0772532  32.3826260  77.7143065
 114.5533680  45.8846612  69.8032686 114.7270558  45.3193035  69.0506539
 115.0462571  46.6847507  69.6212176 100.3710640  37.8961281  77.8696245
  99.8264108  38.6721089  78.0016519 101.2489990  38.2432086  77.7115367
 107.1598257  31.2272865  70.2477044 107.2814168  30.2989511  70.4467931
 106.8700299  31.2411551  69.3355359 110.0289447  28.9127776  73.3843763
 110.0511144  28.9767109  72.4295743 110.4457506  28.0732284  73.5784270
 120.4073071  38.6483035  71.4222986 120.8504217  37.8990360  71.0242109
 119.5299582  38.6393172  71.0396718 115.5408853  45.2013377  66.9029585
 116.2359757  45.8220069  67.1216899 115.8832003  44.3508728  67.1781962
 101.1576662  37.0231178  80.7626402 100.4158398  37.1713813  81.3491032
 100.8369406  37.2839443  79.8993151 117.4400276  42.6513082  68.4316915
 117.9651600  42.9900355  67.7066235 117.3522628  41.7160098  68.2480050
 109.1020324  46.5647156  80.5606792 109.4107451  46.3196303  81.4329492
 109.8995806  46.7693794  80.0725662 109.1240936  48.7185065  72.7912169
 108.6845927  48.2261444  73.4845025 109.8749053  48.1758033  72.5504244
 101.6033275  44.9096606  72.7936797 102.4291295  44.6100378  72.4135440
 101.2527327  44.1404229  73.2426585 106.5714809  44.2623075  74.8634470
 105.9494818  43.5993780  74.5636698 107.2419675  44.2884206  74.1808118
  99.8041880  42.8282933  73.7525730  98.9673789  42.4005107  73.5709731
  99.7765526  43.0215376  74.6896521 106.6439336  32.7404863  84.4566976
 106.6927492  33.6166985  84.0744746 107.1861850  32.1982256  83.8838619
 117.1294182  43.2845986  83.7368113 116.3389725  43.2670125  83.1972613
 116.8927536  43.8234280  84.4917150 117.2492057  40.1338452  81.0500842
 117.2990062  39.9688460  81.9916365 117.1405980  39.2665711  80.6598723
 106.1328315  42.8126998  68.3392931 106.2816436  43.4962462  67.6859604
 106.9394759  42.7932088  68.8542387 114.5395819  36.1169380  82.3660149
 115.4405682  35.9775845  82.0744146 114.6143794  36.2823835  83.3058326
 108.8738624  33.4936235  81.2113335 108.0041934  33.7869801  80.9395923
 109.1098105  34.0776680  81.9320599 118.7510254  42.5535394  81.2942863
 118.4595062  42.9165374  82.1306324 118.1382385  41.8402402  81.1156195
 119.9505936  40.1188274  73.8145434 120.7852827  40.5578078  73.9782994
 120.0865065  39.6426927  72.9953679 116.9997442  37.6768008  79.7622921
 117.4751563  37.8695655  78.9541773 116.0763007  37.7327194  79.5166305
 103.8880948  38.8392176  69.3454000 103.6426990  37.9354506  69.5434210
 104.0576863  38.8409326  68.4033478 111.5777658  29.7115852  78.7278755
 112.0959602  30.4476879  78.4025244 111.2232791  30.0179845  79.5625514
 103.1576596  34.5720533  66.8440161 102.4645841  34.6464888  66.1880197
 102.9128348  33.8080877  67.3661678 111.8290252  26.1316134  74.2479652
 112.1092006  25.4639324  74.8740078 112.6140859  26.3245230  73.7354316
 115.6999111  34.5533768  77.9951227 116.6516534  34.6531866  78.0163451
 115.5302561  33.7612037  78.5049311 113.7213490  31.6389352  78.1810628
 113.1263422  31.9194364  77.4857117 113.4363187  32.1283253  78.9527369
 112.8520981  45.5912278  66.9413260 113.7851654  45.5257840  67.1446136
 112.7644194  46.4268545  66.4827793 115.4808997  44.9078149  63.9017208
 115.4022629  44.5738012  64.7952966 116.3018664  45.3999917  63.9008680
 118.1787189  37.7739888  77.1093527 118.1463509  36.8355889  77.2953210
 118.7887812  37.8523925  76.3759352 110.0170519  36.6435941  63.1520731
 110.9629624  36.5142149  63.2209149 109.6384764  35.9050603  63.6290159
 118.3281677  34.5650932  77.1551810 117.8120726  33.7809388  76.9681739
 119.2121626  34.2369648  77.3198329 115.9892404  28.3091947  73.1147623
 115.7917225  28.0007035  73.9990954 116.5992110  29.0353586  73.2445552
 109.9009212  40.6953687  84.6121388 110.8212221  40.8732286  84.8061434
 109.8658795  39.7509733  84.4601087 108.2013437  34.5685918  63.0875616
 107.2944892  34.2719030  63.1638330 108.4789418  34.2715736  62.2209902
  99.1191377  35.8892281  73.5374662  98.7994161  35.0357589  73.2449036
  98.5724805  36.1040859  74.2932630 102.8971285  38.6054722  77.2544169
 103.1157294  39.5371830  77.2732203 103.3097058  38.2462696  78.0398973
 109.8175502  29.1122807  69.2419857 109.0076231  28.7669892  69.6175103
 110.5059919  28.8030351  69.8307469 111.7466051  28.1900854  70.8644154
 112.2997089  28.6096307  71.5234177 111.9836137  27.2636602  70.9067110
 107.7699150  34.1787928  86.6446918 107.6695877  35.1282285  86.5759009
 107.5520692  33.8506167  85.7722988 106.9712221  31.4272853  63.2287595
 107.8331385  31.7527751  63.4883412 107.1562565  30.6404349  62.7160661
  98.9879637  39.5095192  75.5067784  98.2943108  39.0949145  74.9937738
  99.7352628  39.5515729  74.9101203 115.1244858  30.3001379  70.3722818
 114.5443527  30.9586183  69.9900871 114.8580790  29.4778724  69.9610236
 113.5748424  29.7006437  72.5744138 114.0748202  29.8122971  71.7658457
 114.2184032  29.3967490  73.2144947 107.6330420  37.6085067  85.4611979
 107.1497502  38.4085427  85.6675868 107.7191359  37.6193011  84.5079423
 100.9016380  39.4413446  73.3833799 100.8787068  39.5401133  72.4315682
 101.2117016  40.2878597  73.7050965 103.5603757  41.4989601  77.4980413
 104.5147011  41.4673544  77.4310345 103.3616281  41.0380225  78.3130639
 104.1503140  40.0690717  80.0651211 104.9696029  40.5634796  80.0886048
 104.4239947  39.1522685  80.0368778 113.9069736  32.4601470  69.4279166
 113.0195591  32.7451120  69.2099361 114.3223725  32.2995233  68.5806443
 117.2584272  32.4847991  73.1433506 118.0344662  32.9744443  73.4158122
 116.5332406  32.9106045  73.6005375 119.6956831  33.1975610  74.2007446
 120.2901321  32.9571346  73.4900754 119.7683414  32.4782740  74.8280983
 101.9153986  47.0409221  74.5150611 101.7808454  46.2809622  73.9488609
 101.4986048  47.7650121  74.0479400 113.0512949  42.2246144  63.5227186
 113.7548799  42.4296147  64.1384842 112.3275598  42.7922906  63.7876270
 113.8810760  37.9756005  69.6429457 113.8245961  38.4324557  68.8037089
 114.4339102  37.2146690  69.4652299 117.6915565  33.7645737  70.4679576
 117.4352500  33.3642373  71.2987784 117.0668433  34.4789531  70.3429715
 105.0723112  47.9378538  74.7269054 104.9555496  48.8823970  74.6247744
 104.2515558  47.6352099  75.1154853 114.9599647  42.6628673  65.5725646
 115.7945251  42.2309872  65.3903121 114.7983990  42.4910687  66.5002541
 114.6145539  39.1660787  66.9381986 114.5594343  39.0005058  65.9970430
 113.9891594  39.8736820  67.0944175  99.4038054  34.4028851  80.7643408
 100.0496917  33.8927805  81.2530633  99.1955205  35.1397533  81.3386833
 111.9291446  41.4709699  86.2635548 112.7982606  41.6450351  85.9022183
 111.4498197  42.2904115  86.1411278 107.9241664  28.6668896  66.5167304
 107.9120334  29.6110736  66.6735575 108.8165086  28.4839041  66.2226765
 106.0977626  48.5906800  77.9424982 107.0004873  48.6230410  78.2591477
 105.8714996  47.6607251  77.9571318 107.8531228  47.3437786  74.6035061
 106.9026859  47.3439648  74.4899433 108.1563714  46.5970521  74.0871095
 111.7393784  25.2611672  70.7713241 110.9726180  24.7070159  70.9169923
 112.1504489  25.3333541  71.6327393 103.7435545  31.5496468  84.8618422
 104.6067006  31.1933273  85.0721747 103.1700955  31.2110363  85.5493826
 120.3973628  53.1325753  75.6042348 120.0592140  53.0166817  74.7162883
 121.2663396  52.7316918  75.5843354 116.2560444  54.9861229  71.5939239
 115.6925309  54.8951166  70.8255527 116.1412839  54.1661134  72.0741731
 120.8793411  54.2860604  81.5628553 120.8682052  53.8913403  80.6909057
 121.0414050  53.5526677  82.1562325 113.8024876  56.4812421  74.4323459
 114.5946168  56.1403245  74.0169759 114.0421526  56.5907396  75.3525613
 115.7615630  55.7421334  67.3040838 116.5346506  55.1950321  67.1653714
 116.1141028  56.6065583  67.5155299 117.6000672  57.0697716  80.5107737
 117.3090538  57.9743347  80.3954404 118.2357656  57.1114244  81.2251807
 118.5256879  54.4474565  77.1009097 119.1220451  54.2230587  76.3866060
 118.5831851  53.7059310  77.7034545 118.0981907  51.9014000  64.9359288
 118.3507428  51.3795521  64.1742751 117.1606466  51.7380145  65.0385972
 117.8178196  53.8042106  67.1383663 117.7014454  53.1287009  67.8064747
 117.9280456  53.3174480  66.3215816 120.1609737  53.2652253  70.8430352
 119.7967944  52.7382874  71.5543274 121.0176853  52.8750722  70.6696838
 119.8015224  48.2942153  65.8391701 119.9689626  49.1622389  66.2062172
 119.6112393  48.4569434  64.9152990 116.0103039  53.2072929  73.5394235
 115.0853535  53.0749143  73.7471927 116.2587452  53.9867148  74.0364178
 119.7804445  50.7499810  66.8238368 119.6604070  51.1956861  67.6623848
 119.0857033  51.0985128  66.2651906 113.3711850  52.8506202  74.3738025
 113.5004231  53.1040681  75.2877436 112.6909301  53.4433910  74.0542680
 117.5411337  63.5203452  70.4728499 117.4635367  64.4711277  70.5516979
 116.9372981  63.1749325  71.1303425 120.0328567  50.6931317  83.1289866
 119.2561901  51.2525238  83.1192730 120.6719130  51.1788100  83.6504736
 118.2874939  53.5016771  82.6907833 119.0289623  54.0401815  82.4142656
 117.5811925  54.1283060  82.8479384 120.1161349  50.5818518  78.6613551
 120.9622544  51.0057932  78.8048200 120.0559986  49.9252142  79.3552114
 119.6387055  55.9421510  72.3082368 120.1025401  56.2209213  71.5186991
 119.3743853  55.0404955  72.1255459 116.5311136  55.4892992  75.2462131
 117.1012493  55.9180260  74.6079616 117.1219248  55.2075576  75.9446317
 118.5755941  52.0644662  69.1171933 119.2779985  52.5165706  69.5845860
 118.2436570  51.4228481  69.7451826 117.0236303  50.6556419  83.4923143
 116.3934963  51.3372700  83.7258539 116.9172391  50.5439501  82.5476281
 112.3181275  50.3228215  74.4189067 111.5280329  50.5785744  73.9429177
 112.8092523  51.1376553  74.5241107 114.2696021  50.6872794  71.3772544
 113.4727184  50.7991489  71.8956039 114.0421613  51.0259447  70.5113434
 120.1001688  57.2117498  79.3255058 120.1646121  57.6737905  80.1613230
 119.3912612  56.5814862  79.4537368 110.6018978  50.5758705  76.8504058
 110.8527017  51.4605715  77.1161634 111.1378527  50.3963307  76.0779149
 119.8149706  58.8785605  69.1934038 119.6795381  59.7237141  69.6218886
 120.3559518  59.0804883  68.4299972 116.3017046  44.9577185  85.8548394
 115.9083991  44.4043383  86.5296038 117.1183186  45.2687763  86.2454911
 113.2679103  56.3961043  69.7661964 113.7803624  57.1904293  69.9167528
 113.9201816  55.6987333  69.6995565 115.0773988  59.5126799  71.8484717
 115.2540616  60.4344764  71.6605701 115.8730822  59.1985219  72.2779097
 119.2185007  46.3735064  83.4468650 119.9594720  46.9742217  83.3673113
 119.4502929  45.6312702  82.8886693 114.3626345  51.5591431  81.7246880
 114.2479860  50.6576688  82.0253979 113.5070862  51.8055128  81.3731696
 116.2005303  61.0304973  77.8495059 116.7512729  60.9022036  77.0772053
 115.3616779  61.3299862  77.4989952 119.9972475  57.2956101  82.1939290
 120.5300811  56.5344389  81.9638598 119.4686556  57.0029753  82.9363445
 111.2328020  54.7249697  70.5421534 112.0703242  55.1346706  70.3255242
 111.4106288  53.7849139  70.5121728 120.7139563  47.2374479  71.2890605
 119.8581160  46.8481329  71.1096244 121.1266515  47.3166440  70.4290391
 118.4881596  44.8559552  74.6948347 119.3534593  44.6602360  74.3354236
 118.5559105  44.6269904  75.6217704 121.3625187  56.4242093  69.7058102
 120.8346549  55.6894853  69.3931340 120.8612690  57.2016770  69.4598071
 116.0943915  47.0861760  72.0664714 116.6687667  46.8636941  71.3337907
 116.6814897  47.1550454  72.8193315 116.4213502  49.1166221  66.0860599
 115.5850814  49.4540907  66.4069874 116.2818272  48.9815201  65.1487736
 118.3966583  43.9603009  70.7939783 117.7430995  43.6452026  70.1696398
 118.3547057  43.3378749  71.5199606 119.5077787  54.2422304  62.7093075
 118.6004849  54.0111557  62.9084224 120.0048819  53.4459923  62.8967057
 120.6866021  54.3434899  67.2317065 119.7777240  54.0593931  67.3289535
 120.7161105  54.7633977  66.3720372 111.2554191  52.0640413  71.2132268
 111.0578591  51.4709773  70.4883334 110.7000855  51.7592623  71.9308206
 119.2350915  51.9563519  73.3326861 119.2899525  51.0037356  73.2569337
 118.4242117  52.1122958  73.8168159 120.3842109  55.8843642  64.5705144
 119.9461539  55.1679501  64.1110781 121.1252550  56.1119757  64.0090235
 117.1743275  50.5740579  71.0917240 116.3611140  50.8734749  71.4982432
 117.6702269  50.1796268  71.8091722 119.3251853  60.5698336  73.0251504
 119.2828032  60.7959182  72.0960036 120.2414552  60.3361710  73.1737305
 116.6657350  48.1458934  76.7078475 117.3056729  48.0047693  76.0101438
 115.8334880  47.8593448  76.3317077 117.4417653  57.4461365  72.8213467
 118.2358252  56.9511685  72.6196042 116.7309346  56.9179228  72.4581173
 113.7500417  51.5904447  68.8973220 112.8198005  51.5288902  69.1143182
 113.8457889  51.0680399  68.1009861 113.6685966  48.1159259  71.4851461
 113.9292783  49.0304593  71.3760622 114.4903138  47.6483702  71.6348074
 115.1410891  49.5297017  78.6550286 115.8133945  49.3214379  78.0062935
 114.3140678  49.3319103  78.2155518 120.0188929  58.0190387  76.5011304
 119.8800015  57.6509171  77.3737242 119.2303526  58.5338026  76.3295262
 120.6137081  63.1199483  67.8436841 120.7888837  62.6487526  68.6582463
 119.9269869  63.7465249  68.0718101 121.5694145  57.3971989  73.8900142
 121.2343977  57.3572759  74.7857792 121.0698090  56.7316705  73.4170552
 115.5438389  52.8039620  79.4152723 115.4058187  52.0719858  80.0164262
 116.4543312  52.7148520  79.1336911 118.1720689  52.5159579  78.9036403
 118.8820308  51.8752771  78.8623021 118.1289997  52.7672474  79.8262583
 116.8849623  49.5024797  80.7232042 116.3486980  49.0515535  81.3753638
 116.2966332  49.6370706  79.9802506 115.1798167  66.2688846  74.6176701
 115.4194765  66.9007370  75.2955719 114.3367363  65.9176886  74.9042060
 116.2951882  48.9613448  63.2858506 115.4181349  48.8402249  62.9220752
 116.7709635  48.1699526  63.0337394 107.8154022  53.7490608  73.3800013
 108.5025062  53.4352338  72.7921028 107.6602151  54.6531973  73.1067264
 112.6188744  48.6380804  77.8085037 112.5346933  48.0306474  77.0735447
 111.7971451  49.1289823  77.8094533 119.6926029  62.0767968  77.0218205
 119.6196200  62.8822940  77.5337509 119.2503422  62.2759934  76.1966226
 119.4815808  61.3139739  70.5321026 118.6983330  61.8561419  70.6259251
 120.1808553  61.8313718  70.9315267 119.3747427  49.2651751  72.9026916
 119.0045215  48.7122791  73.5907822 119.8706520  48.6609884  72.3501916
 117.2036626  59.7249246  79.9981934 117.9046085  60.3585729  80.1511328
 116.7331741  60.0663978  79.2377573 112.8004344  59.2585601  76.9313037
 113.3857781  58.5129289  77.0640941 112.6029182  59.5689558  77.8149701
 115.6542999  62.2936848  71.9475479 114.9853374  62.7782976  71.4639519
 115.5155869  62.5406069  72.8618858 107.3921998  51.8291201  75.6517480
 107.4306098  51.2954792  76.4454598 106.8862291  51.3026407  75.0328457
 119.7948268  64.3280592  78.5458138 120.3466576  64.4912213  79.3107223
 120.1354461  64.9185030  77.8738162 114.7712761  46.6755742  79.1480022
 114.8354087  47.5370573  78.7357420 114.7079881  46.0629743  78.4152381
 114.2465033  48.7478874  82.7953057 114.8737072  48.3655952  83.4090581
 113.3892952  48.5293076  83.1608749 111.0230576  50.5555303  68.7271411
 111.3184017  49.6465982  68.6738465 110.1218612  50.5343043  68.4052414
 114.5524823  48.6311300  74.7098960 113.8311409  49.2447268  74.5706433
 115.3418079  49.1669065  74.6315606 117.3551137  45.9665726  80.9839612
 117.8785538  46.2128023  81.7465921 117.1363470  46.7985761  80.5642749
 112.7518418  48.2369401  68.8510737 112.4231124  47.3566780  68.6685843
 113.1057788  48.1817070  69.7387126 115.8660241  48.5242371  69.2186214
 116.2056313  49.0528292  68.4964823 116.3132361  48.8622777  69.9944781
 118.5603682  46.9079422  78.6689282 118.2200502  46.1087235  79.0709962
 117.8542688  47.2081132  78.0966116 119.2120153  43.9928734  77.1216605
 120.0346223  43.5189212  76.9995496 119.4558217  44.7719218  77.6215292
 117.8528388  47.0216992  67.4179507 118.5736750  47.3998245  66.9143224
 117.2293692  47.7405869  67.5214485 116.7358732  50.6847855  74.9308584
 116.5903313  50.9988158  75.8232865 116.2583936  51.3032755  74.3779483
 118.5955115  47.6750403  74.9789474 118.5816684  46.7791496  74.6421771
 119.3127543  47.6821066  75.6127760 120.4481246  48.1087743  77.0242601
 120.1899024  49.0304813  77.0226931 119.9166286  47.7118177  77.7143065
 111.2104394  53.2253199  77.8696245 110.6657862  54.0013007  78.0016519
 112.0883744  53.5724004  77.7115367 117.9992011  46.5564783  70.2477044
 118.1207922  45.6281429  70.4467931 117.7094053  46.5703469  69.3355359
 120.8683201  44.2419693  73.3843763 120.8904898  44.3059026  72.4295743
 121.2851260  43.4024202  73.5784270 111.9970416  52.3523095  80.7626402
 111.2552152  52.5005731  81.3491032 111.6763160  52.6131361  79.8993151
 119.9414079  61.8939074  80.5606792 120.2501205  61.6488220  81.4329492
 120.7389561  62.0985712  80.0725662 119.9634691  64.0476983  72.7912169
 119.5239681  63.5553362  73.4845025 120.7142808  63.5049951  72.5504244
 112.4427030  60.2388524  72.7936797 113.2685050  59.9392296  72.4135440
 112.0921082  59.4696146  73.2426585 117.4108563  59.5914992  74.8634470
 116.7888572  58.9285697  74.5636698 118.0813430  59.6176124  74.1808118
 110.6435635  58.1574850  73.7525730 109.8067543  57.7297025  73.5709731
 110.6159280  58.3507294  74.6896521 117.4833091  48.0696780  84.4566976
 117.5321246  48.9458903  84.0744746 118.0255605  47.5274173  83.8838619
 116.9722070  58.1418916  68.3392931 117.1210190  58.8254380  67.6859604
 117.7788513  58.1224006  68.8542387 119.7132379  48.8228153  81.2113335
 118.8435688  49.1161719  80.9395923 119.9491859  49.4068598  81.9320599
 114.7274703  54.1684093  69.3454000 114.4820745  53.2646423  69.5434210
 114.8970617  54.1701244  68.4033478 113.9970350  49.9012451  66.8440161
 113.3039595  49.9756806  66.1880197 113.7522102  49.1372794  67.3661678
 120.4717475  60.6367046  65.8104678 119.8991443  61.2557233  65.3575150
 121.0450269  61.1866408  66.3444600 119.0407191  49.8977835  63.0875616
 118.1338647  49.6010948  63.1638330 119.3183172  49.6007653  62.2209902
 109.9585132  51.2184199  73.5374662 109.6387916  50.3649507  73.2449036
 109.4118560  51.4332777  74.2932630 113.7365039  53.9346640  77.2544169
 113.9551049  54.8663747  77.2732203 114.1490813  53.5754614  78.0398973
 120.6569257  44.4414725  69.2419857 119.8469985  44.0961810  69.6175103
 121.3453674  44.1322269  69.8307469 118.6092904  49.5079845  86.6446918
 118.5089631  50.4574202  86.5759009 118.3914446  49.1798084  85.7722988
 117.8105976  46.7564770  63.2287595 118.6725140  47.0819669  63.4883412
 117.9956320  45.9696266  62.7160661 109.8273392  54.8387110  75.5067784
 109.1336863  54.4241063  74.9937738 110.5746383  54.8807647  74.9101203
 118.4724174  52.9376984  85.4611979 117.9891256  53.7377344  85.6675868
 118.5585113  52.9484929  84.5079423 111.7410134  54.7705364  73.3833799
 111.7180822  54.8693051  72.4315682 112.0510771  55.6170515  73.7050965
 114.3997512  56.8281519  77.4980413 115.3540765  56.7965461  77.4310345
 114.2010035  56.3672143  78.3130639 114.9896894  55.3982635  80.0651211
 115.8089783  55.8926714  80.0886048 115.2633702  54.4814603  80.0368778
 112.7547741  62.3701138  74.5150611 112.6202209  61.6101539  73.9488609
 112.3379803  63.0942038  74.0479400 115.9116867  63.2670455  74.7269054
 115.7949251  64.2115888  74.6247744 115.0909313  62.9644017  75.1154853
 110.2431808  49.7320769  80.7643408 110.8890672  49.2219723  81.2530633
 110.0348959  50.4689450  81.3386833 118.7635419  43.9960813  66.5167304
 118.7514089  44.9402653  66.6735575 119.6558841  43.8130959  66.2226765
 116.9371381  63.9198717  77.9424982 117.8398627  63.9522328  78.2591477
 116.7108751  62.9899168  77.9571318 118.6924983  62.6729704  74.6035061
 117.7420614  62.6731565  74.4899433 118.9957469  61.9262438  74.0871095
 114.5829299  46.8788386  84.8618422 115.4460761  46.5225191  85.0721747
 114.0094710  46.5402281  85.5493826 118.6547777  69.0782526  73.3800013
 119.3418817  68.7644256  72.7921028 118.4995906  69.9823890  73.1067264
 118.2315753  67.1583119  75.6517480 118.2699852  66.6246710  76.4454598
 117.7256046  66.6318324  75.0328457 121.4829389  73.4866768  73.7525730
 120.6461298  73.0588943  73.5709731 121.4553035  73.6799211  74.6896521
 120.7978886  66.5476116  73.5374662 120.4781670  65.6941424  73.2449036
 120.2512314  66.7624694  74.2932630 120.6667146  70.1679028  75.5067784
 119.9730617  69.7532981  74.9937738 121.4140137  70.2099564  74.9101203
  95.8623829   9.8681739  57.1973805  95.7847859  10.8189564  57.2762286
  95.2585473   9.5227612  57.8548732  93.5010659  12.6167133  61.3422007
  93.7407257  13.2485657  62.0201026  92.6579855  12.2655173  61.6287367
  93.9755491   8.6415136  58.6720786  93.3065866   9.1261263  58.1884826
  93.8368361   8.8884356  59.5864164  98.1160760  10.6758879  65.2703444
  98.6679068  10.8390501  66.0352530  98.4566953  11.2663317  64.5983469
  91.0760233   8.7179426  61.2395918  90.9414701   7.9579827  60.6733916
  90.6592295   9.4420325  60.7724707  94.2329359   9.6148743  61.4514360
  94.1161743  10.5594175  61.3493051  93.4121805   9.3122304  61.8400160
  95.2583873  10.2677005  64.6670289  96.1611120  10.3000615  64.9836784
  95.0321243   9.3377455  64.6816625 109.5579875  14.8095958  62.3287655
 109.2198386  14.6937022  61.4408189 110.4269643  14.4087123  62.3088661
 105.4166690  16.6631434  58.3184545 104.8531556  16.5721371  57.5500833
 105.3019086  15.8431338  58.7987038 110.0399658  15.9630809  68.2873860
 110.0288299  15.5683608  67.4154364 110.2020297  15.2296882  68.8807631
 102.9631122  18.1582626  61.1568766 103.7552414  17.8173450  60.7415065
 103.2027773  18.2677601  62.0770919 110.9966249  20.3302402  53.6299010
 110.3454229  20.9156482  53.2433024 111.7910612  20.8608597  53.6894048
 104.9221876  17.4191539  54.0286145 105.6952752  16.8720526  53.8899021
 105.2747275  18.2835788  54.2400606 106.7606919  18.7467921  67.2353044
 106.4696785  19.6513552  67.1199710 107.3963903  18.7884449  67.9497114
 107.6863126  16.1244770  63.8254404 108.2826698  15.9000792  63.1111367
 107.7438097  15.3829515  64.4279852 112.4741514  18.0192834  54.1667995
 111.8387347  18.0927460  54.8788899 112.1438921  18.6086432  53.4887074
 106.9784443  15.4812311  53.8628970 106.8620701  14.8057214  54.5310054
 107.0886703  14.9944685  53.0461123 109.3215984  14.9422458  57.5675659
 108.9574191  14.4153079  58.2788580 110.1783100  14.5520927  57.3942144
 111.7196804  18.4329337  64.2302838 111.4197527  19.3354375  64.1218645
 111.3747864  18.1661520  65.0823991 105.1709285  14.8843133  60.2639542
 104.2459782  14.7519348  60.4717234 105.4193699  15.6637353  60.7609485
 102.5318097  14.5276407  61.0983331 102.6610478  14.7810886  62.0122743
 101.8515548  15.1204115  60.7787986 106.7017584  25.1973657  57.1973805
 106.6241613  26.1481482  57.2762286 106.0979227  24.8519529  57.8548732
 107.4481186  15.1786976  69.4153139 108.1895870  15.7172020  69.1387963
 106.7418171  15.8053265  69.5724691 112.9236526  17.3216116  68.0125301
 113.3319882  16.8798527  67.2679933 112.2013787  16.7468744  68.2659494
 113.2465340  17.8817307  61.7677590 112.6174203  18.0463021  61.0653658
 112.8591002  18.2958916  62.5388554 117.1254572  18.8171745  59.1221953
 116.4405610  19.1970646  58.5718987 117.2098421  19.4267071  59.8553901
 114.3805504  16.4631704  65.7217297 114.5922399  17.1063464  65.0451678
 114.3335252  15.6294020  65.2539227 108.7993302  17.6191715  59.0327675
 109.2631648  17.8979418  58.2432297 108.5350100  16.7175160  58.8500765
 105.6917383  17.1663196  61.9707438 106.2618740  17.5950465  61.3324923
 106.2825495  16.8845781  62.6691624 101.4787522  11.9998420  61.1434373
 100.6886576  12.2555948  60.6674484 101.9698769  12.8146758  61.2486414
 115.4951332  19.3403659  63.8939654 116.3168775  18.9383846  63.6122336
 115.4913734  19.2371893  64.8455770 103.4302267  12.3642999  58.1017850
 102.6333431  12.4761693  58.6201346 103.2027860  12.7029651  57.2358741
 109.2607935  18.8887702  66.0500365 109.3252368  19.3508110  66.8858537
 108.5518859  18.2585067  66.1782675  99.7625225  12.2528910  63.5749364
 100.0133263  13.1375920  63.8406940 100.2984773  12.0733512  62.8024456
 108.9755953  20.5555810  55.9179345 108.8401627  21.4007346  56.3464193
 109.5165765  20.7575088  55.1545279 102.4285350  18.0731248  56.4907270
 102.9409871  18.8674498  56.6412835 103.0808063  17.3757538  56.4240872
 104.2380235  21.1897004  58.5730023 104.4146863  22.1114969  58.3851007
 105.0337068  20.8755423  59.0024403 103.5232591  13.2361636  68.4492187
 103.4086106  12.3346893  68.7499286 102.6677109  13.4825333  68.0977003
 110.6024429  21.1779376  70.0479687 110.1588283  20.3915755  69.7300592
 111.2641643  21.3658527  69.3823578 105.3611550  22.7075178  64.5740366
 105.9118975  22.5792241  63.8017360 104.5223026  23.0070067  64.2235259
 112.7005667  21.4582176  68.0761088 112.6824142  22.2791057  67.5841358
 113.6225587  21.3336252  68.3011230 109.1578721  18.9726306  68.9184597
 109.6907058  18.2114594  68.6883905 108.6292802  18.6799958  69.6608751
 100.3934267  16.4019902  57.2666841 101.2309489  16.8116911  57.0500548
 100.5712535  15.4619344  57.2367035 110.5231434  18.1012298  56.4303409
 109.9952796  17.3665058  56.1176646 110.0218937  18.8786975  56.1843377
 115.5024280  16.2961319  61.5470455 114.8447954  16.9860580  61.6350584
 116.3064679  16.6857751  61.8904442 108.6684034  15.9192509  49.4338382
 107.7611096  15.6881762  49.6329531 109.1655066  15.1230128  49.6212363
 111.5752113  24.6290016  52.3535068 110.9013812  24.9321713  52.9620026
 111.9617935  25.4319096  52.0040525 109.8472268  16.0205103  53.9562372
 108.9383487  15.7364136  54.0534842 109.8767351  16.4404182  53.0965679
 115.0791535  19.6311693  57.7253540 114.6253862  18.7902603  57.7818730
 114.4485502  20.2673091  58.0628320 113.5224474  21.4688190  58.6603358
 113.8147449  22.0293247  57.9415723 114.0323095  21.7616751  59.4156517
 100.4160438  13.7410618  57.9377574 100.2184838  13.1479978  57.2128641
  99.8607102  13.4362828  58.6553513 109.5448355  17.5613847  51.2950451
 109.1067785  16.8449706  50.8356088 110.2858796  17.7889962  50.7335542
 108.4858099  22.2468541  59.7496811 108.4434278  22.4729387  58.8205343
 109.4020798  22.0131915  59.8982612 117.6890850  17.9047571  62.3638041
 118.1227356  17.8122860  63.2121095 118.4022431  17.8805072  61.7258057
 106.6023900  19.1231570  59.5458774 107.3964499  18.6281890  59.3441349
 105.8915593  18.5949433  59.1826479 111.4218745  21.5049665  63.8971141
 111.4755767  22.0740602  64.6648857 110.5533526  21.6751550  63.5325178
 102.9106664  13.2674651  55.6218526 101.9804252  13.2059107  55.8388488
 103.0064136  12.7450604  54.8255168 118.5506399  17.9471272  64.8970926
 118.7442289  18.8517082  65.1430201 118.4507018  17.4878691  65.7309511
 113.6121508  18.0978015  70.4711807 113.4607014  17.8688566  69.5541890
 113.6026188  19.0548616  70.4843152 110.3806844  15.6709927  65.4558073
 111.3098904  15.8221087  65.2827040 109.9597874  15.7593948  64.6006720
 109.1795176  19.6960592  63.2256611 109.0406262  19.3279376  64.0982549
 108.3909772  20.2108231  63.0540569 109.7743328  24.7969688  54.5682147
 109.9495084  24.3257731  55.3827770 109.0876116  25.4235454  54.7963408
 110.7300391  19.0742194  60.6145448 110.3950224  19.0342964  61.5103098
 110.2304337  18.4086910  60.1415859 104.7044635  14.4809824  66.1398030
 104.5664433  13.7490063  66.7409569 105.6149559  14.3918725  65.8582217
 113.6659583  16.4198229  50.8882508 113.0488754  15.6945057  50.7915561
 113.1976072  17.1807589  50.5449582 107.3326936  14.1929784  65.6281709
 108.0426555  13.5522976  65.5868328 107.2896244  14.4442679  66.5507890
 115.3213715  21.1297137  68.5488288 115.2626261  20.4456357  67.8818872
 115.7233233  21.8716127  68.0968914 104.3404413  27.9459051  61.3422007
 104.5801012  28.5777575  62.0201026 103.4973610  27.5947091  61.6287367
 115.3231122  19.0936721  66.7802268 114.4357901  18.7562643  66.9028667
 115.8929673  18.3619752  67.0171034  96.9760269  15.4260813  60.1045320
  97.6631309  15.1122543  59.5166335  96.8208398  16.3302177  59.8312571
 108.8532275  23.7538173  63.7463511 108.7802447  24.5593145  64.2582816
 108.4109668  23.9530139  62.9211533 108.6422055  22.9909943  57.2566333
 107.8589577  23.5331624  57.3504557 109.3414800  23.5083923  57.6560574
 111.3130959  23.6525007  65.9021670 112.0258931  24.2872472  65.8297572
 110.8220988  23.7488873  65.0861672 113.0348486  17.5576260  57.4738962
 112.1004765  17.6777723  57.3043666 113.2125154  16.6548727  57.2098972
 106.3642872  21.4019451  66.7227241 107.0652332  22.0355934  66.8756635
 105.8937987  21.7434182  65.9622880 114.4897268  19.7437401  55.0075148
 114.7657112  19.6293995  55.9169022 113.6201767  19.3454886  54.9687321
 111.1251332  23.9923752  58.6507962 111.3073727  23.1745407  59.1135714
 111.9484318  24.2091444  58.2132852 111.4593498  22.9191937  55.9123010
 111.9881264  22.4084391  55.2993172 111.7221717  22.6034467  56.7768543
 110.2131731  14.6983869  71.0345828 109.5372368  14.5977999  71.7048204
 111.0359365  14.5423083  71.4981826 101.9610590  20.9355806  63.6558344
 102.5464027  20.1899494  63.7886248 101.7635429  21.2459763  64.5395007
 104.8149246  23.9707053  58.6720786 104.1459621  24.4553181  58.1884826
 104.6762115  24.2176274  59.5864164  96.5528245  13.5061406  62.3762787
  96.5912345  12.9724997  63.1699905  96.0468538  12.9796612  61.7573764
 113.8065389  20.8312054  71.1252099 114.3505293  21.4442013  70.6307054
 113.2252233  21.3891633  71.6419112 100.1836823  12.2325508  55.4516718
 100.4790264  11.3236187  55.3983772  99.2824859  12.2113248  55.1297720
 112.0922902  23.9532772  62.2567126 111.9674041  23.1522512  61.7478072
 112.7501993  24.4478966  61.7681096 114.1557810  21.7541792  63.8846677
 113.2088145  21.6347144  63.8125003 114.5040583  20.8664291  63.9672938
 111.1604243  21.5494509  60.0851029 111.0129206  20.6211216  60.2658599
 111.9857737  21.5714599  59.6008104 114.7638365  22.3723067  61.1715902
 115.6884913  22.1665929  61.0340353 114.5953668  22.1239469  62.0805243
 114.5533681  22.8908735  56.5277993 114.7270559  22.3255157  55.7751845
 115.0462573  23.6909630  56.3457483 100.3710641  14.9023404  64.5941552
  99.8264109  15.6783212  64.7261826 101.2489991  15.2494208  64.4360673
 115.5408854  22.2075499  53.6274891 116.2359758  22.8282192  53.8462206
 115.8832004  21.3570850  53.9027269 101.1576663  14.0293300  67.4871709
 100.4158399  14.1775936  68.0736339 100.8369407  14.2901566  66.6238458
 117.4400277  19.6575205  55.1562222 117.9651601  19.9962478  54.4311542
 117.3522629  18.7222220  54.9725357 109.1020326  23.5709278  67.2852099
 109.4107452  23.3258425  68.1574798 109.8995808  23.7755917  66.7970969
 109.1240938  25.7247188  59.5157475 108.6845928  25.2323567  60.2090332
 109.8749055  25.1820156  59.2749550 101.6033277  21.9158729  59.5182103
 102.4291297  21.6162501  59.1380747 101.2527329  21.1466351  59.9671892
 106.5714810  21.2685197  61.5879777 105.9494819  20.6055902  61.2882005
 107.2419677  21.2946329  60.9053425  99.8041882  19.8345055  60.4771037
  98.9673790  19.4067230  60.2955038  99.7765527  20.0277499  61.4141828
 117.1294183  20.2908108  70.4613420 116.3389727  20.2732247  69.9217919
 116.8927538  20.8296402  71.2162457 106.1328317  19.8189121  55.0638237
 106.2816437  20.5024585  54.4104910 106.9394760  19.7994211  55.5787693
 118.7510255  19.5597516  68.0188170 118.4595063  19.9227497  68.8551631
 118.1382386  18.8464525  67.8401502 103.8880950  15.8454298  56.0699306
 103.6426992  14.9416628  56.2679516 104.0576864  15.8471449  55.1278784
 109.6323722  22.3137251  52.5349985 109.0597689  22.9327438  52.0820457
 110.2056516  22.8636613  53.0689907 112.8520982  22.5974401  53.6658567
 113.7851655  22.5319963  53.8691443 112.7644195  23.4330668  53.2073100
 115.4808999  21.9140271  50.6262515 115.4022630  21.5800135  51.5198273
 116.3018665  22.4062039  50.6253987 109.9009213  17.7015810  71.3366694
 110.8212223  17.8794409  71.5306741 109.8658796  16.7571855  71.1846394
  99.1191378  12.8954404  60.2619969  98.7994163  12.0419712  59.9694343
  98.5724806  13.1102982  61.0177936 102.8971286  15.6116845  63.9789475
 103.1157296  16.5433952  63.9977509 103.3097060  15.2524819  64.7644279
  98.9879638  16.5157315  62.2313091  98.2943110  16.1011268  61.7183045
  99.7352629  16.5577852  61.6346509 107.6330421  14.6147189  72.1857286
 107.1497503  15.4147549  72.3921175 107.7191360  14.6255134  71.2324730
 100.9016381  16.4475569  60.1079105 100.8787069  16.5463256  59.1560989
 101.2117017  17.2940720  60.4296272 103.5603759  18.5051724  64.2225720
 104.5147012  18.4735666  64.1555651 103.3616282  18.0442348  65.0375946
 104.1503141  17.0752840  66.7896518 104.9696030  17.5696919  66.8131355
 104.4239949  16.1584808  66.7614085 101.9153987  24.0471343  61.2395918
 101.7808455  23.2871744  60.6733916 101.4986050  24.7712243  60.7724707
 113.0512950  19.2308267  50.2472493 113.7548801  19.4358269  50.8630149
 112.3275599  19.7985029  50.5121577 105.0723113  24.9440660  61.4514360
 104.9555497  25.8886093  61.3493051 104.2515560  24.6414222  61.8400160
 114.9599648  19.6690796  52.2970953 115.7945252  19.2371995  52.1148428
 114.7983991  19.4972810  53.2247848 114.6145540  16.1722909  53.6627292
 114.5594344  16.0067181  52.7215736 113.9891595  16.8798942  53.8189482
  99.4038055  11.4090974  67.4888715 100.0496919  10.8989928  67.9775940
  99.1955206  12.1459655  68.0632140 111.9291447  18.4771821  72.9880855
 112.7982607  18.6512473  72.6267490 111.4498199  19.2966238  72.8656584
 106.0977627  25.5968922  64.6670289 107.0004874  25.6292532  64.9836784
 105.8714998  24.6669373  64.6816625 107.8531229  24.3499909  61.3280367
 106.9026861  24.3501770  61.2144740 108.1563716  23.6032643  60.8116402
 120.3973629  30.1387875  62.3287655 120.0592141  30.0228940  61.4408189
 121.2663397  29.7379040  62.3088661 116.2560445  31.9923352  58.3184545
 115.6925310  31.9013289  57.5500833 116.1412840  31.1723256  58.7987038
 120.8793412  31.2922727  68.2873860 120.8682053  30.8975525  67.4154364
 121.0414052  30.5588800  68.8807631 113.8024877  33.4874543  61.1568766
 114.5946169  33.1465368  60.7415065 114.0421527  33.5969518  62.0770919
 115.7615631  32.7483457  54.0286145 116.5346507  32.2012444  53.8899021
 116.1141030  33.6127706  54.2400606 117.6000673  34.0759839  67.2353044
 117.3090539  34.9805470  67.1199710 118.2357658  34.1176366  67.9497114
 118.5256880  31.4536687  63.8254404 119.1220452  31.2292710  63.1111367
 118.5831852  30.7121433  64.4279852 118.0981909  28.9076123  51.6604595
 118.3507429  28.3857644  50.8988058 117.1606468  28.7442268  51.7631278
 117.8178197  30.8104229  53.8628970 117.7014455  30.1349132  54.5310054
 117.9280457  30.3236603  53.0461123 120.1609738  30.2714376  57.5675659
 119.7967946  29.7444997  58.2788580 121.0176854  29.8812845  57.3942144
 119.8015225  25.3004275  52.5637007 119.9689628  26.1684512  52.9307478
 119.6112394  25.4631557  51.6398297 116.0103040  30.2135051  60.2639542
 115.0853536  30.0811265  60.4717234 116.2587453  30.9929270  60.7609485
 119.7804446  27.7561933  53.5483674 119.6604071  28.2018984  54.3869154
 119.0857035  28.1047251  52.9897212 113.3711851  29.8568325  61.0983331
 113.5004232  30.1102804  62.0122743 112.6909302  30.4496033  60.7787986
 117.5411338  40.5265575  57.1973805 117.4635368  41.4773400  57.2762286
 116.9372982  40.1811447  57.8548732 120.0328568  27.6993440  69.8535172
 119.2561902  28.2587360  69.8438037 120.6719131  28.1850223  70.3750042
 118.2874940  30.5078893  69.4153139 119.0289625  31.0463937  69.1387963
 117.5811926  31.1345182  69.5724691 120.1161350  27.5880641  65.3858858
 120.9622545  28.0120054  65.5293507 120.0559988  26.9314265  66.0797421
 119.6387057  32.9483633  59.0327675 120.1025402  33.2271336  58.2432297
 119.3743855  32.0467077  58.8500765 116.5311138  32.4955114  61.9707438
 117.1012495  32.9242383  61.3324923 117.1219249  32.2137699  62.6691624
 118.5755943  29.0706785  55.8417240 119.2779986  29.5227829  56.3091166
 118.2436571  28.4290604  56.4697133 117.0236304  27.6618542  70.2168449
 116.3934965  28.3434822  70.4503846 116.9172392  27.5501623  69.2721588
 112.3181277  27.3290338  61.1434373 111.5280331  27.5847866  60.6674484
 112.8092524  28.1438675  61.2486414 114.2696022  27.6934917  58.1017850
 113.4727185  27.8053611  58.6201346 114.0421614  28.0321569  57.2358741
 120.1001690  34.2179620  66.0500365 120.1646122  34.6800027  66.8858537
 119.3912613  33.5876985  66.1782675 119.8149707  35.8847728  55.9179345
 119.6795382  36.7299263  56.3464193 120.3559520  36.0867005  55.1545279
 116.3017047  21.9639307  72.5793700 115.9083992  21.4105506  73.2541345
 117.1183187  22.2749886  72.9700218 113.2679105  33.4023166  56.4907270
 113.7803625  34.1966416  56.6412835 113.9201817  32.7049456  56.4240872
 115.0773989  36.5188922  58.5730023 115.2540618  37.4406887  58.3851007
 115.8730823  36.2047341  59.0024403 119.2185008  23.3797187  70.1713957
 119.9594721  23.9804340  70.0918419 119.4502931  22.6374824  69.6131999
 114.3626346  28.5653554  68.4492187 114.2479861  27.6638811  68.7499286
 113.5070864  28.8117251  68.0977003 116.2005305  38.0367096  64.5740366
 116.7512730  37.9084159  63.8017360 115.3616781  38.3361985  64.2235259
 119.9972476  34.3018224  68.9184597 120.5300813  33.5406512  68.6883905
 119.4686557  34.0091875  69.6608751 111.2328021  31.7311820  57.2666841
 112.0703243  32.1408828  57.0500548 111.4106289  30.7911262  57.2367035
 120.7139565  24.2436601  58.0135912 119.8581161  23.8543452  57.8341551
 121.1266516  24.3228562  57.1535698 118.4881597  21.8621674  61.4193654
 119.3534594  21.6664483  61.0599543 118.5559106  21.6332026  62.3463010
 121.3625189  33.4304216  56.4303409 120.8346550  32.6956976  56.1176646
 120.8612691  34.2078892  56.1843377 116.0943916  24.0923882  58.7910020
 116.6687668  23.8699064  58.0583213 116.6814899  24.1612577  59.5438622
 116.4213503  26.1228343  52.8105906 115.5850815  26.4603030  53.1315180
 116.2818273  25.9877323  51.8733043 118.3966584  20.9665131  57.5185090
 117.7430996  20.6514148  56.8941705 118.3547058  20.3440872  58.2444913
 119.5077789  31.2484426  49.4338382 118.6004850  31.0173680  49.6329531
 120.0048821  30.4522046  49.6212363 120.6866022  31.3497021  53.9562372
 119.7777241  31.0656054  54.0534842 120.7161106  31.7696100  53.0965679
 111.2554192  29.0702535  57.9377574 111.0578592  28.4771896  57.2128641
 110.7000856  28.7654745  58.6553513 119.2350916  28.9625642  60.0572167
 119.2899526  28.0099478  59.9814644 118.4242118  29.1185081  60.5413466
 120.3842110  32.8905765  51.2950451 119.9461540  32.1741624  50.8356088
 121.1252551  33.1181880  50.7335542 117.1743276  27.5802701  57.8162546
 116.3611142  27.8796872  58.2227738 117.6702270  27.1858390  58.5337028
 119.3251854  37.5760458  59.7496811 119.2828033  37.8021305  58.8205343
 120.2414553  37.3423833  59.8982612 116.6657351  25.1521057  63.4323781
 117.3056730  25.0109816  62.7346744 115.8334881  24.8655570  63.0562383
 117.4417655  34.4523487  59.5458774 118.2358253  33.9573808  59.3441349
 116.7309347  33.9241351  59.1826479 113.7500418  28.5966569  55.6218526
 112.8198006  28.5351025  55.8388488 113.8457890  28.0742522  54.8255168
 113.6685967  25.1221382  58.2096768 113.9292785  26.0366715  58.1005928
 114.4903140  24.6545825  58.3593381 115.1410893  26.5359139  65.3795592
 115.8133946  26.3276501  64.7308241 114.3140679  26.3381225  64.9400825
 120.0188931  35.0252509  63.2256611 119.8800016  34.6571294  64.0982549
 119.2303527  35.5400149  63.0540569 120.6137083  40.1261606  54.5682147
 120.7888838  39.6549649  55.3827770 119.9269871  40.7527372  54.7963408
 121.5694146  34.4034112  60.6145448 121.2343978  34.3634882  61.5103098
 121.0698092  33.7378828  60.1415859 115.5438390  29.8101742  66.1398030
 115.4058188  29.0781981  66.7409569 116.4543313  29.7210642  65.8582217
 118.1720691  29.5221701  65.6281709 118.8820309  28.8814894  65.5868328
 118.1289999  29.7734596  66.5507890 116.8849624  26.5086919  67.4477349
 116.3486982  26.0577658  68.0998945 116.2966333  26.6432828  66.7047813
 115.1798168  43.2750969  61.3422007 115.4194766  43.9069493  62.0201026
 114.3367364  42.9239009  61.6287367 116.2951883  25.9675571  50.0103812
 115.4181350  25.8464372  49.6466059 116.7709637  25.1761649  49.7582701
 107.8154024  30.7552730  60.1045320 108.5025063  30.4414461  59.5166335
 107.6602152  31.6594095  59.8312571 112.6188746  25.6442927  64.5330343
 112.5346934  25.0368597  63.7980753 111.7971452  26.1351945  64.5339840
 119.6926030  39.0830091  63.7463511 119.6196201  39.8885063  64.2582816
 119.2503423  39.2822057  62.9211533 119.4815809  38.3201861  57.2566333
 118.6983331  38.8623541  57.3504557 120.1808555  38.8375841  57.6560574
 119.3747428  26.2713874  59.6272223 119.0045216  25.7184914  60.3153128
 119.8706521  25.6672007  59.0747223 117.2036627  36.7311369  66.7227241
 117.9046086  37.3647852  66.8756635 116.7331742  37.0726100  65.9622880
 112.8004345  36.2647724  63.6558344 113.3857782  35.5191412  63.7886248
 112.6029183  36.5751680  64.5395007 107.3922000  28.8353324  62.3762787
 107.4306099  28.3016915  63.1699905 106.8862293  28.3088529  61.7573764
 119.7948269  41.3342715  65.2703444 120.3466577  41.4974336  66.0352530
 120.1354462  41.9247152  64.5983469 114.7712762  23.6817864  65.8725329
 114.8354088  24.5432695  65.4602727 114.7079882  23.0691866  65.1397688
 114.2465035  25.7540997  69.5198363 114.8737073  25.3718074  70.1335888
 113.3892953  25.5355199  69.8854056 111.0230577  27.5617426  55.4516718
 111.3184018  26.6528104  55.3983772 110.1218613  27.5405165  55.1297720
 114.5524824  25.6373423  61.4344267 113.8311410  26.2509390  61.2951740
 115.3418080  26.1731187  61.3560913 117.3551138  22.9727849  67.7084918
 117.8785540  23.2190146  68.4711228 117.1363471  23.8047884  67.2888056
 112.7518419  25.2431524  55.5756043 112.4231125  24.3628903  55.3931149
 113.1057790  25.1879192  56.4632432 115.8660242  25.5304493  55.9431521
 116.2056315  26.0590415  55.2210129 116.3132363  25.8684900  56.7190087
 118.5603683  23.9141544  65.3934589 118.2200503  23.1149357  65.7955269
 117.8542689  24.2143255  64.8211422 119.2120155  20.9990857  63.8461912
 120.0346224  20.5251335  63.7240802 119.4558218  21.7781340  64.3460598
 117.8528389  24.0279115  54.1424814 118.5736752  24.4060368  53.6388531
 117.2293693  24.7467992  54.2459792 116.7358733  27.6909977  61.6553891
 116.5903314  28.0050280  62.5478172 116.2583937  28.3094878  61.1024789
 118.5955116  24.6812525  61.7034780 118.5816685  23.7853619  61.3667078
 119.3127544  24.6883189  62.3373066 120.4481247  25.1149865  63.7487908
 120.1899025  26.0366936  63.7472238 119.9166287  24.7180300  64.4388372
 111.2104396  30.2315322  64.5941552 110.6657864  31.0075130  64.7261826
 112.0883745  30.5786126  64.4360673 117.9992012  23.5626906  56.9722350
 118.1207923  22.6343552  57.1713238 117.7094055  23.5765591  56.0600666
 120.8683203  21.2481816  60.1089070 120.8904899  21.3121149  59.1541050
 121.2851262  20.4086325  60.3029576 111.9970417  29.3585218  67.4871709
 111.2552153  29.5067853  68.0736339 111.6763162  29.6193484  66.6238458
 119.9414080  38.9001196  67.2852099 120.2501207  38.6550343  68.1574798
 120.7389562  39.1047835  66.7970969 119.9634692  41.0539106  59.5157475
 119.5239682  40.5615484  60.2090332 120.7142809  40.5112073  59.2749550
 112.4427031  37.2450647  59.5182103 113.2685051  36.9454418  59.1380747
 112.0921083  36.4758269  59.9671892 117.4108564  36.5977115  61.5879777
 116.7888574  35.9347820  61.2882005 118.0813431  36.6238247  60.9053425
 110.6435636  35.1636973  60.4771037 109.8067544  34.7359147  60.2955038
 110.6159282  35.3569416  61.4141828 117.4833092  25.0758903  71.1812283
 117.5321247  25.9521026  70.7990053 118.0255606  24.5336296  70.6083926
 116.9722071  35.1481038  55.0638237 117.1210192  35.8316503  54.4104910
 117.7788515  35.1286128  55.5787693 119.7132380  25.8290275  67.9358642
 118.8435690  26.1223841  67.6641230 119.9491861  26.4130720  68.6565905
 114.7274704  31.1746216  56.0699306 114.4820746  30.2708546  56.2679516
 114.8970619  31.1763366  55.1278784 113.9970352  26.9074573  53.5685468
 113.3039597  26.9818928  52.9125504 113.7522104  26.1434917  54.0906985
 120.4717477  37.6429169  52.5349985 119.8991444  38.2619356  52.0820457
 121.0450270  38.1928530  53.0689907 119.0407192  26.9039958  49.8120923
 118.1338648  26.6073070  49.8883636 119.3183173  26.6069776  48.9455209
 109.9585133  28.2246321  60.2619969 109.6387917  27.3711629  59.9694343
 109.4118561  28.4394899  61.0177936 113.7365040  30.9408762  63.9789475
 113.9551050  31.8725870  63.9977509 114.1490814  30.5816737  64.7644279
 120.6569258  21.4476847  55.9665164 119.8469986  21.1023932  56.3420410
 121.3453675  21.1384391  56.5552775 118.6092906  26.5141968  73.3692224
 118.5089633  27.4636325  73.3004316 118.3914448  26.1860207  72.4968295
 117.8105977  23.7626893  49.9532902 118.6725141  24.0881791  50.2128719
 117.9956321  22.9758389  49.4405968 109.8273393  31.8449233  62.2313091
 109.1336864  31.4303185  61.7183045 110.5746384  31.8869769  61.6346509
 118.4724176  29.9439107  72.1857286 117.9891257  30.7439467  72.3921175
 118.5585115  29.9547052  71.2324730 111.7410135  31.7767486  60.1079105
 111.7180823  31.8755174  59.1560989 112.0510772  32.6232637  60.4296272
 114.3997513  33.8343641  64.2225720 115.3540767  33.8027584  64.1555651
 114.2010037  33.3734265  65.0375946 114.9896895  32.4044758  66.7896518
 115.8089784  32.8988836  66.8131355 115.2633703  31.4876726  66.7614085
 112.7547742  39.3763261  61.2395918 112.6202210  38.6163662  60.6733916
 112.3379804  40.1004161  60.7724707 115.9116868  40.2732578  61.4514360
 115.7949252  41.2178010  61.3493051 115.0909314  39.9706140  61.8400160
 110.2431810  26.7382891  67.4888715 110.8890673  26.2281845  67.9775940
 110.0348961  27.4751573  68.0632140 118.7635420  21.0022936  53.2412611
 118.7514090  21.9464776  53.3980882 119.6558842  20.8193081  52.9472072
 116.9371382  40.9260840  64.6670289 117.8398629  40.9584450  64.9836784
 116.7108752  39.9961291  64.6816625 118.6924984  39.6791826  61.3280367
 117.7420615  39.6793688  61.2144740 118.9957470  38.9324561  60.8116402
 114.5829301  23.8850508  71.5863729 115.4460762  23.5287313  71.7967053
 114.0094711  23.5464403  72.2739133 118.6547778  46.0844648  60.1045320
 119.3418818  45.7706378  59.5166335 118.4995907  46.9886013  59.8312571
 118.2315754  44.1645242  62.3762787 118.2699854  43.6308832  63.1699905
 117.7256047  43.6380447  61.7573764 121.4829391  50.4928891  60.4771037
 120.6461299  50.0651065  60.2955038 121.4553036  50.6861334  61.4141828
 120.7978887  43.5538239  60.2619969 120.4781672  42.7003547  59.9694343
 120.2512315  43.7686817  61.0177936 120.6667147  47.1741150  62.2313091
 119.9730619  46.7595103  61.7183045 121.4140138  47.2161687  61.6346509
 117.5411340  17.5327697  43.9219112 117.4635369  18.4835522  44.0007593
 116.9372983  17.1873570  44.5794038 115.1798169  20.2813091  48.0667314
 115.4194767  20.9131615  48.7446333 114.3367366  19.9301131  48.3532673
 115.6543001  16.3061094  45.3966093 114.9853377  16.7907221  44.9130133
 115.5155871  16.5530314  46.3109471 119.7948270  18.3404837  51.9948751
 120.3466578  18.5036459  52.7597836 120.1354463  18.9309275  51.3228776
 112.7547743  16.3825384  47.9641224 112.6202211  15.6225784  47.3979222
 112.3379805  17.1066283  47.4970013 115.9116869  17.2794701  48.1759667
 115.7949253  18.2240133  48.0738357 115.0909315  16.9768262  48.5645466
 116.9371383  17.9322962  51.3915595 117.8398630  17.9646573  51.7082090
 116.7108753  17.0023413  51.4061931 118.6547779  23.0906771  46.8290626
 119.3418819  22.7768501  46.2411642 118.4995908  23.9948135  46.5557878
 118.2315755  21.1707364  49.1008093 118.2699855  20.6370955  49.8945211
 117.7256048  20.6442570  48.4819071 121.4829392  27.4991013  47.2016344
 120.6461300  27.0713188  47.0200345 121.4553037  27.6923457  48.1387135
 120.7978889  20.5600361  46.9865276 120.4781673  19.7065670  46.6939650
 120.2512317  20.7748940  47.7423243 120.6667149  24.1803273  48.9558397
 119.9730620  23.7657226  48.4428352 121.4140140  24.2223809  48.3591816
  24.8602071  62.9519814 118.7308532  24.1863770  63.2551511 119.3393490
  25.2467893  63.7548895 118.3813989  28.8258812  60.5305298 120.0048355
  29.5209716  61.1511991 120.2235670  29.1681962  59.6800649 120.2800733
  22.9173680  60.6367050 118.9123449  22.3447647  61.2557237 118.4593920
  23.4906474  61.1866411 119.4463371  26.1370940  60.9204200 120.0432031
  27.0701613  60.8549761 120.2464906  26.0494153  61.7560467 119.5846564
  28.7658956  60.2370070 117.0035978  28.6872588  59.9029934 117.8971736
  29.5868623  60.7291838 117.0027451  26.3362908  57.5538065 116.6245957
  27.0398758  57.7588068 117.2403612  25.6125557  58.1214827 116.8895040
  28.2449606  57.9920595 118.6744417  29.0795210  57.5601793 118.4921892
  28.0833949  57.8202608 119.6021311  36.8733881  68.5090246 128.7699594
  37.5112291  68.3896993 128.0662934  36.7554724  69.4571090 128.8287546
  29.5410403  70.3153150 124.6958009  28.9775268  70.2243087 123.9274297
  29.4262798  69.4953055 125.1760502  35.1209961  73.9824118 120.0072474
  34.4697941  74.5678198 119.6206488  35.9154324  74.5130313 120.0667512
  29.0465589  71.0713255 120.4059608  29.8196465  70.5242242 120.2672484
  29.3990987  71.9357504 120.6174070  31.3831866  67.2305921 118.0378058
  31.6357387  66.7087443 117.2761521  30.4456426  67.0672067 118.1404742
  36.4275149  66.2341700 125.8452802  37.2138238  65.8161123 125.4943219
  36.6913854  67.1387792 126.0134450  36.5985227  71.6714550 120.5441458
  35.9631060  71.7449176 121.2562363  36.2682633  72.2608149 119.8660538
  41.8283576  66.1716933 126.7485780  42.5608748  65.6016150 126.9823610
  41.0722932  65.7838533 127.1892286  31.1028155  69.1334027 120.2402433
  30.9864413  68.4578931 120.9083518  31.2130415  68.6466401 119.4234586
  33.4459696  68.5944174 123.9449123  33.0817903  68.0674795 124.6562044
  34.3026812  68.2042643 123.7715608  33.0865183  63.6234074 118.9410471
  33.2539585  64.4914310 119.3080942  32.8962352  63.7861356 118.0171760
  33.0654404  66.0791732 119.9257138  32.9454029  66.5248782 120.7642618
  32.3706992  66.4277049 119.3670676  30.8261296  78.8495373 123.5747269
  30.7485326  79.8003198 123.6535750  30.2222940  78.5041246 124.2322195
  38.7639470  66.5513205 120.7537472  39.6757326  66.7840591 120.5785169
  38.2549117  67.1350249 120.1912551  37.3709052  71.5339023 128.1451053
  36.7417915  71.6984737 127.4427121  36.9834715  71.9480633 128.9162017
  41.2498284  72.4693461 125.4995417  40.5649322  72.8492362 124.9492450
  41.3342134  73.0788788 126.2327365  32.9237014  71.2713431 125.4101139
  33.3875360  71.5501134 124.6205761  32.6593812  70.3696876 125.2274229
  31.8605900  67.3936584 122.2190704  32.5629944  67.8457627 122.6864630
  31.5286529  66.7520402 122.8470597  39.6195044  72.9925375 130.2713118
  40.4412488  72.5905563 129.9895800  39.6157447  72.8893610 131.2229234
  47.7101037  69.3364124 126.6198089  46.9564745  68.7671522 126.4642094
  47.8448578  69.3026788 127.5668724  33.0999665  74.2077526 122.2952809
  32.9645340  75.0529062 122.7237657  33.6409477  74.4096804 121.5318743
  26.5529062  71.7252964 122.8680734  27.0653583  72.5196215 123.0186299
  27.2051775  71.0279255 122.8014335  28.3623947  74.8418721 124.9503487
  28.5390575  75.7636685 124.7624471  29.1580781  74.5277140 125.3797867
  24.5177979  70.0541619 123.6440304  25.3553201  70.4638627 123.4274012
  24.6956247  69.1141061 123.6140498  36.4142411  67.7216699 119.3324137
  35.8989035  68.4921304 119.5712525  36.1419720  67.0481835 119.9557199
  33.9989522  62.5666400 124.3909376  33.1431119  62.1773250 124.2115015
  34.4116474  62.6458361 123.5309161  41.3876685  70.4749054 121.2677311
  40.6106128  70.1360213 120.8232473  42.0668166  70.4801677 120.5932276
  36.2028714  65.5943791 121.1583919  35.8978850  65.9089940 122.0094062
  37.1559157  65.6725211 121.2011252  34.6475146  71.7534015 122.8076873
  34.1196508  71.0186774 122.4950110  34.1462649  72.5308691 122.5616841
  39.6267992  69.9483035 127.9243919  38.9691667  70.6382297 128.0124048
  40.4308392  70.3379467 128.2677905  38.4373451  68.3027408 125.9747861
  38.9505333  68.9357400 126.4769570  39.0874675  67.7028603 125.6091221
  29.7063461  64.4458142 119.1879369  28.8700773  64.7832828 119.5088644
  29.5668231  64.3107122 118.2506506  32.7927746  69.5714225 115.8111846
  31.8854808  69.3403478 116.0102995  33.2898778  68.7751844 115.9985827
  35.6995825  78.2811732 118.7308532  35.0257524  78.5843429 119.3393490
  36.0861647  79.0840812 118.3813989  35.6989330  67.1768279 123.3508881
  36.4461149  67.6889676 123.0416003  35.9680919  66.8552332 124.2113275
  33.9715980  69.6726820 120.3335836  33.0627199  69.3885853 120.4308305
  34.0011064  70.0925898 119.4739143  39.2035247  73.2833409 124.1027003
  38.7497574  72.4424319 124.1592194  38.5729214  73.9194808 124.4401783
  38.1468167  64.2125395 125.3327671  37.4090924  63.7002782 125.6637913
  38.3994940  63.7725777 124.5210948  37.6468187  75.1209906 125.0376821
  37.9391161  75.6814963 124.3189187  38.1566807  75.4138467 125.7929981
  32.5200874  67.2855440 126.4345631  32.5749484  66.3329277 126.3588108
  31.7092076  67.4414879 126.9186929  33.6692068  71.2135563 117.6723914
  33.2311498  70.4971422 117.2129552  34.4102509  71.4411678 117.1109006
  30.4593234  65.9032500 124.1936010  29.6461099  66.2026671 124.6001202
  30.9552228  65.5088189 124.9110492  32.6101812  75.8990257 126.1270275
  32.5677991  76.1251103 125.1978807  33.5264511  75.6653632 126.2756076
  41.7865182  69.4892760 123.7300233  41.6483081  69.6794356 122.8021422
  41.4301401  70.2512143 124.1868284  41.8134562  71.5569287 128.7411504
  42.2471069  71.4644577 129.5894558  42.5266143  71.5326788 128.1031520
  30.7267613  72.7753286 125.9232237  31.5208211  72.2803606 125.7214812
  30.0159305  72.2471149 125.5599943  27.0350376  66.9196368 121.9991990
  26.1047964  66.8580823 122.2161952  27.1307848  66.3972321 121.2028631
  42.6750112  71.5992988 131.2744390  42.8686002  72.5038799 131.5203665
  42.5750730  71.1400407 132.1082975  33.8987040  78.4491405 120.9455611
  34.0738796  77.9779448 121.7601234  33.2119829  79.0757171 121.1736872
  34.8544104  72.7263911 126.9918912  34.5193936  72.6864681 127.8876562
  34.3548049  72.0608627 126.5189322  37.7903295  70.0719945 117.2655972
  37.1732466  69.3466773 117.1689025  37.3219784  70.8329305 116.9223046
  29.5801841  64.2905369 116.3877276  28.7031308  64.1694170 116.0239523
  30.0559594  63.4991448 116.1356165  32.7665767  76.6431660 123.6339797
  31.9833289  77.1853340 123.7278021  33.4658512  77.1605639 124.0334038
  43.9292175  68.1566655 127.9192294  43.9182051  69.0391370 127.5486227
  43.0609554  67.8038206 127.7246831  37.1592198  71.2097976 123.8512425
  36.2248477  71.3299439 123.6817130  37.3368867  70.3070443 123.5872435
  40.5464749  67.0515296 124.3862460  41.0125202  67.8843287 124.3122762
  40.9972250  66.5860277 125.0907718  38.6140981  73.3959117 121.3848612
  38.8900824  73.2815712 122.2942486  37.7445479  72.9976602 121.3460785
  35.2495045  77.6445468 125.0281425  35.4317439  76.8267124 125.4909178
  36.0728031  77.8613160 124.5906315  35.5837210  76.5713653 122.2896474
  36.1124976  76.0606108 121.6766636  35.8465430  76.2556183 123.1542007
  24.3080535  65.8847225 121.8290182  24.6033976  64.9757903 121.7757236
  23.4068571  65.8634964 121.5071184  36.2166614  77.6054489 128.6340590
  36.0917753  76.8044229 128.1251536  36.8745705  78.1000682 128.1454560
  38.2801522  75.4063509 130.2620140  37.3331858  75.2868860 130.1898467
  38.6284295  74.5186007 130.3446402  35.2847956  75.2016225 126.4624492
  35.1372918  74.2732932 126.6432063  36.1101449  75.2236316 125.9781568
  29.1510200  63.8534292 122.3204985  29.4906272  64.3820213 121.5983593
  29.5982320  64.1914698 123.0963551  38.8882077  76.0244784 127.5489365
  39.8128625  75.8187645 127.4113816  38.7197381  75.7761185 128.4578707
  31.1378347  62.3508914 120.5198277  31.8586709  62.7290166 120.0161994
  30.5143651  63.0697790 120.6233255  35.2809470  63.0554063 121.4556610
  35.4973084  63.9378701 121.1545438  34.8003537  62.6640276 120.7262252
  38.6777394  76.5430451 122.9051457  38.8514271  75.9776874 122.1525309
  39.1706285  77.3431346 122.7230947  44.5316785  69.3066874 124.5241756
  44.9747931  68.5574199 124.1260880  43.6543295  69.2977010 124.1415488
  39.6652566  75.8597216 120.0048355  40.3603471  76.4803908 120.2235670
  40.0075716  75.0092567 120.2800733  41.5643989  73.3096921 121.5335686
  42.0895313  73.6484194 120.8085006  41.4766342  72.3743936 121.3498820
  30.2572029  73.4710837 121.4411701  30.4060149  74.1546301 120.7878374
  31.0638472  73.4515927 121.9561157  44.0749649  70.7772112 126.9164204
  44.9096541  71.2161916 127.0801764  44.2108778  70.3010766 126.0972450
  28.0124662  69.4976014 122.4472770  27.7670704  68.5938344 122.6452980
  28.1820577  69.4993165 121.5052248  27.2820310  65.2304372 119.9458932
  26.5889554  65.3048727 119.2898967  27.0372061  64.4664716 120.4680448
  33.7567435  75.9658967 118.9123449  33.1841402  76.5849154 118.4593920
  34.3300228  76.5158329 119.4463371  36.9764694  76.2496117 120.0432031
  37.9095367  76.1841679 120.2464906  36.8887907  77.0852384 119.5846564
  39.6052711  75.5661988 117.0035978  39.5266343  75.2321851 117.8971736
  40.4262378  76.0583756 117.0027451  42.3030902  68.4323727 130.2112297
  42.2707222  67.4939728 130.3971981  42.9131526  68.5107764 129.4778122
  34.1414233  67.3019780 116.2539501  35.0873338  67.1725988 116.3227919
  33.7628478  66.5634442 116.7308929  48.1207452  69.4939734 129.3518334
  48.8510840  69.2325022 129.9126037  47.5114397  68.7568456 129.3920402
  46.2022749  67.6347596 129.9492785  45.4755913  67.5003561 129.3409277
  45.7870036  67.9424425 130.7549503  32.3257150  65.2269756 116.1894386
  31.4188606  64.9302869 116.2657100  32.6033131  64.9299574 115.3228673
  33.9419216  59.7706646 122.3438628  33.1319944  59.4253731 122.7193874
  34.6303633  59.4614190 122.9326239  31.0955935  62.0856692 116.3306365
  31.9575099  62.4111590 116.5902183  31.2806279  61.2988188 115.8179431
  39.2488571  60.9585218 123.4741588  38.6687240  61.6170022 123.0919641
  38.9824504  60.1362563 123.0629006  38.0313449  63.1185308 122.5297937
  37.1439304  63.4034959 122.3118132  38.4467438  62.9579072 121.6825214
  41.3827985  63.1431829 126.2452276  42.1588376  63.6328282 126.5176893
  40.6576120  63.5689884 126.7024146  43.8200544  63.8559449 127.3026217
  44.4145035  63.6155185 126.5919525  43.8927128  63.1366579 127.9299753
  37.1756663  72.8829983 116.6245957  37.8792513  73.0879986 117.2403612
  36.4519312  73.4506745 116.8895040  38.0054473  68.6339844 122.7448227
  37.9489674  69.0908396 121.9055859  38.5582816  67.8730529 122.5671070
  41.8159279  64.4229576 123.5698346  41.5596213  64.0226212 124.4006554
  41.1912147  65.1373370 123.4448486  46.1271617  67.1625650 126.0769638
  45.5671175  67.2318839 126.8501200  45.5215120  66.9866634 125.3569134
  39.0843360  73.3212512 118.6744417  39.9188964  72.8893711 118.4921892
  38.9227703  73.1494526 119.6021311  38.7389252  69.8244626 120.0400756
  38.6838056  69.6588897 119.0989200  38.1135308  70.5320659 120.1962946
  32.0485378  59.3252735 119.6186074  32.0364048  60.2694575 119.7754345
  32.9408800  59.1422880 119.3245536  40.3804157  85.6445068 124.6958009
  39.8169022  85.5535005 123.9274297  40.2656552  84.8244972 125.1760502
  45.9603716  89.3116036 120.0072474  45.3091696  89.8970116 119.6206488
  46.7548079  89.8422231 120.0667512  39.8859343  86.4005173 120.4059608
  40.6590219  85.8534160 120.2672484  40.2384742  87.2649422 120.6174070
  42.2225621  82.5597839 118.0378058  42.4751142  82.0379360 117.2761521
  41.2850180  82.3963984 118.1404742  47.2668904  81.5633617 125.8452802
  48.0531993  81.1453040 125.4943219  47.5307608  82.4679709 126.0134450
  47.4378981  87.0006468 120.5441458  46.8024814  87.0741094 121.2562363
  47.1076388  87.5900066 119.8660538  41.9421910  84.4625945 120.2402433
  41.8258168  83.7870848 120.9083518  42.0524170  83.9758319 119.4234586
  44.2853451  83.9236092 123.9449123  43.9211658  83.3966713 124.6562044
  45.1420567  83.5334561 123.7715608  43.9258938  78.9525992 118.9410471
  44.0933340  79.8206228 119.3080942  43.7356107  79.1153273 118.0171760
  40.1346752  83.8656767 126.6413006  39.2097249  83.7332982 126.8490698
  40.3831165  84.6450987 127.1382948  43.9048158  81.4083649 119.9257138
  43.7847784  81.8540700 120.7642618  43.2100747  81.7568967 119.3670676
  49.6033225  81.8805122 120.7537472  50.5151081  82.1132509 120.5785169
  49.0942872  82.4642167 120.1912551  46.9469199  78.0563158 129.0027333
  46.0853678  78.3544412 129.2944070  46.9731634  78.2733557 128.0708365
  43.7630769  86.6005349 125.4101139  44.2269114  86.8793052 124.6205761
  43.4987567  85.6988793 125.2274229  42.6999655  82.7228501 122.2190704
  43.4023698  83.1749545 122.6864630  42.3680283  82.0812320 122.8470597
  36.4424989  80.9812054 127.5207837  35.6524043  81.2369582 127.0447948
  36.9336236  81.7960392 127.6259878  38.3939734  81.3456633 124.4791314
  37.5970897  81.4575327 124.9974810  38.1665326  81.6843285 123.6132204
  43.9393419  89.5369444 122.2952809  43.8039094  90.3820980 122.7237657
  44.4803232  89.7388722 121.5318743  37.3922817  87.0544882 122.8680734
  37.9047337  87.8488132 123.0186299  38.0445530  86.3571172 122.8014335
  39.2017702  90.1710638 124.9503487  39.3784330  91.0928603 124.7624471
  39.9974535  89.8569057 125.3797867  47.2885883  73.0600006 130.8251702
  46.9450152  73.9501647 130.7490813  47.6564846  72.8701663 129.9621287
  35.3571734  85.3833536 123.6440304  36.1946956  85.7930545 123.4274012
  35.5350001  84.4432978 123.6140498  47.2536166  83.0508617 119.3324137
  46.7382789  83.8213222 119.5712525  46.9813474  82.3773753 119.9557199
  44.8383277  77.8958318 124.3909376  43.9824873  77.5065168 124.2115015
  45.2510229  77.9750278 123.5309161  46.3682423  75.4304661 128.7900936
  45.8647219  75.3934796 127.9768741  46.6613030  76.3397404 128.8497592
  42.6125309  75.5143391 127.7967117  43.4778306  75.3186199 127.4373007
  42.6802818  75.2853742 128.7236474  52.2270440  85.8040972 121.2677311
  51.4499883  85.4652131 120.8232473  52.9061921  85.8093595 120.5932276
  47.0422469  80.9235709 121.1583919  46.7372605  81.2381858 122.0094062
  47.9952911  81.0017129 121.2011252  45.4868901  87.0825932 122.8076873
  44.9590262  86.3478692 122.4950110  44.9856404  87.8600609 122.5616841
  40.2187628  77.7445599 125.1683484  40.7931380  77.5220780 124.4356677
  40.8058611  77.8134293 125.9212085  40.5457215  79.7750060 119.1879369
  39.7094528  80.1124746 119.5088644  40.4061985  79.6399039 118.2506506
  42.5210296  74.6186847 123.8958554  41.8674708  74.3035865 123.2715168
  42.4790770  73.9962588 124.6218376  43.6321501  84.9006143 115.8111846
  42.7248563  84.6695396 116.0102995  44.1292533  84.1043762 115.9985827
  46.5389580  93.6103650 118.7308532  45.8651279  93.9135347 119.3393490
  46.9255402  94.4132730 118.3813989  45.7548036  81.1068781 128.2206201
  44.8370598  81.3283728 128.0627889  46.1708180  81.1815092 127.3617909
  46.5383084  82.5060197 123.3508881  47.2854903  83.0181594 123.0416003
  46.8074674  82.1844249 124.2113275  44.8109734  85.0018737 120.3335836
  43.9020954  84.7177770 120.4308305  44.8404818  85.4217816 119.4739143
  48.9861921  79.5417313 125.3327671  48.2484678  79.0294699 125.6637913
  49.2388695  79.1017695 124.5210948  49.0873549  72.3193565 125.9269440
  49.3932426  71.4590928 125.6395355  49.8126154  72.9111185 125.7268434
  35.3797905  82.7224252 124.3151038  35.1822305  82.1293612 123.5902104
  34.8244569  82.4176462 125.0326977  43.3594628  82.6147358 126.4345631
  43.4143238  81.6621194 126.3588108  42.5485830  82.7706797 126.9186929
  44.5085822  86.5427481 117.6723914  44.0705252  85.8263340 117.2129552
  45.2496263  86.7703596 117.1109006  41.2986988  81.2324418 124.1936010
  40.4854854  81.5318588 124.6001202  41.7945983  80.8380107 124.9110492
  52.6258937  84.8184678 123.7300233  52.4876836  85.0086274 122.8021422
  52.2695156  85.5804061 124.1868284  40.7901063  78.8042773 129.8097245
  41.4300442  78.6631532 129.1120208  39.9578594  78.5177287 129.4335847
  41.5661367  88.1045204 125.9232237  42.3601966  87.6095524 125.7214812
  40.8553059  87.5763067 125.5599943  37.8744130  82.2488285 121.9991990
  36.9441719  82.1872741 122.2161952  37.9701602  81.7264238 121.2028631
  37.7929680  78.7743098 124.5870232  38.0536497  79.6888432 124.4779392
  38.6146852  78.3067541 124.7366845  44.7380795  93.7783322 120.9455611
  44.9132551  93.3071365 121.7601234  44.0513583  94.4049088 121.1736872
  48.6297050  85.4011863 117.2655972  48.0126220  84.6758691 117.1689025
  48.1613538  86.1621223 116.9223046  40.4195596  79.6197287 116.3877276
  39.5425062  79.4986088 116.0239523  40.8953349  78.8283365 116.1356165
  46.9156172  77.7818207 126.2774002  47.4124871  77.0288169 125.9575072
  46.1443153  77.8182524 125.7117211  47.9985953  86.5389894 123.8512425
  47.0642231  86.6591357 123.6817130  48.1762621  85.6362361 123.5872435
  43.4991141  79.9235590 126.0045687  43.1288928  79.3706630 126.6926592
  43.9950233  79.3193723 125.4520687  51.3858504  82.3807213 124.3862460
  51.8518956  83.2135205 124.3122762  51.8366004  81.9152195 125.0907718
  49.4534735  88.7251035 121.3848612  49.7294579  88.6107629 122.2942486
  48.5839234  88.3268520 121.3460785  49.3575167  74.7487800 128.4253361
  48.4438246  74.9792027 128.5935568  49.7868268  74.8326244 129.2767393
  46.4230965  91.9005571 122.2896474  46.9518731  91.3898025 121.6766636
  46.6859184  91.5848101 123.1542007  38.8956474  77.3339581 132.2498793
  38.9597801  78.1954412 131.8376190  38.8323595  76.7213582 131.5171151
  35.1474290  81.2139142 121.8290182  35.4427731  80.3049821 121.7757236
  34.2462325  81.1926882 121.5071184  38.6768537  79.2895139 127.8117730
  37.9555122  79.9031107 127.6725204  39.4661792  79.8252904 127.7334376
  36.8762131  78.8953240 121.9529507  36.5474837  78.0150619 121.7704613
  37.2301502  78.8400909 122.8405896  39.9903954  79.1826210 122.3204985
  40.3300027  79.7112131 121.5983593  40.4376075  79.5206616 123.0963551
  42.6847395  77.5663260 131.7708053  42.3444215  76.7671074 132.1728733
  41.9786401  77.8664971 131.1984886  43.3363867  74.6512573 130.2235376
  44.1589936  74.1773051 130.1014266  43.5801930  75.4303057 130.7234062
  41.9772101  77.6800831 120.5198277  42.6980464  78.0582084 120.0161994
  41.3537406  78.3989708 120.6233255  46.1203224  78.3845980 121.4556610
  46.3366839  79.2670618 121.1545438  45.6397291  77.9932194 120.7262252
  40.8602446  81.3431694 128.0327354  40.7147026  81.6571997 128.9251636
  40.3827649  81.9616594 127.4798253  42.7198829  78.3334242 128.0808244
  42.7060397  77.4375335 127.7440542  43.4371257  78.3404905 128.7146530
  44.5724959  78.7671582 130.1261371  44.3142737  79.6888652 130.1245702
  44.0410000  78.3702016 130.8161835  42.1235725  77.2148622 123.3495814
  42.2451636  76.2865268 123.5486702  41.8337767  77.2287308 122.4374129
  44.9926915  74.9003532 126.4862534  45.0148612  74.9642865 125.5314513
  45.4094974  74.0608041 126.6803040  50.5046321  91.1889133 120.0048355
  51.1997225  91.8095826 120.2235670  50.8469471  90.3384484 120.2800733
  52.4037744  88.6388839 121.5335686  52.9289068  88.9776112 120.8085006
  52.3160096  87.7035854 121.3498820  41.0965783  88.8002755 121.4411701
  41.2453904  89.4838219 120.7878374  41.9032227  88.7807845 121.9561157
  38.8518416  84.8267932 122.4472770  38.6064458  83.9230262 122.6452980
  39.0214331  84.8285083 121.5052248  38.1214064  80.5596290 119.9458932
  37.4283309  80.6340645 119.2898967  37.8765816  79.7956633 120.4680448
  46.7927721  72.1191891 127.3498422  47.0729474  71.4515080 127.9758849
  47.5778327  72.3120987 126.8373086  44.5961189  91.2950885 118.9123449
  44.0235156  91.9141072 118.4593920  45.1693983  91.8450247 119.4463371
  47.8158449  91.5788035 120.0432031  48.7489122  91.5133597 120.2464906
  47.7281662  92.4144302 119.5846564  50.4446465  90.8953905 117.0035978
  50.3660097  90.5613769 117.8971736  51.2656132  91.3875673 117.0027451
  44.9807988  82.6311698 116.2539501  45.9267092  82.5017906 116.3227919
  44.6022232  81.8926360 116.7308929  50.9529872  74.2967704 126.2166393
  50.7554693  73.9882792 127.1009725  51.5629578  75.0229343 126.3464323
  43.1650905  80.5561674 116.1894386  42.2582360  80.2594787 116.2657100
  43.4426886  80.2591492 115.3228673  44.7812970  75.0998564 122.3438628
  43.9713699  74.7545649 122.7193874  45.4697387  74.7906108 122.9326239
  46.7103519  74.1776611 123.9662924  47.2634557  74.5972064 124.6252947
  46.9473605  73.2512359 124.0085880  41.9349689  77.4148609 116.3306365
  42.7968853  77.7403508 116.5902183  42.1200033  76.6280105 115.8179431
  50.0882326  76.2877136 123.4741588  49.5080995  76.9461940 123.0919641
  49.8218258  75.4654480 123.0629006  48.5385892  75.6882193 125.6762909
  49.0385670  75.7998728 124.8677228  49.1821500  75.3843246 126.3163717
  48.8707204  78.4477226 122.5297937  47.9833059  78.7326877 122.3118132
  49.2861193  78.2870990 121.6825214  52.2221740  78.4723747 126.2452276
  52.9982130  78.9620200 126.5176893  51.4969874  78.8981801 126.7024146
  48.0150417  88.2121901 116.6245957  48.7186267  88.4171903 117.2403612
  47.2913066  88.7798663 116.8895040  48.8448228  83.9631762 122.7448227
  48.7883429  84.4200314 121.9055859  49.3976570  83.2022447 122.5671070
  52.6553033  79.7521494 123.5698346  52.3989968  79.3518130 124.4006554
  52.0305901  80.4665288 123.4448486  49.9237115  88.6504430 118.6744417
  50.7582719  88.2185629 118.4921892  49.7621458  88.4786444 119.6021311
  49.5783007  85.1536543 120.0400756  49.5231811  84.9880815 119.0989200
  48.9529062  85.8612576 120.1962946  42.8879132  74.6544652 119.6186074
  42.8757802  75.5986492 119.7754345  43.7802554  74.4714798 119.3245536
  46.7031252  71.2487429 123.8732011  45.9363648  70.6945916 124.0188694
  47.1141957  71.3209298 124.7346163  51.3850970  95.1041977 119.1879369
  50.5488282  95.4416664 119.5088644  51.2455740  94.9690957 118.2506506
  51.2589350  94.9489205 116.3877276  50.3818817  94.8278006 116.0239523
  51.7347103  94.1575283 116.1356165  48.9607818  95.8888207 119.9458932
  48.2677063  95.9632562 119.2898967  48.7159570  95.1248551 120.4680448
  54.0044659  95.8853592 116.1894386  53.0976115  95.5886704 116.2657100
  54.2820640  95.5883410 115.3228673  52.7743444  92.7440527 116.3306365
  53.6362608  93.0695425 116.5902183  52.9593788  91.9572023 115.8179431
  53.7272887  89.9836570 119.6186074  53.7151557  90.9278410 119.7754345
  54.6196309  89.8006715 119.3245536  24.8602072  39.9581937 105.4553838
  24.1863771  40.2613634 106.0638796  25.2467894  40.7611017 105.1059295
  28.8258813  37.5367421 106.7293662  29.5209717  38.1574113 106.9480976
  29.1681963  36.6862772 107.0046040  22.9173681  37.6429172 105.6368755
  22.3447648  38.2619359 105.1839227  23.4906475  38.1928534 106.1708677
  26.1370941  37.9266322 106.7677337  27.0701614  37.8611884 106.9710213
  26.0494154  38.7622589 106.3091870  28.7658958  37.2432193 103.7281285
  28.6872589  36.9092056 104.6217043  29.5868625  37.7353961 103.7272757
  26.3362910  34.5600188 103.3491263  27.0398760  34.7650191 103.9648919
  25.6125558  35.1276950 103.6140347  28.2449607  34.9982717 105.3989723
  29.0795211  34.5663916 105.2167198  28.0833950  34.8264731 106.3266618
  36.8733882  45.5152368 115.4944900  37.5112292  45.3959116 114.7908240
  36.7554725  46.4633212 115.5532852  29.5410404  47.3215273 111.4203316
  28.9775269  47.2305210 110.6519604  29.4262799  46.5015177 111.9005808
  35.1209963  50.9886241 106.7317781  34.4697942  51.5740321 106.3451795
  35.9154326  51.5192436 106.7912818  29.0465590  48.0775378 107.1304915
  29.8196466  47.5304365 106.9917791  29.3990989  48.9419627 107.3419376
  31.3831868  44.2368044 104.7623365  31.6357388  43.7149565 104.0006828
  30.4456427  44.0734189 104.8650049  36.4275151  43.2403822 112.5698108
  37.2138240  42.8223245 112.2188525  36.6913855  44.1449914 112.7379757
  36.5985228  48.6776673 107.2686765  35.9631061  48.7511299 107.9807670
  36.2682634  49.2670271 106.5905844  41.8283578  43.1779055 113.4731087
  42.5608750  42.6078272 113.7068916  41.0722933  42.7900656 113.9137592
  31.1028156  46.1396150 106.9647740  30.9864415  45.4641053 107.6328824
  31.2130416  45.6528524 106.1479893  33.4459697  45.6006297 110.6694429
  33.0817905  45.0736918 111.3807351  34.3026813  45.2104766 110.4960915
  33.0865184  40.6296197 105.6655778  33.2539587  41.4976433 106.0326249
  32.8962353  40.7923478 104.7417067  33.0654405  43.0853854 106.6502445
  32.9454030  43.5310905 107.4887925  32.3706994  43.4339172 106.0915983
  30.8261297  55.8557496 110.2992576  30.7485327  56.8065321 110.3781056
  30.2222941  55.5103368 110.9567502  38.7639471  43.5575327 107.4782779
  39.6757327  43.7902714 107.3030476  38.2549118  44.1412372 106.9157857
  37.3709054  48.5401146 114.8696360  36.7417916  48.7046860 114.1672428
  36.9834716  48.9542755 115.6407324  41.2498286  49.4755584 112.2240724
  40.5649324  49.8554485 111.6737757  41.3342135  50.0850910 112.9572672
  32.9237016  48.2775554 112.1346445  33.3875361  48.5563257 111.3451068
  32.6593814  47.3758998 111.9519536  31.8605902  44.3998706 108.9436010
  32.5629945  44.8519750 109.4109937  31.5286530  43.7582525 109.5715903
  39.6195045  49.9987498 116.9958425  40.4412489  49.5967685 116.7141106
  39.6157448  49.8955732 117.9474540  47.7101038  46.3426247 113.3443396
  46.9564747  45.7733645 113.1887401  47.8448579  46.3088911 114.2914031
  33.0999666  51.2139649 109.0198115  32.9645341  52.0591185 109.4482963
  33.6409479  51.4158926 108.2564049  26.5529064  48.7315087 109.5926041
  27.0653584  49.5258337 109.7431605  27.2051776  48.0341377 109.5259642
  28.3623948  51.8480843 111.6748794  28.5390577  52.7698808 111.4869778
  29.1580782  51.5339262 112.1043174  29.4855264  53.3659017 117.6759136
  30.0362689  53.2376080 116.9036130  28.6466740  53.6653906 117.3254029
  24.5177980  47.0603741 110.3685611  25.3553202  47.4700750 110.1519319
  24.6956248  46.1203183 110.3385805  36.4142413  44.7278822 106.0569444
  35.8989036  45.4983426 106.2957831  36.1419721  44.0543958 106.6802506
  33.9989524  39.5728523 111.1154682  33.1431120  39.1835373 110.9360321
  34.4116475  39.6520483 110.2554468  41.3876687  47.4811176 107.9922618
  40.6106129  47.1422336 107.5477780  42.0668168  47.4863800 107.3177583
  36.2028716  42.6005914 107.8829225  35.8978851  42.9152063 108.7339368
  37.1559158  42.6787334 107.9256558  34.6475148  48.7596137 109.5322179
  34.1196509  48.0248897 109.2195417  34.1462650  49.5370814 109.2862148
  39.6267994  46.9545158 114.6489226  38.9691668  47.6444419 114.7369354
  40.4308393  47.3441590 114.9923212  38.4373452  45.3089530 112.6993167
  38.9505334  45.9419522 113.2014877  39.0874676  44.7090726 112.3336527
  29.7063462  41.4520265 105.9124676  28.8700775  41.7894951 106.2333951
  29.5668232  41.3169244 104.9751813  32.7927748  46.5776347 102.5357152
  31.8854809  46.3465601 102.7348301  33.2898780  45.7813967 102.7231134
  35.6995827  55.2873855 105.4553838  35.0257525  55.5905551 106.0638796
  36.0861649  56.0902935 105.1059295  35.6989331  44.1830402 110.0754188
  36.4461150  44.6951799 109.7661310  35.9680921  43.8614454 110.9358582
  33.9715981  46.6788942 107.0581142  33.0627200  46.3947975 107.1553612
  34.0011065  47.0988021 106.1984449  39.2035249  50.2895532 110.8272310
  38.7497576  49.4486442 110.8837500  38.5729215  50.9256930 111.1647090
  38.1468168  41.2187518 112.0572977  37.4090925  40.7064904 112.3883220
  38.3994942  40.7787899 111.2456254  37.6468188  52.1272029 111.7622128
  37.9391162  52.6877086 111.0434494  38.1566808  52.4200590 112.5175287
  32.5200875  44.2917563 113.1590938  32.5749485  43.3391399 113.0833414
  31.7092077  44.4477002 113.6432236  33.6692069  48.2197686 104.3969221
  33.2311499  47.5033545 103.9374858  34.4102510  48.4473801 103.8354312
  30.4593235  42.9094623 110.9181317  29.6461101  43.2088793 111.3246509
  30.9552229  42.5150311 111.6355799  32.6101813  52.9052380 112.8515581
  32.5677992  53.1313226 111.9224113  33.5264512  52.6715754 113.0001382
  41.7865184  46.4954883 110.4545539  41.6483082  46.6856479 109.5266729
  41.4301403  47.2574266 110.9113591  41.8134563  48.5631410 115.4656811
  42.2471070  48.4706699 116.3139865  42.5266144  48.5388911 114.8276827
  30.7267614  49.7815409 112.6477544  31.5208212  49.2865729 112.4460119
  30.0159306  49.2533272 112.2845250  35.5462458  52.1633504 116.9989912
  35.5999481  52.7324440 117.7667627  34.6777240  52.3335389 116.6343949
  27.0350377  43.9258490 108.7237297  26.1047965  43.8642946 108.9407259
  27.1307849  43.4034443 107.9273938  42.6750113  48.6055111 117.9989696
  42.8686003  49.5100921 118.2448971  42.5750731  48.1462530 118.8328281
  33.3038890  50.3544431 116.3275381  33.1649975  49.9863215 117.2001319
  32.5153486  50.8692070 116.1559339  33.8987042  55.4553527 107.6700918
  34.0738797  54.9841570 108.4846540  33.2119830  56.0819293 107.8982178
  34.8544105  49.7326033 113.7164219  34.5193938  49.6926803 114.6121869
  34.3548051  49.0670749 113.2434629  37.7903297  47.0782068 103.9901279
  37.1732467  46.3528896 103.8934331  37.3219785  47.8391428 103.6468353
  28.4648127  58.6042890 114.4440778  28.7044725  59.2361414 115.1219796
  27.6217324  58.2530930 114.7306137  29.5801842  41.2967492 103.1122583
  28.7031309  41.1756293 102.7484829  30.0559596  40.5053570 102.8601471
  32.9775989  54.4122012 116.8482282  32.9046160  55.2176984 117.3601586
  32.5353382  54.6113978 116.0230303  32.7665769  53.6493782 110.3585103
  31.9833290  54.1915463 110.4523328  33.4658514  54.1667762 110.7579344
  43.9292176  45.1628777 114.6437600  43.9182052  46.0453493 114.2731533
  43.0609555  44.8100328 114.4492137  35.4374672  54.3108846 119.0040440
  36.1502645  54.9456311 118.9316342  34.9464701  54.4072712 118.1880442
  37.1592199  48.2160099 110.5757732  36.2248478  48.3361561 110.4062436
  37.3368868  47.3132566 110.3117742  40.5464751  44.0577418 111.1107766
  41.0125203  44.8905410 111.0368069  40.9972251  43.5922400 111.8153025
  38.6140982  50.4021240 108.1093918  38.8900826  50.2877834 109.0187792
  37.7445481  50.0038724 108.0706091  35.2495046  54.6507590 111.7526732
  35.4317440  53.8329246 112.2154484  36.0728032  54.8675283 111.3151622
  35.5837211  53.5775776 109.0141780  36.1124978  53.0668230 108.4011942
  35.8465431  53.2618306 109.8787313  28.9392959  54.6290892 111.7739556
  28.2703335  55.1137020 111.2903596  28.8005829  54.8760113 112.6882935
  33.0798228  56.6634636 118.3722215  33.6316536  56.8266257 119.1371300
  33.4204421  57.2539074 117.7002240  24.3080536  42.8909347 108.5535488
  24.6033977  41.9820026 108.5002542  23.4068572  42.8697087 108.2316491
  36.2166615  54.6116611 115.3585897  36.0917755  53.8106351 114.8496842
  36.8745706  55.1062805 114.8699867  38.2801523  52.4125631 116.9865447
  37.3331859  52.2930983 116.9143774  38.6284297  51.5248129 117.0691708
  35.2847957  52.2078348 113.1869799  35.1372919  51.2795055 113.3677369
  36.1101450  52.2298438 112.7026874  29.1510201  40.8596415 109.0450291
  29.4906274  41.3882336 108.3228900  29.5982322  41.1976821 109.8208858
  38.8882079  53.0306906 114.2734672  39.8128626  52.8249768 114.1359123
  38.7197382  52.7823307 115.1824013  31.1378348  39.3571036 107.2443584
  31.8586711  39.7352289 106.7407301  30.5143652  40.0759913 107.3478562
  35.2809471  40.0616185 108.1801916  35.4973085  40.9440823 107.8790745
  34.8003538  39.6702399 107.4507558  38.6777395  53.5492574 109.6296763
  38.8514272  52.9838996 108.8770616  39.1706286  54.3493469 109.4476253
  44.5316786  46.3128997 111.2487063  44.9747932  45.5636322 110.8506186
  43.6543296  46.3039133 110.8660795  39.6652567  52.8659338 106.7293662
  40.3603472  53.4866031 106.9480976  40.0075717  52.0154689 107.0046040
  41.5643990  50.3159044 108.2580992  42.0895315  50.6546316 107.5330312
  41.4766343  49.3806059 108.0744127  33.2484651  56.3831027 112.6176246
  32.8089641  55.8907406 113.3109102  33.9992768  55.8403995 112.3768321
  25.7276990  52.5742568 112.6200874  26.5535010  52.2746340 112.2399517
  25.3771042  51.8050190 113.0690662  30.6958523  51.9269036 114.6898547
  30.0738533  51.2639741 114.3900775  31.3663390  51.9530168 114.0072195
  30.2572030  50.4772959 108.1657008  30.4060151  51.1608424 107.5123681
  31.0638474  50.4578049 108.6806464  44.0749651  47.7834235 113.6409511
  44.9096542  48.2224039 113.8047071  44.2108780  47.3072888 112.8217756
  28.0124663  46.5038137 109.1718077  27.7670705  45.6000467 109.3698287
  28.1820578  46.5055287 108.2297555  27.2820311  42.2366495 106.6704238
  26.5889556  42.3110850 106.0144274  27.0372063  41.4726838 107.1925755
  33.7567436  52.9721090 105.6368755  33.1841403  53.5911277 105.1839227
  34.3300229  53.5220452 106.1708677  36.9764696  53.2558240 106.7677337
  37.9095369  53.1903802 106.9710213  36.8887908  54.0914507 106.3091870
  42.3030903  45.4385850 116.9357604  42.2707224  44.5001850 117.1217287
  42.9131527  45.5169886 116.2023429  34.1414234  44.3081903 102.9784808
  35.0873339  44.1788111 103.0473226  33.7628479  43.5696565 103.4554236
  48.1207453  46.5001856 116.0763640  48.8510842  46.2387145 116.6371344
  47.5114399  45.7630578 116.1165708  46.2022750  44.6409719 116.6738092
  45.4755914  44.5065684 116.0654583  45.7870037  44.9486548 117.4794810
  32.3257151  42.2331879 102.9139693  31.4188607  41.9364992 102.9902407
  32.6033132  41.9361697 102.0473979  33.9419217  36.7768769 109.0683934
  33.1319945  36.4315854 109.4439180  34.6303634  36.4676312 109.6571546
  31.0955936  39.0918814 103.0551672  31.9575100  39.4173713 103.3147489
  31.2806280  38.3050310 102.5424738  39.2488573  37.9647341 110.1986895
  38.6687242  38.6232145 109.8164948  38.9824505  37.1424685 109.7874313
  38.0313451  40.1247431 109.2543243  37.1439306  40.4097082 109.0363438
  38.4467440  39.9641194 108.4070520  41.3827987  40.1493952 112.9697583
  42.1588377  40.6390404 113.2422199  40.6576121  40.5752006 113.4269452
  43.8200545  40.8621571 114.0271523  44.4145036  40.6217307 113.3164831
  43.8927129  40.1428702 114.6545060  26.0397701  54.7055182 114.3414688
  25.9052169  53.9455583 113.7752686  25.6229763  55.4296082 113.8743477
  37.1756664  49.8892106 103.3491263  37.8792514  50.0942108 103.9648919
  36.4519313  50.4568868 103.6140347  38.0054474  45.6401967 109.4693534
  37.9489676  46.0970518 108.6301166  38.5582817  44.8792652 109.2916376
  41.8159280  41.4291699 110.2943653  41.5596214  41.0288335 111.1251861
  41.1912148  42.1435493 110.1693792  46.1271618  44.1687772 112.8014944
  45.5671176  44.2380961 113.5746506  45.5215121  43.9928757 112.0814441
  29.1966827  55.6024499 114.5533131  29.0799211  56.5469932 114.4511821
  28.3759273  55.2998061 114.9418930  39.0843361  50.3274635 105.3989723
  39.9188965  49.8955833 105.2167198  38.9227704  50.1556649 106.3266618
  38.7389254  46.8306748 106.7646063  38.6838057  46.6651020 105.8234507
  38.1135309  47.5382781 106.9208252  32.0485379  36.3314857 106.3431381
  32.0364049  37.2756697 106.4999652  32.9408801  36.1485003 106.0490842
  30.2221341  56.2552761 117.7689059  31.1248588  56.2876371 118.0855554
  29.9958711  55.3253212 117.7835395  31.9774943  55.0083748 114.4299138
  31.0270574  55.0085609 114.3163510  32.2807429  54.2616482 113.9135172
  47.7127637  60.8444286 115.4944900  48.3506046  60.7251033 114.7908240
  47.5948479  61.7925130 115.5532852  44.5217343  60.7971714 115.4306425
  44.1835854  60.6812779 114.5426960  45.3907111  60.3962879 115.4107431
  45.0037126  61.9506566 121.3892630  44.9925767  61.5559364 120.5173134
  45.1657765  61.2172638 121.9826402  37.9268590  64.1458382 114.2587536
  38.7189882  63.8049207 113.8433836  38.1665241  64.2553357 115.1789690
  41.7244387  64.7343678 120.3371814  41.4334253  65.6389309 120.2218481
  42.3601371  64.7760205 121.0515884  42.6500594  62.1120526 116.9273174
  43.2464166  61.8876549 116.2130137  42.7075565  61.3705272 117.5298622
  47.2668905  58.5695740 112.5698108  48.0531994  58.1515163 112.2188525
  47.5307609  59.4741832 112.7379757  52.6677332  58.5070973 113.4731087
  53.4002504  57.9370190 113.7068916  51.9116688  58.1192574 113.9137592
  44.2853452  60.9298215 110.6694429  43.9211659  60.4028836 111.3807351
  45.1420568  60.5396684 110.4960915  50.1902752  52.2192547 117.9325695
  49.8586077  53.0887958 117.7086910  49.5948366  51.9028831 118.6119726
  46.6834272  64.4205093 117.3321608  46.3834995  65.3230132 117.2237415
  46.3385332  64.1537276 118.1842761  40.1346753  60.8718890 113.3658312
  39.2097250  60.7395104 113.5736004  40.3831167  61.6513109 113.8628255
  50.0831416  56.9387633 115.0119045  49.1748293  56.8703042 114.7177806
  50.0319012  57.4159578 115.8400871  37.4955565  60.5152164 114.2002102
  37.6247946  60.7686643 115.1141513  36.8153016  61.1079872 113.8806757
  44.1572282  58.3577279 122.9553943  43.3805616  58.9171199 122.9456807
  44.7962845  58.8434062 123.4768813  51.9493062  55.1404072 116.7896919
  51.3067442  55.4336605 116.1436714  51.4447991  55.0256992 117.5950116
  49.6033226  58.8867245 107.4782779  50.5151082  59.1194632 107.3030476
  49.0942873  59.4704289 106.9157857  42.4118654  61.1662732 122.5171910
  43.1533338  61.7047776 122.2406733  41.7055639  61.7929021 122.6743461
  47.8873994  63.3091873 121.1144071  48.2957350  62.8674283 120.3698704
  47.1651255  62.7344500 121.3678264  44.2405064  58.2464480 118.4877628
  45.0866259  58.6703893 118.6312277  44.1803701  57.5898104 119.1816191
  52.0892040  64.8047501 112.2240724  51.4043078  65.1846403 111.6737757
  52.1735889  65.4142828 112.9572672  47.3904509  55.9068848 120.1458802
  47.1465441  56.6610908 119.6093077  47.6664439  56.2854196 120.9806049
  49.3442972  62.4507460 118.8236067  49.5559867  63.0939220 118.1470448
  49.2972720  61.6169777 118.3557997  46.9469201  55.0625281 115.7272639
  46.0853680  55.3606535 116.0189377  46.9731635  55.2795680 114.7953672
  40.6554851  63.1538953 115.0726208  41.2256208  63.5826221 114.4343693
  41.2462963  62.8721538 115.7710394  42.6999656  59.7290624 108.9436010
  43.4023699  60.1811668 109.4109937  42.3680285  59.0874443 109.5715903
  41.1480018  58.3202381 123.3187220  40.5178678  59.0018661 123.5522616
  41.0416106  58.2085462 122.3740358  36.4424990  57.9874177 114.2453144
  35.6524044  58.2431705 113.7693254  36.9336237  58.8022514 114.3505184
  50.4588800  65.3279416 116.9958425  51.2806243  64.9259603 116.7141106
  50.4551202  65.2247650 117.9474540  38.3939735  58.3518756 111.2036621
  37.5970899  58.4637450 111.7220116  38.1665328  58.6905408 110.3377511
  44.2245403  64.8763459 119.1519135  44.2889836  65.3383866 119.9877307
  43.5156327  64.2460824 119.2801445  34.7262693  58.2404667 116.6768135
  34.9770731  59.1251677 116.9425711  35.2622241  58.0609269 115.9043226
  58.5494793  61.6718164 113.3443396  57.7958501  61.1025562 113.1887401
  58.6842334  61.6380829 114.2914031  37.3922818  64.0607005 109.5926041
  37.9047339  64.8550255 109.7431605  38.0445531  63.3633295 109.5259642
  43.3428721  54.0381025 123.2732727  44.0838435  54.6388179 123.1937190
  43.5746644  53.2958663 122.7150770  38.4870059  59.2237393 121.5510957
  38.3723574  58.3222650 121.8518056  37.6314577  59.4701089 121.1995773
  45.5661897  67.1655133 123.1498458  45.1225751  66.3791512 122.8319362
  46.2279111  67.3534284 122.4842348  40.3249018  68.6950935 117.6759136
  40.8756443  68.5667998 116.9036130  39.4860494  68.9945824 117.3254029
  47.6643135  67.4457933 121.1779859  47.6461611  68.2666814 120.6860128
  48.5863055  67.3212008 121.4030000  44.1216189  64.9602062 122.0203367
  44.6544526  64.1990351 121.7902675  43.5930270  64.6675714 122.7627522
  47.2885884  50.0662128 117.5497009  46.9450154  50.9563770 117.4736120
  47.6564847  49.8763786 116.6866594  35.3571735  62.3895659 110.3685611
  36.1946957  62.7992667 110.1519319  35.5350003  61.4495101 110.3385805
  44.8383278  54.9020440 111.1154682  43.9824874  54.5127291 110.9360321
  45.2510230  54.9812401 110.2554468  46.3682425  52.4366784 115.5146242
  45.8647220  52.3996919 114.7014047  46.6613032  53.3459526 115.5742899
  42.6125311  52.5205513 114.5212424  43.4778307  52.3248322 114.1618313
  42.6802819  52.2915865 115.4481781  52.2270441  62.8103094 107.9922618
  51.4499884  62.4714254 107.5477780  52.9061922  62.8155717 107.3177583
  47.0422470  57.9297832 107.8829225  46.7372606  58.2443981 108.7339368
  47.9952912  58.0079251 107.9256558  50.4661748  62.2837075 114.6489226
  49.8085422  62.9736337 114.7369354  51.2702147  62.6733507 114.9923212
  40.2187630  54.7507721 111.8928791  40.7931382  54.5282903 111.1601984
  40.8058612  54.8196416 112.6457392  49.2767207  60.6381448 112.6993167
  49.7899089  61.2711440 113.2014877  49.9268431  60.0382644 112.3336527
  42.5210297  51.6248970 110.6203860  41.8674710  51.3097987 109.9960475
  42.4790771  51.0024711 111.3463683  45.7548038  58.1130904 114.9451508
  44.8370599  58.3345851 114.7873196  46.1708181  58.1877214 114.0863215
  46.5383085  59.5122319 110.0754188  47.2854904  60.0243717 109.7661310
  46.8074675  59.1906372 110.9358582  48.9861923  56.5479436 112.0572977
  48.2484679  56.0356822 112.3883220  49.2388696  56.1079817 111.2456254
  49.0873550  49.3255688 112.6514747  49.3932427  48.4653051 112.3640662
  49.8126155  49.9173308 112.4513741  35.3797906  59.7286374 111.0396345
  35.1822306  59.1355735 110.3147411  34.8244570  59.4238584 111.7572283
  43.3594630  59.6209481 113.1590938  43.4143239  58.6683317 113.0833414
  42.5485832  59.7768920 113.6432236  41.2986990  58.2386540 110.9181317
  40.4854855  58.5380711 111.3246509  41.7945984  57.8442229 111.6355799
  46.8961201  58.7028365 119.7496210  47.2510589  58.9299838 120.6090676
  47.5433333  59.0346742 119.1273466  52.6258938  61.8246801 110.4545539
  52.4876837  62.0148397 109.5266729  52.2695157  62.5866184 110.9113591
  40.7901064  55.8104896 116.5342552  41.4300444  55.6693655 115.8365515
  39.9578595  55.5239409 116.1581154  52.6528318  63.8923328 115.4656811
  53.0864825  63.7998617 116.3139865  53.3659899  63.8680828 114.8276827
  46.3856213  67.4925422 116.9989912  46.4393235  68.0616358 117.7667627
  45.5170994  67.6627307 116.6343949  37.8744132  59.2550408 108.7237297
  36.9441720  59.1934864 108.9407259  37.9701604  58.7326361 107.9273938
  37.7929681  55.7805221 111.3115538  38.0536498  56.6950554 111.2024699
  38.6146853  55.3129663 111.4612151  39.2654606  57.1942978 118.4814363
  39.9377660  56.9860340 117.8327012  38.4384393  56.9965064 118.0419595
  53.5143867  63.9347028 117.9989696  53.7079757  64.8392839 118.2448971
  53.4144486  63.4754447 118.8328281  45.1680178  53.8204919 120.4980024
  44.5208093  54.5194869 120.4044500  45.9381194  54.2541063 120.8656272
  48.5758976  64.0853771 123.5730577  48.4244482  63.8564323 122.6560661
  48.5663656  65.0424373 123.5861922  45.3444312  61.6585684 118.5576843
  46.2736372  61.8096844 118.3845811  44.9235343  61.7469705 117.7025490
  39.6682103  60.4685581 119.2416800  39.5301901  59.7365820 119.8428339
  40.5787027  60.3794481 118.9600988  42.2964404  60.1805540 118.7300480
  43.0064023  59.5398733 118.6887098  42.2533712  60.4318435 119.6526660
  50.2851183  67.1172894 121.6507059  50.2263729  66.4332114 120.9837642
  50.6870701  67.8591884 121.1987685  41.0093338  57.1670758 120.5496119
  40.4730695  56.7161497 121.2017715  40.4210046  57.3016667 119.8066583
  39.3041882  73.9334808 114.4440778  39.5438480  74.5653332 115.1219796
  38.4611078  73.5822848 114.7306137  50.2868590  65.0812478 119.8821039
  49.3995369  64.7438399 120.0047437  50.8567141  64.3495509 120.1189804
  31.9397737  61.4136569 113.2064090  32.6268777  61.0998299 112.6185105
  31.7845866  62.3177934 112.9331341  36.7432459  56.3026766 117.6349114
  36.6590648  55.6952436 116.8999524  35.9215166  56.7935784 117.6358610
  43.8169743  69.7413930 116.8482282  43.7439915  70.5468901 117.3601586
  43.3747136  69.9405896 116.0230303  46.9156173  54.7880329 113.0019309
  47.4124873  54.0350292 112.6820379  46.1443155  54.8244646 112.4362518
  54.7685931  60.4920695 114.6437600  54.7575807  61.3745410 114.2731533
  53.9003310  60.1392246 114.4492137  46.2768427  69.6400764 119.0040440
  46.9896399  70.2748229 118.9316342  45.7858456  69.7364630 118.1880442
  43.4991142  56.9297712 112.7290993  43.1288929  56.3768753 113.4171899
  43.9950234  56.3255846 112.1765993  51.3858505  59.3869336 111.1107766
  51.8518957  60.2197328 111.0368069  51.8366006  58.9214318 111.8153025
  41.3280340  67.3895207 119.8246011  42.0289800  68.0231690 119.9775405
  40.8575455  67.7309939 119.0641650  49.3575168  51.7549923 115.1498668
  48.4438248  51.9854150 115.3180874  49.7868269  51.8388367 116.0012700
  49.1281626  59.9439815 117.6498562  48.4753077  60.1915722 116.9951014
  49.5062006  59.1303953 117.3161039  45.1769199  60.6859626 124.1364599
  44.5009836  60.5853755 124.8066974  45.9996833  60.5298840 124.6000596
  36.9248059  66.9231563 116.7577114  37.5101495  66.1775250 116.8905018
  36.7272897  67.2335519 117.6413778  31.5165713  59.4937163 115.4781557
  31.5549813  58.9600753 116.2718675  31.0106006  58.9672368 114.8592534
  43.9191982  71.9926553 118.3722215  44.4710290  72.1558175 119.1371300
  44.2598176  72.5830991 117.7002240  38.8956476  54.3401703 118.9744099
  38.9597802  55.2016534 118.5621497  38.8323596  53.7275705 118.2416458
  48.7702857  66.8187811 124.2270869  49.3142761  67.4317769 123.7325824
  48.1889701  67.3767389 124.7437882  35.1474291  58.2201265 108.5535488
  35.4427732  57.3111943 108.5002542  34.2462327  58.1989004 108.2316491
  47.0560370  69.9408529 115.3585897  46.9311509  69.1398269 114.8496842
  47.7139461  70.4354722 114.8699867  38.6768538  56.2957261 114.5363037
  37.9555124  56.9093229 114.3970510  39.4661794  56.8315026 114.4579683
  49.1195278  67.7417549 116.9865447  48.1725614  67.6222900 116.9143774
  49.4678051  66.8540047 117.0691708  41.4794851  53.6311688 120.8103689
  42.0029253  53.8773985 121.5729998  41.2607185  54.4631723 120.3906826
  36.8762132  55.9015363 108.6774814  36.5474839  55.0212741 108.4949920
  37.2301503  55.8463031 109.5651203  39.9903956  56.1888332 109.0450291
  40.3300028  56.7174254 108.3228900  40.4376076  56.5268738 109.8208858
  49.7275833  68.3598824 114.2734672  50.6522381  68.1541685 114.1359123
  49.5591136  68.1115225 115.1824013  42.6847396  54.5725383 118.4953359
  42.3444217  53.7733196 118.8974039  41.9786403  54.8727094 117.9230193
  43.3363868  51.6574695 116.9480682  44.1589938  51.1835174 116.8259573
  43.5801932  52.4365179 117.4479369  41.9772103  54.6862954 107.2443584
  42.6980465  55.0644207 106.7407301  41.3537407  55.4051831 107.3478562
  46.1203226  55.3908103 108.1801916  46.3366840  56.2732741 107.8790745
  45.6397293  54.9994316 107.4507558  40.8602447  58.3493816 114.7572661
  40.7147028  58.6634119 115.6496942  40.3827651  58.9678716 114.2043560
  42.7198830  55.3396364 114.8053551  42.7060399  54.4437457 114.4685848
  43.4371258  55.3467028 115.4391837  44.5724961  55.7733704 116.8506678
  44.3142738  56.6950775 116.8491008  44.0410001  55.3764139 117.5407142
  35.3348109  60.8899161 117.6960322  34.7901577  61.6658968 117.8280596
  36.2127459  61.2369965 117.5379444  42.1235726  54.2210744 110.0741121
  42.2451637  53.2927391 110.2732008  41.8337768  54.2349430 109.1619436
  44.9926916  51.9065655 113.2107841  45.0148613  51.9704988 112.2559820
  45.4094975  51.0670163 113.4048347  55.3710541  61.6420914 111.2487063
  55.8141687  60.8928240 110.8506186  54.4937051  61.6331051 110.8660795
  36.1214131  60.0169057 120.5890479  35.3795867  60.1651692 121.1755109
  35.8006875  60.2777322 119.7257228  52.4037745  65.6450961 108.2580992
  52.9289069  65.9838234 107.5330312  52.3160097  64.7097977 108.0744127
  44.0657794  69.5585035 120.3870869  44.3744920  69.3134182 121.2593569
  44.8633276  69.7631673 119.8989739  34.7679350  65.8220812 113.5789807
  33.9311258  65.3942986 113.3973808  34.7402995  66.0153255 114.5160598
  52.0931651  66.2783865 123.5632190  51.3027195  66.2608004 123.0236690
  51.8565006  66.8172159 124.3181227  52.2129526  63.1276331 120.8764919
  52.2627531  62.9626339 121.8180442  52.1043449  62.2603590 120.4862800
  49.5033288  59.1107259 122.1924226  50.4043151  58.9713724 121.9008223
  49.5781263  59.2761714 123.1322403  43.8376094  56.4874114 121.0377412
  42.9679403  56.7807680 120.7660000  44.0735574  57.0714559 121.7584676
  53.7147723  65.5473273 121.1206940  53.4232531  65.9103253 121.9570401
  53.1019854  64.8340281 120.9420272  54.9143405  63.1126153 113.6409511
  55.7490297  63.5515957 113.8047071  55.0502534  62.6364806 112.8217756
  51.9634911  60.6705888 119.5886998  52.4389033  60.8633534 118.7805850
  51.0400477  60.7265073 119.3430382  46.5415128  52.7053731 118.5542832
  47.0597071  53.4414758 118.2289321  46.1870260  53.0117724 119.3889591
  38.1214065  57.5658412 106.6704238  37.4283310  57.6402767 106.0144274
  37.8765817  56.8018756 107.1925755  46.7927722  49.1254014 114.0743729
  47.0729476  48.4577203 114.7004155  47.5778329  49.3183109 113.5618393
  50.6636580  57.5471648 117.8215304  51.6154003  57.6469745 117.8427528
  50.4940031  56.7549916 118.3313388  48.6850960  54.6327231 118.0074705
  48.0900892  54.9132244 117.3121194  48.4000656  55.1221132 118.7791446
  50.4446467  67.9016028 103.7281285  50.3660098  67.5675892 104.6217043
  51.2656134  68.3937796 103.7272757  53.1424658  60.7677767 116.9357604
  53.1100978  59.8293768 117.1217287  53.7525282  60.8461804 116.2023429
  53.2919146  57.5588811 116.9815887  52.7758195  56.7747267 116.7945816
  54.1759095  57.2307527 117.1462406  50.9529873  51.3029826 112.9411700
  50.7554694  50.9944915 113.8255031  51.5629579  52.0291465 113.0709629
  58.9601208  61.8293774 116.0763640  59.6904596  61.5679062 116.6371344
  58.3508153  61.0922496 116.1165708  57.0416505  59.9701637 116.6738092
  56.3149668  59.8357602 116.0654583  56.6263792  60.2778465 117.4794810
  44.8646681  63.6891566 124.4385465  45.7849691  63.8670165 124.6325511
  44.8296264  62.7447612 124.2865164  34.0828846  58.8830160 113.3638739
  33.7631631  58.0295468 113.0713113  33.5362274  59.0978738 114.1196707
  37.8608754  61.5992601 117.0808246  38.0794764  62.5309709 117.0996280
  38.2734528  61.2400575 117.8663050  44.7812972  52.1060686 109.0683934
  43.9713700  51.7607771 109.4439180  45.4697389  51.7968230 109.6571546
  46.7103520  51.1838733 110.6908231  47.2634559  51.6034187 111.3498254
  46.9473606  50.2574481 110.7331187  33.9517106  62.5033072 115.3331861
  33.2580578  62.0887024 114.8201815  34.6990097  62.5453608 114.7365280
  50.0882327  53.2939258 110.1986895  49.5080996  53.9524062 109.8164948
  49.8218260  52.4716603 109.7874313  48.5385893  52.6944316 112.4008215
  49.0385672  52.8060851 111.5922534  49.1821501  52.3905369 113.0409024
  42.5967889  60.6022946 125.2876056  42.1134971  61.4023306 125.4939945
  42.6828828  60.6130891 124.3343500  35.8653849  62.4351325 113.2097876
  35.8424537  62.5339013 112.2579759  36.1754485  63.2816476 113.5315042
  38.5241227  64.4927480 117.3244490  39.4784480  64.4611423 117.2574422
  38.3253750  64.0318104 118.1394716  39.1140609  63.0628596 119.8915288
  39.9333498  63.5572675 119.9150125  39.3877417  62.1460565 119.8632855
  48.8707205  55.4539349 109.2543243  47.9833060  55.7388999 109.0363438
  49.2861194  55.2933112 108.4070520  52.2221741  55.4785870 112.9697583
  52.9982131  55.9682322 113.2422199  51.4969875  55.9043924 113.4269452
  54.6594300  56.1913489 114.0271523  55.2538791  55.9509225 113.3164831
  54.7320884  55.4720620 114.6545060  36.8791456  70.0347100 114.3414688
  36.7445923  69.2747501 113.7752686  36.4623518  70.7588000 113.8743477
  48.8448229  60.9693885 109.4693534  48.7883430  61.4262436 108.6301166
  49.3976571  60.2084569 109.2916376  52.6553035  56.7583617 110.2943653
  52.3989969  56.3580252 111.1251861  52.0305903  57.4727410 110.1693792
  56.9665373  59.4979690 112.8014944  56.4064931  59.5672879 113.5746506
  56.3608876  59.3220674 112.0814441  49.9237116  65.6566553 105.3989723
  50.7582720  65.2247751 105.2167198  49.7621459  65.4848566 106.3266618
  34.3675523  57.3966730 120.5907485  35.0134387  56.8865684 121.0794710
  34.1592674  58.1335412 121.1650910  46.8928915  64.4647578 126.0899625
  47.7620075  64.6388230 125.7286260  46.4135667  65.2841995 125.9675355
  42.8879134  51.6606775 106.3431381  42.8757803  52.6048615 106.4999652
  43.7802555  51.4776920 106.0490842  41.0615096  71.5844679 117.7689059
  41.9642342  71.6168289 118.0855554  40.8352466  70.6545130 117.7835395
  46.7031253  48.2549552 110.5977318  45.9363649  47.7008038 110.7434000
  47.1141958  48.3271420 111.4591470  58.5521391  76.1736204 115.4944900
  59.1899801  76.0542951 114.7908240  58.4342234  77.1217048 115.5532852
  55.3611097  76.1263632 115.4306425  55.0229609  76.0104697 114.5426960
  56.2300865  75.7254797 115.4107431  51.2197913  77.9799108 111.4203316
  50.6562778  77.8889045 110.6519604  51.1050308  77.1599013 111.9005808
  55.8430880  77.2798484 121.3892630  55.8319521  76.8851282 120.5173134
  56.0051520  76.5464556 121.9826402  48.7662345  79.4750300 114.2587536
  49.5583637  79.1341124 113.8433836  49.0058995  79.5845275 115.1789690
  56.7997472  81.6470076 106.7317781  56.1485451  82.2324156 106.3451795
  57.5941835  82.1776271 106.7912818  50.7253099  78.7359213 107.1304915
  51.4983975  78.1888200 106.9917791  51.0778498  79.6003462 107.3419376
  52.5638141  80.0635595 120.3371814  52.2728007  80.9681226 120.2218481
  53.1995126  80.1052123 121.0515884  53.4894348  77.4412444 116.9273174
  54.0857921  77.2168466 116.2130137  53.5469320  76.6997189 117.5298622
  53.0619377  74.8951879 104.7623365  53.3144897  74.3733400 104.0006828
  52.1243936  74.7318025 104.8650049  58.1062659  73.8987658 112.5698108
  58.8925749  73.4807081 112.2188525  58.3701364  74.8033750 112.7379757
  58.2772737  79.3360508 107.2686765  57.6418570  79.4095134 107.9807670
  57.9470143  79.9254107 106.5905844  63.5071087  73.8362891 113.4731087
  64.2396259  73.2662108 113.7068916  62.7510442  73.4484491 113.9137592
  52.7815665  76.7979985 106.9647740  52.6651924  76.1224889 107.6328824
  52.8917925  76.3112359 106.1479893  55.1247206  76.2590132 110.6694429
  54.7605414  75.7320753 111.3807351  55.9814322  75.8688601 110.4960915
  61.0296507  67.5484465 117.9325695  60.6979832  68.4179876 117.7086910
  60.4342120  67.2320749 118.6119726  54.7652693  71.2880032 105.6655778
  54.9327096  72.1560268 106.0326249  54.5749862  71.4507314 104.7417067
  57.5228027  79.7497011 117.3321608  57.2228750  80.6522050 117.2237415
  57.1779086  79.4829194 118.1842761  50.9740508  76.2010808 113.3658312
  50.0491004  76.0687022 113.5736004  51.2224921  76.9805027 113.8628255
  60.9225170  72.2679551 115.0119045  60.0142048  72.1994959 114.7177806
  60.8712766  72.7451496 115.8400871  54.7441914  73.7437689 106.6502445
  54.6241539  74.1894740 107.4887925  54.0494503  74.0923007 106.0915983
  48.3349319  75.8444081 114.2002102  48.4641700  76.0978560 115.1141513
  47.6546770  76.4371789 113.8806757  52.5048806  86.5141331 110.2992576
  52.4272836  87.4649156 110.3781056  51.9010450  86.1687204 110.9567502
  54.9966036  73.6869197 122.9553943  54.2199370  74.2463117 122.9456807
  55.6356599  74.1725980 123.4768813  62.7886817  70.4695989 116.7896919
  62.1461197  70.7628523 116.1436714  62.2841745  70.3548910 117.5950116
  60.4426980  74.2159163 107.4782779  61.3544836  74.4486549 107.3030476
  59.9336627  74.7996207 106.9157857  53.2512408  76.4954650 122.5171910
  53.9927093  77.0339694 122.2406733  52.5449394  77.1220939 122.6743461
  58.7267748  78.6383790 121.1144071  59.1351104  78.1966201 120.3698704
  58.0045010  78.0636418 121.3678264  55.0798818  73.5756397 118.4877628
  55.9260013  73.9995811 118.6312277  55.0197456  72.9190022 119.1816191
  59.0496563  79.1984981 114.8696360  58.4205425  79.3630695 114.1672428
  58.6622225  79.6126591 115.6407324  62.9285795  80.1339419 112.2240724
  62.2436833  80.5138320 111.6737757  63.0129644  80.7434746 112.9572672
  58.2298263  71.2360766 120.1458802  57.9859195  71.9902826 119.6093077
  58.5058194  71.6146113 120.9806049  60.1836726  77.7799378 118.8236067
  60.3953621  78.4231138 118.1470448  60.1366474  76.9461695 118.3557997
  57.7862955  70.3917199 115.7272639  56.9247434  70.6898452 116.0189377
  57.8125390  70.6087598 114.7953672  54.6024525  78.9359389 112.1346445
  55.0662870  79.2147092 111.3451068  54.3381323  78.0342834 111.9519536
  51.4948606  78.4830871 115.0726208  52.0649963  78.9118139 114.4343693
  52.0856717  78.2013455 115.7710394  53.5393411  75.0582542 108.9436010
  54.2417454  75.5103585 109.4109937  53.2074039  74.4166360 109.5715903
  51.9873772  73.6494298 123.3187220  51.3572433  74.3310579 123.5522616
  51.8809860  73.5377380 122.3740358  61.2982554  80.6571333 116.9958425
  62.1199998  80.2551521 116.7141106  61.2944957  80.5539568 117.9474540
  55.0639158  80.2055377 119.1519135  55.1283590  80.6675784 119.9877307
  54.3550081  79.5752742 119.2801445  45.5656448  73.5696585 116.6768135
  45.8164486  74.4543595 116.9425711  46.1015996  73.3901186 115.9043226
  69.3888547  77.0010082 113.3443396  68.6352256  76.4317480 113.1887401
  69.5236088  76.9672746 114.2914031  54.7787175  81.8723484 109.0198115
  54.6432850  82.7175020 109.4482963  55.3196988  82.0742762 108.2564049
  51.2654515  67.9515064 125.6812471  50.8721460  67.3981263 126.3560115
  52.0820655  68.2625643 126.0718988  48.2316573  79.3898922 109.5926041
  48.7441093  80.1842172 109.7431605  48.8839285  78.6925213 109.5259642
  50.0411457  82.5064679 111.6748794  50.2178086  83.4282643 111.4869778
  50.8368291  82.1923098 112.1043174  54.1822476  69.3672943 123.2732727
  54.9232189  69.9680096 123.1937190  54.4140399  68.6250581 122.7150770
  49.3263814  74.5529310 121.5510957  49.2117329  73.6514568 121.8518056
  48.4708332  74.7993007 121.1995773  56.4055652  82.4947051 123.1498458
  55.9619506  81.7083429 122.8319362  57.0672865  82.6826201 122.4842348
  51.1642773  84.0242852 117.6759136  51.7150198  83.8959916 116.9036130
  50.3254249  84.3237741 117.3254029  58.5036890  82.7749851 121.1779859
  58.4855365  83.5958732 120.6860128  59.4256810  82.6503926 121.4030000
  54.9609944  80.2893980 122.0203367  55.4938281  79.5282268 121.7902675
  54.4324025  79.9967632 122.7627522  58.1279639  65.3954046 117.5497009
  57.7843908  66.2855688 117.4736120  58.4958601  65.2055704 116.6866594
  58.0929922  75.3862657 106.0569444  57.5776545  76.1567262 106.2957831
  57.8207230  74.7127793 106.6802506  55.6777033  70.2312358 111.1154682
  54.8218629  69.8419208 110.9360321  56.0903984  70.3104319 110.2554468
  57.2076179  67.7658701 115.5146242  56.7040975  67.7288836 114.7014047
  57.5006786  68.6751444 115.5742899  53.4519065  67.8497431 114.5212424
  54.3172062  67.6540240 114.1618313  53.5196574  67.6207783 115.4481781
  63.0664196  78.1395012 107.9922618  62.2893638  77.8006171 107.5477780
  63.7455677  78.1447635 107.3177583  57.8816225  73.2589749 107.8829225
  57.5766360  73.5735898 108.7339368  58.8346667  73.3371169 107.9256558
  56.3262657  79.4179973 109.5322179  55.7984018  78.6832732 109.2195417
  55.8250159  80.1954649 109.2862148  61.3055503  77.6128993 114.6489226
  60.6479177  78.3028254 114.7369354  62.1095902  78.0025425 114.9923212
  51.0581384  70.0799639 111.8928791  51.6325136  69.8574820 111.1601984
  51.6452367  70.1488333 112.6457392  60.1160961  75.9673366 112.6993167
  60.6292843  76.6003358 113.2014877  60.7662185  75.3674561 112.3336527
  51.3850971  72.1104100 105.9124676  50.5488284  72.4478786 106.2333951
  51.2455741  71.9753080 104.9751813  53.3604052  66.9540888 110.6203860
  52.7068464  66.6389905 109.9960475  53.3184526  66.3316628 111.3463683
  54.4715257  77.2360183 102.5357152  53.5642318  77.0049436 102.7348301
  54.9686289  76.4397802 102.7231134  57.3783336  85.9457690 105.4553838
  56.7045034  86.2489387 106.0638796  57.7649158  86.7486770 105.1059295
  56.5941792  73.4422821 114.9451508  55.6764354  73.6637768 114.7873196
  57.0101936  73.5169132 114.0863215  57.3776840  74.8414237 110.0754188
  58.1248659  75.3535634 109.7661310  57.6468430  74.5198290 110.9358582
  55.6503490  77.3372778 107.0581142  54.7414709  77.0531811 107.1553612
  55.6798574  77.7571856 106.1984449  60.8822758  80.9479367 110.8272310
  60.4285085  80.1070277 110.8837500  60.2516724  81.5840766 111.1647090
  59.8255677  71.8771353 112.0572977  59.0878434  71.3648739 112.3883220
  60.0782451  71.4371735 111.2456254  59.3255697  82.7855864 111.7622128
  59.6178671  83.3460921 111.0434494  59.8354317  83.0784425 112.5175287
  59.9267304  64.6547605 112.6514747  60.2326181  63.7944969 112.3640662
  60.6519909  65.2465225 112.4513741  54.1988384  74.9501398 113.1590938
  54.2536994  73.9975235 113.0833414  53.3879586  75.1060837 113.6432236
  55.3479578  78.8781521 104.3969221  54.9099008  78.1617380 103.9374858
  56.0890019  79.1057636 103.8354312  52.1380744  73.5678458 110.9181317
  51.3248610  73.8672629 111.3246509  52.6339738  73.1734147 111.6355799
  54.2889322  83.5636215 112.8515581  54.2465501  83.7897061 111.9224113
  55.2052021  83.3299590 113.0001382  57.7354956  74.0320283 119.7496210
  58.0904344  74.2591756 120.6090676  58.3827087  74.3638659 119.1273466
  63.4652693  77.1538718 110.4545539  63.3270591  77.3440314 109.5266729
  63.1088912  77.9158101 110.9113591  51.6294819  71.1396814 116.5342552
  52.2694198  70.9985573 115.8365515  50.7972349  70.8531327 116.1581154
  63.4922072  79.2215245 115.4656811  63.9258579  79.1290535 116.3139865
  64.2053653  79.1972746 114.8276827  52.4055123  80.4399244 112.6477544
  53.1995721  79.9449564 112.4460119  51.6946815  79.9117107 112.2845250
  57.2249967  82.8217340 116.9989912  57.2786990  83.3908276 117.7667627
  56.3564749  82.9919225 116.6343949  50.1048361  72.5234896 118.4814363
  50.7771414  72.3152258 117.8327012  49.2778147  72.3256982 118.0419595
  64.3537622  79.2638946 117.9989696  64.5473512  80.1684757 118.2448971
  64.2538240  78.8046365 118.8328281  56.0073933  69.1496837 120.4980024
  55.3601848  69.8486786 120.4044500  56.7774948  69.5832981 120.8656272
  59.4152731  79.4145689 123.5730577  59.2638237  79.1856241 122.6560661
  59.4057410  80.3716290 123.5861922  56.1838067  76.9877602 118.5576843
  57.1130127  77.1388761 118.3845811  55.7629097  77.0761622 117.7025490
  54.9826399  81.0128266 116.3275381  54.8437484  80.6447050 117.2001319
  54.1940995  81.5275905 116.1559339  55.5774551  86.1137362 107.6700918
  55.7526306  85.6425406 108.4846540  54.8907339  86.7403129 107.8982178
  56.5331614  80.3909869 113.7164219  56.1981447  80.3510639 114.6121869
  56.0335560  79.7254585 113.2434629  50.5075858  75.7977499 119.2416800
  50.3695656  75.0657738 119.8428339  51.4180781  75.7086399 118.9600988
  59.4690806  77.7365903 103.9901279  58.8519976  77.0112731 103.8934331
  59.0007294  78.4975263 103.6468353  53.1358159  75.5097458 118.7300480
  53.8457777  74.8690650 118.6887098  53.0927467  75.7610353 119.6526660
  61.1244937  82.4464811 121.6507059  61.0657483  81.7624032 120.9837642
  61.5264456  83.1883801 121.1987685  51.8487093  72.4962676 120.5496119
  51.3124450  72.0453414 121.2017715  51.2603801  72.6308585 119.8066583
  50.1435636  89.2626725 114.4440778  50.3832234  89.8945249 115.1219796
  49.3004832  88.9114765 114.7306137  51.2589351  71.9551327 103.1122583
  50.3818818  71.8340128 102.7484829  51.7347105  71.1637406 102.8601471
  61.1262344  80.4104395 119.8821039  60.2389123  80.0730317 120.0047437
  61.6960896  79.6787427 120.1189804  42.7791492  76.7428487 113.2064090
  43.4662531  76.4290217 112.6185105  42.6239620  77.6469852 112.9331341
  47.5826214  71.6318684 117.6349114  47.4984402  71.0244353 116.8999524
  46.7608920  72.1227702 117.6358610  54.6563498  85.0705848 116.8482282
  54.5833669  85.8760819 117.3601586  54.2140891  85.2697813 116.0230303
  54.4453278  84.3077618 110.3585103  53.6620799  84.8499298 110.4523328
  55.1446023  84.8251597 110.7579344  57.7549928  70.1172247 113.0019309
  58.2518627  69.3642209 112.6820379  56.9836909  70.1536564 112.4362518
  65.6079685  75.8212613 114.6437600  65.5969561  76.7037328 114.2731533
  64.7397064  75.4684164 114.4492137  57.1162181  84.9692682 119.0040440
  57.8290154  85.6040147 118.9316342  56.6252210  85.0656548 118.1880442
  58.8379708  78.8743934 110.5757732  57.9035987  78.9945397 110.4062436
  59.0156377  77.9716401 110.3117742  54.3384896  72.2589630 112.7290993
  53.9682684  71.7060671 113.4171899  54.8343989  71.6547764 112.1765993
  62.2252260  74.7161254 111.1107766  62.6912712  75.5489245 111.0368069
  62.6759760  74.2506235 111.8153025  52.1674095  82.7187125 119.8246011
  52.8683554  83.3523608 119.9775405  51.6969210  83.0601857 119.0641650
  60.2928491  81.0605075 108.1093918  60.5688335  80.9461670 109.0187792
  59.4232990  80.6622560 108.0706091  60.1968922  67.0841841 115.1498668
  59.2832002  67.3146067 115.3180874  60.6262024  67.1680285 116.0012700
  59.9675381  75.2731733 117.6498562  59.3146831  75.5207640 116.9951014
  60.3455761  74.4595871 117.3161039  56.9282555  85.3091426 111.7526732
  57.1104949  84.4913082 112.2154484  57.7515541  85.5259118 111.3151622
  57.2624720  84.2359611 109.0141780  57.7912487  83.7252066 108.4011942
  57.5252940  83.9202141 109.8787313  56.0162954  76.0151544 124.1364599
  55.3403591  75.9145673 124.8066974  56.8390588  75.8590757 124.6000596
  47.7641813  82.2523480 116.7577114  48.3495250  81.5067168 116.8905018
  47.5666651  82.5627437 117.6413778  50.6180468  85.2874728 111.7739556
  49.9490843  85.7720855 111.2903596  50.4793338  85.5343948 112.6882935
  42.3559468  74.8229080 115.4781557  42.3943567  74.2892671 116.2718675
  41.8499761  74.2964286 114.8592534  54.7585737  87.3218471 118.3722215
  55.3104045  87.4850093 119.1371300  55.0991930  87.9122909 117.7002240
  49.7350230  69.6693621 118.9744099  49.7991557  70.5308452 118.5621497
  49.6717350  69.0567623 118.2416458  49.2102503  71.7416753 122.6217134
  49.8374541  71.3593831 123.2354658  48.3530421  71.5230955 122.9872826
  57.8954124  85.2700447 115.3585897  57.7705264  84.4690186 114.8496842
  58.5533215  85.7646640 114.8699867  49.5162292  71.6249179 114.5363037
  48.7948878  72.2385147 114.3970510  50.3055548  72.1606944 114.4579683
  59.9589032  83.0709467 116.9865447  59.0119368  82.9514818 116.9143774
  60.3071806  82.1831965 117.0691708  52.3188606  68.9603606 120.8103689
  52.8423008  69.2065902 121.5729998  52.1000939  69.7923640 120.3906826
  56.9635466  82.8662183 113.1869799  56.8160428  81.9378890 113.3677369
  57.7888959  82.8882274 112.7026874  60.5669588  83.6890742 114.2734672
  61.4916135  83.4833603 114.1359123  60.3984891  83.4407143 115.1824013
  53.5241151  69.9017301 118.4953359  53.1837971  69.1025114 118.8974039
  52.8180157  70.2019012 117.9230193  54.1757623  66.9866613 116.9480682
  54.9983692  66.5127091 116.8259573  54.4195686  67.7657097 117.4479369
  52.8165857  70.0154872 107.2443584  53.5374220  70.3936124 106.7407301
  52.1931161  70.7343748 107.3478562  56.9596980  70.7200021 108.1801916
  57.1760594  71.6024658 107.8790745  56.4791047  70.3286234 107.4507558
  51.6996201  73.6785734 114.7572661  51.5540782  73.9926037 115.6496942
  51.2221405  74.2970634 114.2043560  53.5592584  70.6688282 114.8053551
  53.5454153  69.7729375 114.4685848  54.2765012  70.6758946 115.4391837
  55.4118715  71.1025622 116.8506678  55.1536493  72.0242693 116.8491008
  54.8803755  70.7056057 117.5407142  60.3564904  84.2076409 109.6296763
  60.5301781  83.6422832 108.8770616  60.8493795  85.0077304 109.4476253
  46.1741864  76.2191078 117.6960322  45.6295332  76.9950886 117.8280596
  47.0521213  76.5661883 117.5379444  52.9629480  69.5502662 110.0741121
  53.0845391  68.6219308 110.2732008  52.6731523  69.5641348 109.1619436
  55.8320671  67.2357573 113.2107841  55.8542367  67.2996906 112.2559820
  56.2488730  66.3962081 113.4048347  66.2104295  76.9712832 111.2487063
  66.6535441  76.2220157 110.8506186  65.3330805  76.9622968 110.8660795
  61.3440076  83.5243174 106.7293662  62.0390981  84.1449866 106.9480976
  61.6863226  82.6738525 107.0046040  46.9607885  75.3460974 120.5890479
  46.2189622  75.4943610 121.1755109  46.6400630  75.6069240 119.7257228
  63.2431499  80.9742879 108.2580992  63.7682824  81.3130152 107.5330312
  63.1553852  80.0389894 108.0744127  54.9051548  84.8876953 120.3870869
  55.2138675  84.6426099 121.2593569  55.7027030  85.0923591 119.8989739
  54.9272160  87.0414862 112.6176246  54.4877150  86.5491241 113.3109102
  55.6780277  86.4987830 112.3768321  47.4064499  83.2326403 112.6200874
  48.2322519  82.9330175 112.2399517  47.0558551  82.4634026 113.0690662
  52.3746032  82.5852871 114.6898547  51.7526042  81.9223576 114.3900775
  53.0450899  82.6114003 114.0072195  45.6073104  81.1512730 113.5789807
  44.7705013  80.7234904 113.3973808  45.5796750  81.3445173 114.5160598
  52.4470560  71.0634659 124.2831053  52.4958715  71.9396782 123.9008823
  52.9893074  70.5212053 123.7102696  63.0523281  78.4568249 120.8764919
  63.1021285  78.2918257 121.8180442  62.9437204  77.5895508 120.4862800
  51.9359539  81.1356795 108.1657008  52.0847660  81.8192259 107.5123681
  52.7425983  81.1161885 108.6806464  60.3427043  74.4399177 122.1924226
  61.2436906  74.3005642 121.9008223  60.4175017  74.6053632 123.1322403
  54.6769848  71.8166032 121.0377412  53.8073158  72.1099598 120.7660000
  54.9129329  72.4006477 121.7584676  64.5541477  80.8765191 121.1206940
  64.2626286  81.2395171 121.9570401  63.9413609  80.1632199 120.9420272
  65.7537160  78.4418070 113.6409511  66.5884051  78.8807874 113.8047071
  65.8896288  77.9656724 112.8217756  62.8028666  75.9997805 119.5886998
  63.2782787  76.1925452 118.7805850  61.8794231  76.0556991 119.3430382
  49.6912172  77.1621972 109.1718077  49.4458214  76.2584302 109.3698287
  49.8608087  77.1639123 108.2297555  57.3808882  68.0345649 118.5542832
  57.8990826  68.7706676 118.2289321  57.0264015  68.3409642 119.3889591
  57.6321476  64.4545931 114.0743729  57.9123230  63.7869120 114.7004155
  58.4172083  64.6475027 113.5618393  55.4354945  83.6304925 105.6368755
  54.8628912  84.2495112 105.1839227  56.0087738  84.1804287 106.1708677
  61.5030335  72.8763565 117.8215304  62.4547758  72.9761663 117.8427528
  61.3333785  72.0841834 118.3313388  59.5244714  69.9619149 118.0074705
  58.9294646  70.2424161 117.3121194  59.2394411  70.4513049 118.7791446
  58.6552205  83.9142075 106.7677337  59.5882878  83.8487637 106.9710213
  58.5675417  84.7498342 106.3091870  61.2840221  83.2307946 103.7281285
  61.2053853  82.8967809 104.6217043  62.1049888  83.7229714 103.7272757
  63.9818412  76.0969685 116.9357604  63.9494733  75.1585686 117.1217287
  64.5919036  76.1753722 116.2023429  55.8201743  74.9665738 102.9784808
  56.7660848  74.8371946 103.0473226  55.4415988  74.2280400 103.4554236
  64.1312901  72.8880728 116.9815887  63.6151950  72.1039185 116.7945816
  65.0152849  72.5599445 117.1462406  61.7923628  66.6321744 112.9411700
  61.5948449  66.3236832 113.8255031  62.4023333  67.3583383 113.0709629
  69.7994962  77.1585692 116.0763640  70.5298351  76.8970980 116.6371344
  69.1901908  76.4214414 116.1165708  67.8810259  75.2993554 116.6738092
  67.1543423  75.1649519 116.0654583  67.4657546  75.6070383 117.4794810
  55.7040436  79.0183484 124.4385465  56.6243445  79.1962083 124.6325511
  55.6690019  78.0739529 124.2865164  54.0044660  72.8915714 102.9139693
  53.0976116  72.5948827 102.9902407  54.2820641  72.5945532 102.0473979
  48.7002508  76.9284519 117.0808246  48.9188518  77.8601627 117.0996280
  49.1128282  76.5692493 117.8663050  55.6206726  67.4352604 109.0683934
  54.8107454  67.0899689 109.4439180  56.3091143  67.1260148 109.6571546
  57.5497274  66.5130651 110.6908231  58.1028313  66.9326104 111.3498254
  57.7867361  65.5866399 110.7331187  53.5730374  72.5017725 126.4710995
  53.4727101  73.4512081 126.4023086  53.3551916  72.1735963 125.5987065
  52.7743445  69.7502650 103.0551672  53.6362609  70.0757548 103.3147489
  52.9593789  68.9634145 102.5424738  44.7910861  77.8324989 115.3331861
  44.0974332  77.4178942 114.8201815  45.5383852  77.8745526 114.7365280
  60.9276082  68.6231176 110.1986895  60.3474751  69.2815980 109.8164948
  60.6612014  67.8008521 109.7874313  59.3779648  68.0236234 112.4008215
  59.8779426  68.1352768 111.5922534  60.0215256  67.7197287 113.0409024
  53.4361644  75.9314863 125.2876056  52.9528725  76.7315223 125.4939945
  53.5222583  75.9422808 124.3343500  46.7047603  77.7643243 113.2097876
  46.6818291  77.8630930 112.2579759  47.0148240  78.6108394 113.5315042
  49.3634981  79.8219398 117.3244490  50.3178235  79.7903340 117.2574422
  49.1647505  79.3610022 118.1394716  49.9534363  78.3920514 119.8915288
  50.7727252  78.8864593 119.9150125  50.2271171  77.4752482 119.8632855
  59.7100960  70.7831266 109.2543243  58.8226815  71.0680917 109.0363438
  60.1254949  70.6225030 108.4070520  63.0615496  70.8077787 112.9697583
  63.8375886  71.2974240 113.2422199  62.3363630  71.2335842 113.4269452
  65.4988054  71.5205407 114.0271523  66.0932545  71.2801143 113.3164831
  65.5714638  70.8012537 114.6545060  47.7185210  85.3639018 114.3414688
  47.5839678  84.6039418 113.7752686  47.3017272  86.0879917 113.8743477
  58.8544173  80.5475941 103.3491263  59.5580023  80.7525944 103.9648919
  58.1306822  81.1152703 103.6140347  59.6841983  76.2985802 109.4693534
  59.6277185  76.7554354 108.6301166  60.2370326  75.5376487 109.2916376
  63.4946789  72.0875534 110.2943653  63.2383723  71.6872170 111.1251861
  62.8699657  72.8019328 110.1693792  67.8059127  74.8271607 112.8014944
  67.2458685  74.8964797 113.5746506  67.2002630  74.6512592 112.0814441
  50.8754336  86.2608335 114.5533131  50.7586720  87.2053767 114.4511821
  50.0546782  85.9581896 114.9418930  60.7630870  80.9858470 105.3989723
  61.5976474  80.5539669 105.2167198  60.6015213  80.8140484 106.3266618
  60.4176763  77.4890584 106.7646063  60.3625566  77.3234855 105.8234507
  59.7922818  78.1966617 106.9208252  45.2069278  72.7258648 120.5907485
  45.8528141  72.2157602 121.0794710  44.9986429  73.4627330 121.1650910
  53.7272888  66.9898693 106.3431381  53.7151558  67.9340533 106.4999652
  54.6196310  66.8068838 106.0490842  51.9008850  86.9136596 117.7689059
  52.8036097  86.9460207 118.0855554  51.6746220  85.9837047 117.7835395
  53.6562452  85.6667583 114.4299138  52.7058083  85.6669445 114.3163510
  53.9594938  84.9200318 113.9135172  57.5425008  63.5841469 110.5977318
  56.7757403  63.0299956 110.7434000  57.9535712  63.6563338 111.4591470
  49.5466769  69.8726265 124.6882499  50.4098230  69.5163070 124.8985824
  48.9732179  69.5340160 125.3757903  62.0591667  93.3091026 111.4203316
  61.4956533  93.2180963 110.6519604  61.9444063  92.4890930 111.9005808
  59.6056099  94.8042218 114.2587536  60.3977391  94.4633042 113.8433836
  59.8452750  94.9137193 115.1789690  67.6391226  96.9761994 106.7317781
  66.9879206  97.5616074 106.3451795  68.4335589  97.5068189 106.7912818
  61.5646853  94.0651131 107.1304915  62.3377729  93.5180118 106.9917791
  61.9172252  94.9295380 107.3419376  63.9013131  90.2243797 104.7623365
  64.1538652  89.7025318 104.0006828  62.9637690  90.0609942 104.8650049
  68.9456414  89.2279575 112.5698108  69.7319503  88.8098998 112.2188525
  69.2095118  90.1325667 112.7379757  69.1166491  94.6652426 107.2686765
  68.4812324  94.7387052 107.9807670  68.7863898  95.2546024 106.5905844
  63.6209420  92.1271903 106.9647740  63.5045678  91.4516806 107.6328824
  63.7311680  91.6404277 106.1479893  65.9640961  91.5882050 110.6694429
  65.5999168  91.0612671 111.3807351  66.8208077  91.1980519 110.4960915
  65.6046448  86.6171950 105.6655778  65.7720850  87.4852186 106.0326249
  65.4143617  86.7799231 104.7417067  61.8134262  91.5302725 113.3658312
  60.8884759  91.3978940 113.5736004  62.0618676  92.3096945 113.8628255
  65.5835669  89.0729607 106.6502445  65.4635294  89.5186658 107.4887925
  64.8888257  89.4214925 106.0915983  59.1743074  91.1735999 114.2002102
  59.3035455  91.4270478 115.1141513  58.4940525  91.7663707 113.8806757
  71.2820735  89.5451080 107.4782779  72.1938591  89.7778467 107.3030476
  70.7730382  90.1288125 106.9157857  68.6256710  85.7209116 115.7272639
  67.7641189  86.0190370 116.0189377  68.6519144  85.9379515 114.7953672
  65.4418279  94.2651307 112.1346445  65.9056625  94.5439010 111.3451068
  65.1775077  93.3634751 111.9519536  64.3787165  90.3874459 108.9436010
  65.0811208  90.8395503 109.4109937  64.0467794  89.7458278 109.5715903
  58.1212499  88.6458012 114.2453144  57.3311553  88.9015540 113.7693254
  58.6123746  89.4606350 114.3505184  60.0727244  89.0102591 111.2036621
  59.2758408  89.1221285 111.7220116  59.8452837  89.3489243 110.3377511
  56.4050202  88.8988502 116.6768135  56.6558240  89.7835512 116.9425711
  56.9409750  88.7193104 115.9043226  65.6180930  97.2015402 109.0198115
  65.4826604  98.0466938 109.4482963  66.1590742  97.4034680 108.2564049
  59.0710327  94.7190840 109.5926041  59.5834848  95.5134090 109.7431605
  59.7233040  94.0217130 109.5259642  60.8805212  97.8356596 111.6748794
  61.0571840  98.7574561 111.4869778  61.6762045  97.5215015 112.1043174
  68.9673393  80.7245964 117.5497009  68.6237663  81.6147605 117.4736120
  69.3352356  80.5347621 116.6866594  57.0359244  93.0479494 110.3685611
  57.8734466  93.4576503 110.1519319  57.2137512  92.1078936 110.3385805
  68.9323676  90.7154575 106.0569444  68.4170299  91.4859179 106.2957831
  68.6600984  90.0419711 106.6802506  66.5170787  85.5604276 111.1154682
  65.6612383  85.1711126 110.9360321  66.9297739  85.6396236 110.2554468
  68.0469934  83.0950619 115.5146242  67.5434729  83.0580754 114.7014047
  68.3400541  84.0043362 115.5742899  64.2912820  83.1789349 114.5212424
  65.1565816  82.9832157 114.1618313  64.3590328  82.9499700 115.4481781
  73.9057950  93.4686929 107.9922618  73.1287393  93.1298089 107.5477780
  74.5849431  93.4739553 107.3177583  68.7209979  88.5881667 107.8829225
  68.4160115  88.9027816 108.7339368  69.6740421  88.6663087 107.9256558
  67.1656411  94.7471890 109.5322179  66.6377773  94.0124650 109.2195417
  66.6643914  95.5246567 109.2862148  61.8975139  85.4091557 111.8928791
  62.4718891  85.1866738 111.1601984  62.4846121  85.4780251 112.6457392
  62.2244726  87.4396018 105.9124676  61.3882038  87.7770704 106.2333951
  62.0849495  87.3044997 104.9751813  64.1997806  82.2832805 110.6203860
  63.5462219  81.9681823 109.9960475  64.1578280  81.6608546 111.3463683
  65.3109011  92.5652101 102.5357152  64.4036073  92.3341354 102.7348301
  65.8080043  91.7689720 102.7231134  68.2177090 101.2749608 105.4553838
  67.5438789 101.5781304 106.0638796  68.6042912 102.0778688 105.1059295
  67.4335547  88.7714739 114.9451508  66.5158108  88.9929686 114.7873196
  67.8495690  88.8461049 114.0863215  68.2170594  90.1706155 110.0754188
  68.9642413  90.6827552 109.7661310  68.4862184  89.8490207 110.9358582
  66.4897245  92.6664695 107.0581142  65.5808464  92.3823728 107.1553612
  66.5192328  93.0863774 106.1984449  70.6649432  87.2063271 112.0572977
  69.9272188  86.6940657 112.3883220  70.9176205  86.7663653 111.2456254
  70.7661059  79.9839523 112.6514747  71.0719936  79.1236886 112.3640662
  71.4913664  80.5757143 112.4513741  57.0585415  90.3870210 111.0396345
  56.8609815  89.7939570 110.3147411  56.5032079  90.0822420 111.7572283
  65.0382139  90.2793316 113.1590938  65.0930748  89.3267152 113.0833414
  64.2273341  90.4352755 113.6432236  66.1873332  94.2073439 104.3969221
  65.7492762  93.4909298 103.9374858  66.9283773  94.4349554 103.8354312
  62.9774499  88.8970376 110.9181317  62.1642364  89.1964546 111.3246509
  63.4733493  88.5026065 111.6355799  74.3046447  92.4830636 110.4545539
  74.1664346  92.6732232 109.5266729  73.9482666  93.2450019 110.9113591
  62.4688573  86.4688731 116.5342552  63.1087953  86.3277490 115.8365515
  61.6366104  86.1823245 116.1581154  63.2448877  95.7691162 112.6477544
  64.0389476  95.2741482 112.4460119  62.5340570  95.2409025 112.2845250
  59.5531641  89.9134243 108.7237297  58.6229229  89.8518699 108.9407259
  59.6489113  89.3910196 107.9273938  59.4717190  86.4389056 111.3115538
  59.7324007  87.3534389 111.2024699  60.2934362  85.9713499 111.4612151
  60.9442115  87.8526813 118.4814363  61.6165169  87.6444176 117.8327012
  60.1171902  87.6548899 118.0419595  66.4168305 101.4429280 107.6700918
  66.5920061 100.9717323 108.4846540  65.7301093 102.0695046 107.8982178
  70.3084560  93.0657821 103.9901279  69.6913731  92.3404649 103.8934331
  69.8401049  93.8267181 103.6468353  62.0983106  87.2843245 103.1122583
  61.2212572  87.1632046 102.7484829  62.5740859  86.4929323 102.8601471
  53.6185246  92.0720405 113.2064090  54.3056286  91.7582135 112.6185105
  53.4633375  92.9761769 112.9331341  58.4219968  86.9610601 117.6349114
  58.3378157  86.3536271 116.8999524  57.6002675  87.4519620 117.6358610
  68.5943682  85.4464165 113.0019309  69.0912382  84.6934127 112.6820379
  67.8230664  85.4828481 112.4362518  69.6773463  94.2035852 110.5757732
  68.7429742  94.3237315 110.4062436  69.8550131  93.3008319 110.3117742
  65.1778651  87.5881548 112.7290993  64.8076438  87.0352588 113.4171899
  65.6737743  86.9839681 112.1765993  73.0646014  90.0453171 111.1107766
  73.5306466  90.8781163 111.0368069  73.5153515  89.5798153 111.8153025
  71.1322245  96.3896993 108.1093918  71.4082089  96.2753587 109.0187792
  70.2626744  95.9914477 108.0706091  71.0362677  82.4133758 115.1498668
  70.1225757  82.6437985 115.3180874  71.4655778  82.4972202 116.0012700
  68.1018475  99.5651529 109.0141780  68.6306241  99.0543983 108.4011942
  68.3646694  99.2494059 109.8787313  53.1953222  90.1520998 115.4781557
  53.2337322  89.6184589 116.2718675  52.6893515  89.6256204 114.8592534
  60.5743985  84.9985539 118.9744099  60.6385311  85.8600370 118.5621497
  60.5111105  84.3859540 118.2416458  56.8261800  88.8785100 108.5535488
  57.1215241  87.9695779 108.5002542  55.9249836  88.8572840 108.2316491
  60.3556047  86.9541097 114.5363037  59.6342633  87.5677065 114.3970510
  61.1449303  87.4898862 114.4579683  58.5549641  86.5599198 108.6774814
  58.2262348  85.6796577 108.4949920  58.9089012  86.5046867 109.5651203
  61.6691465  86.8472168 109.0450291  62.0087537  87.3758089 108.3228900
  62.1163585  87.1852574 109.8208858  64.3634905  85.2309218 118.4953359
  64.0231726  84.4317031 118.8974039  63.6573912  85.5310929 117.9230193
  65.0151377  82.3158531 116.9480682  65.8377447  81.8419009 116.8259573
  65.2589441  83.0949015 117.4479369  63.6559612  85.3446789 107.2443584
  64.3767974  85.7228042 106.7407301  63.0324916  86.0635666 107.3478562
  67.7990735  86.0491938 108.1801916  68.0154349  86.9316576 107.8790745
  67.3184802  85.6578152 107.4507558  62.5389956  89.0077651 114.7572661
  62.3934537  89.3217955 115.6496942  62.0615160  89.6262552 114.2043560
  64.3986339  85.9980199 114.8053551  64.3847908  85.1021293 114.4685848
  65.1158767  86.0050863 115.4391837  66.2512470  86.4317540 116.8506678
  65.9930247  87.3534610 116.8491008  65.7197510  86.0347974 117.5407142
  57.0135618  91.5482996 117.6960322  56.4689086  92.3242804 117.8280596
  57.8914968  91.8953800 117.5379444  63.8023235  84.8794580 110.0741121
  63.9239146  83.9511226 110.2732008  63.5125277  84.8933266 109.1619436
  66.6714425  82.5649490 113.2107841  66.6936122  82.6288823 112.2559820
  67.0882484  81.7253999 113.4048347  72.1833831  98.8535091 106.7293662
  72.8784735  99.4741784 106.9480976  72.5256981  98.0030442 107.0046040
  74.0825254  96.3034797 108.2580992  74.6076578  96.6422070 107.5330312
  73.9947606  95.3681812 108.0744127  58.2458254  98.5618321 112.6200874
  59.0716274  98.2622093 112.2399517  57.8952306  97.7925943 113.0690662
  56.4466859  96.4804647 113.5789807  55.6098767  96.0526822 113.3973808
  56.4190504  96.6737091 114.5160598  62.7753294  96.4648712 108.1657008
  62.9241414  97.1484177 107.5123681  63.5819737  96.4453803 108.6806464
  60.5305927  92.4913890 109.1718077  60.2851969  91.5876220 109.3698287
  60.7001841  92.4931041 108.2297555  59.8001574  88.2242248 106.6704238
  59.1070819  88.2986603 106.0144274  59.5553326  87.4602591 107.1925755
  68.4715231  79.7837849 114.0743729  68.7516985  79.1161038 114.7004155
  69.2565838  79.9766945 113.5618393  66.2748699  98.9596843 105.6368755
  65.7022666  99.5787030 105.1839227  66.8481493  99.5096205 106.1708677
  69.4945959  99.2433993 106.7677337  70.4276632  99.1779555 106.9710213
  69.4069172 100.0790260 106.3091870  72.1233976  98.5599863 103.7281285
  72.0447607  98.2259727 104.6217043  72.9443643  99.0521631 103.7272757
  66.6595498  90.2957656 102.9784808  67.6054602  90.1663864 103.0473226
  66.2809743  89.5572318 103.4554236  72.6317382  81.9613662 112.9411700
  72.4342203  81.6528750 113.8255031  73.2417088  82.6875301 113.0709629
  64.8438415  88.2207632 102.9139693  63.9369870  87.9240745 102.9902407
  65.1214396  87.9237450 102.0473979  55.7616355  89.5413995 113.3638739
  55.4419140  88.6879304 113.0713113  55.2149783  89.7562574 114.1196707
  66.4600481  82.7644522 109.0683934  65.6501209  82.4191607 109.4439180
  67.1484898  82.4552065 109.6571546  68.3891029  81.8422569 110.6908231
  68.9422068  82.2618022 111.3498254  68.6261115  80.9158317 110.7331187
  63.6137200  85.0794567 103.0551672  64.4756364  85.4049466 103.3147489
  63.7987544  84.2926063 102.5424738  55.6304615  93.1616907 115.3331861
  54.9368087  92.7470860 114.8201815  56.3777606  93.2037443 114.7365280
  71.7669836  83.9523094 110.1986895  71.1868505  84.6107898 109.8164948
  71.5005769  83.1300438 109.7874313  70.2173402  83.3528151 112.4008215
  70.7173181  83.4644686 111.5922534  70.8609010  83.0489204 113.0409024
  57.5441358  93.0935161 113.2097876  57.5212046  93.1922848 112.2579759
  57.8541994  93.9400312 113.5315042  70.5494714  86.1123184 109.2543243
  69.6620569  86.3972835 109.0363438  70.9648703  85.9516947 108.4070520
  73.9009250  86.1369705 112.9697583  74.6769640  86.6266158 113.2422199
  73.1757384  86.5627759 113.4269452  69.6937927  95.8767859 103.3491263
  70.3973778  96.0817861 103.9648919  68.9700576  96.4444621 103.6140347
  70.5235738  91.6277720 109.4693534  70.4670939  92.0846271 108.6301166
  71.0764080  90.8668405 109.2916376  74.3340544  87.4167452 110.2943653
  74.0777478  87.0164088 111.1251861  73.7093412  88.1311246 110.1693792
  71.6024625  96.3150388 105.3989723  72.4370229  95.8831586 105.2167198
  71.4408968  96.1432402 106.3266618  71.2570517  92.8182501 106.7646063
  71.2019321  92.6526773 105.8234507  70.6316572  93.5258534 106.9208252
  56.0463032  88.0550566 120.5907485  56.6921896  87.5449520 121.0794710
  55.8380183  88.7919247 121.1650910  64.5666643  82.3190610 106.3431381
  64.5545312  83.2632450 106.4999652  65.4590064  82.1360756 106.0490842
  68.3818762  78.9133387 110.5977318  67.6151158  78.3591874 110.7434000
  68.7929467  78.9855256 111.4591470  73.0638480 102.7687935 105.9124676
  72.2275792 103.1062622 106.2333951  72.9243250 102.6336915 104.9751813
  72.9376860 102.6135163 103.1122583  72.0606327 102.4923963 102.7484829
  73.4134614 101.8221241 102.8601471  70.6395329 103.5534165 106.6704238
  69.9464574 103.6278520 106.0144274  70.3947081 102.7894509 107.1925755
  75.6832169 103.5499550 102.9139693  74.7763625 103.2532662 102.9902407
  75.9608150 103.2529368 102.0473979  74.4530954 100.4086485 103.0551672
  75.3150118 100.7341383 103.3147489  74.6381298  99.6217981 102.5424738
  75.4060397  97.6482528 106.3431381  75.3939067  98.5924368 106.4999652
  76.2983819  97.4652673 106.0490842  24.8602073  16.9644060  92.1799145
  24.1863772  17.2675756  92.7884103  25.2467895  17.7673140  91.8304602
  28.8258814  14.5429543  93.4538968  29.5209719  15.1636236  93.6726283
  29.1681964  13.6924894  93.7291346  22.9173683  14.6491295  92.3614062
  22.3447650  15.2681482  91.9084534  23.4906476  15.1990656  92.8953984
  26.1370942  14.9328445  93.4922644  27.0701615  14.8674007  93.6955520
  26.0494155  15.7684712  93.0337177  28.7658959  14.2494315  90.4526592
  28.6872591  13.9154179  91.3462350  29.5868626  14.7416083  90.4518064
  26.3362911  11.5662311  90.0736570  27.0398761  11.7712313  90.6894226
  25.6125560  12.1339073  90.3385654  28.2449608  12.0044840  92.1235030
  29.0795212  11.5726038  91.9412505  28.0833951  11.8326854  93.0511925
  36.8733883  22.5214491 102.2190207  37.5112293  22.4021238 101.5153547
  36.7554726  23.4695335 102.2778159  29.5410405  24.3277395  98.1448622
  28.9775270  24.2367332  97.3764910  29.4262800  23.5077300  98.6251115
  35.1209964  27.9948363  93.4563087  34.4697944  28.5802444  93.0697101
  35.9154327  28.5254558  93.5158125  29.0465591  25.0837500  93.8550222
  29.8196467  24.5366487  93.7163098  29.3990990  25.9481750  94.0664683
  31.3831869  21.2430166  91.4868672  31.6357390  20.7211688  90.7252135
  30.4456428  21.0796312  91.5895355  36.4275152  20.2465945  99.2943415
  37.2138241  19.8285368  98.9433832  36.6913856  21.1512037  99.4625063
  36.5985229  25.6838795  93.9932072  35.9631062  25.7573422  94.7052976
  36.2682636  26.2732394  93.3151151  41.8283579  20.1841178 100.1976393
  42.5608751  19.6140395 100.4314223  41.0722935  19.7962778 100.6382899
  31.1028158  23.1458272  93.6893047  30.9864416  22.4703176  94.3574131
  31.2130418  22.6590646  92.8725200  33.4459699  22.6068420  97.3939736
  33.0817906  22.0799040  98.1052657  34.3026815  22.2166889  97.2206221
  33.0865186  17.6358319  92.3901084  33.2539588  18.5038556  92.7571555
  32.8962355  17.7985601  91.4662374  33.0654406  20.0915977  93.3747751
  32.9454032  20.5373027  94.2133231  32.3706995  20.4401294  92.8161289
  30.8261299  32.8619618  97.0237882  30.7485328  33.8127444  97.1026363
  30.2222942  32.5165491  97.6812809  38.7639473  20.5637450  94.2028085
  39.6757329  20.7964837  94.0275783  38.2549120  21.1474494  93.6403164
  37.3709055  25.5463268 101.5941667  36.7417917  25.7108982 100.8917735
  36.9834717  25.9604878 102.3652631  41.2498287  26.4817706  98.9486030
  40.5649325  26.8616608  98.3983064  41.3342136  27.0913033  99.6817978
  32.9237017  25.2837676  98.8591752  33.3875362  25.5625379  98.0696374
  32.6593815  24.3821121  98.6764842  31.8605903  21.4060829  95.6681317
  32.5629946  21.8581872  96.1355243  31.5286531  20.7644648  96.2961210
  39.6195046  27.0049621 103.7203731  40.4412490  26.6029808 103.4386413
  39.6157449  26.9017855 104.6719847  47.7101039  23.3488369 100.0688703
  46.9564748  22.7795767  99.9132707  47.8448581  23.3151034 101.0159337
  33.0999667  28.2201771  95.7443422  32.9645342  29.0653307  96.1728270
  33.6409480  28.4221049  94.9809356  26.5529065  25.7377209  96.3171347
  27.0653585  26.5320460  96.4676912  27.2051778  25.0403500  96.2504949
  28.3623950  28.8542966  98.3994100  28.5390578  29.7760930  98.2115084
  29.1580783  28.5401385  98.8288480  29.4855265  30.3721140 104.4004443
  30.0362690  30.2438203 103.6281437  28.6466741  30.6716029 104.0499336
  24.5177982  24.0665864  97.0930918  25.3553204  24.4762872  96.8764625
  24.6956249  23.1265306  97.0631112  36.4142414  21.7340944  92.7814751
  35.8989037  22.5045549  93.0203138  36.1419722  21.0606081  93.4047812
  33.9989525  16.5790645  97.8399989  33.1431121  16.1897496  97.6605628
  34.4116477  16.6582606  96.9799775  41.3876688  24.4873299  94.7167924
  40.6106131  24.1484459  94.2723086  42.0668169  24.4925922  94.0422889
  36.2028717  19.6068037  94.6074532  35.8978853  19.9214186  95.4584675
  37.1559159  19.6849456  94.6501865  34.6475149  25.7658260  96.2567486
  34.1196510  25.0311019  95.9440723  34.1462652  26.5432936  96.0107454
  39.6267995  23.9607280 101.3734532  38.9691669  24.6506542 101.4614661
  40.4308394  24.3503712 101.7168519  38.4373454  22.3151653  99.4238474
  38.9505335  22.9481645  99.9260184  39.0874678  21.7152849  99.0581834
  29.7063464  18.4582387  92.6369983  28.8700776  18.7957074  92.9579257
  29.5668233  18.3231367  91.6997120  32.7927749  23.5838470  89.2602459
  31.8854811  23.3527724  89.4593608  33.2898781  22.7876089  89.4476440
  35.6995828  32.2935977  92.1799145  35.0257527  32.5967674  92.7884103
  36.0861650  33.0965058  91.8304602  35.6989332  21.1892524  96.7999495
  36.4461151  21.7013921  96.4906617  35.9680922  20.8676577  97.6603888
  33.9715982  23.6851065  93.7826449  33.0627202  23.4010098  93.8798919
  34.0011066  24.1050144  92.9229756  39.2035250  27.2957654  97.5517617
  38.7497577  26.4548564  97.6082807  38.5729217  27.9319053  97.8892397
  38.1468169  18.2249640  98.7818284  37.4090926  17.7127027  99.1128527
  38.3994943  17.7850022  97.9701561  37.6468189  29.1334151  98.4867435
  37.9391163  29.6939208  97.7679800  38.1566810  29.4262712  99.2420594
  32.5200876  21.2979686  99.8836244  32.5749486  20.3453522  99.8078721
  31.7092078  21.4539125 100.3677543  33.6692070  25.2259809  91.1214528
  33.2311500  24.5095668  90.6620165  34.4102511  25.4535923  90.5599619
  30.4593236  19.9156745  97.6426623  29.6461102  20.2150916  98.0491815
  30.9552231  19.5212434  98.3601105  32.6101814  29.9114502  99.5760888
  32.5677993  30.1375349  98.6469420  33.5264513  29.6777877  99.7246689
  41.7865185  23.5017006  97.1790846  41.6483084  23.6918602  96.2512035
  41.4301404  24.2636388  97.6358897  41.8134565  25.5693533 102.1902118
  42.2471071  25.4768822 103.0385172  42.5266145  25.5451033 101.5522134
  30.7267615  26.7877531  99.3722851  31.5208214  26.2927851  99.1705426
  30.0159307  26.2595394  99.0090556  35.5462460  29.1695627 103.7235218
  35.5999482  29.7386563 104.4912934  34.6777241  29.3397512 103.3589255
  27.0350379  20.9320613  95.4482603  26.1047967  20.8705068  95.6652565
  27.1307850  20.4096566  94.6519245  42.6750114  25.6117233 104.7235003
  42.8686004  26.5163044 104.9694278  42.5750732  25.1524652 105.5573588
  33.3038891  27.3606553 103.0520688  33.1649977  26.9925338 103.9246626
  32.5153487  27.8754193 102.8804646  33.8987043  32.4615650  94.3946224
  34.0738799  31.9903693  95.2091847  33.2119831  33.0881416  94.6227485
  34.8544106  26.7388156 100.4409525  34.5193939  26.6988926 101.3367175
  34.3548052  26.0732872  99.9679936  37.7903298  24.0844190  90.7146585
  37.1732468  23.3591018  90.6179638  37.3219786  24.8453551  90.3713659
  28.4648128  35.6105012 101.1686084  28.7044727  36.2423537 101.8465103
  27.6217325  35.2593052 101.4551444  29.5801844  18.3029615  89.8367889
  28.7031310  18.1818415  89.4730136  30.0559597  17.5115693  89.5846778
  32.9775990  31.4184135 103.5727588  32.9046162  32.2239106 104.0846893
  32.5353383  31.6176101 102.7475610  32.7665770  30.6555905  97.0830410
  31.9833292  31.1977585  97.1768634  33.4658515  31.1729885  97.4824651
  43.9292177  22.1690900 101.3682907  43.9182054  23.0515615 100.9976840
  43.0609557  21.8162451 101.1737444  35.4374674  31.3170969 105.7285747
  36.1502646  31.9518434 105.6561649  34.9464702  31.4134835 104.9125749
  37.1592201  25.2222222  97.3003039  36.2248479  25.3423684  97.1307743
  37.3368869  24.3194688  97.0363049  40.5464752  21.0639541  97.8353073
  41.0125204  21.8967532  97.7613376  40.9972252  20.5984522  98.5398331
  38.6140983  27.4083362  94.8339225  38.8900827  27.2939957  95.7433099
  37.7445482  27.0100847  94.7951398  35.2495047  31.6569713  98.4772039
  35.4317442  30.8391369  98.9399791  36.0728033  31.8737405  98.0396929
  35.5837213  30.5837898  95.7387087  36.1124979  30.0730353  95.1257249
  35.8465432  30.2680428  96.6032620  28.9392960  31.6353015  98.4984863
  28.2703336  32.1199142  98.0148903  28.8005830  31.8822235  99.4128241
  33.0798229  33.6696758 105.0967521  33.6316537  33.8328380 105.8616607
  33.4204423  34.2601196 104.4247546  24.3080538  19.8971470  95.2780795
  24.6033979  18.9882148  95.2247849  23.4068573  19.8759209  94.9561797
  36.2166616  31.6178734 102.0831203  36.0917756  30.8168474 101.5742149
  36.8745707  32.1124927 101.5945173  38.2801525  29.4187754 103.7110754
  37.3331860  29.2993105 103.6389080  38.6284298  28.5310252 103.7937015
  35.2847958  29.2140470  99.9115106  35.1372920  28.2857178 100.0922676
  36.1101452  29.2360561  99.4272181  29.1510202  17.8658537  95.7695598
  29.4906275  18.3944459  95.0474206  29.5982323  18.2038943  96.5454164
  38.8882080  30.0369029 100.9979979  39.8128627  29.8311890 100.8604430
  38.7197383  29.7885430 101.9069320  31.1378349  16.3633159  93.9688891
  31.8586712  16.7414412  93.4652608  30.5143654  17.0822036  94.0723869
  35.2809472  17.0678308  94.9047223  35.4973087  17.9502946  94.6036051
  34.8003540  16.6764521  94.1752865  38.6777396  30.5554696  96.3542070
  38.8514274  29.9901119  95.6015922  39.1706287  31.3555591  96.1721560
  44.5316787  23.3191119  97.9732370  44.9747933  22.5698445  97.5751493
  43.6543298  23.3101256  97.5906102  39.6652569  29.8721461  93.4538968
  40.3603473  30.4928153  93.6726283  40.0075719  29.0216812  93.7291346
  41.5643992  27.3221166  94.9826299  42.0895316  27.6608439  94.2575619
  41.4766344  26.3868182  94.7989434  33.2484652  33.3893150  99.3421552
  32.8089643  32.8969528 100.0354409  33.9992769  32.8466117  99.1013627
  25.7276991  29.5804690  99.3446180  26.5535011  29.2808462  98.9644824
  25.3771043  28.8112313  99.7935969  30.6958525  28.9331159 101.4143854
  30.0738534  28.2701864 101.1146082  31.3663392  28.9592291 100.7317502
  30.2572032  27.4835082  94.8902314  30.4060152  28.1670546  94.2368987
  31.0638475  27.4640172  95.4051770  44.0749652  24.7896358 100.3654817
  44.9096543  25.2286162 100.5292378  44.2108781  24.3135011  99.5463063
  28.0124664  23.5100260  95.8963383  27.7670706  22.6062590  96.0943593
  28.1820579  23.5117410  94.9542861  27.2820312  19.2428617  93.3949545
  26.5889557  19.3172972  92.7389581  27.0372064  18.4788961  93.9171062
  33.7567437  29.9783212  92.3614062  33.1841404  30.5973400  91.9084534
  34.3300231  30.5282574  92.8953984  36.9764697  30.2620363  93.4922644
  37.9095370  30.1965924  93.6955520  36.8887910  31.0976629  93.0337177
  39.6052713  29.5786233  90.4526592  39.5266345  29.2446097  91.3462350
  40.4262380  30.0708001  90.4518064  42.3030905  22.4447972 103.6602910
  42.2707225  21.5063973 103.8462594  42.9131528  22.5232009 102.9268735
  34.1414236  21.3144025  89.7030114  35.0873340  21.1850233  89.7718532
  33.7628480  20.5758687  90.1799543  48.1207455  23.5063979 102.8008947
  48.8510843  23.2449267 103.3616650  47.5114400  22.7692701 102.8411015
  46.2022752  21.6471842 103.3983398  45.4755915  21.5127807 102.7899890
  45.7870039  21.9548670 104.2040116  32.3257153  19.2394002  89.6385000
  31.4188608  18.9427114  89.7147713  32.6033134  18.9423820  88.7719286
  33.9419218  13.7830891  95.7929241  33.1319947  13.4377976  96.1684487
  34.6303635  13.4738435  96.3816852  31.0955937  16.0980937  89.7796979
  31.9575101  16.4235835  90.0392796  31.2806281  15.3112433  89.2670045
  39.2488574  14.9709463  96.9232202  38.6687243  15.6294267  96.5410254
  38.9824506  14.1486808  96.5119619  38.0313452  17.1309554  95.9788550
  37.1439307  17.4159204  95.7608745  38.4467441  16.9703317  95.1315827
  41.3827988  17.1556075  99.6942889  42.1588378  17.6452527  99.9667506
  40.6576122  17.5814129 100.1514759  43.8200547  17.8683694 100.7516830
  44.4145037  17.6279430 100.0410138  43.8927130  17.1490824 101.3790366
  26.0397702  31.7117305 101.0659995  25.9052170  30.9517706 100.4997993
  25.6229765  32.4358205 100.5988784  37.1756665  26.8954228  90.0736570
  37.8792515  27.1004231  90.6894226  36.4519314  27.4630990  90.3385654
  38.0054476  22.6464090  96.1938840  37.9489677  23.1032641  95.3546473
  38.5582818  21.8854774  96.0161683  41.8159281  18.4353821  97.0188960
  41.5596216  18.0350457  97.8497167  41.1912150  19.1497615  96.8939099
  46.1271619  21.1749895  99.5260251  45.5671177  21.2443084 100.2991813
  45.5215123  20.9990879  98.8059747  29.1966828  32.6086622 101.2778437
  29.0799212  33.5532054 101.1757128  28.3759274  32.3060183 101.6664237
  39.0843363  27.3336758  92.1235030  39.9188967  26.9017956  91.9412505
  38.9227706  27.1618771  93.0511925  38.7389255  23.8368871  93.4891369
  38.6838059  23.6713142  92.5479813  38.1135310  24.5444904  93.6453559
  32.0485380  13.3376980  93.0676688  32.0364050  14.2818820  93.2244959
  32.9408802  13.1547125  92.7736149  30.2221342  33.2614884 104.4934366
  31.1248589  33.2938494 104.8100861  29.9958712  32.3315335 104.5080702
  31.9774944  32.0145870 101.1544444  31.0270575  32.0147732 101.0408817
  32.2807430  31.2678605 100.6380479  47.7127638  37.8506409 102.2190207
  48.3506048  37.7313156 101.5153547  47.5948481  38.7987253 102.2778159
  44.5217344  37.8033837 102.1551732  44.1835856  37.6874901 101.2672266
  45.3907112  37.4025002 102.1352738  40.3804160  39.6569313  98.1448622
  39.8169025  39.5659250  97.3764910  40.2656555  38.8369218  98.6251115
  45.0037127  38.9568688 108.1137937  44.9925768  38.5621487 107.2418441
  45.1657767  38.2234761 108.7071708  37.9268592  41.1520505 100.9832843
  38.7189884  40.8111329 100.5679142  38.1665242  41.2615480 101.9034996
  45.9603718  43.3240281  93.4563087  45.3091698  43.9094361  93.0697101
  46.7548081  43.8546476  93.5158125  39.8859346  40.4129418  93.8550222
  40.6590222  39.8658405  93.7163098  40.2384744  41.2773667  94.0664683
  41.7244388  41.7405800 107.0617121  41.4334254  42.6451431 106.9463787
  42.3601373  41.7822328 107.7761191  42.6500595  39.1182649 103.6518481
  43.2464167  38.8938671 102.9375444  42.7075567  38.3767394 104.2543929
  42.2225623  36.5722084  91.4868672  42.4751144  36.0503605  90.7252135
  41.2850183  36.4088230  91.5895355  47.2668906  35.5757862  99.2943415
  48.0531995  35.1577286  98.9433832  47.5307611  36.4803955  99.4625063
  47.4378984  41.0130713  93.9932072  46.8024817  41.0865339  94.7052976
  47.1076390  41.6024312  93.3151151  52.6677333  35.5133096 100.1976393
  53.4002505  34.9432313 100.4314223  51.9116689  35.1254696 100.6382899
  41.9421912  38.4750190  93.6893047  41.8258170  37.7995093  94.3574131
  42.0524172  37.9882564  92.8725200  44.2853453  37.9360337  97.3939736
  43.9211660  37.4090958  98.1052657  45.1420569  37.5458806  97.2206221
  50.1902754  29.2254670 104.6571002  49.8586079  30.0950081 104.4332217
  49.5948367  28.9090954 105.3365032  43.9258940  32.9650237  92.3901084
  44.0933342  33.8330473  92.7571555  43.7356109  33.1277519  91.4662374
  46.6834273  41.4267216 104.0566915  46.3834996  42.3292255 103.9482722
  46.3385333  41.1599399 104.9088068  40.1346755  37.8781013 100.0903619
  39.2097251  37.7457227 100.2981311  40.3831168  38.6575232 100.5873562
  50.0831417  33.9449756 101.7364352  49.1748294  33.8765164 101.4423113
  50.0319013  34.4221701 102.5646178  43.9048161  35.4207894  93.3747751
  43.7847786  35.8664945  94.2133231  43.2100749  35.7693212  92.8161289
  37.4955566  37.5214286 100.9247408  37.6247947  37.7748765 101.8386820
  36.8153017  38.1141994 100.6052063  44.1572283  35.3639402 109.6799249
  43.3805617  35.9233322 109.6702114  44.7962846  35.8496185 110.2014119
  51.9493063  32.1466194 103.5142226  51.3067444  32.4398728 102.8682021
  51.4447992  32.0319115 104.3195423  49.6033227  35.8929368  94.2028085
  50.5151083  36.1256754  94.0275783  49.0942874  36.4766412  93.6403164
  42.4118655  38.1724855 109.2417216  43.1533340  38.7109899 108.9652040
  41.7055641  38.7991144 109.3988768  47.8873995  40.3153995 107.8389378
  48.2957351  39.8736406 107.0944010  47.1651256  39.7406623 108.0923571
  44.2405065  35.2526602 105.2122935  45.0866260  35.6766016 105.3557584
  44.1803703  34.5960226 105.9061498  48.2102809  40.8755186 101.5941667
  47.5811672  41.0400900 100.8917735  47.8228472  41.2896796 102.3652631
  52.0892041  41.8109624  98.9486030  51.4043079  42.1908525  98.3983064
  52.1735891  42.4204951  99.6817978  47.3904510  32.9130971 106.8704108
  47.1465442  33.6673031 106.3338384  47.6664441  33.2916318 107.7051355
  49.3442973  39.4569583 105.5481374  49.5559868  40.1001343 104.8715755
  49.2972721  38.6231899 105.0803304  46.9469202  32.0687404 102.4517946
  46.0853681  32.3668657 102.7434684  46.9731637  32.2857802 101.5198979
  43.7630771  40.6129594  98.8591752  44.2269117  40.8917297  98.0696374
  43.4987569  39.7113039  98.6764842  40.6554852  40.1601076 101.7971515
  41.2256209  40.5888344 101.1589000  41.2462964  39.8783660 102.4955701
  42.6999657  36.7352746  95.6681317  43.4023701  37.1873790  96.1355243
  42.3680286  36.0936565  96.2961210  41.1480019  35.3264503 110.0432526
  40.5178679  36.0080784 110.2767923  41.0416107  35.2147585 109.0985665
  36.4424991  34.9936299 100.9698450  35.6524045  35.2493828 100.4938561
  36.9336239  35.8084637 101.0750491  50.4588801  42.3341538 103.7203731
  51.2806245  41.9321726 103.4386413  50.4551204  42.2309772 104.6719847
  38.3939737  35.3580878  97.9281927  37.5970900  35.4699573  98.4465423
  38.1665329  35.6967531  97.0622818  44.2245404  41.8825582 105.8764442
  44.2889837  42.3445989 106.7122614  43.5156328  41.2522947 106.0046752
  34.7262694  35.2466790 103.4013441  34.9770733  36.1313800 103.6671017
  35.2622243  35.0671391 102.6288533  58.5494794  38.6780287 100.0688703
  57.7958502  38.1087685  99.9132707  58.6842335  38.6442951 101.0159337
  43.9393422  43.5493689  95.7443422  43.8039097  44.3945225  96.1728270
  44.4803234  43.7512967  94.9809356  37.3922819  41.0669127  96.3171347
  37.9047340  41.8612377  96.4676912  38.0445532  40.3695418  96.2504949
  39.2017704  44.1834883  98.3994100  39.3784332  45.1052848  98.2115084
  39.9974538  43.8693303  98.8288480  43.3428723  31.0443148 109.9978034
  44.0838436  31.6450301 109.9182496  43.5746645  30.3020786 109.4396076
  38.4870061  36.2299515 108.2756264  38.3723576  35.3284773 108.5763363
  37.6314578  36.4763212 107.9241080  45.5661898  44.1717256 109.8743764
  45.1225753  43.3853634 109.5564669  46.2279112  44.3596406 109.2087655
  40.3249020  45.7013057 104.4004443  40.8756445  45.5730121 103.6281437
  39.4860495  46.0007946 104.0499336  47.6643136  44.4520056 107.9025165
  47.6461612  45.2728937 107.4105435  48.5863056  44.3274131 108.1275307
  44.1216191  41.9664185 108.7448674  44.6544527  41.2052473 108.5147982
  43.5930272  41.6737837 109.4872828  47.2885886  27.0724251 104.2742316
  46.9450155  27.9625893 104.1981426  47.6564848  26.8825909 103.4111901
  35.3571736  39.3957781  97.0930918  36.1946958  39.8054790  96.8764625
  35.5350004  38.4557224  97.0631112  47.2536168  37.0632862  92.7814751
  46.7382792  37.8337467  93.0203138  46.9813477  36.3897998  93.4047812
  44.8383279  31.9082563  97.8399989  43.9824876  31.5189413  97.6605628
  45.2510231  31.9874524  96.9799775  46.3682426  29.4428906 102.2391549
  45.8647222  29.4059041 101.4259354  46.6613033  30.3521649 102.2988206
  42.6125312  29.5267636 101.2457731  43.4778309  29.3310445 100.8863620
  42.6802821  29.2977988 102.1727087  52.2270442  39.8165217  94.7167924
  51.4499885  39.4776376  94.2723086  52.9061923  39.8217840  94.0422889
  47.0422471  34.9359954  94.6074532  46.7372607  35.2506103  95.4584675
  47.9952914  35.0141374  94.6501865  45.4868903  41.0950178  96.2567486
  44.9590265  40.3602937  95.9440723  44.9856406  41.8724854  96.0107454
  50.4661749  39.2899198 101.3734532  49.8085424  39.9798459 101.4614661
  51.2702149  39.6795630 101.7168519  40.2187631  31.7569844  98.6174097
  40.7931383  31.5345025  97.8847290  40.8058613  31.8258538  99.3702699
  49.2767208  37.6443571  99.4238474  49.7899090  38.2773563  99.9260184
  49.9268432  37.0444766  99.0581834  40.5457218  33.7874305  92.6369983
  39.7094530  34.1248991  92.9579257  40.4061988  33.6523285  91.6997120
  42.5210299  28.6311093  97.3449167  41.8674711  28.3160110  96.7205782
  42.4790773  28.0086833  98.0708990  43.6321503  38.9130388  89.2602459
  42.7248565  38.6819641  89.4593608  44.1292535  38.1168007  89.4476440
  45.7548039  35.1193026 101.6696814  44.8370600  35.3407973 101.5118503
  46.1708183  35.1939337 100.8108522  46.5383087  36.5184442  96.7999495
  47.2854906  37.0305839  96.4906617  46.8074676  36.1968495  97.6603888
  44.8109737  39.0142983  93.7826449  43.9020956  38.7302015  93.8798919
  44.8404821  39.4342061  92.9229756  50.0429004  42.6249572  97.5517617
  49.5891331  41.7840482  97.6082807  49.4122971  43.2610971  97.8892397
  48.9861924  33.5541558  98.7818284  48.2484681  33.0418944  99.1128527
  49.2388697  33.1141940  97.9701561  48.4861944  44.4626069  98.4867435
  48.7784918  45.0231126  97.7679800  48.9960564  44.7554630  99.2420594
  49.0873551  26.3317810  99.3760053  49.3932428  25.4715174  99.0885968
  49.8126156  26.9235430  99.1759047  35.3797907  36.7348497  97.7641651
  35.1822307  36.1417857  97.0392718  34.8244571  36.4300707  98.4817590
  43.3594631  36.6271603  99.8836244  43.4143241  35.6745440  99.8078721
  42.5485833  36.7831042 100.3677543  44.5085825  40.5551726  91.1214528
  44.0705255  39.8387585  90.6620165  45.2496266  40.7827841  90.5599619
  41.2986991  35.2448663  97.6426623  40.4854856  35.5442834  98.0491815
  41.7945985  34.8504352  98.3601105  43.4495569  45.2406420  99.5760888
  43.4071748  45.4667266  98.6469420  44.3658268  45.0069794  99.7246689
  46.8961203  35.7090487 106.4741517  47.2510590  35.9361961 107.3335983
  47.5433334  36.0408864 105.8518772  52.6258939  38.8308923  97.1790846
  52.4876838  39.0210519  96.2512035  52.2695158  39.5928306  97.6358897
  40.7901066  32.8167019 103.2587858  41.4300445  32.6755778 102.5610821
  39.9578596  32.5301532 102.8826460  52.6528319  40.8985450 102.1902118
  53.0864826  40.8060739 103.0385172  53.3659900  40.8742951 101.5522134
  41.5661370  42.1169449  99.3722851  42.3601968  41.6219769  99.1705426
  40.8553062  41.5887312  99.0090556  46.3856214  44.4987544 103.7235218
  46.4393236  45.0678481 104.4912934  45.5170995  44.6689429 103.3589255
  37.8744133  36.2612531  95.4482603  36.9441721  36.1996986  95.6652565
  37.9701605  35.7388483  94.6519245  37.7929682  32.7867343  98.0360845
  38.0536499  33.7012677  97.9270005  38.6146854  32.3191786  98.1857458
  39.2654607  34.2005101 105.2059669  39.9377661  33.9922463 104.5572318
  38.4384394  34.0027187 104.7664902  53.5143869  40.9409151 104.7235003
  53.7079759  41.8454962 104.9694278  53.4144487  40.4816570 105.5573588
  45.1680179  30.8267042 107.2225330  44.5208094  31.5256991 107.1289807
  45.9381195  31.2603186 107.5901579  48.5758977  41.0915894 110.2975884
  48.4244484  40.8626445 109.3805967  48.5663657  42.0486495 110.3107229
  45.3444314  38.6647806 105.2822150  46.2736374  38.8158966 105.1091117
  44.9235344  38.7531827 104.4270797  44.1432646  42.6898471 103.0520688
  44.0043731  42.3217255 103.9246626  43.3547242  43.2046110 102.8804646
  45.6937861  42.0680074 100.4409525  45.3587693  42.0280844 101.3367175
  45.1941806  41.4024790  99.9679936  39.6682105  37.4747704 105.9662107
  39.5301903  36.7427942 106.5673646  40.5787028  37.3856604 105.6846294
  48.6297052  39.4136108  90.7146585  48.0126223  38.6882936  90.6179638
  48.1613541  40.1745468  90.3713659  42.2964405  37.1867663 105.4545786
  43.0064024  36.5460855 105.4132405  42.2533713  37.4380558 106.3771967
  50.2851184  44.1235016 108.3752366  50.2263730  43.4394236 107.7082949
  50.6870702  44.8654006 107.9232991  41.0093339  34.1732881 107.2741426
  40.4730696  33.7223619 107.9263022  40.4210048  34.3078790 106.5311890
  39.3041883  50.9396930 101.1686084  39.5438481  51.5715454 101.8465103
  38.4611079  50.5884970 101.4551444  40.4195598  33.6321532  89.8367889
  39.5425065  33.5110333  89.4730136  40.8953351  32.8407611  89.5846778
  50.2868591  42.0874600 106.6066345  49.3995370  41.7500522 106.7292744
  50.8567142  41.3557631 106.8435111  31.9397738  38.4198692  99.9309397
  32.6268778  38.1060422  99.3430412  31.7845867  39.3240057  99.6576648
  36.7432461  33.3088889 104.3594420  36.6590649  32.7014558 103.6244830
  35.9215167  33.7997907 104.3603917  43.8169745  46.7476053 103.5727588
  43.7439916  47.5531024 104.0846893  43.3747138  46.9468018 102.7475610
  46.9156174  31.7942452  99.7264615  47.4124874  31.0412414  99.4065686
  46.1443156  31.8306769  99.1607825  54.7685932  37.4982818 101.3682907
  54.7575808  38.3807533 100.9976840  53.9003311  37.1454368 101.1737444
  46.2768428  46.6462887 105.7285747  46.9896400  47.2810351 105.6561649
  45.7858457  46.7426753 104.9125749  47.9985955  40.5514139  97.3003039
  47.0642234  40.6715602  97.1307743  48.1762624  39.6486606  97.0363049
  43.4991143  33.9359835  99.4536300  43.1288931  33.3830875 100.1417205
  43.9950236  33.3317969  98.9011300  51.3858506  36.3931459  97.8353073
  51.8518959  37.2259450  97.7613376  51.8366007  35.9276440  98.5398331
  41.3280342  44.3957330 106.5491318  42.0289801  45.0293813 106.7020712
  40.8575457  44.7372062 105.7886957  49.4534738  42.7375280  94.8339225
  49.7294581  42.6231874  95.7433099  48.5839236  42.3392765  94.7951398
  49.3575169  28.7612046 101.8743974  48.4438249  28.9916272 102.0426181
  49.7868271  28.8450490 102.7258007  49.1281628  36.9501938 104.3743868
  48.4753078  37.1977845 103.7196321  49.5062008  36.1366076 104.0406346
  46.0888802  46.9861631  98.4772039  46.2711196  46.1683287  98.9399791
  46.9121788  47.2029323  98.0396929  46.4230967  45.9129816  95.7387087
  46.9518733  45.4022270  95.1257249  46.6859187  45.5972346  96.6032620
  45.1769201  37.6921749 110.8609905  44.5009838  37.5915878 111.5312281
  45.9996835  37.5360962 111.3245903  36.9248060  43.9293685 103.4822421
  37.5101497  43.1837373 103.6150325  36.7272898  44.2397642 104.3659084
  39.7786715  46.9644933  98.4984863  39.1097090  47.4491060  98.0148903
  39.6399585  47.2114153  99.4128241  31.5165715  36.4999285 102.2026864
  31.5549814  35.9662876 102.9963982  31.0106007  35.9734491 101.5837841
  43.9191984  48.9988676 105.0967521  44.4710292  49.1620298 105.8616607
  44.2598177  49.5893114 104.4247546  38.8956477  31.3463826 105.6989406
  38.9597803  32.2078657 105.2866804  38.8323597  30.7337827 104.9661765
  48.7702858  43.8249934 110.9516176  49.3142762  44.4379892 110.4571131
  48.1889703  44.3829512 111.4683189  35.1474292  35.2263387  95.2780795
  35.4427733  34.3174066  95.2247849  34.2462328  35.2051127  94.9561797
  47.0560371  46.9470652 102.0831203  46.9311510  46.1460391 101.5742149
  47.7139462  47.4416845 101.5945173  38.6768539  33.3019384 101.2608344
  37.9555125  33.9155352 101.1215817  39.4661795  33.8377149 101.1824990
  49.1195279  44.7479672 103.7110754  48.1725615  44.6285023 103.6389080
  49.4678052  43.8602170 103.7937015  41.4794853  30.6373811 107.5348995
  42.0029254  30.8836107 108.2975305  41.2607186  31.4693845 107.1152133
  36.8762134  32.9077485  95.4020120  36.5474840  32.0274864  95.2195226
  37.2301504  32.8525154  96.2896509  46.1241713  44.5432388  99.9115106
  45.9766675  43.6149095 100.0922676  46.9495206  44.5652479  99.4272181
  39.9903957  33.1950455  95.7695598  40.3300029  33.7236376  95.0474206
  40.4376077  33.5330861  96.5454164  49.7275834  45.3660947 100.9979979
  50.6522382  45.1603808 100.8604430  49.5591138  45.1177348 101.9069320
  42.6847398  31.5787506 105.2198666  42.3444218  30.7795319 105.6219346
  41.9786404  31.8789217 104.6475499  43.3363869  28.6636818 103.6725989
  44.1589939  28.1897296 103.5504879  43.5801933  29.4427302 104.1724675
  41.9772104  31.6925077  93.9688891  42.6980466  32.0706329  93.4652608
  41.3537408  32.4113953  94.0723869  46.1203227  32.3970226  94.9047223
  46.3366841  33.2794863  94.6036051  45.6397294  32.0056439  94.1752865
  40.8602448  35.3555939 101.4817968  40.7147029  35.6696242 102.3742249
  40.3827652  35.9740839 100.9288866  42.7198831  32.3458487 101.5298857
  42.7060400  31.4499580 101.1931155  43.4371259  32.3529150 102.1637143
  44.5724962  32.7795827 103.5751985  44.3142740  33.7012898 103.5736315
  44.0410002  32.3826261 104.2652449  49.5171151  45.8846614  96.3542070
  49.6908028  45.3193037  95.6015922  50.0100042  46.6847509  96.1721560
  35.3348110  37.8961283 104.4205629  34.7901578  38.6721091 104.5525903
  36.2127460  38.2432088 104.2624750  42.1235727  31.2272867  96.7986427
  42.2451638  30.2989513  96.9977315  41.8337769  31.2411553  95.8864743
  44.9926917  28.9127777  99.9353147  45.0148614  28.9767111  98.9805127
  45.4094976  28.0732286 100.1293653  55.3710542  38.6483037  97.9732370
  55.8141688  37.8990362  97.5751493  54.4937052  38.6393173  97.5906102
  50.5046323  45.2013378  93.4538968  51.1997228  45.8220071  93.6726283
  50.8469473  44.3508730  93.7291346  36.1214132  37.0231179 107.3135786
  35.3795868  37.1713815 107.9000416  35.8006877  37.2839445 106.4502535
  52.4037746  42.6513084  94.9826299  52.9289070  42.9900357  94.2575619
  52.3160099  41.7160099  94.7989434  44.0657795  46.5647158 107.1116176
  44.3744921  46.3196304 107.9838875  44.8633277  46.7693796 106.6235046
  44.0878407  48.7185067  99.3421552  43.6483397  48.2261446 100.0354409
  44.8386524  48.1758035  99.1013627  36.5670746  44.9096608  99.3446180
  37.3928766  44.6100380  98.9644824  36.2164798  44.1404231  99.7935969
  41.5352279  44.2623076 101.4143854  40.9132288  43.5993781 101.1146082
  42.2057146  44.2884208 100.7317502  34.7679351  42.8282935 100.3035114
  33.9311259  42.4005109 100.1219115  34.7402996  43.0215378 101.2405905
  52.0931652  43.2845988 110.2877497  51.3027196  43.2670126 109.7481996
  51.8565007  43.8234281 111.0426534  52.2129527  40.1338454 107.6010226
  52.2627532  39.9688461 108.5425748  52.1043451  39.2665713 107.2108106
  41.0965786  42.8127000  94.8902314  41.2453906  43.4962464  94.2368987
  41.9032229  42.7932090  95.4051770  49.5033290  36.1169382 108.9169532
  50.4043152  35.9775847 108.6253530  49.5781264  36.2823837 109.8567710
  43.8376095  33.4936237 107.7622719  42.9679404  33.7869803 107.4905307
  44.0735575  34.0776682 108.4829982  53.7147724  42.5535396 107.8452247
  53.4232532  42.9165376 108.6815708  53.1019855  41.8402404 107.6665579
  54.9143406  40.1188275 100.3654817  55.7490298  40.5578079 100.5292378
  55.0502535  39.6426929  99.5463063  51.9634912  37.6768010 106.3132305
  52.4389034  37.8695656 105.5051156  51.0400478  37.7327196 106.0675689
  38.8518419  38.8392177  95.8963383  38.6064461  37.9354507  96.0943593
  39.0214334  38.8409328  94.9542861  46.5415129  29.7115854 105.2788139
  47.0597073  30.4476881 104.9534628  46.1870262  30.0179847 106.1134898
  38.1214067  34.5720535  93.3949545  37.4283311  34.6464890  92.7389581
  37.8765818  33.8080879  93.9171062  46.7927723  26.1316136 100.7989036
  47.0729477  25.4639325 101.4249462  47.5778330  26.3245232 100.2863699
  50.6636581  34.5533770 104.5460611  51.6154004  34.6531868 104.5672835
  50.4940032  33.7612039 105.0558695  48.6850961  31.6389353 104.7320012
  48.0900893  31.9194366 104.0366500  48.4000658  32.1283254 105.5036753
  50.4446468  44.9078151  90.4526592  50.3660100  44.5738014  91.3462350
  51.2656135  45.3999919  90.4518064  53.1424659  37.7739890 103.6602910
  53.1100979  36.8355891 103.8462594  53.7525283  37.8523927 102.9268735
  44.9807990  36.6435943  89.7030114  45.9267095  36.5142151  89.7718532
  44.6022235  35.9050605  90.1799543  53.2919148  34.5650933 103.7061194
  52.7758196  33.7809390 103.5191122  54.1759096  34.2369650 103.8707713
  50.9529875  28.3091949  99.6657006  50.7554696  28.0007037 100.5500338
  51.5629580  29.0353588  99.7954936  58.9601209  38.8355897 102.8008947
  59.6904597  38.5741185 103.3616650  58.3508154  38.0984619 102.8411015
  57.0416506  36.9763759 103.3983398  56.3149670  36.8419724 102.7899890
  56.6263793  37.2840588 104.2040116  44.8646683  40.6953689 111.1630771
  45.7849692  40.8732288 111.3570818  44.8296266  39.7509734 111.0110471
  43.1650907  34.5685919  89.6385000  42.2582363  34.2719032  89.7147713
  43.4426888  34.2715737  88.7719286  34.0828848  35.8892283 100.0884046
  33.7631632  35.0357591  99.7958420  33.5362276  36.1040861 100.8442013
  37.8608755  38.6054724 103.8053552  38.0794765  39.5371831 103.8241586
  38.2734529  38.2462698 104.5908356  44.7812973  29.1122809  95.7929241
  43.9713701  28.7669894  96.1684487  45.4697390  28.8030353  96.3816852
  46.7103521  28.1900856  97.4153538  47.2634560  28.6096309  98.0743561
  46.9473608  27.2636604  97.4576494  41.9349692  31.4272854  89.7796979
  42.7968856  31.7527753  90.0392796  42.1200036  30.6404350  89.2670045
  33.9517108  39.5095194 102.0577168  33.2580579  39.0949147 101.5447122
  34.6990099  39.5515731 101.4610586  50.0882328  30.3001381  96.9232202
  49.5080997  30.9586185  96.5410254  49.8218261  29.4778726  96.5119619
  48.5385895  29.7006439  99.1253522  49.0385673  29.8122973  98.3167841
  49.1821503  29.3967492  99.7654331  42.5967890  37.6085068 112.0121363
  42.1134972  38.4085428 112.2185252  42.6828830  37.6193013 111.0588807
  35.8653850  39.4413448  99.9343182  35.8424538  39.5401135  98.9825066
  36.1754487  40.2878599 100.2560349  38.5241228  41.4989603 104.0489797
  39.4784482  41.4673545 103.9819728  38.3253752  41.0380227 104.8640023
  39.1140610  40.0690719 106.6160595  39.9333499  40.5634798 106.6395432
  39.3877418  39.1522687 106.5878162  48.8707206  32.4601471  95.9788550
  47.9833061  32.7451122  95.7608745  49.2861195  32.2995235  95.1315827
  52.2221742  32.4847992  99.6942889  52.9982133  32.9744445  99.9667506
  51.4969877  32.9106047 100.1514759  54.6594301  33.1975612 100.7516830
  55.2538792  32.9571347 100.0410138  54.7320885  32.4782742 101.3790366
  36.8791457  47.0409222 101.0659995  36.7445925  46.2809623 100.4997993
  36.4623519  47.7650122 100.5988784  48.0150420  42.2246146  90.0736570
  48.7186270  42.4296149  90.6894226  47.2913069  42.7922908  90.3385654
  48.8448230  37.9756007  96.1938840  48.7883431  38.4324559  95.3546473
  49.3976573  37.2146692  96.0161683  52.6553036  33.7645739  97.0188960
  52.3989970  33.3642375  97.8497167  52.0305904  34.4789533  96.8939099
  56.9665374  36.5041812  99.5260251  56.4064932  36.5735002 100.2991813
  56.3608877  36.3282797  98.8059747  40.0360583  47.9378540 101.2778437
  39.9192967  48.8823972 101.1757128  39.2153029  47.6352101 101.6664237
  49.9237117  42.6628675  92.1235030  50.7582721  42.2309874  91.9412505
  49.7621460  42.4910689  93.0511925  49.5783009  39.1660789  93.4891369
  49.5231813  39.0005060  92.5479813  48.9529065  39.8736821  93.6453559
  34.3675524  34.4028853 107.3152792  35.0134388  33.8927807 107.8040017
  34.1592675  35.1397535 107.8896217  46.8928917  41.4709700 112.8144932
  47.7620076  41.6450353 112.4531567  46.4135668  42.2904117 112.6920661
  42.8879135  28.6668898  93.0676688  42.8757805  29.6110737  93.2244959
  43.7802557  28.4839043  92.7736149  41.0615097  48.5906801 104.4934366
  41.9642343  48.6230412 104.8100861  40.8352467  47.6607252 104.5080702
  42.8168699  47.3437788 101.1544444  41.8664330  47.3439650 101.0408817
  43.1201185  46.5970523 100.6380479  46.7031254  25.2611674  97.3222625
  45.9363650  24.7070161  97.4679307  47.1141959  25.3333543  98.1836776
  58.5521392  53.1798326 102.2190207  59.1899802  53.0605074 101.5153547
  58.4342235  54.1279170 102.2778159  55.3611099  53.1325754 102.1551732
  55.0229610  53.0166819 101.2672266  56.2300867  52.7316920 102.1352738
  55.8430882  54.2860606 108.1137937  55.8319522  53.8913404 107.2418441
  56.0051521  53.5526679 108.7071708  56.7997473  58.6532199  93.4563087
  56.1485453  59.2386279  93.0697101  57.5941836  59.1838393  93.5158125
  52.5638143  57.0697718 107.0617121  52.2728009  57.9743349 106.9463787
  53.1995127  57.1114246 107.7761191  53.4894350  54.4474566 103.6518481
  54.0857922  54.2230589 102.9375444  53.5469321  53.7059312 104.2543929
  53.0619378  51.9014002  91.4868672  53.3144899  51.3795523  90.7252135
  52.1243937  51.7380147  91.5895355  58.1062661  50.9049780  99.2943415
  58.8925750  50.4869203  98.9433832  58.3701365  51.8095872  99.4625063
  58.2772738  56.3422630  93.9932072  57.6418571  56.4157257  94.7052976
  57.9470145  56.9316229  93.3151151  63.5071088  50.8425013 100.1976393
  64.2396260  50.2724230 100.4314223  62.7510444  50.4546614 100.6382899
  52.7815667  53.8042108  93.6893047  52.6651925  53.1287011  94.3574131
  52.8917927  53.3174482  92.8725200  55.1247208  53.2652255  97.3939736
  54.7605415  52.7382876  98.1052657  55.9814324  52.8750724  97.2206221
  61.0296508  44.5546587 104.6571002  60.6979833  45.4241998 104.4332217
  60.4342122  44.2382871 105.3365032  54.7652695  48.2942155  92.3901084
  54.9327097  49.1622391  92.7571555  54.5749864  48.4569436  91.4662374
  57.5228028  56.7559133 104.0566915  57.2228751  57.6584172 103.9482722
  57.1779087  56.4891317 104.9088068  50.9740509  53.2072930 100.0903619
  50.0491006  53.0749144 100.2981311  51.2224922  53.9867150 100.5873562
  60.9225172  49.2741674 101.7364352  60.0142049  49.2057082 101.4423113
  60.8712767  49.7513619 102.5646178  54.7441915  50.7499812  93.3747751
  54.6241541  51.1956863  94.2133231  54.0494504  51.0985130  92.8161289
  52.5048808  63.5203454  97.0237882  52.4272837  64.4711279  97.1026363
  51.9010451  63.1749326  97.6812809  54.9966037  50.6931319 109.6799249
  54.2199371  51.2525239 109.6702114  55.6356600  51.1788102 110.2014119
  62.7886818  47.4758112 103.5142226  62.1461198  47.7690645 102.8682021
  62.2841746  47.3611032 104.3195423  60.4426982  51.2221285  94.2028085
  61.3544838  51.4548672  94.0275783  59.9336629  51.8058329  93.6403164
  53.2512410  53.5016773 109.2417216  53.9927094  54.0401817 108.9652040
  52.5449395  54.1283061 109.3988768  58.7267749  55.6445913 107.8389378
  59.1351105  55.2028324 107.0944010  58.0045011  55.0698541 108.0923571
  55.0798819  50.5818520 105.2122935  55.9260015  51.0057933 105.3557584
  55.0197457  49.9252144 105.9061498  59.0496564  56.2047104 101.5941667
  58.4205426  56.3692818 100.8917735  58.6622226  56.6188713 102.3652631
  62.9285796  57.1401542  98.9486030  62.2436834  57.5200443  98.3983064
  63.0129645  57.7496868  99.6817978  58.2298265  48.2422888 106.8704108
  57.9859197  48.9964949 106.3338384  58.5058195  48.6208236 107.7051355
  60.1836727  54.7861501 105.5481374  60.3953623  55.4293260 104.8715755
  60.1366476  53.9523817 105.0803304  57.7862956  47.3979321 102.4517946
  56.9247435  47.6960575 102.7434684  57.8125391  47.6149720 101.5198979
  54.6024526  55.9421512  98.8591752  55.0662871  56.2209215  98.0696374
  54.3381324  55.0404956  98.6764842  51.4948607  55.4892993 101.7971515
  52.0649964  55.9180262 101.1589000  52.0856719  55.2075578 102.4955701
  53.5393412  52.0644664  95.6681317  54.2417455  52.5165708  96.1355243
  53.2074040  51.4228483  96.2961210  51.9873773  50.6556421 110.0432526
  51.3572434  51.3372702 110.2767923  51.8809861  50.5439502 109.0985665
  61.2982555  57.6633456 103.7203731  62.1199999  57.2613643 103.4386413
  61.2944958  57.5601690 104.6719847  55.0639159  57.2117499 105.8764442
  55.1283591  57.6737907 106.7122614  54.3550083  56.5814864 106.0046752
  69.3888548  54.0072204 100.0688703  68.6352257  53.4379603  99.9132707
  69.5236090  53.9734869 101.0159337  54.7787176  58.8785607  95.7443422
  54.6432851  59.7237143  96.1728270  55.3196989  59.0804884  94.9809356
  51.2654516  44.9577187 112.4057777  50.8721462  44.4043385 113.0805422
  52.0820656  45.2687765 112.7964295  54.1822477  46.3735066 109.9978034
  54.9232190  46.9742219 109.9182496  54.4140400  45.6312704 109.4396076
  49.3263815  51.5591433 108.2756264  49.2117330  50.6576690 108.5763363
  48.4708333  51.8055130 107.9241080  56.4055653  59.5009173 109.8743764
  55.9619507  58.7145552 109.5564669  57.0672866  59.6888324 109.2087655
  58.5036891  59.7811973 107.9025165  58.4855366  60.6020854 107.4105435
  59.4256811  59.6566048 108.1275307  54.9609945  57.2956103 108.7448674
  55.4938282  56.5344391 108.5147982  54.4324026  57.0029755 109.4872828
  58.1279640  42.4016169 104.2742316  57.7843909  43.2917810 104.1981426
  58.4958603  42.2117826 103.4111901  58.0929923  52.3924780  92.7814751
  57.5776546  53.1629384  93.0203138  57.8207231  51.7189916  93.4047812
  55.6777034  47.2374481  97.8399989  54.8218630  46.8481331  97.6605628
  56.0903986  47.3166441  96.9799775  57.2076180  44.7720824 102.2391549
  56.7040976  44.7350959 101.4259354  57.5006787  45.6813567 102.2988206
  53.4519066  44.8559554 101.2457731  54.3172063  44.6602362 100.8863620
  53.5196575  44.6269905 102.1727087  63.0664197  55.1457134  94.7167924
  62.2893640  54.8068294  94.2723086  63.7455678  55.1509758  94.0422889
  57.8816226  50.2651872  94.6074532  57.5766362  50.5798021  95.4584675
  58.8346668  50.3433292  94.6501865  56.3262658  56.4242095  96.2567486
  55.7984019  55.6894855  95.9440723  55.8250161  57.2016772  96.0107454
  61.3055504  54.6191116 101.3734532  60.6479178  55.3090377 101.4614661
  62.1095903  55.0087548 101.7168519  51.0581385  47.0861761  98.6174097
  51.6325137  46.8636943  97.8847290  51.6452368  47.1550456  99.3702699
  60.1160963  52.9735488  99.4238474  60.6292844  53.6065480  99.9260184
  60.7662186  52.3736684  99.0581834  51.3850972  49.1166222  92.6369983
  50.5488285  49.4540909  92.9579257  51.2455742  48.9815202  91.6997120
  53.3604053  43.9603010  97.3449167  52.7068465  43.6452028  96.7205782
  53.3184527  43.3378751  98.0708990  54.4715258  54.2422305  89.2602459
  53.5642320  54.0111559  89.4593608  54.9686290  53.4459925  89.4476440
  57.3783337  62.9519813  92.1799145  56.7045036  63.2551509  92.7884103
  57.7649159  63.7548893  91.8304602  56.5941793  50.4484944 101.6696814
  55.6764355  50.6699891 101.5118503  57.0101937  50.5231254 100.8108522
  57.3776841  51.8476360  96.7999495  58.1248660  52.3597757  96.4906617
  57.6468431  51.5260412  97.6603888  55.6503491  54.3434900  93.7826449
  54.7414711  54.0593933  93.8798919  55.6798575  54.7633979  92.9229756
  60.8822759  57.9541490  97.5517617  60.4285086  57.1132400  97.6082807
  60.2516726  58.5902888  97.8892397  59.8255678  48.8833476  98.7818284
  59.0878435  48.3710862  99.1128527  60.0782452  48.4433857  97.9701561
  59.3255698  59.7917987  98.4867435  59.6178672  60.3523044  97.7679800
  59.8354319  60.0846547  99.2420594  59.9267306  41.6609728  99.3760053
  60.2326183  40.8007091  99.0885968  60.6519911  42.2527348  99.1759047
  54.1988385  51.9563521  99.8836244  54.2536995  51.0037357  99.8078721
  53.3879587  52.1122960 100.3677543  55.3479579  55.8843644  91.1214528
  54.9099009  55.1679503  90.6620165  56.0890020  56.1119759  90.5599619
  52.1380745  50.5740581  97.6426623  51.3248611  50.8734751  98.0491815
  52.6339740  50.1796269  98.3601105  54.2889323  60.5698338  99.5760888
  54.2465502  60.7959184  98.6469420  55.2052022  60.3361712  99.7246689
  57.7354957  51.0382405 106.4741517  58.0904345  51.2653878 107.3335983
  58.3827088  51.3700782 105.8518772  63.4652694  54.1600841  97.1790846
  63.3270593  54.3502437  96.2512035  63.1088913  54.9220224  97.6358897
  51.6294820  48.1458936 103.2587858  52.2694199  48.0047695 102.5610821
  50.7972351  47.8593450 102.8826460  63.4922074  56.2277368 102.1902118
  63.9258580  56.1352657 103.0385172  64.2053654  56.2034868 101.5522134
  52.4055124  57.4461367  99.3722851  53.1995723  56.9511687  99.1705426
  51.6946816  56.9179230  99.0090556  57.2249968  59.8279462 103.7235218
  57.2786991  60.3970398 104.4912934  56.3564750  59.9981347 103.3589255
  48.6323437  48.1159261  98.0360845  48.8930254  49.0304594  97.9270005
  49.4540609  47.6483704  98.1857458  50.1048362  49.5297018 105.2059669
  50.7771415  49.3214380 104.5572318  49.2778148  49.3319104 104.7664902
  64.3537623  56.2701069 104.7235003  64.5473513  57.1746879 104.9694278
  64.2538241  55.8108488 105.5573588  56.0073934  46.1558959 107.2225330
  55.3601849  46.8548909 107.1289807  56.7774949  46.5895103 107.5901579
  59.4152732  56.4207811 110.2975884  59.2638238  56.1918363 109.3805967
  59.4057411  57.3778413 110.3107229  56.1838068  53.9939724 105.2822150
  57.1130128  54.1450884 105.1091117  55.7629098  54.0823745 104.4270797
  54.9826400  58.0190389 103.0520688  54.8437486  57.6509173 103.9246626
  54.1940996  58.5338028 102.8804646  55.5774552  63.1199485  94.3946224
  55.7526308  62.6487528  95.2091847  54.8907340  63.7465251  94.6227485
  56.5331615  57.3971991 100.4409525  56.1981448  57.3572761 101.3367175
  56.0335561  56.7316707  99.9679936  50.5075859  52.8039621 105.9662107
  50.3695657  52.0719860 106.5673646  51.4180783  52.7148521 105.6846294
  59.4690807  54.7428026  90.7146585  58.8519977  54.0174854  90.6179638
  59.0007295  55.5037386  90.3713659  53.1358160  52.5159581 105.4545786
  53.8457778  51.8752773 105.4132405  53.0927468  52.7672475 106.3771967
  61.1244938  59.4526934 108.3752366  61.0657485  58.7686154 107.7082949
  61.5264457  60.1945924 107.9232991  51.8487094  49.5024799 107.2741426
  51.3124451  49.0515537 107.9263022  51.2603802  49.6370707 106.5311890
  50.1435637  66.2688848 101.1686084  50.3832236  66.9007372 101.8465103
  49.3004834  65.9176888 101.4551444  51.2589353  48.9613450  89.8367889
  50.3818819  48.8402251  89.4730136  51.7347106  48.1699528  89.5846778
  61.1262346  57.4166518 106.6066345  60.2389125  57.0792440 106.7292744
  61.6960897  56.6849549 106.8435111  47.5826215  48.6380806 104.3594420
  47.4984404  48.0306476 103.6244830  46.7608921  49.1289825 104.3603917
  54.6563499  62.0767970 103.5727588  54.5833671  62.8822942 104.0846893
  54.2140892  62.2759936 102.7475610  54.4453279  61.3139740  97.0830410
  53.6620801  61.8561420  97.1768634  55.1446024  61.8313720  97.4824651
  57.7549929  47.1234370  99.7264615  58.2518628  46.3704332  99.4065686
  56.9836910  47.1598686  99.1607825  65.6079686  52.8274735 101.3682907
  65.5969563  53.7099451 100.9976840  64.7397066  52.4746286 101.1737444
  57.1162183  61.9754804 105.7285747  57.8290155  62.6102269 105.6561649
  56.6252211  62.0718670 104.9125749  58.8379710  55.8806057  97.3003039
  57.9035988  56.0007519  97.1307743  59.0156378  54.9778524  97.0363049
  54.3384898  49.2651753  99.4536300  53.9682685  48.7122793 100.1417205
  54.8343990  48.6609886  98.9011300  62.2252261  51.7223376  97.8353073
  62.6912713  52.5551368  97.7613376  62.6759761  51.2568358  98.5398331
  60.2928492  58.0667198  94.8339225  60.5688336  57.9523792  95.7433099
  59.4232991  57.6684682  94.7951398  60.1968924  44.0903963 101.8743974
  59.2832003  44.3208190 102.0426181  60.6262025  44.1742407 102.7258007
  59.9675382  52.2793855 104.3743868  59.3146832  52.5269763 103.7196321
  60.3455762  51.4657993 104.0406346  56.9282556  62.3153548  98.4772039
  57.1104951  61.4975204  98.9399791  57.7515542  62.5321241  98.0396929
  57.2624722  61.2421734  95.7387087  57.7912488  60.7314188  95.1257249
  57.5252941  60.9264264  96.6032620  56.0162955  53.0213666 110.8609905
  55.3403592  52.9207796 111.5312281  56.8390589  52.8652880 111.3245903
  54.7585738  64.3280594 105.0967521  55.3104046  64.4912215 105.8616607
  55.0991932  64.9185032 104.4247546  49.7350231  46.6755744 105.6989406
  49.7991558  47.5370574 105.2866804  49.6717352  46.0629745 104.9661765
  49.2102504  48.7478876 109.3462440  49.8374543  48.3655953 109.9599965
  48.3530423  48.5293078 109.7118133  59.6096612  59.1541851 110.9516176
  60.1536516  59.7671810 110.4571131  59.0283457  59.7121430 111.4683189
  57.8954125  62.2762569 102.0831203  57.7705265  61.4752309 101.5742149
  58.5533216  62.7708763 101.5945173  49.5162294  48.6311302 101.2608344
  48.7948879  49.2447269 101.1215817  50.3055549  49.1669067 101.1824990
  59.9589034  60.0771589 103.7110754  59.0119369  59.9576941 103.6389080
  60.3071807  59.1894087 103.7937015  52.3188607  45.9665728 107.5348995
  52.8423009  46.2128025 108.2975305  52.1000940  46.7985763 107.1152133
  47.7155888  48.2369403  95.4020120  47.3868594  47.3566782  95.2195226
  48.0695259  48.1817072  96.2896509  56.9635467  59.8724306  99.9115106
  56.8160429  58.9441013 100.0922676  57.7888961  59.8944396  99.4272181
  50.8297711  48.5242373  95.7695598  51.1693784  49.0528294  95.0474206
  51.2769832  48.8622779  96.5454164  60.5669589  60.6952864 100.9979979
  61.4916136  60.4895726 100.8604430  60.3984892  60.4469265 101.9069320
  53.5241152  46.9079423 105.2198666  53.1837972  46.1087236 105.6219346
  52.8180158  47.2081134 104.6475499  54.1757624  43.9928736 103.6725989
  54.9983693  43.5189214 103.5504879  54.4195687  44.7719220 104.1724675
  52.8165858  47.0216994  93.9688891  53.5374221  47.3998247  93.4652608
  52.1931163  47.7405871  94.0723869  56.9596981  47.7262143  94.9047223
  57.1760596  48.6086781  94.6036051  56.4791048  47.3348357  94.1752865
  51.6996203  50.6847856 101.4817968  51.5540783  50.9988159 102.3742249
  51.2221406  51.3032757 100.9288866  53.5592586  47.6750404 101.5298857
  53.5454154  46.7791498 101.1931155  54.2765014  47.6821068 102.1637143
  55.4118716  48.1087745 103.5751985  55.1536494  49.0304815 103.5736315
  54.8803757  47.7118179 104.2652449  60.3564905  61.2138532  96.3542070
  60.5301783  60.6484954  95.6015922  60.8493796  62.0139427  96.1721560
  52.9629482  46.5564785  96.7986427  53.0845393  45.6281431  96.9977315
  52.6731524  46.5703471  95.8864743  55.8320672  44.2419695  99.9353147
  55.8542369  44.3059028  98.9805127  56.2488731  43.4024204 100.1293653
  66.2104296  53.9774955  97.9732370  66.6535442  53.2282280  97.5751493
  65.3330807  53.9685091  97.5906102  61.3440078  60.5305296  93.4538968
  62.0390982  61.1511989  93.6726283  61.6863228  59.6800647  93.7291346
  46.9607887  52.3523097 107.3135786  46.2189623  52.5005732 107.9000416
  46.6400631  52.6131363 106.4502535  63.2431501  57.9805002  94.9826299
  63.7682825  58.3192274  94.2575619  63.1553853  57.0452017  94.7989434
  54.9051549  61.8939075 107.1116176  55.2138676  61.6488222 107.9838875
  55.7027031  62.0985714 106.6235046  54.9272161  64.0476985  99.3421552
  54.4877152  63.5553364 100.0354409  55.6780278  63.5049953  99.1013627
  52.4470561  48.0696782 111.0076360  52.4958717  48.9458905 110.6254130
  52.9893075  47.5274175 110.4348003  62.9325407  58.6137905 110.2877497
  62.1420950  58.5962044 109.7481996  62.6958761  59.1526199 111.0426534
  63.0523282  55.4630372 107.6010226  63.1021287  55.2980379 108.5425748
  62.9437205  54.5957631 107.2108106  51.9359540  58.1418917  94.8902314
  52.0847661  58.8254382  94.2368987  52.7425984  58.1224007  95.4051770
  60.3427044  51.4461300 108.9169532  61.2436907  51.3067765 108.6253530
  60.4175019  51.6115755 109.8567710  54.6769850  48.8228154 107.7622719
  53.8073159  49.1161721 107.4905307  54.9129330  49.4068599 108.4829982
  64.5541479  57.8827313 107.8452247  64.2626287  58.2457294 108.6815708
  63.9413610  57.1694321 107.6665579  65.7537161  55.4480193 100.3654817
  66.5884052  55.8869997 100.5292378  65.8896290  54.9718846  99.5463063
  62.8028667  53.0059928 106.3132305  63.2782788  53.1987574 105.5051156
  61.8794232  53.0619114 106.0675689  57.3808883  45.0407771 105.2788139
  57.8990827  45.7768798 104.9534628  57.0264016  45.3471765 106.1134898
  48.9607821  49.9012453  93.3949545  48.2677066  49.9756808  92.7389581
  48.7159573  49.1372796  93.9171062  57.6321478  41.4608054 100.7989036
  57.9123231  40.7931243 101.4249462  58.4172084  41.6537150 100.2863699
  55.4354946  60.6367048  92.3614062  54.8628913  61.2557235  91.9084534
  56.0087740  61.1866410  92.8953984  61.5030336  49.8825688 104.5460611
  62.4547759  49.9823786 104.5672835  61.3333786  49.0903956 105.0558695
  59.5244715  46.9681271 104.7320012  58.9294647  47.2486284 104.0366500
  59.2394412  47.4575172 105.5036753  58.6552206  60.9204198  93.4922644
  59.5882879  60.8549760  93.6955520  58.5675419  61.7560465  93.0337177
  61.2840222  60.2370068  90.4526592  61.2053854  59.9029932  91.3462350
  62.1049889  60.7291836  90.4518064  63.9818414  53.1031808 103.6602910
  63.9494734  52.1647808 103.8462594  64.5919037  53.1815844 102.9268735
  55.8201745  51.9727861  89.7030114  56.7660849  51.8434069  89.7718532
  55.4415989  51.2342522  90.1799543  64.1312902  49.8942851 103.7061194
  63.6151951  49.1101308 103.5191122  65.0152851  49.5661568 103.8707713
  61.7923629  43.6383867  99.6657006  61.5948450  43.3298955 100.5500338
  62.4023335  44.3645506  99.7954936  69.7994964  54.1647814 102.8008947
  70.5298352  53.9033103 103.3616650  69.1901909  53.4276536 102.8411015
  67.8810261  52.3055677 103.3983398  67.1543424  52.1711642 102.7899890
  67.4657548  52.6132506 104.2040116  55.7040437  56.0245607 111.1630771
  56.6243447  56.2024206 111.3570818  55.6690020  55.0801652 111.0110471
  54.0044662  49.8977837  89.6385000  53.0976117  49.6010950  89.7147713
  54.2820643  49.6007655  88.7719286  55.6206727  44.4414727  95.7929241
  54.8107456  44.0961812  96.1684487  56.3091144  44.1322270  96.3816852
  57.5497276  43.5192773  97.4153538  58.1028314  43.9388227  98.0743561
  57.7867362  42.5928522  97.4576494  53.5730375  49.5079847 113.1956301
  53.4727102  50.4574204 113.1268393  53.3551917  49.1798086 112.3232372
  52.7743446  46.7564772  89.7796979  53.6362610  47.0819670  90.0392796
  52.9593790  45.9696268  89.2670045  60.9276083  45.6293299  96.9232202
  60.3474752  46.2878103  96.5410254  60.6612015  44.8070643  96.5119619
  59.3779649  45.0298356  99.1253522  59.8779427  45.1414891  98.3167841
  60.0215257  44.7259409  99.7654331  53.4361645  52.9376986 112.0121363
  52.9528727  53.7377346 112.2185252  53.5222584  52.9484931 111.0588807
  49.3634982  56.8281521 104.0489797  50.3178236  56.7965463 103.9819728
  49.1647506  56.3672144 104.8640023  49.9534365  55.3982637 106.6160595
  50.7727254  55.8926715 106.6395432  50.2271172  54.4814605 106.5878162
  59.7100961  47.7893389  95.9788550  58.8226816  48.0743040  95.7608745
  60.1254950  47.6287152  95.1315827  63.0615497  47.8139910  99.6942889
  63.8375887  48.3036362  99.9667506  62.3363631  48.2397964 100.1514759
  65.4988056  48.5267529 100.7516830  66.0932546  48.2863265 100.0410138
  65.5714639  47.8074660 101.3790366  58.8544174  57.5538064  90.0736570
  59.5580024  57.7588066  90.6894226  58.1306823  58.1214826  90.3385654
  59.6841985  53.3047925  96.1938840  59.6277186  53.7616476  95.3546473
  60.2370327  52.5438610  96.0161683  63.4946790  49.0937657  97.0188960
  63.2383725  48.6934292  97.8497167  62.8699658  49.8081451  96.8939099
  67.8059128  51.8333730  99.5260251  67.2458686  51.9026919 100.2991813
  67.2002632  51.6574715  98.8059747  60.7630872  57.9920593  92.1235030
  61.5976476  57.5601791  91.9412505  60.6015215  57.8202607  93.0511925
  60.4176764  54.4952706  93.4891369  60.3625568  54.3296978  92.5479813
  59.7922819  55.2028739  93.6453559  45.2069279  49.7320771 107.3152792
  45.8528142  49.2219725 107.8040017  44.9986430  50.4689452 107.8896217
  57.7322671  56.8001618 112.8144932  58.6013831  56.9742270 112.4531567
  57.2529422  57.6196035 112.6920661  53.7272889  43.9960815  93.0676688
  53.7151559  44.9402655  93.2244959  54.6196311  43.8130961  92.7736149
  57.5425009  40.5903592  97.3222625  56.7757405  40.0362079  97.4679307
  57.9535714  40.6625461  98.1836776  49.5466770  46.8788388 111.4127806
  50.4098231  46.5225193 111.6231130  48.9732180  46.5402282 112.1003210
  69.3915147  68.5090244 102.2190207  70.0293557  68.3896991 101.5153547
  69.2735990  69.4571088 102.2778159  66.2004853  68.4617672 102.1551732
  65.8623365  68.3458737 101.2672266  67.0694621  68.0608837 102.1352738
  62.0591669  70.3153149  98.1448622  61.4956534  70.2243085  97.3764910
  61.9444064  69.4953053  98.6251115  66.6824636  69.6152524 108.1137937
  66.6713277  69.2205322 107.2418441  66.8445276  68.8818596 108.7071708
  59.6056101  71.8104340 100.9832843  60.3977393  71.4695165 100.5679142
  59.8452751  71.9199315 101.9034996  67.6391227  73.9824116  93.4563087
  66.9879207  74.5678197  93.0697101  68.4335590  74.5130311  93.5158125
  61.5646855  71.0713253  93.8550222  62.3377731  70.5242240  93.7163098
  61.9172253  71.9357503  94.0664683  63.4031897  72.3989636 107.0617121
  63.1121763  73.3035266 106.9463787  64.0388882  72.4406163 107.7761191
  64.3288104  69.7766484 103.6518481  64.9251676  69.5522507 102.9375444
  64.3863076  69.0351230 104.2543929  63.9013132  67.2305919  91.4868672
  64.1538653  66.7087441  90.7252135  62.9637692  67.0672065  91.5895355
  68.9456415  66.2341698  99.2943415  69.7319504  65.8161121  98.9433832
  69.2095120  67.1387790  99.4625063  69.1166493  71.6714548  93.9932072
  68.4812326  71.7449175  94.7052976  68.7863899  72.2608147  93.3151151
  74.3464842  66.1716931 100.1976393  75.0790014  65.6016148 100.4314223
  73.5904198  65.7838531 100.6382899  63.6209421  69.1334025  93.6893047
  63.5045679  68.4578929  94.3574131  63.7311681  68.6466399  92.8725200
  65.9640962  68.5944173  97.3939736  65.5999169  68.0674794  98.1052657
  66.8208078  68.2042642  97.2206221  71.8690263  59.8838505 104.6571002
  71.5373588  60.7533916 104.4332217  71.2735876  59.5674789 105.3365032
  65.6046449  63.6234072  92.3901084  65.7720851  64.4914309  92.7571555
  65.4143618  63.7861354  91.4662374  68.3621782  72.0851051 104.0566915
  68.0622505  72.9876090 103.9482722  68.0172842  71.8183234 104.9088068
  61.8134264  68.5364848 100.0903619  60.8884760  68.4041062 100.2981311
  62.0618677  69.3159067 100.5873562  71.7618926  64.6033591 101.7364352
  70.8535803  64.5349000 101.4423113  71.7106522  65.0805536 102.5646178
  65.5835670  66.0791730  93.3747751  65.4635295  66.5248781  94.2133231
  64.8888258  66.4277047  92.8161289  59.1743075  68.1798122 100.9247408
  59.3035456  68.4332600 101.8386820  58.4940526  68.7725830 100.6052063
  63.3442562  78.8495371  97.0237882  63.2666592  79.8003197  97.1026363
  62.7404206  78.5041244  97.6812809  65.8359792  66.0223237 109.6799249
  65.0593126  66.5817157 109.6702114  66.4750355  66.5080020 110.2014119
  73.6280572  62.8050030 103.5142226  72.9854953  63.0982563 102.8682021
  73.1235501  62.6902950 104.3195423  71.2820736  66.5513203  94.2028085
  72.1938592  66.7840590  94.0275783  70.7730383  67.1350247  93.6403164
  64.0906164  68.8308690 109.2417216  64.8320849  69.3693734 108.9652040
  63.3843150  69.4574979 109.3988768  69.5661504  70.9737831 107.8389378
  69.9744860  70.5320241 107.0944010  68.8438765  70.3990458 108.0923571
  65.9192574  65.9110438 105.2122935  66.7653769  66.3349851 105.3557584
  65.8591211  65.2544062 105.9061498  69.8890318  71.5339021 101.5941667
  69.2599181  71.6984736 100.8917735  69.5015980  71.9480631 102.3652631
  73.7679550  72.4693459  98.9486030  73.0830588  72.8492361  98.3983064
  73.8523400  73.0788786  99.6817978  69.0692019  63.5714806 106.8704108
  68.8252951  64.3256866 106.3338384  69.3451950  63.9500153 107.7051355
  71.0230482  70.1153418 105.5481374  71.2347377  70.7585178 104.8715755
  70.9760230  69.2815735 105.0803304  68.6256711  62.7271239 102.4517946
  67.7641190  63.0252492 102.7434684  68.6519146  62.9441638 101.5198979
  65.4418280  71.2713429  98.8591752  65.9056626  71.5501132  98.0696374
  65.1775078  70.3696874  98.6764842  62.3342361  70.8184911 101.7971515
  62.9043718  71.2472179 101.1589000  62.9250473  70.5367496 102.4955701
  64.3787166  67.3936582  95.6681317  65.0811210  67.8457625  96.1355243
  64.0467795  66.7520401  96.2961210  62.8267528  65.9848338 110.0432526
  62.1966188  66.6664619 110.2767923  62.7203616  65.8731420 109.0985665
  58.1212500  65.6520134 100.9698450  57.3311554  65.9077663 100.4938561
  58.6123748  66.4668472 101.0750491  72.1376310  72.9925374 103.7203731
  72.9593754  72.5905561 103.4386413  72.1338713  72.8893608 104.6719847
  60.0727246  66.0164714  97.9281927  59.2758409  66.1283408  98.4465423
  59.8452838  66.3551366  97.0622818  65.9032913  72.5409417 105.8764442
  65.9677346  73.0029824 106.7122614  65.1943837  71.9106782 106.0046752
  56.4050203  65.9050625 103.4013441  56.6558242  66.7897635 103.6671017
  56.9409752  65.7255226 102.6288533  80.2282303  69.3364122 100.0688703
  79.4746011  68.7671520  99.9132707  80.3629844  69.3026787 101.0159337
  65.6180931  74.2077524  95.7443422  65.4826606  75.0529060  96.1728270
  66.1590743  74.4096802  94.9809356  62.1048271  60.2869104 112.4057777
  61.7115216  59.7335303 113.0805422  62.9214411  60.5979683 112.7964295
  59.0710328  71.7252962  96.3171347  59.5834849  72.5196213  96.4676912
  59.7233041  71.0279253  96.2504949  60.8805213  74.8418719  98.3994100
  61.0571841  75.7636683  98.2115084  61.6762047  74.5277138  98.8288480
  65.0216232  61.7026983 109.9978034  65.7625945  62.3034137 109.9182496
  65.2534154  60.9604621 109.4396076  60.1657570  66.8883351 108.2756264
  60.0511085  65.9868608 108.5763363  59.3102087  67.1347047 107.9241080
  67.2449407  74.8301091 109.8743764  66.8013262  74.0437470 109.5564669
  67.9066621  75.0180241 109.2087655  62.0036529  76.3596893 104.4004443
  62.5543954  76.2313956 103.6281437  61.1648004  76.6591782 104.0499336
  69.3430645  75.1103891 107.9025165  69.3249121  75.9312772 107.4105435
  70.2650565  74.9857966 108.1275307  65.8003700  72.6248020 108.7448674
  66.3332036  71.8636309 108.5147982  65.2717781  72.3321672 109.4872828
  68.9673395  57.7308086 104.2742316  68.6237664  58.6209728 104.1981426
  69.3352357  57.5409744 103.4111901  57.0359245  70.0541617  97.0930918
  57.8734467  70.4638625  96.8764625  57.2137513  69.1141059  97.0631112
  68.9323677  67.7216697  92.7814751  68.4170301  68.4921302  93.0203138
  68.6600986  67.0481834  93.4047812  66.5170788  62.5666398  97.8399989
  65.6612385  62.1773249  97.6605628  66.9297740  62.6458359  96.9799775
  68.0469935  60.1012741 102.2391549  67.5434731  60.0642877 101.4259354
  68.3400542  61.0105484 102.2988206  64.2912821  60.1851471 101.2457731
  65.1565818  59.9894280 100.8863620  64.3590330  59.9561823 102.1727087
  73.9057951  70.4749052  94.7167924  73.1287394  70.1360212  94.2723086
  74.5849432  70.4801675  94.0422889  68.7209980  65.5943790  94.6074532
  68.4160116  65.9089939  95.4584675  69.6740423  65.6725209  94.6501865
  67.1656412  71.7534013  96.2567486  66.6377774  71.0186772  95.9440723
  66.6643915  72.5308689  96.0107454  72.1449258  69.9483033 101.3734532
  71.4872933  70.6382295 101.4614661  72.9489658  70.3379465 101.7168519
  61.8975140  62.4153679  98.6174097  62.4718892  62.1928861  97.8847290
  62.4846122  62.4842374  99.3702699  70.9554717  68.3027406  99.4238474
  71.4686599  68.9357398  99.9260184  71.6055941  67.7028602  99.0581834
  62.2244727  64.4458140  92.6369983  61.3882039  64.7832827  92.9579257
  62.0849497  64.3107120  91.6997120  64.1997808  59.2894928  97.3449167
  63.5462220  58.9743945  96.7205782  64.1578282  58.6670669  98.0708990
  65.3109012  69.5714223  89.2602459  64.4036074  69.3403477  89.4593608
  65.8080044  68.7751842  89.4476440  68.2177091  78.2811730  92.1799145
  67.5438790  78.5843427  92.7884103  68.6042913  79.0840811  91.8304602
  67.4335548  65.7776862 101.6696814  66.5158109  65.9991809 101.5118503
  67.8495692  65.8523172 100.8108522  68.2170596  67.1768277  96.7999495
  68.9642415  67.6889674  96.4906617  68.4862185  66.8552330  97.6603888
  66.4897246  69.6726818  93.7826449  65.5808465  69.3885851  93.8798919
  66.5192330  70.0925897  92.9229756  71.7216513  73.2833407  97.5517617
  71.2678840  72.4424317  97.6082807  71.0910480  73.9194806  97.8892397
  70.6649433  64.2125394  98.7818284  69.9272190  63.7002780  99.1128527
  70.9176206  63.7725775  97.9701561  70.1649453  75.1209904  98.4867435
  70.4572427  75.6814961  97.7679800  70.6748073  75.4138465  99.2420594
  70.7661060  56.9901646  99.3760053  71.0719937  56.1299009  99.0885968
  71.4913665  57.5819266  99.1759047  57.0585416  67.3932332  97.7641651
  56.8609816  66.8001693  97.0392718  56.5032080  67.0884542  98.4817590
  65.0382140  67.2855439  99.8836244  65.0930750  66.3329275  99.8078721
  64.2273342  67.4414878 100.3677543  66.1873334  71.2135562  91.1214528
  65.7492764  70.4971421  90.6620165  66.9283775  71.4411676  90.5599619
  62.9774500  65.9032498  97.6426623  62.1642365  66.2026669  98.0491815
  63.4733494  65.5088187  98.3601105  65.1283078  75.8990255  99.5760888
  65.0859257  76.1251102  98.6469420  66.0445777  75.6653630  99.7246689
  68.5748712  66.3674323 106.4741517  68.9298099  66.5945796 107.3335983
  69.2220843  66.6992700 105.8518772  74.3046448  69.4892759  97.1790846
  74.1664347  69.6794355  96.2512035  73.9482667  70.2512142  97.6358897
  62.4688575  63.4750854 103.2587858  63.1087954  63.3339613 102.5610821
  61.6366105  63.1885367 102.8826460  74.3315828  71.5569286 102.1902118
  74.7652335  71.4644575 103.0385172  75.0447409  71.5326786 101.5522134
  63.2448879  72.7753284  99.3722851  64.0389477  72.2803604  99.1705426
  62.5340571  72.2471147  99.0090556  68.0643723  75.1571380 103.7235218
  68.1180745  75.7262316 104.4912934  67.1958504  75.3273265 103.3589255
  59.5531642  66.9196366  95.4482603  58.6229230  66.8580822  95.6652565
  59.6489114  66.3972319  94.6519245  59.4717191  63.4451179  98.0360845
  59.7324008  64.3596512  97.9270005  60.2934363  62.9775621  98.1857458
  60.9442116  64.8588936 105.2059669  61.6165170  64.6506298 104.5572318
  60.1171903  64.6611022 104.7664902  75.1931378  71.5992986 104.7235003
  75.3867268  72.5038797 104.9694278  75.0931996  71.1400405 105.5573588
  66.8467688  61.4850877 107.2225330  66.1995603  62.1840827 107.1289807
  67.6168704  61.9187021 107.5901579  70.2546486  71.7499729 110.2975884
  70.1031993  71.5210281 109.3805967  70.2451166  72.7070331 110.3107229
  67.0231823  69.3231642 105.2822150  67.9523883  69.4742801 105.1091117
  66.6022853  69.4115663 104.4270797  65.8220155  73.3482306 103.0520688
  65.6831240  72.9801091 103.9246626  65.0334751  73.8629946 102.8804646
  66.4168306  78.4491403  94.3946224  66.5920062  77.9779446  95.2091847
  65.7301095  79.0757169  94.6227485  67.3725370  72.7263909 100.4409525
  67.0375202  72.6864679 101.3367175  66.8729315  72.0608625  99.9679936
  61.3469614  68.1331539 105.9662107  61.2089412  67.4011778 106.5673646
  62.2574537  68.0440439 105.6846294  70.3084561  70.0719943  90.7146585
  69.6913732  69.3466771  90.6179638  69.8401050  70.8329304  90.3713659
  63.9751914  67.8451498 105.4545786  64.6851533  67.2044691 105.4132405
  63.9321222  68.0964393 106.3771967  71.9638693  74.7818852 108.3752366
  71.9051239  74.0978072 107.7082949  72.3658211  75.5237842 107.9232991
  62.6880848  64.8316716 107.2741426  62.1518205  64.3807455 107.9263022
  62.0997557  64.9662625 106.5311890  60.9829392  81.5980765 101.1686084
  61.2225990  82.2299290 101.8465103  60.1398588  81.2468806 101.4551444
  62.0983107  64.2905368  89.8367889  61.2212574  64.1694168  89.4730136
  62.5740860  63.4991446  89.5846778  71.9656100  72.7458436 106.6066345
  71.0782879  72.4084357 106.7292744  72.5354651  72.0141467 106.8435111
  53.6185247  69.0782527  99.9309397  54.3056287  68.7644257  99.3430412
  53.4633376  69.9823892  99.6576648  58.4219969  63.9672724 104.3594420
  58.3378158  63.3598393 103.6244830  57.6002676  64.4581742 104.3603917
  65.4957254  77.4059888 103.5727588  65.4227425  78.2114859 104.0846893
  65.0534647  77.6051854 102.7475610  65.2847033  76.6431658  97.0830410
  64.5014555  77.1853338  97.1768634  65.9839778  77.1605638  97.4824651
  68.5943683  62.4526287  99.7264615  69.0912383  61.6996250  99.4065686
  67.8230665  62.4890604  99.1607825  76.4473441  68.1566653 101.3682907
  76.4363317  69.0391368 100.9976840  75.5790820  67.8038204 101.1737444
  67.9555937  77.3046722 105.7285747  68.6683909  77.9394187 105.6561649
  67.4645966  77.4010588 104.9125749  69.6773464  71.2097975  97.3003039
  68.7429743  71.3299437  97.1307743  69.8550133  70.3070441  97.0363049
  65.1778652  64.5943670  99.4536300  64.8076440  64.0414711 100.1417205
  65.6737745  63.9901804  98.9011300  73.0646015  67.0515294  97.8353073
  73.5306468  67.8843286  97.7613376  73.5153516  66.5860276  98.5398331
  63.0067851  75.0541165 106.5491318  63.7077310  75.6877648 106.7020712
  62.5362966  75.3955897 105.7886957  71.1322247  73.3959115  94.8339225
  71.4082090  73.2815710  95.7433099  70.2626745  72.9976600  94.7951398
  71.0362678  59.4195881 101.8743974  70.1225758  59.6500108 102.0426181
  71.4655780  59.5034325 102.7258007  70.8069137  67.6085773 104.3743868
  70.1540587  67.8561680 103.7196321  71.1849517  66.7949911 104.0406346
  67.7676311  77.6445466  98.4772039  67.9498705  76.8267122  98.9399791
  68.5909297  77.8613158  98.0396929  68.1018476  76.5713651  95.7387087
  68.6306242  76.0606106  95.1257249  68.3646696  76.2556181  96.6032620
  66.8556710  68.3505584 110.8609905  66.1797347  68.2499713 111.5312281
  67.6784344  68.1944798 111.3245903  58.6035569  74.5877520 103.4822421
  59.1889006  73.8421208 103.6150325  58.4060407  74.8981477 104.3659084
  61.4574224  77.6228768  98.4984863  60.7884599  78.1074896  98.0148903
  61.3187094  77.8697988  99.4128241  53.1953223  67.1583121 102.2026864
  53.2337323  66.6246711 102.9963982  52.6893516  66.6318326 101.5837841
  65.5979493  79.6572511 105.0967521  66.1497801  79.8204133 105.8616607
  65.9385686  80.2476949 104.4247546  60.5743986  62.0047661 105.6989406
  60.6385312  62.8662492 105.2866804  60.5111106  61.3921663 104.9661765
  60.0496258  64.0770794 109.3462440  60.6768297  63.6947871 109.9599965
  59.1924177  63.8584996 109.7118133  70.4490367  74.4833769 110.9516176
  70.9930271  75.0963727 110.4571131  69.8677212  75.0413347 111.4683189
  56.8261801  65.8847223  95.2780795  57.1215242  64.9757901  95.2247849
  55.9249837  65.8634962  94.9561797  68.7347880  77.6054487 102.0831203
  68.6099019  76.8044227 101.5742149  69.3926971  78.1000680 101.5945173
  60.3556048  63.9603219 101.2608344  59.6342634  64.5739187 101.1215817
  61.1449304  64.4960984 101.1824990  70.7982788  75.4063507 103.7110754
  69.8513124  75.2868858 103.6389080  71.1465561  74.5186005 103.7937015
  63.1582362  61.2957646 107.5348995  63.6816763  61.5419942 108.2975305
  62.9394695  62.1277681 107.1152133  58.5549643  63.5661321  95.4020120
  58.2262349  62.6858699  95.2195226  58.9089013  63.5108989  96.2896509
  67.8029222  75.2016223  99.9115106  67.6554184  74.2732931 100.0922676
  68.6282715  75.2236314  99.4272181  61.6691466  63.8534290  95.7695598
  62.0087538  64.3820212  95.0474206  62.1163586  64.1914696  96.5454164
  71.4063343  76.0244782 100.9979979  72.3309891  75.8187643 100.8604430
  71.2378647  75.7761183 101.9069320  64.3634907  62.2371341 105.2198666
  64.0231727  61.4379154 105.6219346  63.6573913  62.5373052 104.6475499
  65.0151378  59.3220653 103.6725989  65.8377448  58.8481132 103.5504879
  65.2589442  60.1011137 104.1724675  63.6559613  62.3508912  93.9688891
  64.3767975  62.7290165  93.4652608  63.0324917  63.0697789  94.0723869
  67.7990736  63.0554061  94.9047223  68.0154350  63.9378699  94.6036051
  67.3184803  62.6640274  94.1752865  62.5389957  66.0139774 101.4817968
  62.3934538  66.3280077 102.3742249  62.0615161  66.6324674 100.9288866
  64.3986340  63.0042322 101.5298857  64.3847909  62.1083415 101.1931155
  65.1158768  63.0112986 102.1637143  66.2512471  63.4379662 103.5751985
  65.9930249  64.3596733 103.5736315  65.7197511  63.0410097 104.2652449
  71.1958660  76.5430449  96.3542070  71.3695537  75.9776872  95.6015922
  71.6887551  77.3431344  96.1721560  57.0135619  68.5545118 104.4205629
  56.4689087  69.3304926 104.5525903  57.8914969  68.9015923 104.2624750
  63.8023236  61.8856702  96.7986427  63.9239147  60.9573349  96.9977315
  63.5125278  61.8995388  95.8864743  66.6714426  59.5711613  99.9353147
  66.6936123  59.6350946  98.9805127  67.0882485  58.7316121 100.1293653
  77.0498051  69.3066872  97.9732370  77.4929197  68.5574198  97.5751493
  76.1724561  69.2977009  97.5906102  72.1833832  75.8597214  93.4538968
  72.8784737  76.4803906  93.6726283  72.5256982  75.0092565  93.7291346
  57.8001641  67.6815015 107.3135786  57.0583377  67.8297650 107.9000416
  57.4794386  67.9423280 106.4502535  74.0825255  73.3096919  94.9826299
  74.6076579  73.6484192  94.2575619  73.9947608  72.3743935  94.7989434
  65.7445304  77.2230993 107.1116176  66.0532430  76.9780140 107.9838875
  66.5420786  77.4277631 106.6235046  65.7665916  79.3768903  99.3421552
  65.3270906  78.8845281 100.0354409  66.5174033  78.8341870  99.1013627
  58.2458255  75.5680443  99.3446180  59.0716275  75.2684215  98.9644824
  57.8952307  74.7988066  99.7935969  63.2139788  74.9206912 101.4143854
  62.5919797  74.2577617 101.1146082  63.8844655  74.9468044 100.7317502
  56.4466860  73.4866770 100.3035114  55.6098768  73.0588944 100.1219115
  56.4190505  73.6799213 101.2405905  63.2864316  63.3988700 111.0076360
  63.3352471  64.2750823 110.6254130  63.8286830  62.8566093 110.4348003
  73.7719161  73.9429823 110.2877497  72.9814705  73.9253962 109.7481996
  73.5352516  74.4818117 111.0426534  73.8917036  70.7922289 107.6010226
  73.9415041  70.6272297 108.5425748  73.7830960  69.9249548 107.2108106
  62.7753295  73.4710835  94.8902314  62.9241415  74.1546299  94.2368987
  63.5819738  73.4515925  95.4051770  71.1820799  66.7753217 108.9169532
  72.0830661  66.6359682 108.6253530  71.2568773  66.9407672 109.8567710
  65.5163604  64.1520072 107.7622719  64.6466913  64.4453638 107.4905307
  65.7523084  64.7360517 108.4829982  75.3935233  73.2119231 107.8452247
  75.1020041  73.5749211 108.6815708  74.7807364  72.4986239 107.6665579
  76.5930915  70.7772111 100.3654817  77.4277807  71.2161915 100.5292378
  76.7290044  70.3010764  99.5463063  73.6422421  68.3351845 106.3132305
  74.1176543  68.5279492 105.5051156  72.7187987  68.3911031 106.0675689
  60.5305928  69.4976013  95.8963383  60.2851970  68.5938343  96.0943593
  60.7001843  69.4993163  94.9542861  68.2202638  60.3699689 105.2788139
  68.7384582  61.1060716 104.9534628  67.8657771  60.6763682 106.1134898
  59.8001575  65.2304370  93.3949545  59.1070820  65.3048725  92.7389581
  59.5553327  64.4664714  93.9171062  68.4715232  56.7899972 100.7989036
  68.7516986  56.1223161 101.4249462  69.2565839  56.9829067 100.2863699
  66.2748701  75.9658965  92.3614062  65.7022668  76.5849153  91.9084534
  66.8481494  76.5158327  92.8953984  72.3424090  65.2117606 104.5460611
  73.2941513  65.3115703 104.5672835  72.1727541  64.4195874 105.0558695
  70.3638470  62.2973189 104.7320012  69.7688402  62.5778202 104.0366500
  70.0788167  62.7867090 105.5036753  69.4945960  76.2496116  93.4922644
  70.4276633  76.1841677  93.6955520  69.4069173  77.0852382  93.0337177
  72.1233977  75.5661986  90.4526592  72.0447608  75.2321850  91.3462350
  72.9443644  76.0583754  90.4518064  74.8212168  68.4323725 103.6602910
  74.7888488  67.4939726 103.8462594  75.4312792  68.5107762 102.9268735
  66.6595499  67.3019778  89.7030114  67.6054604  67.1725986  89.7718532
  66.2809744  66.5634440  90.1799543  74.9706657  65.2234769 103.7061194
  74.4545705  64.4393225 103.5191122  75.8546605  64.8953485 103.8707713
  72.6317384  58.9675784  99.6657006  72.4342205  58.6590872 100.5500338
  73.2417089  59.6937423  99.7954936  80.6388718  69.4939732 102.8008947
  81.3692106  69.2325020 103.3616650  80.0295663  68.7568454 102.8411015
  78.7204015  67.6347595 103.3983398  77.9937179  67.5003560 102.7899890
  78.3051302  67.9424423 104.2040116  66.5434192  71.3537524 111.1630771
  67.4637201  71.5316123 111.3570818  66.5083775  70.4093570 111.0110471
  64.8438416  65.2269755  89.6385000  63.9369872  64.9302867  89.7147713
  65.1214397  64.9299573  88.7719286  55.7616357  66.5476118 100.0884046
  55.4419141  65.6941426  99.7958420  55.2149785  66.7624696 100.8442013
  59.5396264  69.2638559 103.8053552  59.7582274  70.1955667 103.8241586
  59.9522038  68.9046533 104.5908356  66.4600482  59.7706644  95.7929241
  65.6501210  59.4253729  96.1684487  67.1484899  59.4614188  96.3816852
  68.3891030  58.8484691  97.4153538  68.9422069  59.2680145  98.0743561
  68.6261117  57.9220439  97.4576494  64.4124129  64.8371765 113.1956301
  64.3120856  65.7866122 113.1268393  64.1945671  64.5090004 112.3232372
  63.6137201  62.0856690  89.7796979  64.4756365  62.4111588  90.0392796
  63.7987545  61.2988186  89.2670045  55.6304617  70.1679030 102.0577168
  54.9368088  69.7532982 101.5447122  56.3777608  70.2099566 101.4610586
  71.7669837  60.9585216  96.9232202  71.1868506  61.6170020  96.5410254
  71.5005770  60.1362561  96.5119619  70.2173404  60.3590274  99.1253522
  70.7173182  60.4706809  98.3167841  70.8609012  60.0551327  99.7654331
  64.2755399  68.2668904 112.0121363  63.7922481  69.0669264 112.2185252
  64.3616339  68.2776849 111.0588807  57.5441359  70.0997283  99.9343182
  57.5212047  70.1984971  98.9825066  57.8541996  70.9462434 100.2560349
  60.2028737  72.1573438 104.0489797  61.1571990  72.1257381 103.9819728
  60.0041261  71.6964062 104.8640023  60.7928119  70.7274554 106.6160595
  61.6121008  71.2218633 106.6395432  61.0664927  69.8106523 106.5878162
  70.5494715  63.1185307  95.9788550  69.6620570  63.4034957  95.7608745
  70.9648704  62.9579070  95.1315827  73.9009251  63.1431828  99.6942889
  74.6769642  63.6328280  99.9667506  73.1757386  63.5689882 100.1514759
  76.3381810  63.8559447 100.7516830  76.9326301  63.6155183 100.0410138
  76.4108394  63.1366577 101.3790366  58.5578966  77.6993058 101.0659995
  58.4233434  76.9393459 100.4997993  58.1411028  78.4233958 100.5988784
  69.6937929  72.8829981  90.0736570  70.3973779  73.0879984  90.6894226
  68.9700578  73.4506743  90.3385654  70.5235739  68.6339843  96.1938840
  70.4670940  69.0908394  95.3546473  71.0764081  67.8730527  96.0161683
  74.3340545  64.4229574  97.0188960  74.0777479  64.0226210  97.8497167
  73.7093413  65.1373368  96.8939099  78.6452883  67.1625648  99.5260251
  78.0852441  67.2318837 100.2991813  78.0396386  66.9866632  98.8059747
  61.7148092  78.5962375 101.2778437  61.5980476  79.5407807 101.1757128
  60.8940538  78.2935936 101.6664237  71.6024626  73.3212511  92.1235030
  72.4370230  72.8893709  91.9412505  71.4408969  73.1494524  93.0511925
  71.2570518  69.8244624  93.4891369  71.2019322  69.6588895  92.5479813
  70.6316574  70.5320657  93.6453559  56.0463033  65.0612688 107.3152792
  56.6921897  64.5511642 107.8040017  55.8380184  65.7981370 107.8896217
  68.5716426  72.1293536 112.8144932  69.4407585  72.3034188 112.4531567
  68.0923177  72.9487953 112.6920661  64.5666644  59.3252733  93.0676688
  64.5545314  60.2694573  93.2244959  65.4590066  59.1422878  92.7736149
  62.7402606  79.2490637 104.4934366  63.6429852  79.2814247 104.8100861
  62.5139976  78.3191088 104.5080702  64.4956208  78.0021623 101.1544444
  63.5451839  78.0023485 101.0408817  64.7988694  77.2554358 100.6380479
  68.3818763  55.9195510  97.3222625  67.6151159  55.3653996  97.4679307
  68.7929468  55.9917378  98.1836776  60.3860524  62.2080305 111.4127806
  61.2491986  61.8517110 111.6231130  59.8125935  61.8694200 112.1003210
  80.2308901  83.8382162 102.2190207  80.8687311  83.7188909 101.5153547
  80.1129744  84.7863006 102.2778159  77.0398608  83.7909590 102.1551732
  76.7017119  83.6750654 101.2672266  77.9088376  83.3900755 102.1352738
  72.8985423  85.6445066  98.1448622  72.3350288  85.5535003  97.3764910
  72.7837818  84.8244971  98.6251115  77.5218391  84.9444442 108.1137937
  77.5107031  84.5497240 107.2418441  77.6839030  84.2110514 108.7071708
  70.4449855  87.1396258 100.9832843  71.2371147  86.7987082 100.5679142
  70.6846505  87.2491233 101.9034996  78.4784982  89.3116034  93.4563087
  77.8272962  89.8970114  93.0697101  79.2729345  89.8422229  93.5158125
  72.4040609  86.4005171  93.8550222  73.1771485  85.8534158  93.7163098
  72.7566008  87.2649420  94.0664683  74.2425652  87.7281553 107.0617121
  73.9515518  88.6327184 106.9463787  74.8782636  87.7698081 107.7761191
  75.1681859  85.1058402 103.6518481  75.7645431  84.8814424 102.9375444
  75.2256830  84.3643147 104.2543929  74.7406887  82.5597837  91.4868672
  74.9932408  82.0379358  90.7252135  73.8031446  82.3963983  91.5895355
  79.7850170  81.5633616  99.2943415  80.5713259  81.1453039  98.9433832
  80.0488874  82.4679708  99.4625063  79.9560247  87.0006466  93.9932072
  79.3206080  87.0741092  94.7052976  79.6257653  87.5900065  93.3151151
  85.1858597  81.5008849 100.1976393  85.9183769  80.9308066 100.4314223
  84.4297953  81.1130449 100.6382899  74.4603176  84.4625943  93.6893047
  74.3439434  83.7870847  94.3574131  74.5705436  83.9758317  92.8725200
  76.8034717  83.9236090  97.3939736  76.4392924  83.3966711  98.1052657
  77.6601832  83.5334559  97.2206221  82.7084017  75.2130423 104.6571002
  82.3767342  76.0825834 104.4332217  82.1129631  74.8966707 105.3365032
  76.4440204  78.9525990  92.3901084  76.6114606  79.8206226  92.7571555
  76.2537373  79.1153272  91.4662374  79.2015537  87.4142969 104.0566915
  78.9016260  88.3168008 103.9482722  78.8566596  87.1475152 104.9088068
  72.6528018  83.8656766 100.0903619  71.7278515  83.7332980 100.2981311
  72.9012431  84.6450985 100.5873562  82.6012681  79.9325509 101.7364352
  81.6929558  79.8640917 101.4423113  82.5500276  80.4097454 102.5646178
  76.4229424  81.4083647  93.3747751  76.3029050  81.8540698  94.2133231
  75.7282013  81.7568965  92.8161289  70.0136829  83.5090039 100.9247408
  70.1429210  83.7624518 101.8386820  69.3334281  84.1017747 100.6052063
  74.1836317  94.1787289  97.0237882  74.1060346  95.1295114  97.1026363
  73.5797960  93.8333162  97.6812809  76.6753546  81.3515155 109.6799249
  75.8986880  81.9109075 109.6702114  77.3144109  81.8371938 110.2014119
  84.4674327  78.1341947 103.5142226  83.8248707  78.4274481 102.8682021
  83.9629255  78.0194868 104.3195423  82.1214491  81.8805121  94.2028085
  83.0332347  82.1132507  94.0275783  81.6124138  82.4642165  93.6403164
  74.9299919  84.1600608 109.2417216  75.6714603  84.6985652 108.9652040
  74.2236904  84.7866897 109.3988768  80.4055258  86.3029748 107.8389378
  80.8138614  85.8612159 107.0944010  79.6832520  85.7282376 108.0923571
  76.7586328  81.2402355 105.2122935  77.6047524  81.6641769 105.3557584
  76.6984966  80.5835980 105.9061498  80.7284073  86.8630939 101.5941667
  80.0992935  87.0276653 100.8917735  80.3409735  87.2772549 102.3652631
  84.6073305  87.7985377  98.9486030  83.9224343  88.1784278  98.3983064
  84.6917154  88.4080704  99.6817978  79.9085774  78.9006724 106.8704108
  79.6646706  79.6548784 106.3338384  80.1845704  79.2792071 107.7051355
  81.8624236  85.4445336 105.5481374  82.0741132  86.0877096 104.8715755
  81.8153985  84.6107652 105.0803304  79.4650465  78.0563157 102.4517946
  78.6034944  78.3544410 102.7434684  79.4912900  78.2733555 101.5198979
  76.2812035  86.6005347  98.8591752  76.7450380  86.8793050  98.0696374
  76.0168833  85.6988792  98.6764842  73.1736116  86.1476829 101.7971515
  73.7437473  86.5764097 101.1589000  73.7644228  85.8659413 102.4955701
  75.2180921  82.7228500  95.6681317  75.9204964  83.1749543  96.1355243
  74.8861549  82.0812318  96.2961210  73.6661282  81.3140256 110.0432526
  73.0359943  81.9956537 110.2767923  73.5597370  81.2023338 109.0985665
  68.9606255  80.9812052 100.9698450  68.1705309  81.2369581 100.4938561
  69.4517502  81.7960390 101.0750491  82.9770064  88.3217291 103.7203731
  83.7987508  87.9197479 103.4386413  82.9732467  88.2185526 104.6719847
  70.9121000  81.3456631  97.9281927  70.1152163  81.4575326  98.4465423
  70.6846592  81.6843284  97.0622818  76.7426668  87.8701335 105.8764442
  76.8071100  88.3321742 106.7122614  76.0337592  87.2398700 106.0046752
  67.2443958  81.2342543 103.4013441  67.4951996  82.1189553 103.6671017
  67.7803506  81.0547144 102.6288533  91.0676057  84.6656040 100.0688703
  90.3139766  84.0963438  99.9132707  91.2023599  84.6318704 101.0159337
  76.4574685  89.5369442  95.7443422  76.3220360  90.3820978  96.1728270
  76.9984498  89.7388720  94.9809356  72.9442025  75.6161022 112.4057777
  72.5508971  75.0627221 113.0805422  73.7608165  75.9271600 112.7964295
  69.9104083  87.0544880  96.3171347  70.4228603  87.8488130  96.4676912
  70.5626796  86.3571171  96.2504949  71.7198968  90.1710636  98.3994100
  71.8965596  91.0928601  98.2115084  72.5155801  89.8569056  98.8288480
  75.8609986  77.0318901 109.9978034  76.6019699  77.6326054 109.9182496
  76.0927909  76.2896539 109.4396076  71.0051324  82.2175268 108.2756264
  70.8904839  81.3160526 108.5763363  70.1495842  82.4638965 107.9241080
  78.0843162  90.1593009 109.8743764  77.6407016  89.3729387 109.5564669
  78.7460375  90.3472159 109.2087655  72.8430283  91.6888810 104.4004443
  73.3937708  91.5605874 103.6281437  72.0041759  91.9883699 104.0499336
  80.1824400  90.4395809 107.9025165  80.1642875  91.2604690 107.4105435
  81.1044320  90.3149884 108.1275307  76.6397454  87.9539938 108.7448674
  77.1725791  87.1928226 108.5147982  76.1111535  87.6613590 109.4872828
  79.8067149  73.0600004 104.2742316  79.4631418  73.9501646 104.1981426
  80.1746112  72.8701662 103.4111901  67.8753000  85.3833534  97.0930918
  68.7128222  85.7930543  96.8764625  68.0531267  84.4432977  97.0631112
  79.7717432  83.0508615  92.7814751  79.2564055  83.8213220  93.0203138
  79.4994740  82.3773751  93.4047812  77.3564543  77.8958316  97.8399989
  76.5006139  77.5065166  97.6605628  77.7691495  77.9750277  96.9799775
  78.8863689  75.4304659 102.2391549  78.3828485  75.3934794 101.4259354
  79.1794296  76.3397402 102.2988206  75.1306575  75.5143389 101.2457731
  75.9959572  75.3186198 100.8863620  75.1984084  75.2853741 102.1727087
  84.7451706  85.8040970  94.7167924  83.9681149  85.4652129  94.2723086
  85.4243187  85.8093593  94.0422889  79.5603735  80.9235707  94.6074532
  79.2553870  81.2381856  95.4584675  80.5134177  81.0017127  94.6501865
  78.0050167  87.0825931  96.2567486  77.4771528  86.3478690  95.9440723
  77.5037669  87.8600607  96.0107454  82.9843013  85.2774951 101.3734532
  82.3266687  85.9674212 101.4614661  83.7883412  85.6671383 101.7168519
  72.7368894  77.7445597  98.6174097  73.3112646  77.5220778  97.8847290
  73.3239877  77.8134291  99.3702699  81.7948472  83.6319324  99.4238474
  82.3080353  84.2649316  99.9260184  82.4449695  83.0320519  99.0581834
  73.0638481  79.7750058  92.6369983  72.2275794  80.1124744  92.9579257
  72.9243251  79.6399038  91.6997120  75.0391562  74.6186846  97.3449167
  74.3855974  74.3035863  96.7205782  74.9972036  73.9962586  98.0708990
  76.1502767  84.9006141  89.2602459  75.2429829  84.6695394  89.4593608
  76.6473799  84.1043760  89.4476440  79.0570846  93.6103648  92.1799145
  78.3832545  93.9135345  92.7884103  79.4436668  94.4132728  91.8304602
  78.2729302  81.1068779 101.6696814  77.3551864  81.3283726 101.5118503
  78.6889446  81.1815090 100.8108522  79.0564350  82.5060195  96.7999495
  79.8036169  83.0181592  96.4906617  79.3255940  82.1844248  97.6603888
  77.3291000  85.0018736  93.7826449  76.4202220  84.7177768  93.8798919
  77.3586084  85.4217814  92.9229756  82.5610268  88.6125325  97.5517617
  82.1072595  87.7716235  97.6082807  81.9304235  89.2486724  97.8892397
  81.5043187  79.5417311  98.7818284  80.7665944  79.0294697  99.1128527
  81.7569961  79.1017693  97.9701561  81.0043207  90.4501822  98.4867435
  81.2966181  91.0106879  97.7679800  81.5141828  90.7430383  99.2420594
  81.6054815  72.3193563  99.3760053  81.9113691  71.4590927  99.0885968
  82.3307419  72.9111183  99.1759047  67.8979171  82.7224250  97.7641651
  67.7003571  82.1293610  97.0392718  67.3425835  82.4176460  98.4817590
  75.8775894  82.6147356  99.8836244  75.9324504  81.6621193  99.8078721
  75.0667096  82.7706795 100.3677543  77.0267088  86.5427479  91.1214528
  76.5886518  85.8263338  90.6620165  77.7677529  86.7703594  90.5599619
  73.8168254  81.2324416  97.6426623  73.0036120  81.5318587  98.0491815
  74.3127249  80.8380105  98.3601105  75.9676832  91.2282173  99.5760888
  75.9253011  91.4543019  98.6469420  76.8839531  90.9945548  99.7246689
  79.4142466  81.6966240 106.4741517  79.7691854  81.9237714 107.3335983
  80.0614597  82.0284617 105.8518772  85.1440203  84.8184676  97.1790846
  85.0058102  85.0086272  96.2512035  84.7876422  85.5804059  97.6358897
  73.3082329  78.8042772 103.2587858  73.9481708  78.6631531 102.5610821
  72.4759860  78.5177285 102.8826460  85.1709583  86.8861203 102.1902118
  85.6046089  86.7936492 103.0385172  85.8841163  86.8618704 101.5522134
  74.0842633  88.1045202  99.3722851  74.8783232  87.6095522  99.1705426
  73.3734325  87.5763065  99.0090556  78.9037477  90.4863297 103.7235218
  78.9574500  91.0554234 104.4912934  78.0352259  90.6565183 103.3589255
  70.3925396  82.2488284  95.4482603  69.4622985  82.1872739  95.6652565
  70.4882868  81.7264236  94.6519245  70.3110946  78.7743097  98.0360845
  70.5717763  79.6888430  97.9270005  71.1328118  78.3067539  98.1857458
  71.7835871  80.1880854 105.2059669  72.4558924  79.9798216 104.5572318
  70.9565657  79.9902940 104.7664902  86.0325132  86.9284904 104.7235003
  86.2261022  87.8330715 104.9694278  85.9325750  86.4692323 105.5573588
  77.6861443  76.8142795 107.2225330  77.0389358  77.5132744 107.1289807
  78.4562458  77.2478939 107.5901579  81.0940241  87.0791647 110.2975884
  80.9425747  86.8502198 109.3805967  81.0844920  88.0362248 110.3107229
  77.8625577  84.6523560 105.2822150  78.7917637  84.8034719 105.1091117
  77.4416607  84.7407580 104.4270797  76.6613909  88.6774224 103.0520688
  76.5224995  88.3093008 103.9246626  75.8728505  89.1921863 102.8804646
  77.2562061  93.7783320  94.3946224  77.4313817  93.3071364  95.2091847
  76.5694849  94.4049087  94.6227485  78.2119124  88.0555827 100.4409525
  77.8768957  88.0156597 101.3367175  77.7123070  87.3900543  99.9679936
  72.1863368  83.4623457 105.9662107  72.0483166  82.7303695 106.5673646
  73.0968292  83.3732357 105.6846294  81.1478316  85.4011861  90.7146585
  80.5307486  84.6758689  90.6179638  80.6794804  86.1621221  90.3713659
  74.8145669  83.1743416 105.4545786  75.5245287  82.5336608 105.4132405
  74.7714977  83.4256311 106.3771967  82.8032447  90.1110769 108.3752366
  82.7444994  89.4269989 107.7082949  83.2051966  90.8529759 107.9232991
  73.5274603  80.1608634 107.2741426  72.9911960  79.7099372 107.9263022
  72.9391311  80.2954543 106.5311890  71.8223146  96.9272683 101.1686084
  72.0619744  97.5591207 101.8465103  70.9792343  96.5760723 101.4551444
  72.9376862  79.6197285  89.8367889  72.0606328  79.4986086  89.4730136
  73.4134615  78.8283364  89.5846778  82.8049855  88.0750353 106.6066345
  81.9176633  87.7376275 106.7292744  83.3748406  87.3433384 106.8435111
  64.4579002  84.4074445  99.9309397  65.1450042  84.0936175  99.3430412
  64.3027131  85.3115810  99.6576648  69.2613724  79.2964642 104.3594420
  69.1771913  78.6890311 103.6244830  68.4396430  79.7873660 104.3603917
  76.3351008  92.7351806 103.5727588  76.2621180  93.5406777 104.0846893
  75.8928401  92.9343771 102.7475610  76.1240788  91.9723576  97.0830410
  75.3408310  92.5145256  97.1768634  76.8233533  92.4897555  97.4824651
  79.4337438  77.7818205  99.7264615  79.9306137  77.0288167  99.4065686
  78.6624419  77.8182522  99.1607825  87.2867195  83.4858571 101.3682907
  87.2757072  84.3683286 100.9976840  86.4184575  83.1330121 101.1737444
  78.7949692  92.6338640 105.7285747  79.5077664  93.2686104 105.6561649
  78.3039720  92.7302506 104.9125749  80.5167219  86.5389892  97.3003039
  79.5823497  86.6591355  97.1307743  80.6943887  85.6362359  97.0363049
  76.0172407  79.9235588  99.4536300  75.6470194  79.3706628 100.1417205
  76.5131499  79.3193722  98.9011300  83.9039770  82.3807212  97.8353073
  84.3700222  83.2135203  97.7613376  84.3547270  81.9152193  98.5398331
  73.8461605  90.3833083 106.5491318  74.5471065  91.0169566 106.7020712
  73.3756720  90.7247815 105.7886957  81.9716001  88.7251033  94.8339225
  82.2475845  88.6107627  95.7433099  81.1020500  88.3268518  94.7951398
  81.8756433  74.7487799 101.8743974  80.9619512  74.9792025 102.0426181
  82.3049534  74.8326243 102.7258007  81.6462891  82.9377691 104.3743868
  80.9934341  83.1853598 103.7196321  82.0243271  82.1241829 104.0406346
  78.6070065  92.9737384  98.4772039  78.7892460  92.1559040  98.9399791
  79.4303051  93.1905076  98.0396929  78.9412231  91.9005569  95.7387087
  79.4699997  91.3898023  95.1257249  79.2040450  91.5848099  96.6032620
  77.6950464  83.6797502 110.8609905  77.0191101  83.5791631 111.5312281
  78.5178098  83.5236715 111.3245903  69.4429323  89.9169438 103.4822421
  70.0282760  89.1713126 103.6150325  69.2454162  90.2273395 104.3659084
  72.2967978  92.9520686  98.4984863  71.6278354  93.4366813  98.0148903
  72.1580848  93.1989906  99.4128241  64.0346978  82.4875038 102.2026864
  64.0731077  81.9538629 102.9963982  63.5287271  81.9610244 101.5837841
  76.4373247  94.9864429 105.0967521  76.9891555  95.1496051 105.8616607
  76.7779441  95.5768867 104.4247546  71.4137740  77.3339579 105.6989406
  71.4779067  78.1954410 105.2866804  71.3504861  76.7213581 104.9661765
  70.8890013  79.4062711 109.3462440  71.5162052  79.0239789 109.9599965
  70.0317932  79.1876913 109.7118133  67.6655556  81.2139141  95.2780795
  67.9608997  80.3049819  95.2247849  66.7643591  81.1926880  94.9561797
  79.5741634  92.9346405 102.0831203  79.4492774  92.1336144 101.5742149
  80.2320725  93.4292598 101.5945173  71.1949803  79.2895137 101.2608344
  70.4736388  79.9031105 101.1215817  71.9843058  79.8252902 101.1824990
  81.6376543  90.7355425 103.7110754  80.6906878  90.6160776 103.6389080
  81.9859316  89.8477923 103.7937015  73.9976116  76.6249564 107.5348995
  74.5210518  76.8711860 108.2975305  73.7788449  77.4569598 107.1152133
  69.3943397  78.8953238  95.4020120  69.0656103  78.0150617  95.2195226
  69.7482768  78.8400907  96.2896509  78.6422976  90.5308141  99.9115106
  78.4947938  89.6024848 100.0922676  79.4676470  90.5528232  99.4272181
  72.5085220  79.1826208  95.7695598  72.8481293  79.7112129  95.0474206
  72.9557341  79.5206614  96.5454164  82.2457098  91.3536700 100.9979979
  83.1703645  91.1479561 100.8604430  82.0772401  91.1053101 101.9069320
  75.2028661  77.5663259 105.2198666  74.8625481  76.7671072 105.6219346
  74.4967667  77.8664970 104.6475499  75.8545133  74.6512571 103.6725989
  76.6771202  74.1773049 103.5504879  76.0983196  75.4303055 104.1724675
  74.4953367  77.6800830  93.9688891  75.2161730  78.0582082  93.4652608
  73.8718672  78.3989706  94.0723869  78.6384490  78.3845979  94.9047223
  78.8548105  79.2670616  94.6036051  78.1578557  77.9932192  94.1752865
  73.3783712  81.3431692 101.4817968  73.2328292  81.6571995 102.3742249
  72.9008915  81.9616592 100.9288866  75.2380095  78.3334240 101.5298857
  75.2241663  77.4375333 101.1931155  75.9552523  78.3404903 102.1637143
  77.0906225  78.7671580 103.5751985  76.8324003  79.6888651 103.5736315
  76.5591266  78.3702014 104.2652449  82.0352414  91.8722367  96.3542070
  82.2089292  91.3068790  95.6015922  82.5281305  92.6723262  96.1721560
  67.8529374  83.8837036 104.4205629  67.3082842  84.6596844 104.5525903
  68.7308724  84.2307841 104.2624750  74.6416991  77.2148620  96.7986427
  74.7632902  76.2865266  96.9977315  74.3519033  77.2287306  95.8864743
  77.5108181  74.9003530  99.9353147  77.5329878  74.9642864  98.9805127
  77.9276240  74.0608039 100.1293653  87.8891805  84.6358790  97.9732370
  88.3322951  83.8866115  97.5751493  87.0118316  84.6268926  97.5906102
  83.0227587  91.1889131  93.4538968  83.7178491  91.8095824  93.6726283
  83.3650737  90.3384483  93.7291346  68.6395396  83.0106932 107.3135786
  67.8977132  83.1589568 107.9000416  68.3188140  83.2715198 106.4502535
  84.9219010  88.6388837  94.9826299  85.4470334  88.9776110  94.2575619
  84.8341362  87.7035852  94.7989434  76.5839058  92.5522911 107.1116176
  76.8926185  92.3072057 107.9838875  77.3814540  92.7569549 106.6235046
  76.6059670  94.7060820  99.3421552  76.1664661  94.2137199 100.0354409
  77.3567787  94.1633788  99.1013627  69.0852009  90.8972361  99.3446180
  69.9110029  90.5976133  98.9644824  68.7346061  90.1279984  99.7935969
  74.0533543  90.2498829 101.4143854  73.4313552  89.5869534 101.1146082
  74.7238409  90.2759961 100.7317502  67.2860614  88.8158688 100.3035114
  66.4492523  88.3880862 100.1219115  67.2584260  89.0091131 101.2405905
  74.1258070  78.7280617 111.0076360  74.1746226  79.6042740 110.6254130
  74.6680584  78.1858010 110.4348003  84.7310791  86.1214207 107.6010226
  84.7808796  85.9564214 108.5425748  84.6224714  85.2541466 107.2108106
  73.6147049  88.8002753  94.8902314  73.7635170  89.4838217  94.2368987
  74.4213493  88.7807843  95.4051770  82.0214553  82.1045135 108.9169532
  82.9224416  81.9651600 108.6253530  82.0962528  82.2699590 109.8567710
  76.3557358  79.4811990 107.7622719  75.4860668  79.7745556 107.4905307
  76.5916839  80.0652435 108.4829982  86.2328988  88.5411149 107.8452247
  85.9413796  88.9041129 108.6815708  85.6201119  87.8278157 107.6665579
  87.4324670  86.1064028 100.3654817  88.2671561  86.5453832 100.5292378
  87.5683799  85.6302682  99.5463063  84.4816176  83.6643763 106.3132305
  84.9570297  83.8571409 105.5051156  83.5581741  83.7202949 106.0675689
  71.3699682  84.8267930  95.8963383  71.1245724  83.9230260  96.0943593
  71.5395597  84.8285081  94.9542861  79.0596392  75.6991607 105.2788139
  79.5778336  76.4352634 104.9534628  78.7051525  76.0055600 106.1134898
  70.6395330  80.5596288  93.3949545  69.9464575  80.6340643  92.7389581
  70.3947082  79.7956632  93.9171062  79.3108986  72.1191889 100.7989036
  79.5910740  71.4515078 101.4249462  80.0959593  72.3120985 100.2863699
  77.1142455  91.2950883  92.3614062  76.5416422  91.9141070  91.9084534
  77.6875249  91.8450245  92.8953984  83.1817845  80.5409523 104.5460611
  84.1335268  80.6407621 104.5672835  83.0121295  79.7487792 105.0558695
  81.2032224  77.6265106 104.7320012  80.6082156  77.9070119 104.0366500
  80.9181921  78.1159007 105.5036753  80.3339715  91.5788033  93.4922644
  81.2670388  91.5133595  93.6955520  80.2462928  92.4144300  93.0337177
  82.9627731  90.8953904  90.4526592  82.8841363  90.5613767  91.3462350
  83.7837398  91.3875672  90.4518064  85.6605923  83.7615643 103.6602910
  85.6282243  82.8231644 103.8462594  86.2706546  83.8399680 102.9268735
  77.4989253  82.6311696  89.7030114  78.4448358  82.5017904  89.7718532
  77.1203498  81.8926358  90.1799543  85.8100411  80.5526686 103.7061194
  85.2939460  79.7685143 103.5191122  86.6940360  80.2245403 103.8707713
  83.4711138  74.2967702  99.6657006  83.2735959  73.9882790 100.5500338
  84.0810844  75.0229341  99.7954936  91.4782472  84.8231650 102.8008947
  92.2085861  84.5616938 103.3616650  90.8689418  84.0860372 102.8411015
  89.5597770  82.9639512 103.3983398  88.8330933  82.8295477 102.7899890
  89.1445056  83.2716341 104.2040116  77.3827946  86.6829442 111.1630771
  78.3030955  86.8608041 111.3570818  77.3477529  85.7385487 111.0110471
  75.6832171  80.5561672  89.6385000  74.7763626  80.2594785  89.7147713
  75.9608152  80.2591490  88.7719286  66.6010111  81.8768036 100.0884046
  66.2812895  81.0233344  99.7958420  66.0543539  82.0916614 100.8442013
  70.3790019  84.5930477 103.8053552  70.5976028  85.5247585 103.8241586
  70.7915792  84.2338451 104.5908356  77.2994236  75.0998562  95.7929241
  76.4894965  74.7545647  96.1684487  77.9878653  74.7906106  96.3816852
  79.2284785  74.1776609  97.4153538  79.7815823  74.5972062  98.0743561
  79.4654871  73.2512357  97.4576494  75.2517884  80.1663682 113.1956301
  75.1514611  81.1158039 113.1268393  75.0339426  79.8381921 112.3232372
  74.4530955  77.4148608  89.7796979  75.3150119  77.7403506  90.0392796
  74.6381299  76.6280103  89.2670045  66.4698371  85.4970947 102.0577168
  65.7761842  85.0824900 101.5447122  67.2171362  85.5391484 101.4610586
  82.6063592  76.2877134  96.9232202  82.0262261  76.9461938  96.5410254
  82.3399524  75.4654479  96.5119619  81.0567158  75.6882192  99.1253522
  81.5566936  75.7998726  98.3167841  81.7002766  75.3843245  99.7654331
  75.1149154  83.5960821 112.0121363  74.6316236  84.3961181 112.2185252
  75.2010093  83.6068766 111.0588807  68.3835114  85.4289201  99.9343182
  68.3605802  85.5276888  98.9825066  68.6935750  86.2754352 100.2560349
  71.0422491  87.4865356 104.0489797  71.9965745  87.4549298 103.9819728
  70.8435015  87.0255980 104.8640023  71.6321874  86.0566472 106.6160595
  72.4514763  86.5510551 106.6395432  71.9058681  85.1398440 106.5878162
  81.3888470  78.4477224  95.9788550  80.5014325  78.7326875  95.7608745
  81.8042459  78.2870988  95.1315827  84.7403006  78.4723745  99.6942889
  85.5163396  78.9620198  99.9667506  84.0151140  78.8981800 100.1514759
  87.1775565  79.1851365 100.7516830  87.7720055  78.9447101 100.0410138
  87.2502148  78.4658495 101.3790366  69.3972720  93.0284976 101.0659995
  69.2627188  92.2685376 100.4997993  68.9804782  93.7525875 100.5988784
  80.5331683  88.2121899  90.0736570  81.2367533  88.4171902  90.6894226
  79.8094332  88.7798661  90.3385654  81.3629494  83.9631760  96.1938840
  81.3064695  84.4200312  95.3546473  81.9157836  83.2022445  96.0161683
  85.1734299  79.7521492  97.0188960  84.9171234  79.3518128  97.8497167
  84.5487167  80.4665286  96.8939099  89.4846637  82.4917565  99.5260251
  88.9246195  82.5610755 100.2991813  88.8790141  82.3158550  98.8059747
  72.5541846  93.9254293 101.2778437  72.4374230  94.8699725 101.1757128
  71.7334292  93.6227854 101.6664237  82.4418381  88.6504428  92.1235030
  83.2763985  88.2185627  91.9412505  82.2802724  88.4786442  93.0511925
  82.0964273  85.1536542  93.4891369  82.0413077  84.9880813  92.5479813
  81.4710328  85.8612574  93.6453559  66.8856788  80.3904606 107.3152792
  67.5315651  79.8803560 107.8040017  66.6773939  81.1273288 107.8896217
  75.4060398  74.6544651  93.0676688  75.3939068  75.5986490  93.2244959
  76.2983820  74.4714796  92.7736149  73.5796360  94.5782554 104.4934366
  74.4823607  94.6106165 104.8100861  73.3533730  93.6483005 104.5080702
  75.3349962  93.3313541 101.1544444  74.3845593  93.3315403 101.0408817
  75.6382448  92.5846276 100.6380479  79.2212518  71.2487427  97.3222625
  78.4544914  70.6945914  97.4679307  79.6323223  71.3209296  98.1836776
  71.2254279  77.5372223 111.4127806  72.0885740  77.1809028 111.6231130
  70.6519689  77.1986118 112.1003210  83.7379178 100.9736984  98.1448622
  83.1744043 100.8826921  97.3764910  83.6231573 100.1536888  98.6251115
  81.2843610 102.4688175 100.9832843  82.0764902 102.1279000 100.5679142
  81.5240260 102.5783151 101.9034996  89.3178736 104.6407952  93.4563087
  88.6666716 105.2262032  93.0697101  90.1123099 105.1714146  93.5158125
  83.2434364 101.7297089  93.8550222  84.0165240 101.1826076  93.7163098
  83.5959762 102.5941338  94.0664683  85.5800641  97.8889755  91.4868672
  85.8326162  97.3671276  90.7252135  84.6425200  97.7255900  91.5895355
  90.6243924  96.8925533  99.2943415  91.4107013  96.4744956  98.9433832
  90.8882629  97.7971625  99.4625063  90.7954002 102.3298384  93.9932072
  90.1599835 102.4033010  94.7052976  90.4651408 102.9191982  93.3151151
  85.2996930  99.7917861  93.6893047  85.1833188  99.1162764  94.3574131
  85.4099190  99.3050235  92.8725200  87.6428471  99.2528008  97.3939736
  87.2786678  98.7258629  98.1052657  88.4995587  98.8626477  97.2206221
  87.2833958  94.2817908  92.3901084  87.4508360  95.1498144  92.7571555
  87.0931127  94.4445189  91.4662374  83.4921773  99.1948683 100.0903619
  82.5672269  99.0624897 100.2981311  83.7406186  99.9742903 100.5873562
  87.2623179  96.7375565  93.3747751  87.1422804  97.1832616  94.2133231
  86.5675767  97.0860883  92.8161289  80.8530584  98.8381957 100.9247408
  80.9822965  99.0916436 101.8386820  80.1728035  99.4309665 100.6052063
  92.9608245  97.2097038  94.2028085  93.8726101  97.4424425  94.0275783
  92.4517892  97.7934082  93.6403164  90.3044220  93.3855074 102.4517946
  89.4428699  93.6836328 102.7434684  90.3306655  93.6025473 101.5198979
  87.1205789 101.9297265  98.8591752  87.5844135 102.2084968  98.0696374
  86.8562587 101.0280709  98.6764842  86.0574675  98.0520417  95.6681317
  86.7598719  98.5041461  96.1355243  85.7255304  97.4104236  96.2961210
  79.8000009  96.3103970 100.9698450  79.0099063  96.5661498 100.4938561
  80.2911257  97.1252308 101.0750491  81.7514755  96.6748549  97.9281927
  80.9545918  96.7867243  98.4465423  81.5240347  97.0135201  97.0622818
  78.0837712  96.5634460 103.4013441  78.3345751  97.4481470 103.6671017
  78.6197261  96.3839062 102.6288533  87.2968440 104.8661360  95.7443422
  87.1614115 105.7112896  96.1728270  87.8378252 105.0680637  94.9809356
  80.7497837 102.3836798  96.3171347  81.2622358 103.1780048  96.4676912
  81.4020550 101.6863088  96.2504949  82.5592722 105.5002554  98.3994100
  82.7359350 106.4220519  98.2115084  83.3549556 105.1860973  98.8288480
  90.6460904  88.3891922 104.2742316  90.3025173  89.2793563 104.1981426
  91.0139866  88.1993579 103.4111901  78.7146754 100.7125452  97.0930918
  79.5521976 101.1222461  96.8764625  78.8925022  99.7724894  97.0631112
  90.6111186  98.3800533  92.7814751  90.0957810  99.1505137  93.0203138
  90.3388495  97.7065669  93.4047812  88.1958297  93.2250234  97.8399989
  87.3399894  92.8357084  97.6605628  88.6085249  93.3042194  96.9799775
  89.7257444  90.7596577 102.2391549  89.2222239  90.7226712 101.4259354
  90.0188051  91.6689320 102.2988206  85.9700330  90.8435307 101.2457731
  86.8353327  90.6478115 100.8863620  86.0377839  90.6145658 102.1727087
  95.5845460 101.1332887  94.7167924  94.8074903 100.7944047  94.2723086
  96.2636941 101.1385511  94.0422889  90.3997489  96.2527625  94.6074532
  90.0947625  96.5673774  95.4584675  91.3527932  96.3309045  94.6501865
  88.8443921 102.4117848  96.2567486  88.3165283 101.6770608  95.9440723
  88.3431424 103.1892525  96.0107454  83.5762649  93.0737514  98.6174097
  84.1506401  92.8512696  97.8847290  84.1633631  93.1426209  99.3702699
  83.9032236  95.1041976  92.6369983  83.0669548  95.4416662  92.9579257
  83.7637006  94.9690955  91.6997120  85.8785317  89.9478763  97.3449167
  85.2249729  89.6327781  96.7205782  85.8365791  89.3254504  98.0708990
  86.9896521 100.2298058  89.2602459  86.0823583  99.9987312  89.4593608
  87.4867553  99.4335678  89.4476440  89.8964600 108.9395566  92.1799145
  89.2226299 109.2427262  92.7884103  90.2830422 109.7424646  91.8304602
  89.1123057  96.4360697 101.6696814  88.1945618  96.6575644 101.5118503
  89.5283201  96.5107007 100.8108522  89.8958105  97.8352113  96.7999495
  90.6429924  98.3473510  96.4906617  90.1649694  97.5136165  97.6603888
  88.1684755 100.3310653  93.7826449  87.2595974 100.0469686  93.8798919
  88.1979839 100.7509732  92.9229756  92.3436942  94.8709229  98.7818284
  91.6059699  94.3586615  99.1128527  92.5963715  94.4309610  97.9701561
  92.4448569  87.6485481  99.3760053  92.7507446  86.7882844  99.0885968
  93.1701174  88.2403101  99.1759047  78.7372925  98.0516167  97.7641651
  78.5397325  97.4585528  97.0392718  78.1819589  97.7468378  98.4817590
  86.7169649  97.9439274  99.8836244  86.7718259  96.9913110  99.8078721
  85.9060851  98.0998713 100.3677543  87.8660843 101.8719397  91.1214528
  87.4280273 101.1555256  90.6620165  88.6071284 102.0995512  90.5599619
  84.6562009  96.5616334  97.6426623  83.8429874  96.8610504  98.0491815
  85.1521003  96.1672022  98.3601105  95.9833957 100.1476594  97.1790846
  95.8451856 100.3378190  96.2512035  95.6270176 100.9095977  97.6358897
  84.1476084  94.1334689 103.2587858  84.7875463  93.9923448 102.5610821
  83.3153614  93.8469203 102.8826460  84.9236387 103.4337120  99.3722851
  85.7176986 102.9387440  99.1705426  84.2128080 102.9054983  99.0090556
  81.2319151  97.5780201  95.4482603  80.3016739  97.5164657  95.6652565
  81.3276623  97.0556154  94.6519245  81.1504700  94.1035014  98.0360845
  81.4111517  95.0180347  97.9270005  81.9721872  93.6359457  98.1857458
  82.6229625  95.5172771 105.2059669  83.2952679  95.3090133 104.5572318
  81.7959412  95.3194857 104.7664902  88.0955815 109.1075238  94.3946224
  88.2707571 108.6363281  95.2091847  87.4088603 109.7341004  94.6227485
  91.9872070 100.7303779  90.7146585  91.3701241 100.0050607  90.6179638
  91.5188559 101.4913139  90.3713659  83.7770616  94.9489203  89.8367889
  82.9000083  94.8278004  89.4730136  84.2528369  94.1575281  89.5846778
  75.2972756  99.7366363  99.9309397  75.9843796  99.4228093  99.3430412
  75.1420885 100.6407727  99.6576648  80.1007478  94.6256559 104.3594420
  80.0165667  94.0182229 103.6244830  79.2790185  95.1165578 104.3603917
  90.2731192  93.1110123  99.7264615  90.7699892  92.3580085  99.4065686
  89.5018174  93.1474439  99.1607825  91.3560973 101.8681810  97.3003039
  90.4217252 101.9883272  97.1307743  91.5337642 100.9654277  97.0363049
  86.8566161  95.2527506  99.4536300  86.4863949  94.6998546 100.1417205
  87.3525254  94.6485639  98.9011300  94.7433524  97.7099129  97.8353073
  95.2093977  98.5427121  97.7613376  95.1941025  97.2444111  98.5398331
  92.8109756 104.0542951  94.8339225  93.0869599 103.9399545  95.7433099
  91.9414254 103.6560435  94.7951398  92.7150187  90.0779716 101.8743974
  91.8013267  90.3083943 102.0426181  93.1443289  90.1618160 102.7258007
  89.7805985 107.2297487  95.7387087  90.3093751 106.7189941  95.1257249
  90.0434205 106.9140017  96.6032620  74.8740732  97.8166956 102.2026864
  74.9124832  97.2830547 102.9963982  74.3681025  97.2902162 101.5837841
  82.2531495  92.6631497 105.6989406  82.3172821  93.5246327 105.2866804
  82.1898615  92.0505498 104.9661765  78.5049310  96.5431058  95.2780795
  78.8002751  95.6341737  95.2247849  77.6037346  96.5218798  94.9561797
  82.0343557  94.6187055 101.2608344  81.3130143  95.2323022 101.1215817
  82.8236813  95.1544820 101.1824990  80.2337152  94.2245156  95.4020120
  79.9049858  93.3442535  95.2195226  80.5876522  94.1692825  96.2896509
  83.3478975  94.5118126  95.7695598  83.6875047  95.0404047  95.0474206
  83.7951095  94.8498532  96.5454164  86.0422416  92.8955176 105.2198666
  85.7019236  92.0962989 105.6219346  85.3361422  93.1956887 104.6475499
  86.6938887  89.9804489 103.6725989  87.5164957  89.5064967 103.5504879
  86.9376951  90.7594973 104.1724675  85.3347122  93.0092747  93.9688891
  86.0555484  93.3874000  93.4652608  84.7112426  93.7281624  94.0723869
  89.4778245  93.7137896  94.9047223  89.6941859  94.5962534  94.6036051
  88.9972312  93.3224110  94.1752865  84.2177466  96.6723609 101.4817968
  84.0722047  96.9863913 102.3742249  83.7402670  97.2908510 100.9288866
  86.0773849  93.6626157 101.5298857  86.0635418  92.7667251 101.1931155
  86.7946277  93.6696821 102.1637143  87.9299980  94.0963498 103.5751985
  87.6717758  95.0180568 103.5736315  87.3985020  93.6993932 104.2652449
  78.6923128  99.2128954 104.4205629  78.1476596  99.9888762 104.5525903
  79.5702478  99.5599758 104.2624750  85.4810745  92.5440538  96.7986427
  85.6026656  91.6157184  96.9977315  85.1912787  92.5579224  95.8864743
  88.3501935  90.2295448  99.9353147  88.3723632  90.2934781  98.9805127
  88.7669994  89.3899957 100.1293653  93.8621341 106.5181049  93.4538968
  94.5572246 107.1387742  93.6726283  94.2044491 105.6676400  93.7291346
  95.7612764 103.9680755  94.9826299  96.2864088 104.3068027  94.2575619
  95.6735117 103.0327770  94.7989434  79.9245764 106.2264279  99.3446180
  80.7503784 105.9268051  98.9644824  79.5739816 105.4571901  99.7935969
  78.1254369 104.1450605 100.3035114  77.2886277 103.7172780 100.1219115
  78.0978014 104.3383049 101.2405905  84.4540804 104.1294670  94.8902314
  84.6028924 104.8130135  94.2368987  85.2607247 104.1099760  95.4051770
  82.2093437 100.1559848  95.8963383  81.9639479  99.2522178  96.0943593
  82.3789351 100.1576998  94.9542861  81.4789084  95.8888206  93.3949545
  80.7858329  95.9632561  92.7389581  81.2340836  95.1248549  93.9171062
  90.1502741  87.4483807 100.7989036  90.4304495  86.7806996 101.4249462
  90.9353348  87.6412903 100.2863699  87.9536209 106.6242801  92.3614062
  87.3810177 107.2432988  91.9084534  88.5269003 107.1742163  92.8953984
  91.1733469 106.9079951  93.4922644  92.1064142 106.8425513  93.6955520
  91.0856682 107.7436218  93.0337177  93.8021486 106.2245821  90.4526592
  93.7235117 105.8905685  91.3462350  94.6231153 106.7167589  90.4518064
  88.3383008  97.9603614  89.7030114  89.2842113  97.8309822  89.7718532
  87.9597253  97.2218276  90.1799543  94.3104893  89.6259620  99.6657006
  94.1129714  89.3174708 100.5500338  94.9204598  90.3521259  99.7954936
  86.5225925  95.8853590  89.6385000  85.6157381  95.5886703  89.7147713
  86.8001906  95.5883408  88.7719286  77.4403866  97.2059953 100.0884046
  77.1206650  96.3525262  99.7958420  76.8937294  97.4208532 100.8442013
  88.1387991  90.4290480  95.7929241  87.3288719  90.0837565  96.1684487
  88.8272408  90.1198023  96.3816852  90.0678539  89.5068527  97.4153538
  90.6209578  89.9263980  98.0743561  90.3048626  88.5804275  97.4576494
  85.2924710  92.7440525  89.7796979  86.1543874  93.0695424  90.0392796
  85.4775054  91.9572021  89.2670045  77.3092126 100.8262865 102.0577168
  76.6155597 100.4116818 101.5447122  78.0565117 100.8683401 101.4610586
  93.4457346  91.6169052  96.9232202  92.8656015  92.2753856  96.5410254
  93.1793279  90.7946396  96.5119619  91.8960913  91.0174109  99.1253522
  92.3960691  91.1290644  98.3167841  92.5396521  90.7135162  99.7654331
  79.2228868 100.7581119  99.9343182  79.1999556 100.8568806  98.9825066
  79.5329505 101.6046269 100.2560349  92.2282224  93.7769142  95.9788550
  91.3408079  94.0618793  95.7608745  92.6436213  93.6162905  95.1315827
  95.5796760  93.8015663  99.6942889  96.3557151  94.2912115  99.9667506
  94.8544895  94.2273717 100.1514759  91.3725438 103.5413817  90.0736570
  92.0761288 103.7463819  90.6894226  90.6488086 104.1090579  90.3385654
  92.2023248  99.2923678  96.1938840  92.1458449  99.7492229  95.3546473
  92.7551590  98.5314363  96.0161683  96.0128054  95.0813410  97.0188960
  95.7564988  94.6810046  97.8497167  95.3880922  95.7957204  96.8939099
  93.2812135 103.9796346  92.1235030  94.1157739 103.5477544  91.9412505
  93.1196478 103.8078360  93.0511925  92.9358027 100.4828459  93.4891369
  92.8806831 100.3172731  92.5479813  92.3104083 101.1904492  93.6453559
  77.7250542  95.7196524 107.3152792  78.3709406  95.2095478 107.8040017
  77.5167693  96.4565205 107.8896217  86.2454153  89.9836568  93.0676688
  86.2332823  90.9278408  93.2244959  87.1377575  89.8006714  92.7736149
  90.0606272  86.5779345  97.3222625  89.2938668  86.0237832  97.4679307
  90.4716977  86.6501214  98.1836776  94.7425990 110.4333893  92.6369983
  93.9063303 110.7708580  92.9579257  94.6030760 110.2982873  91.6997120
  94.6164371 110.2781121  89.8367889  93.7393837 110.1569921  89.4730136
  95.0922124 109.4867199  89.5846778  92.3182839 111.2180123  93.3949545
  91.6252084 111.2924478  92.7389581  92.0734591 110.4540467  93.9171062
  97.3619680 111.2145508  89.6385000  96.4551135 110.9178620  89.7147713
  97.6395661 110.9175326  88.7719286  96.1318464 108.0732443  89.7796979
  96.9937628 108.3987341  90.0392796  96.3168808 107.2863939  89.2670045
  97.0847907 105.3128486  93.0676688  97.0726577 106.2570326  93.2244959
  97.9771329 105.1298631  92.7736149  36.8733885  -0.4723386  88.9435513
  37.5112294  -0.5916639  88.2398854  36.7554727   0.4757458  89.0023466
  29.5410407   1.3339518  84.8693929  28.9775272   1.2429455  84.1010217
  29.4262802   0.5139423  85.3496422  35.1209965   5.0010486  80.1808394
  34.4697945   5.5864566  79.7942408  35.9154328   5.5316681  80.2403431
  29.0465592   2.0899623  80.5795528  29.8196468   1.5428610  80.4408404
  29.3990991   2.9543872  80.7909990  31.3831870  -1.7507711  78.2113978
  31.6357391  -2.2726190  77.4497441  30.4456429  -1.9141565  78.3140662
  36.4275153  -2.7471933  86.0188721  37.2138242  -3.1652509  85.6679139
  36.6913857  -1.8425840  86.1870370  36.5985230   2.6900918  80.7177378
  35.9631063   2.7635544  81.4298283  36.2682637   3.2794517  80.0396458
  41.8283580  -2.8096699  86.9221700  42.5608752  -3.3797483  87.1559529
  41.0722936  -3.1975099  87.3628206  31.1028159   0.1520395  80.4138353
  30.9864417  -0.5234702  81.0819438  31.2130419  -0.3347231  79.5970506
  33.4459700  -0.3869458  84.1185042  33.0817907  -0.9138837  84.8297964
  34.3026816  -0.7770989  83.9451528  33.0654408  -2.9021901  80.0993058
  32.9454033  -2.4564850  80.9378538  32.3706996  -2.5536583  79.5406596
  30.8261300   9.8681741  83.7483189  30.7485330  10.8189566  83.8271670
  30.2222943   9.5227614  84.4058115  38.7639474  -2.4300428  80.9273392
  39.6757330  -2.1973041  80.7521089  38.2549121  -1.8463383  80.3648470
  37.3709056   2.5525391  88.3186973  36.7417919   2.7171105  87.6163041
  36.9834718   2.9667000  89.0897937  41.2498288   3.4879829  85.6731337
  40.5649326   3.8678730  85.1228370  41.3342137   4.0975155  86.4063285
  32.9237018   2.2899799  85.5837058  33.3875364   2.5687502  84.7941681
  32.6593816   1.3883244  85.4010149  31.8605904  -1.5877049  82.3926624
  32.5629947  -1.1356005  82.8600550  31.5286533  -2.2293230  83.0206517
  39.6195048   4.0111743  90.4449038  40.4412491   3.6091931  90.1631720
  39.6157451   3.9079977  91.3965154  47.7101041   0.3550492  86.7934009
  46.9564749  -0.2142110  86.6378014  47.8448582   0.3213156  87.7404644
  33.0999669   5.2263894  82.4688729  32.9645344   6.0715430  82.8973577
  33.6409481   5.4283172  81.7054663  26.5529066   2.7439332  83.0416654
  27.0653587   3.5382582  83.1922219  27.2051779   2.0465623  82.9750255
  28.3623951   5.8605088  85.1239407  28.5390579   6.7823053  84.9360391
  29.1580784   5.5463508  85.5533787  29.4855266   7.3783262  91.1249749
  30.0362691   7.2500325  90.3526743  28.6466742   7.6778151  90.7744642
  36.4142415  -1.2596933  79.5060057  35.8989038  -0.4892328  79.7448445
  36.1419723  -1.9331797  80.1293119  41.3876689   1.4935422  81.4413231
  40.6106132   1.1546581  80.9968393  42.0668170   1.4988045  80.7668196
  36.2028718  -3.3869841  81.3319839  35.8978854  -3.0723692  82.1829982
  37.1559160  -3.3088421  81.3747172  34.6475150   2.7720382  82.9812792
  34.1196512   2.0373142  82.6686030  34.1462653   3.5495059  82.7352761
  39.6267996   0.9669403  88.0979839  38.9691671   1.6568664  88.1859967
  40.4308395   1.3565835  88.4413825  38.4373455  -0.6786224  86.1483781
  38.9505337  -0.0456233  86.6505490  39.0874679  -1.2785029  85.7827141
  32.7927750   0.5900593  75.9847766  31.8854812   0.3589846  76.1838915
  33.2898782  -0.2061788  76.1721747  35.6995829   9.2998100  78.9044452
  35.0257528   9.6029797  79.5129410  36.0861651  10.1027180  78.5549909
  35.6989334  -1.8045353  83.5244801  36.4461152  -1.2923956  83.2151923
  35.9680923  -2.1261300  84.3849195  33.9715984   0.6913188  80.5071756
  33.0627203   0.4072220  80.6044225  34.0011067   1.1112266  79.6475062
  39.2035251   4.3019777  84.2762923  38.7497578   3.4610687  84.3328114
  38.5729218   4.9381175  84.6137703  38.1468171  -4.7688237  85.5063591
  37.4090927  -5.2810851  85.8373833  38.3994944  -5.2087855  84.6946868
  37.6468190   6.1396274  85.2112741  37.9391165   6.7001331  84.4925107
  38.1566811   6.4324835  85.9665900  32.5200878  -1.6958192  86.6081551
  32.5749488  -2.6484355  86.5324028  31.7092080  -1.5398753  87.0922849
  33.6692071   2.2321931  77.8459834  33.2311501   1.5157790  77.3865472
  34.4102512   2.4598046  77.2844926  32.6101816   6.9176625  86.3006195
  32.5677994   7.1437471  85.3714727  33.5264514   6.6839999  86.4491996
  41.7865186   0.5079128  83.9036153  41.6483085   0.6980724  82.9757342
  41.4301405   1.2698511  84.3604204  41.8134566   2.5755655  88.9147424
  42.2471073   2.4830944  89.7630478  42.5266147   2.5513156  88.2767440
  30.7267616   3.7939654  86.0968157  31.5208215   3.2989974  85.8950732
  30.0159309   3.2657517  85.7335863  35.5462461   6.1757749  90.4480525
  35.5999483   6.7448686  91.2158241  34.6777242   6.3459634  90.0834562
  42.6750115   2.6179356  91.4480310  42.8686006   3.5225166  91.6939585
  42.5750734   2.1586775  92.2818895  33.3038892   4.3668676  89.7765994
  33.1649978   3.9987460  90.6491932  32.5153489   4.8816315  89.6049952
  33.8987044   9.4677772  81.1191531  34.0738800   8.9965815  81.9337154
  33.2119832  10.0943538  81.3472792  34.8544107   3.7450279  87.1654832
  34.5193940   3.7051048  88.0612482  34.3548053   3.0794994  86.6925242
  37.7903299   1.0906313  77.4391892  37.1732470   0.3653141  77.3424944
  37.3219788   1.8515673  77.0958966  28.4648130  12.6167135  87.8931391
  28.7044728  13.2485659  88.5710410  27.6217326  12.2655175  88.1796750
  32.9775991   8.4246258  90.2972895  32.9046163   9.2301229  90.8092200
  32.5353385   8.6238223  89.4720916  32.7665771   7.6618028  83.8075717
  31.9833293   8.2039708  83.9013941  33.4658516   8.1792007  84.2069958
  43.9292179  -0.8246977  88.0928213  43.9182055   0.0577738  87.7222147
  43.0609558  -1.1775427  87.8982751  35.4374675   8.3233092  92.4531054
  36.1502647   8.9580556  92.3806955  34.9464704   8.4196958  91.6371056
  37.1592202   2.2284344  84.0248345  36.2248481   2.3485807  83.8553050
  37.3368870   1.3256811  83.7608355  40.5464753  -1.9298337  84.5598380
  41.0125205  -1.0970345  84.4858682  40.9972254  -2.3953355  85.2643638
  38.6140984   4.4145485  81.5584532  38.8900828   4.3002079  82.4678406
  37.7445483   4.0162970  81.5196705  35.2495048   8.6631836  85.2017345
  35.4317443   7.8453492  85.6645097  36.0728034   8.8799528  84.7642235
  35.5837214   7.5900021  82.4632394  36.1124980   7.0792475  81.8502556
  35.8465433   7.2742551  83.3277927  28.9392962   8.6415137  85.2230170
  28.2703337   9.1261265  84.7394210  28.8005831   8.8884358  86.1373548
  33.0798230  10.6758881  91.8212828  33.6316538  10.8390502  92.5861913
  33.4204424  11.2663319  91.1492853  36.2166618   8.6240856  88.8076510
  36.0917757   7.8230596  88.2987456  36.8745709   9.1187050  88.3190480
  38.2801526   6.4249877  90.4356060  37.3331862   6.3055228  90.3634387
  38.6284299   5.5372375  90.5182322  35.2847959   6.2202593  86.6360412
  35.1372922   5.2919300  86.8167982  36.1101453   6.2422683  86.1517488
  38.8882081   7.0431152  87.7225285  39.8128629   6.8374013  87.5849736
  38.7197385   6.7947553  88.6314627  38.6777397   7.5616819  83.0787377
  38.8514275   6.9963241  82.3261229  39.1706289   8.3617714  82.8966867
  44.5316789   0.3253242  84.6977676  44.9747935  -0.4239433  84.2996800
  43.6543299   0.3163378  84.3151408  39.6652570   6.8783583  80.1784275
  40.3603474   7.4990276  80.3971590  40.0075720   6.0278935  80.4536653
  41.5643993   4.3283289  81.7071606  42.0895317   4.6670562  80.9820926
  41.4766346   3.3930304  81.5234740  33.2484654  10.3955272  86.0666859
  32.8089644   9.9031651  86.7599716  33.9992771   9.8528240  85.8258934
  25.7276993   6.5866813  86.0691487  26.5535013   6.2870585  85.6890130
  25.3771045   5.8174435  86.5181276  30.6958526   5.9393281  88.1389161
  30.0738535   5.2763986  87.8391388  31.3663393   5.9654413  87.4562808
  30.2572033   4.4897205  81.6147621  30.4060153   5.1732669  80.9614294
  31.0638476   4.4702295  82.1297077  44.0749653   1.7958480  87.0900124
  44.9096545   2.2348284  87.2537684  44.2108782   1.3197133  86.2708370
  28.0124666   0.5162382  82.6208690  27.7670708  -0.3875288  82.8188900
  28.1820580   0.5179533  81.6788168  33.7567438   6.9845335  79.0859368
  33.1841405   7.6035522  78.6329840  34.3300232   7.5344697  79.6199290
  36.9764698   7.2682485  80.2167951  37.9095371   7.2028047  80.4200826
  36.8887911   8.1038752  79.7582483  39.6052715   6.5848356  77.1771898
  39.5266346   6.2508219  78.0707656  40.4262382   7.0770123  77.1763371
  42.3030906  -0.5489905  90.3848217  42.2707226  -1.4873904  90.5707901
  42.9131530  -0.4705868  89.6514042  34.1414237  -1.6793852  76.4275421
  35.0873342  -1.8087644  76.4963839  33.7628482  -2.4179190  76.9044849
  48.1207456   0.5126102  89.5254254  48.8510844   0.2511390  90.0861957
  47.5114401  -0.2245176  89.5656322  46.2022753  -1.3466036  90.1228705
  45.4755916  -1.4810071  89.5145197  45.7870040  -1.0389207  90.9285423
  39.2488575  -8.0228414  83.6477508  38.6687244  -7.3643610  83.2655561
  38.9824508  -8.8451070  83.2364926  38.0313453  -5.8628324  82.7033857
  37.1439308  -5.5778673  82.4854051  38.4467442  -6.0234560  81.8561134
  41.3827989  -5.8381803  86.4188196  42.1588379  -5.3485350  86.6912813
  40.6576123  -5.4123749  86.8760065  43.8200548  -5.1254184  87.4762137
  44.4145039  -5.3658448  86.7655445  43.8927132  -5.8447053  88.1035673
  26.0397704   8.7179427  87.7905301  25.9052171   7.9579828  87.2243299
  25.6229766   9.4420327  87.3234090  37.1756667   3.9016351  76.7981877
  37.8792517   4.1066353  77.4139532  36.4519315   4.4693113  77.0630960
  38.0054477  -0.3473788  82.9184147  37.9489678   0.1094764  82.0791779
  38.5582819  -1.1083103  82.7406990  41.8159283  -4.5584056  83.7434266
  41.5596217  -4.9587420  84.5742474  41.1912151  -3.8440262  83.6184405
  46.1271621  -1.8187983  86.2505558  45.5671179  -1.7494793  87.0237120
  45.5215124  -1.9946998  85.5305054  29.1966829   9.6148744  88.0023744
  29.0799214  10.5594177  87.9002434  28.3759276   9.3122306  88.3909543
  39.0843364   4.3398880  78.8480337  39.9188968   3.9080079  78.6657812
  38.9227707   4.1680894  79.7757231  38.7389256   0.8430993  80.2136676
  38.6838060   0.6775265  79.2725120  38.1135311   1.5507026  80.3698866
  30.2221344  10.2677006  91.2179672  31.1248590  10.3000617  91.5346167
  29.9958714   9.3377457  91.2326008  31.9774946   9.0207993  87.8789751
  31.0270577   9.0209854  87.7654123  32.2807432   8.2740727  87.3625786
  47.7127639  14.8568531  88.9435513  48.3506049  14.7375279  88.2398854
  47.5948482  15.8049375  89.0023466  44.5217345  14.8095959  88.8797038
  44.1835857  14.6937024  87.9917573  45.3907114  14.4087124  88.8598044
  40.3804161  16.6631436  84.8693929  39.8169026  16.5721373  84.1010217
  40.2656556  15.8431340  85.3496422  45.0037128  15.9630811  94.8383244
  44.9925769  15.5683609  93.9663747  45.1657768  15.2296884  95.4317015
  37.9268593  18.1582627  87.7078150  38.7189885  17.8173452  87.2924449
  38.1665243  18.2677602  88.6280303  45.9603720  20.3302403  80.1808394
  45.3091699  20.9156484  79.7942408  46.7548083  20.8608598  80.2403431
  39.8859347  17.4191541  80.5795528  40.6590223  16.8720528  80.4408404
  40.2384746  18.2835790  80.7909990  41.7244389  18.7467923  93.7862428
  41.4334255  19.6513554  93.6709094  42.3601374  18.7884450  94.5006497
  42.6500596  16.1244771  90.3763787  43.2464169  15.9000794  89.6620750
  42.7075568  15.3829517  90.9789235  42.2225625  13.5784207  78.2113978
  42.4751145  13.0565728  77.4497441  41.2850184  13.4150352  78.3140662
  47.2668908  12.5819985  86.0188721  48.0531997  12.1639408  85.6679139
  47.5307612  13.4866077  86.1870370  47.4378985  18.0192835  80.7177378
  46.8024818  18.0927462  81.4298283  47.1076391  18.6086434  80.0396458
  52.6677335  12.5195218  86.9221700  53.4002507  11.9494435  87.1559529
  51.9116690  12.1316819  87.3628206  41.9421913  15.4812313  80.4138353
  41.8258172  14.8057216  81.0819438  42.0524173  14.9944687  79.5970506
  44.2853454  14.9422460  84.1185042  43.9211662  14.4153081  84.8297964
  45.1420570  14.5520929  83.9451528  50.1902755   6.2316792  91.3816309
  49.8586080   7.1012203  91.1577524  49.5948368   5.9153076  92.0610339
  43.9258941   9.9712359  79.1146391  44.0933344  10.8392596  79.4816862
  43.7356110  10.1339641  78.1907680  46.6834275  18.4329338  90.7812221
  46.3834998  19.3354377  90.6728029  46.3385334  18.1661522  91.6333374
  40.1346756  14.8843135  86.8148926  39.2097252  14.7519349  87.0226618
  40.3831169  15.6637354  87.3118868  50.0831418  10.9511879  88.4609659
  49.1748296  10.8827287  88.1668420  50.0319014  11.4283824  89.2891484
  43.9048162  12.4270017  80.0993058  43.7847787  12.8727068  80.9378538
  43.2100751  12.7755335  79.5406596  37.4955567  14.5276409  87.6492715
  37.6247948  14.7810888  88.5632127  36.8153018  15.1204117  87.3297370
  41.6655054  25.1973659  83.7483189  41.5879084  26.1481484  83.8271670
  41.0616698  24.8519531  84.4058115  44.1572284  12.3701524  96.4044556
  43.3805618  12.9295444  96.3947421  44.7962847  12.8558307  96.9259426
  51.9493065   9.1528317  90.2387533  51.3067445   9.4460850  89.5927327
  51.4447993   9.0381237  91.0440729  49.6033228  12.8991490  80.9273392
  50.5151084  13.1318877  80.7521089  49.0942875  13.4828534  80.3648470
  42.4118656  15.1786978  95.9662523  43.1533341  15.7172021  95.6897347
  41.7055642  15.8053266  96.1234075  47.8873996  17.3216118  94.5634684
  48.2957352  16.8798529  93.8189317  47.1651258  16.7468746  94.8168877
  44.2405066  12.2588725  91.9368241  45.0866261  12.6828138  92.0802890
  44.1803704  11.6022349  92.6306804  48.2102811  17.8817309  88.3186973
  47.5811673  18.0463023  87.6163041  47.8228473  18.2958918  89.0897937
  52.0892043  18.8171746  85.6731337  51.4043081  19.1970648  85.1228370
  52.1735892  19.4267073  86.4063285  47.3904511   9.9193093  93.5949415
  47.1465443  10.6735154  93.0583691  47.6664442  10.2978441  94.4296662
  49.3442974  16.4631705  92.2726681  49.5559869  17.1063465  91.5961062
  49.2972722  15.6294022  91.8048611  46.9469203   9.0749526  89.1763253
  46.0853682   9.3730780  89.4679990  46.9731638   9.2919925  88.2444285
  43.7630773  17.6191717  85.5837058  44.2269118  17.8979420  84.7941681
  43.4987571  16.7175161  85.4010149  40.6554854  17.1663198  88.5216822
  41.2256211  17.5950467  87.8834306  41.2462965  16.8845783  89.2201007
  42.6999659  13.7414869  82.3926624  43.4023702  14.1935913  82.8600550
  42.3680287  13.0998688  83.0206517  41.1480020  12.3326626  96.7677833
  40.5178681  13.0142907  97.0013230  41.0416108  12.2209707  95.8230971
  36.4424993  11.9998422  87.6943757  35.6524047  12.2555950  87.2183868
  36.9336240  12.8146760  87.7995798  50.4588802  19.3403661  90.4449038
  51.2806246  18.9383848  90.1631720  50.4551205  19.2371895  91.3965154
  38.3939738  12.3643001  84.6527234  37.5970901  12.4761695  85.1710729
  38.1665330  12.7029653  83.7868124  44.2245406  18.8887704  92.6009748
  44.2889838  19.3508111  93.4367920  43.5156329  18.2585069  92.7292058
  34.7262696  12.2528912  90.1258748  34.9770734  13.1375922  90.3916324
  35.2622244  12.0733514  89.3533840  58.5494795  15.6842409  86.7934009
  57.7958504  15.1149807  86.6378014  58.6842336  15.6505074  87.7404644
  43.9393423  20.5555812  82.4688729  43.8039098  21.4007347  82.8973577
  44.4803236  20.7575089  81.7054663  37.3922821  18.0731250  83.0416654
  37.9047341  18.8674500  83.1922219  38.0445533  17.3757540  82.9750255
  39.2017705  21.1897006  85.1239407  39.3784334  22.1114971  84.9360391
  39.9974539  20.8755425  85.5533787  43.3428724   8.0505271  96.7223341
  44.0838437   8.6512424  96.6427803  43.5746647   7.3082908  96.1641383
  38.4870062  13.2361638  95.0001570  38.3723577  12.3346895  95.3008669
  37.6314580  13.4825335  94.6486387  45.5661900  21.1779378  96.5989071
  45.1225754  20.3915757  96.2809975  46.2279113  21.3658529  95.9332962
  40.3249021  22.7075180  91.1249749  40.8756446  22.5792243  90.3526743
  39.4860497  23.0070069  90.7744642  47.6643138  21.4582178  94.6270472
  47.6461613  22.2791059  94.1350741  48.5863058  21.3336253  94.8520613
  44.1216192  18.9726308  95.4693980  44.6544529  18.2114596  95.2393288
  43.5930273  18.6799959  96.2118135  47.2885887   4.0786374  90.9987622
  46.9450156   4.9688015  90.9226733  47.6564849   3.8888031  90.1357207
  35.3571737  16.4019904  83.8176224  36.1946959  16.8116912  83.6009932
  35.5350005  15.4619346  83.7876418  47.2536170  14.0694985  79.5060057
  46.7382793  14.8399589  79.7448445  46.9813478  13.3960121  80.1293119
  44.8383281   8.9144685  84.5645296  43.9824877   8.5251536  84.3850934
  45.2510232   8.9936646  83.7045081  46.3682427   6.4491029  88.9636855
  45.8647223   6.4121164  88.1504661  46.6613034   7.3583771  89.0233512
  42.6125313   6.5329758  87.9703037  43.4778310   6.3372567  87.6108927
  42.6802822   6.3040110  88.8972394  52.2270444  16.8227339  81.4413231
  51.4499886  16.4838499  80.9968393  52.9061925  16.8279962  80.7668196
  47.0422473  11.9422077  81.3319839  46.7372608  12.2568226  82.1829982
  47.9952915  12.0203497  81.3747172  45.4868905  18.1012300  82.9812792
  44.9590266  17.3665060  82.6686030  44.9856407  18.8786976  82.7352761
  50.4661751  16.2961321  88.0979839  49.8085425  16.9860582  88.1859967
  51.2702150  16.6857753  88.4413825  40.2187632   8.7631966  85.3419404
  40.7931384   8.5407148  84.6092597  40.8058615   8.8320661  86.0948005
  49.2767209  14.6505693  86.1483781  49.7899091  15.2835685  86.6505490
  49.9268433  14.0506889  85.7827141  40.5457219  10.7936427  79.3615289
  39.7094532  11.1311114  79.6824564  40.4061989  10.6585407  78.4242426
  42.5210300   5.6373215  84.0694473  41.8674712   5.3222232  83.4451088
  42.4790774   5.0148956  84.7954296  43.6321505  15.9192510  75.9847766
  42.7248566  15.6881764  76.1838915  44.1292537  15.1230130  76.1721747
  46.5389584  24.6290018  78.9044452  45.8651282  24.9321714  79.5129410
  46.9255406  25.4319098  78.5549909  45.7548040  12.1255149  88.3942121
  44.8370602  12.3470096  88.2363809  46.1708184  12.2001459  87.5353828
  46.5383088  13.5246565  83.5244801  47.2854907  14.0367962  83.2151923
  46.8074678  13.2030617  84.3849195  44.8109738  16.0205105  80.5071756
  43.9020957  15.7364138  80.6044225  44.8404822  16.4404184  79.6475062
  50.0429006  19.6311695  84.2762923  49.5891333  18.7902605  84.3328114
  49.4122972  20.2673093  84.6137703  48.9861925  10.5603681  85.5063591
  48.2484682  10.0481067  85.8373833  49.2388699  10.1204062  84.6946868
  48.4861945  21.4688191  85.2112741  48.7784919  22.0293249  84.4925107
  48.9960565  21.7616752  85.9665900  49.0873552   3.3379933  86.1005360
  49.3932429   2.4777296  85.8131275  49.8126157   3.9297553  85.9004354
  35.3797909  13.7410619  84.4886958  35.1822308  13.1479980  83.7638024
  34.8244573  13.4362830  85.2062897  43.3594632  13.6333726  86.6081551
  43.4143242  12.6807562  86.5324028  42.5485834  13.7893165  87.0922849
  44.5085826  17.5613849  77.8459834  44.0705256  16.8449708  77.3865472
  45.2496267  17.7889964  77.2844926  41.2986992  12.2510786  84.3671930
  40.4854858  12.5504956  84.7737122  41.7945986  11.8566474  85.0846412
  43.4495570  22.2468543  86.3006195  43.4071749  22.4729389  85.3714727
  44.3658269  22.0131917  86.4491996  46.8961204  12.7152610  93.1986824
  47.2510592  12.9424083  94.0581289  47.5433335  13.0470987  92.5764079
  52.6258941  15.8371046  83.9036153  52.4876839  16.0272642  82.9757342
  52.2695160  16.5990429  84.3604204  40.7901067   9.8229141  89.9833165
  41.4300446   9.6817900  89.2856128  39.9578597   9.5363654  89.6071767
  52.6528320  17.9047573  88.9147424  53.0864827  17.8122862  89.7630478
  53.3659901  17.8805073  88.2767440  41.5661371  19.1231572  86.0968157
  42.3601969  18.6281892  85.8950732  40.8553063  18.5949435  85.7335863
  46.3856215  21.5049667  90.4480525  46.4393238  22.0740603  91.2158241
  45.5170997  21.6751552  90.0834562  37.8744134  13.2674653  82.1727910
  36.9441722  13.2059109  82.3897872  37.9701606  12.7450606  81.3764551
  37.7929683   9.7929466  84.7606152  38.0536501  10.7074799  84.6515312
  38.6146856   9.3253909  84.9102764  39.2654609  11.2067223  91.9304976
  39.9377662  10.9984585  91.2817625  38.4384395  11.0089309  91.4910208
  53.5143870  17.9471274  91.4480310  53.7079760  18.8517084  91.6939585
  53.4144488  17.4878693  92.2818895  45.1680181   7.8329164  93.9470637
  44.5208096   8.5319114  93.8535113  45.9381196   8.2665308  94.3146885
  48.5758979  18.0978016  97.0221190  48.4244485  17.8688568  96.1051274
  48.5663658  19.0548618  97.0352535  45.3444315  15.6709929  92.0067457
  46.2736375  15.8221089  91.8336424  44.9235345  15.7593950  91.1516103
  44.1432647  19.6960594  89.7765994  44.0043732  19.3279378  90.6491932
  43.3547243  20.2108233  89.6049952  44.7380799  24.7969690  81.1191531
  44.9132554  24.3257733  81.9337154  44.0513587  25.4235456  81.3472792
  45.6937862  19.0742196  87.1654832  45.3587695  19.0342966  88.0612482
  45.1941808  18.4086912  86.6925242  39.6682106  14.4809826  92.6907413
  39.5301904  13.7490065  93.2918952  40.5787029  14.3918726  92.4091601
  48.6297054  16.4198231  77.4391892  48.0126224  15.6945059  77.3424944
  48.1613542  17.1807591  77.0958966  42.2964407  14.1929786  92.1791093
  43.0064025  13.5522978  92.1377711  42.2533715  14.4442680  93.1017274
  50.2851185  21.1297139  95.0997672  50.2263731  20.4456359  94.4328255
  50.6870704  21.8716129  94.6478298  41.0093341  11.1795003  93.9986732
  40.4730698  10.7285742  94.6508329  40.4210049  11.3140912  93.2557197
  39.3041884  27.9459053  87.8931391  39.5438482  28.5777577  88.5710410
  38.4611081  27.5947093  88.1796750  40.4195599  10.6383655  76.5613196
  39.5425066  10.5172456  76.1975443  40.8953353   9.8469733  76.3092085
  50.2868593  19.0936723  93.3311652  49.3995371  18.7562645  93.4538051
  50.8567144  18.3619754  93.5680417  31.9397740  15.4260815  86.6554703
  32.6268779  15.1122545  86.0675719  31.7845868  16.3302179  86.3821955
  36.7432462  10.3151011  91.0839727  36.6590651   9.7076681  90.3490137
  35.9215168  10.8060029  91.0849223  43.8169746  23.7538175  90.2972895
  43.7439917  24.5593147  90.8092200  43.3747139  23.9530141  89.4720916
  43.6059526  22.9909945  83.8075717  42.8227047  23.5331625  83.9013941
  44.3052271  23.5083925  84.2069958  46.9156176   8.8004575  86.4509922
  47.4124875   8.0474537  86.1310992  46.1443157   8.8368891  85.8853131
  54.7685933  14.5044940  88.0928213  54.7575809  15.3869656  87.7222147
  53.9003312  14.1516491  87.8982751  46.2768429  23.6525009  92.4531054
  46.9896402  24.2872474  92.3806955  45.7858458  23.7488875  91.6371056
  47.9985956  17.5576262  84.0248345  47.0642235  17.6777724  83.8553050
  48.1762625  16.6548729  83.7608355  43.4991144  10.9421958  86.1781607
  43.1288932  10.3892998  86.8662512  43.9950237  10.3380091  85.6256607
  51.3858508  13.3993581  84.5598380  51.8518960  14.2321573  84.4858682
  51.8366008  12.9338563  85.2643638  41.3280343  21.4019453  93.2736625
  42.0289802  22.0355936  93.4266019  40.8575458  21.7434184  92.5132264
  49.4534739  19.7437402  81.5584532  49.7294583  19.6293997  82.4678406
  48.5839238  19.3454887  81.5196705  49.3575170   5.7674168  88.5989281
  48.4438250   5.9978395  88.7671488  49.7868272   5.8512612  89.4503313
  49.1281629  13.9564060  91.0989175  48.4753079  14.2039968  90.4441628
  49.5062009  13.1428198  90.7651652  46.0888803  23.9923753  85.2017345
  46.2711197  23.1745409  85.6645097  46.9121789  24.2091446  84.7642235
  46.4230968  22.9191938  82.4632394  46.9518735  22.4084393  81.8502556
  46.6859188  22.6034469  83.3277927  45.1769202  14.6983871  97.5855212
  44.5009839  14.5978001  98.2557587  45.9996836  14.5423085  98.0491209
  36.9248061  20.9355808  90.2067727  37.5101498  20.1899496  90.3395631
  36.7272899  21.2459764  91.0904391  39.7786716  23.9707055  85.2230170
  39.1097092  24.4553183  84.7394210  39.6399586  24.2176276  86.1373548
  31.5165716  13.5061408  88.9272170  31.5549815  12.9724999  89.7209288
  31.0106009  12.9796613  88.3083148  43.9191985  26.0050799  91.8212828
  44.4710293  26.1682420  92.5861913  44.2598178  26.5955236  91.1492853
  38.8956478   8.3525948  92.4234713  38.9597805   9.2140779  92.0112110
  38.8323598   7.7399950  91.6907071  48.7702859  20.8312056  97.6761482
  49.3142763  21.4442014  97.1816437  48.1889704  21.3891635  98.1928495
  35.1474293  12.2325510  82.0026102  35.4427734  11.3236189  81.9493155
  34.2462329  12.2113250  81.6807104  47.0560372  23.9532774  88.8076510
  46.9311512  23.1522514  88.2987456  47.7139463  24.4478968  88.3190480
  38.6768540  10.3081507  87.9853650  37.9555126  10.9217474  87.8461124
  39.4661796  10.8439271  87.9070296  49.1195280  21.7541794  90.4356060
  48.1725616  21.6347145  90.3634387  49.4678054  20.8664292  90.5182322
  41.4794854   7.6435933  94.2594302  42.0029256   7.8898230  95.0220611
  41.2607187   8.4755968  93.8397439  36.8762135   9.9139608  82.1265427
  36.5474841   9.0336987  81.9440533  37.2301506   9.8587276  83.0141816
  46.1241714  21.5494510  86.6360412  45.9766676  20.6211218  86.8167982
  46.9495207  21.5714601  86.1517488  39.9903958  10.2012578  82.4940905
  40.3300031  10.7298499  81.7719513  40.4376079  10.5392984  83.2699471
  49.7275836  22.3723069  87.7225285  50.6522383  22.1665931  87.5849736
  49.5591139  22.1239470  88.6314627  42.6847399   8.5849628  91.9443973
  42.3444219   7.7857441  92.3464652  41.9786405   8.8851339  91.3720806
  43.3363871   5.6698941  90.3971296  44.1589940   5.1959419  90.2750186
  43.5801934   6.4489424  90.8969982  41.9772105   8.6987199  80.6934197
  42.6980468   9.0768452  80.1897914  41.3537409   9.4176076  80.7969175
  46.1203228   9.4032348  81.6292530  46.3366842  10.2856986  81.3281358
  45.6397295   9.0118562  80.8998172  40.8602449  12.3618061  88.2063274
  40.7147030  12.6758364  89.0987556  40.3827653  12.9802962  87.6534173
  42.7198832   9.3520609  88.2544164  42.7060401   8.4561703  87.9176462
  43.4371260   9.3591273  88.8882450  44.5724963   9.7857950  90.2997291
  44.3142741  10.7075020  90.2981622  44.0410003   9.3888384  90.9897755
  49.5171152  22.8908737  83.0787377  49.6908029  22.3255159  82.3261229
  50.0100043  23.6909632  82.8966867  35.3348112  14.9023406  91.1450935
  34.7901580  15.6783214  91.2771210  36.2127462  15.2494210  90.9870057
  42.1235728   8.2334990  83.5231734  42.2451639   7.3051636  83.7222621
  41.8337771   8.2473676  82.6110049  44.9926919   5.9189900  86.6598454
  45.0148616   5.9829233  85.7050433  45.4094978   5.0794409  86.8538960
  55.3710543  15.6545160  84.6977676  55.8141689  14.9052485  84.2996800
  54.4937053  15.6455296  84.3151408  50.5046324  22.2075501  80.1784275
  51.1997229  22.8282194  80.3971590  50.8469474  21.3570852  80.4536653
  36.1214134  14.0293302  94.0381092  35.3795870  14.1775937  94.6245723
  35.8006878  14.2901568  93.1747842  52.4037747  19.6575207  81.7071606
  52.9289072  19.9962479  80.9820926  52.3160100  18.7222222  81.5234740
  44.0657796  23.5709280  93.8361482  44.3744923  23.3258427  94.7084182
  44.8633278  23.7755919  93.3480353  44.0878408  25.7247190  86.0666859
  43.6483398  25.2323569  86.7599716  44.8386525  25.1820158  85.8258934
  36.5670747  21.9158731  86.0691487  37.3928767  21.6162503  85.6890130
  36.2164799  21.1466353  86.5181276  41.5352280  21.2685199  88.1389161
  40.9132290  20.6055904  87.8391388  42.2057147  21.2946331  87.4562808
  34.7679352  19.8345057  87.0280421  33.9311261  19.4067232  86.8464422
  34.7402998  20.0277501  87.9651212  52.0931654  20.2908110  97.0122804
  51.3027197  20.2732249  96.4727303  51.8565008  20.8296404  97.7671840
  52.2129529  17.1400577  94.3255532  52.2627534  16.9750584  95.2671055
  52.1043452  16.2727836  93.9353413  41.0965787  19.8189122  81.6147621
  41.2453908  20.5024587  80.9614294  41.9032231  19.7994212  82.1297077
  49.5033291  13.1231505  95.6414839  50.4043154  12.9837969  95.3498837
  49.5781265  13.2885959  96.5813016  43.8376096  10.4998359  94.4868025
  42.9679406  10.7931925  94.2150614  44.0735577  11.0838804  95.2075289
  53.7147725  19.5597518  94.5697554  53.4232534  19.9227499  95.4061015
  53.1019857  18.8464526  94.3910886  54.9143408  17.1250398  87.0900124
  55.7490299  17.5640202  87.2537684  55.0502537  16.6489051  86.2708370
  51.9634914  14.6830133  93.0377612  52.4389035  14.8757779  92.2296463
  51.0400479  14.7389319  92.7920995  38.8518420  15.8454300  82.6208690
  38.6064462  14.9416630  82.8188900  39.0214335  15.8471450  81.6788168
  46.5415130   6.7177976  92.0033446  47.0597074   7.4539003  91.6779934
  46.1870263   7.0241970  92.8380205  38.1214068  11.5782658  80.1194851
  37.4283313  11.6527012  79.4634887  37.8765820  10.8143001  80.6416368
  46.7927724   3.1378259  87.5234342  47.0729478   2.4701448  88.1494769
  47.5778331   3.3307354  87.0109006  44.5961193  22.3137253  79.0859368
  44.0235160  22.9327440  78.6329840  45.1693986  22.8636614  79.6199290
  50.6636583  11.5595893  91.2705917  51.6154006  11.6593990  91.2918141
  50.4940033  10.7674161  91.7804002  48.6850962   8.6451476  91.4565318
  48.0900894   8.9256489  90.7611807  48.4000659   9.1345377  92.2282059
  47.8158453  22.5974403  80.2167951  48.7489126  22.5319965  80.4200826
  47.7281665  23.4330670  79.7582483  50.4446469  21.9140273  77.1771898
  50.3660101  21.5800137  78.0707656  51.2656136  22.4062041  77.1763371
  53.1424660  14.7802013  90.3848217  53.1100981  13.8418013  90.5707901
  53.7525284  14.8586049  89.6514042  44.9807991  13.6498065  76.4275421
  45.9267096  13.5204274  76.4963839  44.6022236  12.9112727  76.9044849
  53.2919149  11.5713056  90.4306500  52.7758198  10.7871513  90.2436429
  54.1759097  11.2431773  90.5953020  50.9529876   5.3154072  86.3902313
  50.7554697   5.0069160  87.2745645  51.5629581   6.0415710  86.5200243
  58.9601210  15.8418019  89.5254254  59.6904599  15.5803307  90.0861957
  58.3508156  15.1046741  89.5656322  57.0416507  13.9825882  90.1228705
  56.3149671  13.8481847  89.5145197  56.6263794  14.2902711  90.9285423
  44.8646684  17.7015812  97.8876078  45.7849693  17.8794411  98.0816124
  44.8296267  16.7571857  97.7355777  43.1650908  11.5748042  76.3630306
  42.2582364  11.2781155  76.4393020  43.4426889  11.2777860  75.4964592
  34.0828849  12.8954405  86.8129353  33.7631633  12.0419713  86.5203727
  33.5362277  13.1102983  87.5687320  37.8608756  15.6116846  90.5298859
  38.0794766  16.5433954  90.5486893  38.2734530  15.2524821  91.3153663
  44.7812974   6.1184932  82.5174548  43.9713702   5.7732017  82.8929794
  45.4697391   5.8092475  83.1062159  46.7103522   5.1962978  84.1398844
  47.2634561   5.6158432  84.7988867  46.9473609   4.2698727  84.1821800
  41.9349693   8.4334977  76.5042285  42.7968857   8.7589875  76.7638103
  42.1200037   7.6466473  75.9915351  33.9517109  16.5157317  88.7822474
  33.2580580  16.1011270  88.2692429  34.6990100  16.5577853  88.1855893
  50.0882330   7.3063504  83.6477508  49.5080999   7.9648308  83.2655561
  49.8218262   6.4840848  83.2364926  48.5385896   6.7068561  85.8498829
  49.0385674   6.8185096  85.0413148  49.1821504   6.4029614  86.4899637
  42.5967892  14.6147191  98.7366670  42.1134973  15.4147551  98.9430559
  42.6828831  14.6255136  97.7834114  35.8653851  16.4475571  86.6588489
  35.8424539  16.5463258  85.7070372  36.1754488  17.2940721  86.9805655
  38.5241229  18.5051726  90.7735103  39.4784483  18.4735668  90.7065035
  38.3253753  18.0442349  91.5885329  39.1140611  17.0752842  93.3405901
  39.9333500  17.5696920  93.3640738  39.3877419  16.1584810  93.3123469
  48.8707208   9.4663594  82.7033857  47.9833063   9.7513245  82.4854051
  49.2861197   9.3057357  81.8561134  52.2221744   9.4910115  86.4188196
  52.9982134   9.9806567  86.6912813  51.4969878   9.9168169  86.8760065
  54.6594302  10.2037734  87.4762137  55.2538793   9.9633470  86.7655445
  54.7320886   9.4844865  88.1035673  36.8791458  24.0471345  87.7905301
  36.7445926  23.2871746  87.2243299  36.4623520  24.7712245  87.3234090
  48.0150421  19.2308269  76.7981877  48.7186271  19.4358271  77.4139532
  47.2913070  19.7985031  77.0630960  48.8448231  14.9818130  82.9184147
  48.7883433  15.4386681  82.0791779  49.3976574  14.2208814  82.7406990
  52.6553037  10.7707862  83.7434266  52.3989971  10.3704497  84.5742474
  52.0305905  11.4851656  83.6184405  56.9665375  13.5103935  86.2505558
  56.4064933  13.5797124  87.0237120  56.3608878  13.3344920  85.5305054
  40.0360584  24.9440662  88.0023744  39.9192968  25.8886095  87.9002434
  39.2153030  24.6414224  88.3909543  49.9237118  19.6690798  78.8480337
  50.7582722  19.2371996  78.6657812  49.7621461  19.4972811  79.7757231
  49.5783011  16.1722911  80.2136676  49.5231814  16.0067183  79.2725120
  48.9529066  16.8798944  80.3698866  34.3675526  11.4090975  94.0398098
  35.0134389  10.8989929  94.5285323  34.1592677  12.1459657  94.6141523
  46.8928918  18.4771823  99.5390239  47.7620077  18.6512475  99.1776874
  46.4135669  19.2966240  99.4165968  42.8879136   5.6731020  79.7921994
  42.8757806   6.6172860  79.9490265  43.7802558   5.4901166  79.4981456
  41.0615098  25.5968924  91.2179672  41.9642345  25.6292534  91.5346167
  40.8352468  24.6669375  91.2326008  42.8168700  24.3499911  87.8789751
  41.8664331  24.3501772  87.7654123  43.1201186  23.6032645  87.3625786
  46.7031256   2.2673797  84.0467931  45.9363651   1.7132283  84.1924614
  47.1141960   2.3395666  84.9082083  58.5521394  30.1860449  88.9435513
  59.1899803  30.0667196  88.2398854  58.4342236  31.1341293  89.0023466
  55.3611100  30.1387877  88.8797038  55.0229611  30.0228942  87.9917573
  56.2300868  29.7379042  88.8598044  51.2197915  31.9923353  84.8693929
  50.6562781  31.9013290  84.1010217  51.1050311  31.1723258  85.3496422
  55.8430883  31.2922729  94.8383244  55.8319524  30.8975527  93.9663747
  56.0051522  30.5588801  95.4317015  48.7662347  33.4874545  87.7078150
  49.5583639  33.1465370  87.2924449  49.0058998  33.5969520  88.6280303
  56.7997474  35.6594321  80.1808394  56.1485454  36.2448402  79.7942408
  57.5941837  36.1900516  80.2403431  50.7253101  32.7483458  80.5795528
  51.4983977  32.2012445  80.4408404  51.0778500  33.6127708  80.7909990
  52.5638144  34.0759841  93.7862428  52.2728010  34.9805471  93.6709094
  53.1995128  34.1176368  94.5006497  53.4894351  31.4536689  90.3763787
  54.0857923  31.2292711  89.6620750  53.5469322  30.7121435  90.9789235
  53.0619379  28.9076124  78.2113978  53.3144900  28.3857646  77.4497441
  52.1243938  28.7442270  78.3140662  58.1062662  27.9111903  86.0188721
  58.8925751  27.4931326  85.6679139  58.3701366  28.8157995  86.1870370
  58.2772739  33.3484753  80.7177378  57.6418572  33.4219380  81.4298283
  57.9470146  33.9378352  80.0396458  63.5071089  27.8487136  86.9221700
  64.2396261  27.2786353  87.1559529  62.7510445  27.4608736  87.3628206
  52.7815668  30.8104230  80.4138353  52.6651926  30.1349134  81.0819438
  52.8917928  30.3236604  79.5970506  55.1247209  30.2714377  84.1185042
  54.7605416  29.7444998  84.8297964  55.9814325  29.8812847  83.9451528
  61.0296509  21.5608710  91.3816309  60.6979834  22.4304121  91.1577524
  60.4342123  21.2444994  92.0610339  54.7652696  25.3004277  79.1146391
  54.9327098  26.1684514  79.4816862  54.5749865  25.4631559  78.1907680
  57.5228029  33.7621256  90.7812221  57.2228752  34.6646295  90.6728029
  57.1779089  33.4953439  91.6333374  50.9740510  30.2135053  86.8148926
  50.0491007  30.0811267  87.0226618  51.2224924  30.9929272  87.3118868
  60.9225173  26.2803796  88.4609659  60.0142050  26.2119205  88.1668420
  60.8712769  26.7575741  89.2891484  54.7441917  27.7561935  80.0993058
  54.6241542  28.2018985  80.9378538  54.0494505  28.1047252  79.5406596
  48.3349322  29.8568326  87.6492715  48.4641703  30.1102805  88.5632127
  47.6546773  30.4496034  87.3297370  52.5048809  40.5265576  83.7483189
  52.4272839  41.4773402  83.8271670  51.9010452  40.1811449  84.4058115
  54.9966039  27.6993442  96.4044556  54.2199373  28.2587362  96.3947421
  55.6356602  28.1850225  96.9259426  62.7886819  24.4820235  90.2387533
  62.1461199  24.7752768  89.5927327  62.2841748  24.3673155  91.0440729
  60.4426983  28.2283408  80.9273392  61.3544839  28.4610795  80.7521089
  59.9336630  28.8120452  80.3648470  53.2512411  30.5078895  95.9662523
  53.9927095  31.0463939  95.6897347  52.5449396  31.1345184  96.1234075
  58.7267751  32.6508036  94.5634684  59.1351107  32.2090446  93.8189317
  58.0045012  32.0760663  94.8168877  55.0798821  27.5880642  91.9368241
  55.9260016  28.0120056  92.0802890  55.0197458  26.9314267  92.6306804
  59.0496565  33.2109226  88.3186973  58.4205428  33.3754940  87.6163041
  58.6622227  33.6250836  89.0897937  62.9285797  34.1463664  85.6731337
  62.2436835  34.5262566  85.1228370  63.0129646  34.7558991  86.4063285
  58.2298266  25.2485011  93.5949415  57.9859198  26.0027071  93.0583691
  58.5058196  25.6270358  94.4296662  60.1836729  31.7923623  92.2726681
  60.3953624  32.4355383  91.5961062  60.1366477  30.9585940  91.8048611
  57.7862958  24.4041444  89.1763253  56.9247437  24.7022697  89.4679990
  57.8125392  24.6211843  88.2444285  54.6024527  32.9483634  85.5837058
  55.0662873  33.2271337  84.7941681  54.3381325  32.0467079  85.4010149
  51.4948608  32.4955116  88.5216822  52.0649965  32.9242384  87.8834306
  52.0856720  32.2137701  89.2201007  53.5393413  29.0706787  82.3926624
  54.2417456  29.5227830  82.8600550  53.2074042  28.4290606  83.0206517
  51.9873775  27.6618543  96.7677833  51.3572435  28.3434824  97.0013230
  51.8809863  27.5501625  95.8230971  47.2818747  27.3290339  87.6943757
  46.4917801  27.5847868  87.2183868  47.7729994  28.1438677  87.7995798
  61.2982557  34.6695579  90.4449038  62.1200000  34.2675766  90.1631720
  61.2944959  34.5663813  91.3965154  49.2333492  27.6934919  84.6527234
  48.4364656  27.8053613  85.1710729  49.0059085  28.0321571  83.7868124
  55.0639160  34.2179622  92.6009748  55.1283593  34.6800029  93.4367920
  54.3550084  33.5876987  92.7292058  45.5656450  27.5820830  90.1258748
  45.8164488  28.4667840  90.3916324  46.1015998  27.4025431  89.3533840
  69.3888550  31.0134327  86.7934009  68.6352258  30.4441725  86.6378014
  69.5236091  30.9796992  87.7404644  54.7787178  35.8847729  82.4688729
  54.6432853  36.7299265  82.8973577  55.3196990  36.0867007  81.7054663
  51.2654517  21.9639309  99.1303084  50.8721463  21.4105508  99.8050728
  52.0820658  22.2749888  99.5209602  48.2316575  33.4023167  83.0416654
  48.7441096  34.1966418  83.1922219  48.8839288  32.7049458  82.9750255
  50.0411460  36.5188924  85.1239407  50.2178088  37.4406888  84.9360391
  50.8368293  36.2047343  85.5533787  54.1822478  23.3797188  96.7223341
  54.9232192  23.9804341  96.6427803  54.4140401  22.6374826  96.1641383
  49.3263816  28.5653556  95.0001570  49.2117332  27.6638813  95.3008669
  48.4708334  28.8117252  94.6486387  56.4055654  36.5071296  96.5989071
  55.9619508  35.7207674  96.2809975  57.0672868  36.6950446  95.9332962
  51.1642775  38.0367097  91.1249749  51.7150200  37.9084161  90.3526743
  50.3254251  38.3361986  90.7744642  58.5036892  36.7874096  94.6270472
  58.4855368  37.6082977  94.1350741  59.4256812  36.6628171  94.8520613
  54.9609946  34.3018225  95.4693980  55.4938283  33.5406513  95.2393288
  54.4324027  34.0091877  96.2118135  58.1279641  19.4078291  90.9987622
  57.7843911  20.2979933  90.9226733  58.4958604  19.2179949  90.1357207
  46.1965492  31.7311822  83.8176224  47.0340714  32.1408830  83.6009932
  46.3743760  30.7911264  83.7876418  58.0929924  29.3986902  79.5060057
  57.5776547  30.1691507  79.7448445  57.8207232  28.7252039  80.1293119
  55.6777035  24.2436603  84.5645296  54.8218631  23.8543454  84.3850934
  56.0903987  24.3228564  83.7045081  57.2076182  21.7782946  88.9636855
  56.7040977  21.7413082  88.1504661  57.5006789  22.6875689  89.0233512
  53.4519068  21.8621676  87.9703037  54.3172064  21.6664485  87.6108927
  53.5196576  21.6332028  88.8972394  63.0664198  32.1519257  81.4413231
  62.2893641  31.8130417  80.9968393  63.7455679  32.1571880  80.7668196
  57.8816227  27.2713994  81.3319839  57.5766363  27.5860144  82.1829982
  58.8346669  27.3495414  81.3747172  56.3262659  33.4304218  82.9812792
  55.7984021  32.6956977  82.6686030  55.8250162  34.2078894  82.7352761
  61.3055505  31.6253238  88.0979839  60.6479179  32.3152500  88.1859967
  62.1095904  32.0149670  88.4413825  51.0581387  24.0923884  85.3419404
  51.6325139  23.8699066  84.6092597  51.6452369  24.1612579  86.0948005
  60.1160964  29.9797611  86.1483781  60.6292846  30.6127603  86.6505490
  60.7662188  29.3798806  85.7827141  51.3850974  26.1228345  79.3615289
  50.5488286  26.4603032  79.6824564  51.2455743  25.9877325  78.4242426
  53.3604054  20.9665133  84.0694473  52.7068467  20.6514150  83.4451088
  53.3184529  20.3440873  84.7954296  54.4715259  31.2484428  75.9847766
  53.5642321  31.0173681  76.1838915  54.9686291  30.4522047  76.1721747
  57.3783338  39.9581935  78.9044452  56.7045037  40.2613632  79.5129410
  57.7649160  40.7611016  78.5549909  56.5941795  27.4547067  88.3942121
  55.6764356  27.6762014  88.2363809  57.0101938  27.5293377  87.5353828
  57.3776842  28.8538482  83.5244801  58.1248661  29.3659879  83.2151923
  57.6468432  28.5322535  84.3849195  55.6503493  31.3497023  80.5071756
  54.7414712  31.0656056  80.6044225  55.6798576  31.7696101  79.6475062
  60.8822760  34.9603612  84.2762923  60.4285087  34.1194522  84.3328114
  60.2516727  35.5965011  84.6137703  59.8255680  25.8895598  85.5063591
  59.0878436  25.3772985  85.8373833  60.0782453  25.4495980  84.6946868
  59.3255699  36.7980109  85.2112741  59.6178674  37.3585166  84.4925107
  59.8354320  37.0908670  85.9665900  59.9267307  18.6671850  86.1005360
  60.2326184  17.8069214  85.8131275  60.6519912  19.2589471  85.9004354
  46.2191663  29.0702537  84.4886958  46.0216063  28.4771898  83.7638024
  45.6638327  28.7654747  85.2062897  54.1988387  28.9625644  86.6081551
  54.2536996  28.0099480  86.5324028  53.3879589  29.1185083  87.0922849
  55.3479580  32.8905767  77.8459834  54.9099010  32.1741626  77.3865472
  56.0890021  33.1181881  77.2844926  52.1380747  27.5802703  84.3671930
  51.3248612  27.8796874  84.7737122  52.6339741  27.1858392  85.0846412
  54.2889325  37.5760460  86.3006195  54.2465503  37.8021306  85.3714727
  55.2052023  37.3423835  86.4491996  57.7354958  28.0444528  93.1986824
  58.0904346  28.2716001  94.0581289  58.3827090  28.3762905  92.5764079
  63.4652695  31.1662964  83.9036153  63.3270594  31.3564560  82.9757342
  63.1088914  31.9282346  84.3604204  51.6294821  25.1521059  89.9833165
  52.2694201  25.0109818  89.2856128  50.7972352  24.8655572  89.6071767
  63.4922075  33.2339491  88.9147424  63.9258582  33.1414780  89.7630478
  64.2053656  33.2096991  88.2767440  52.4055125  34.4523489  86.0968157
  53.1995724  33.9573809  85.8950732  51.6946818  33.9241352  85.7335863
  57.2249970  36.8341585  90.4480525  57.2786992  37.4032521  91.2158241
  56.3564751  37.0043470  90.0834562  48.7137889  28.5966571  82.1727910
  47.7835477  28.5351026  82.3897872  48.8095361  28.0742524  81.3764551
  48.6323438  25.1221384  84.7606152  48.8930255  26.0366717  84.6515312
  49.4540610  24.6545826  84.9102764  50.1048363  26.5359141  91.9304976
  50.7771417  26.3276503  91.2817625  49.2778150  26.3381227  91.4910208
  64.3537624  33.2763191  91.4480310  64.5473514  34.1809002  91.6939585
  64.2538243  32.8170610  92.2818895  56.0073935  23.1621082  93.9470637
  55.3601850  23.8611032  93.8535113  56.7774951  23.5957226  94.3146885
  59.4152733  33.4269934  97.0221190  59.2638239  33.1980486  96.1051274
  59.4057413  34.3840535  97.0352535  56.1838069  31.0001847  92.0067457
  57.1130129  31.1513006  91.8336424  55.7629100  31.0885868  91.1516103
  54.9826401  35.0252511  89.7765994  54.8437487  34.6571296  90.6491932
  54.1940998  35.5400151  89.6049952  55.5774553  40.1261608  81.1191531
  55.7526309  39.6549651  81.9337154  54.8907341  40.7527374  81.3472792
  56.5331616  34.4034114  87.1654832  56.1981449  34.3634884  88.0612482
  56.0335562  33.7378830  86.6925242  50.5075860  29.8101744  92.6907413
  50.3695658  29.0781983  93.2918952  51.4180784  29.7210644  92.4091601
  59.4690808  31.7490148  77.4391892  58.8519979  31.0236976  77.3424944
  59.0007297  32.5099508  77.0958966  53.1358161  29.5221703  92.1791093
  53.8457780  28.8814895  92.1377711  53.0927469  29.7734598  93.1017274
  61.1244940  36.4589057  95.0997672  61.0657486  35.7748277  94.4328255
  61.5264458  37.2008047  94.6478298  51.8487095  26.5086921  93.9986732
  51.3124452  26.0577660  94.6508329  51.2603803  26.6432830  93.2557197
  50.1435639  43.2750970  87.8931391  50.3832237  43.9069495  88.5710410
  49.3004835  42.9239010  88.1796750  51.2589354  25.9675573  76.5613196
  50.3818820  25.8464373  76.1975443  51.7347107  25.1761651  76.3092085
  61.1262347  34.4228641  93.3311652  60.2389126  34.0854562  93.4538051
  61.6960898  33.6911672  93.5680417  42.7791494  30.7552732  86.6554703
  43.4662534  30.4414462  86.0675719  42.6239623  31.6594097  86.3821955
  47.5826216  25.6442929  91.0839727  47.4984405  25.0368598  90.3490137
  46.7608923  26.1351947  91.0849223  54.6563500  39.0830093  90.2972895
  54.5833672  39.8885064  90.8092200  54.2140894  39.2822059  89.4720916
  54.4453280  38.3201863  83.8075717  53.6620802  38.8623543  83.9013941
  55.1446025  38.8375843  84.2069958  57.7549930  24.1296492  86.4509922
  58.2518630  23.3766455  86.1310992  56.9836912  24.1660809  85.8853131
  65.6079688  29.8336858  88.0928213  65.5969564  30.7161573  87.7222147
  64.7397067  29.4808409  87.8982751  57.1162184  38.9816927  92.4531054
  57.8290156  39.6164392  92.3806955  56.6252213  39.0780793  91.6371056
  58.8379711  32.8868180  84.0248345  57.9035990  33.0069642  83.8553050
  59.0156379  31.9840646  83.7608355  54.3384899  26.2713875  86.1781607
  53.9682686  25.7184916  86.8662512  54.8343991  25.6672009  85.6256607
  62.2252262  28.7285499  84.5598380  62.6912714  29.5613490  84.4858682
  62.6759763  28.2630480  85.2643638  52.1674097  36.7311370  93.2736625
  52.8683557  37.3647853  93.4266019  51.6969212  37.0726102  92.5132264
  60.2928493  35.0729320  81.5584532  60.5688337  34.9585915  82.4678406
  59.4232992  34.6746805  81.5196705  60.1968925  21.0966086  88.5989281
  59.2832005  21.3270313  88.7671488  60.6262026  21.1804530  89.4503313
  59.9675383  29.2855978  91.0989175  59.3146834  29.5331885  90.4441628
  60.3455763  28.4720116  90.7651652  56.9282557  39.3215671  85.2017345
  57.1104952  38.5037327  85.6645097  57.7515543  39.5383363  84.7642235
  57.2624723  38.2483856  82.4632394  57.7912489  37.7376311  81.8502556
  57.5252942  37.9326386  83.3277927  56.0162956  30.0275789  97.5855212
  55.3403593  29.9269918  98.2557587  56.8390590  29.8715003  98.0491209
  47.7641816  36.2647725  90.2067727  48.3495252  35.5191413  90.3395631
  47.5666654  36.5751682  91.0904391  50.6180471  39.2998973  85.2230170
  49.9490846  39.7845100  84.7394210  50.4793340  39.5468193  86.1373548
  42.3559470  28.8353326  88.9272170  42.3943570  28.3016916  89.7209288
  41.8499763  28.3088531  88.3083148  54.7585739  41.3342716  91.8212828
  55.3104047  41.4974338  92.5861913  55.0991933  41.9247154  91.1492853
  49.7350233  23.6817866  92.4234713  49.7991559  24.5432697  92.0112110
  49.6717353  23.0691868  91.6907071  49.2102505  25.7540999  96.0707747
  49.8374544  25.3718076  96.6845271  48.3530424  25.5355201  96.4363439
  59.6096614  36.1603974  97.6761482  60.1536518  36.7733932  97.1816437
  59.0283458  36.7183552  98.1928495  45.9868048  27.5617428  82.0026102
  46.2821489  26.6528106  81.9493155  45.0856084  27.5405167  81.6807104
  57.8954127  39.2824692  88.8076510  57.7705266  38.4814432  88.2987456
  58.5533218  39.7770885  88.3190480  49.5162295  25.6373424  87.9853650
  48.7948881  26.2509392  87.8461124  50.3055551  26.1731189  87.9070296
  59.9589035  37.0833712  90.4356060  59.0119371  36.9639063  90.3634387
  60.3071808  36.1956210  90.5182322  52.3188608  22.9727851  94.2594302
  52.8423010  23.2190147  95.0220611  52.1000942  23.8047886  93.8397439
  47.7155889  25.2431525  82.1265427  47.3868596  24.3628904  81.9440533
  48.0695260  25.1879194  83.0141816  56.9635468  36.8786428  86.6360412
  56.8160431  35.9503136  86.8167982  57.7888962  36.9006519  86.1517488
  50.8297713  25.5304495  82.4940905  51.1693785  26.0590416  81.7719513
  51.2769833  25.8684901  83.2699471  60.5669590  37.7014987  87.7225285
  61.4916138  37.4957848  87.5849736  60.3984893  37.4531388  88.6314627
  53.5241153  23.9141546  91.9443973  53.1837974  23.1149359  92.3464652
  52.8180160  24.2143257  91.3720806  54.1757625  20.9990858  90.3971296
  54.9983695  20.5251337  90.2750186  54.4195689  21.7781342  90.8969982
  52.8165860  24.0279117  80.6934197  53.5374222  24.4060370  80.1897914
  52.1931164  24.7467994  80.7969175  56.9596983  24.7324266  81.6292530
  57.1760597  25.6148904  81.3281358  56.4791050  24.3410479  80.8998172
  51.6996204  27.6909979  88.2063274  51.5540785  28.0050282  89.0987556
  51.2221408  28.3094879  87.6534173  53.5592587  24.6812527  88.2544164
  53.5454156  23.7853620  87.9176462  54.2765015  24.6883191  88.8882450
  55.4118718  25.1149867  90.2997291  55.1536495  26.0366938  90.2981622
  54.8803758  24.7180302  90.9897755  60.3564906  38.2200654  83.0787377
  60.5301784  37.6547077  82.3261229  60.8493798  39.0201549  82.8966867
  46.1741866  30.2315323  91.1450935  45.6295334  31.0075131  91.2771210
  47.0521216  30.5786128  90.9870057  52.9629483  23.5626907  83.5231734
  53.0845394  22.6343553  83.7222621  52.6731525  23.5765593  82.6110049
  55.8320673  21.2481818  86.6598454  55.8542370  21.3121151  85.7050433
  56.2488732  20.4086326  86.8538960  66.2104298  30.9837077  84.6977676
  66.6535444  30.2344402  84.2996800  65.3330808  30.9747214  84.3151408
  61.3440079  37.5367419  80.1784275  62.0390983  38.1574111  80.3971590
  61.6863229  36.6862770  80.4536653  46.9607888  29.3585220  94.0381092
  46.2189624  29.5067855  94.6245723  46.6400632  29.6193485  93.1747842
  63.2431502  34.9867124  81.7071606  63.7682826  35.3254397  80.9820926
  63.1553855  34.0514140  81.5234740  54.9051551  38.9001198  93.8361482
  55.2138677  38.6550345  94.7084182  55.7027033  39.1047836  93.3480353
  54.9272163  41.0539108  86.0666859  54.4877153  40.5615486  86.7599716
  55.6780280  40.5112075  85.8258934  47.4064502  37.2450648  86.0691487
  48.2322522  36.9454420  85.6890130  47.0558554  36.4758271  86.5181276
  52.3746035  36.5977117  88.1389161  51.7526044  35.9347822  87.8391388
  53.0450902  36.6238249  87.4562808  45.6073107  35.1636975  87.0280421
  44.7705015  34.7359149  86.8464422  45.5796752  35.3569418  87.9651212
  52.4470562  25.0758905  97.7321667  52.4958718  25.9521027  97.3499436
  52.9893077  24.5336298  97.1593310  62.9325408  35.6200028  97.0122804
  62.1420952  35.6024167  96.4727303  62.6958763  36.1588322  97.7671840
  63.0523283  32.4692494  94.3255532  63.1021288  32.3042502  95.2671055
  62.9437206  31.6019753  93.9353413  51.9359542  35.1481040  81.6147621
  52.0847662  35.8316504  80.9614294  52.7425985  35.1286130  82.1297077
  60.3427045  28.4523422  95.6414839  61.2436908  28.3129887  95.3498837
  60.4175020  28.6177877  96.5813016  54.6769851  25.8290277  94.4868025
  53.8073160  26.1223843  94.2150614  54.9129331  26.4130722  95.2075289
  64.5541480  34.8889436  94.5697554  64.2626288  35.2519416  95.4061015
  63.9413611  34.1756444  94.3910886  65.7537162  32.4542316  87.0900124
  66.5884054  32.8932120  87.2537684  65.8896291  31.9780969  86.2708370
  62.8028668  30.0122050  93.0377612  63.2782790  30.2049697  92.2296463
  61.8794234  30.0681236  92.7920995  49.6912175  31.1746218  82.6208690
  49.4458217  30.2708548  82.8188900  49.8608089  31.1763368  81.6788168
  57.3808885  22.0469894  92.0033446  57.8990828  22.7830921  91.6779934
  57.0264017  22.3533887  92.8380205  48.9607822  26.9074575  80.1194851
  48.2677067  26.9818930  79.4634887  48.7159574  26.1434919  80.6416368
  57.6321479  18.4670177  87.5234342  57.9123233  17.7993366  88.1494769
  58.4172086  18.6599272  87.0109006  55.4354947  37.6429170  79.0859368
  54.8628914  38.2619358  78.6329840  56.0087741  38.1928532  79.6199290
  61.5030337  26.8887810  91.2705917  62.4547760  26.9885908  91.2918141
  61.3333788  26.0966079  91.7804002  59.5244717  23.9743394  91.4565318
  58.9294649  24.2548406  90.7611807  59.2394413  24.4637295  92.2282059
  58.6552207  37.9266321  80.2167951  59.5882880  37.8611882  80.4200826
  58.5675420  38.7622587  79.7582483  61.2840224  37.2432191  77.1771898
  61.2053855  36.9092054  78.0707656  62.1049891  37.7353959  77.1763371
  63.9818415  30.1093930  90.3848217  63.9494735  29.1709931  90.5707901
  64.5919039  30.1877967  89.6514042  55.8201746  28.9789983  76.4275421
  56.7660851  28.8496191  76.4963839  55.4415991  28.2404645  76.9044849
  64.1312903  26.9004974  90.4306500  63.6151952  26.1163430  90.2436429
  65.0152852  26.5723690  90.5953020  61.7923630  20.6445989  86.3902313
  61.5948451  20.3361077  87.2745645  62.4023336  21.3707628  86.5200243
  69.7994965  31.1709937  89.5254254  70.5298353  30.9095225  90.0861957
  69.1901910  30.4338659  89.5656322  67.8810262  29.3117800  90.1228705
  67.1543425  29.1773765  89.5145197  67.4657549  29.6194628  90.9285423
  55.7040438  33.0307729  97.8876078  56.6243448  33.2086328  98.0816124
  55.6690021  32.0863775  97.7355777  54.0044663  26.9039960  76.3630306
  53.0976118  26.6073072  76.4393020  54.2820644  26.6069778  75.4964592
  44.9222603  28.2246323  86.8129353  44.6025388  27.3711631  86.5203727
  44.3756031  28.4394901  87.5687320  48.7002511  30.9408764  90.5298859
  48.9188521  31.8725872  90.5486893  49.1128285  30.5816738  91.3153663
  55.6206729  21.4476849  82.5174548  54.8107457  21.1023934  82.8929794
  56.3091146  21.1384393  83.1062159  57.5497277  20.5254896  84.1398844
  58.1028316  20.9450349  84.7988867  57.7867363  19.5990644  84.1821800
  53.5730376  26.5141970  99.9201608  53.4727103  27.4636327  99.8513699
  53.3551918  26.1860209  99.0477678  52.7743448  23.7626895  76.5042285
  53.6362612  24.0881793  76.7638103  52.9593792  22.9758391  75.9915351
  44.7910863  31.8449234  88.7822474  44.0974335  31.4303187  88.2692429
  45.5383854  31.8869771  88.1855893  60.9276084  22.6355421  83.6477508
  60.3474753  23.2940225  83.2655561  60.6612017  21.8132766  83.2364926
  59.3779650  22.0360479  85.8498829  59.8779429  22.1477013  85.0413148
  60.0215258  21.7321532  86.4899637  53.4361646  29.9439109  98.7366670
  52.9528728  30.7439469  98.9430559  53.5222585  29.9547053  97.7834114
  46.7047606  31.7767488  86.6588489  46.6818294  31.8755176  85.7070372
  47.0148242  32.6232639  86.9805655  49.3634984  33.8343643  90.7735103
  50.3178237  33.8027586  90.7065035  49.1647507  33.3734267  91.5885329
  49.9534366  32.4044759  93.3405901  50.7727255  32.8988838  93.3640738
  50.2271174  31.4876727  93.3123469  59.7100962  24.7955512  82.7033857
  58.8226817  25.0805162  82.4854051  60.1254951  24.6349275  81.8561134
  63.0615498  24.8202033  86.4188196  63.8375888  25.3098485  86.6912813
  62.3363632  25.2460087  86.8760065  65.4988057  25.5329652  87.4762137
  66.0932548  25.2925388  86.7655445  65.5714641  24.8136782  88.1035673
  47.7185213  39.3763263  87.7905301  47.5839680  38.6163664  87.2243299
  47.3017275  40.1004163  87.3234090  58.8544176  34.5600186  76.7981877
  59.5580026  34.7650189  77.4139532  58.1306824  35.1276948  77.0630960
  59.6841986  30.3110048  82.9184147  59.6277187  30.7678599  82.0791779
  60.2370328  29.5500732  82.7406990  63.4946792  26.0999779  83.7434266
  63.2383726  25.6996415  84.5742474  62.8699660  26.8143573  83.6184405
  67.8059130  28.8395853  86.2505558  67.2458688  28.9089042  87.0237120
  67.2002633  28.6636837  85.5305054  50.8754338  40.2732580  88.0023744
  50.7586723  41.2178012  87.9002434  50.0546785  39.9706141  88.3909543
  60.7630873  34.9982715  78.8480337  61.5976477  34.5663914  78.6657812
  60.6015216  34.8264729  79.7757231  60.4176765  31.5014829  80.2136676
  60.3625569  31.3359100  79.2725120  59.7922820  32.2090862  80.3698866
  45.2069280  26.7382893  94.0398098  45.8528144  26.2281847  94.5285323
  44.9986431  27.4751575  94.6141523  57.7322672  33.8063741  99.5390239
  58.6013832  33.9804393  99.1776874  57.2529424  34.6258157  99.4165968
  53.7272891  21.0022938  79.7921994  53.7151560  21.9464778  79.9490265
  54.6196312  20.8193083  79.4981456  51.9008853  40.9260842  91.2179672
  52.8036099  40.9584452  91.5346167  51.6746223  39.9961293  91.2326008
  53.6562455  39.6791828  87.8789751  52.7058086  39.6793690  87.7654123
  53.9594941  38.9324563  87.3625786  57.5425010  17.5965714  84.0467931
  56.7757406  17.0424201  84.1924614  57.9535715  17.6687583  84.9082083
  49.5466771  23.8850510  98.1373112  50.4098233  23.5287315  98.3476437
  48.9732182  23.5464405  98.8248517  69.3915148  45.5152367  88.9435513
  70.0293558  45.3959114  88.2398854  69.2735991  46.4633211  89.0023466
  66.2004854  45.4679795  88.8797038  65.8623366  45.3520859  87.9917573
  67.0694622  45.0670960  88.8598044  62.0591670  47.3215271  84.8693929
  61.4956535  47.2305208  84.1010217  61.9444065  46.5015176  85.3496422
  66.6824637  46.6214646  94.8383244  66.6713278  46.2267445  93.9663747
  66.8445277  45.8880719  95.4317015  59.6056102  48.8166463  87.7078150
  60.3977394  48.4757287  87.2924449  59.8452752  48.9261438  88.6280303
  67.6391229  50.9886239  80.1808394  66.9879208  51.5740319  79.7942408
  68.4335592  51.5192434  80.2403431  61.5646856  48.0775376  80.5795528
  62.3377732  47.5304363  80.4408404  61.9172255  48.9419625  80.7909990
  63.4031898  49.4051758  93.7862428  63.1121764  50.3097389  93.6709094
  64.0388883  49.4468286  94.5006497  64.3288105  46.7828607  90.3763787
  64.9251678  46.5584629  89.6620750  64.3863077  46.0413352  90.9789235
  63.9013134  44.2368042  78.2113978  64.1538654  43.7149563  77.4497441
  62.9637693  44.0734188  78.3140662  68.9456416  43.2403820  86.0188721
  69.7319506  42.8223244  85.6679139  69.2095121  44.1449913  86.1870370
  69.1166494  48.6776671  80.7177378  68.4812327  48.7511297  81.4298283
  68.7863900  49.2670270  80.0396458  74.3464844  43.1779054  86.9221700
  75.0790016  42.6078270  87.1559529  73.5904199  42.7900654  87.3628206
  63.6209422  46.1396148  80.4138353  63.5045681  45.4641051  81.0819438
  63.7311682  45.6528522  79.5970506  65.9640963  45.6006295  84.1185042
  65.5999171  45.0736916  84.8297964  66.8208079  45.2104764  83.9451528
  71.8690264  36.8900628  91.3816309  71.5373589  37.7596039  91.1577524
  71.2735877  36.5736912  92.0610339  65.6046450  40.6296195  79.1146391
  65.7720853  41.4976431  79.4816862  65.4143619  40.7923477  78.1907680
  68.3621784  49.0913174  90.7812221  68.0622507  49.9938213  90.6728029
  68.0172843  48.8245357  91.6333374  61.8134265  45.5426971  86.8148926
  60.8884761  45.4103185  87.0226618  62.0618678  46.3221190  87.3118868
  71.7618927  41.6095714  88.4609659  70.8535805  41.5411122  88.1668420
  71.7106523  42.0867659  89.2891484  65.5835671  43.0853852  80.0993058
  65.4635296  43.5310903  80.9378538  64.8888260  43.4339170  79.5406596
  59.1743076  45.1860244  87.6492715  59.3035457  45.4394723  88.5632127
  58.4940527  45.7787952  87.3297370  63.3442563  55.8557494  83.7483189
  63.2666593  56.8065319  83.8271670  62.7404207  55.5103367  84.4058115
  65.8359793  43.0285360  96.4044556  65.0593127  43.5879280  96.3947421
  66.4750356  43.5142142  96.9259426  73.6280574  39.8112152  90.2387533
  72.9854954  40.1044685  89.5927327  73.1235502  39.6965073  91.0440729
  71.2820737  43.5575326  80.9273392  72.1938593  43.7902712  80.7521089
  70.7730384  44.1412370  80.3648470  64.0906165  45.8370813  95.9662523
  64.8320850  46.3755857  95.6897347  63.3843151  46.4637102  96.1234075
  69.5661505  47.9799953  94.5634684  69.9744861  47.5382364  93.8189317
  68.8438767  47.4052581  94.8168877  65.9192575  42.9172560  91.9368241
  66.7653770  43.3411974  92.0802890  65.8591213  42.2606184  92.6306804
  69.8890320  48.5401144  88.3186973  69.2599182  48.7046858  87.6163041
  69.5015982  48.9542754  89.0897937  73.7679552  49.4755582  85.6731337
  73.0830590  49.8554483  85.1228370  73.8523401  50.0850908  86.4063285
  69.0692020  40.5776928  93.5949415  68.8252952  41.3318989  93.0583691
  69.3451951  40.9562276  94.4296662  71.0230483  47.1215541  92.2726681
  71.2347378  47.7647301  91.5961062  70.9760231  46.2877857  91.8048611
  68.6256712  39.7333361  89.1763253  67.7641191  40.0314615  89.4679990
  68.6519147  39.9503760  88.2444285  65.4418282  48.2775552  85.5837058
  65.9056627  48.5563255  84.7941681  65.1775080  47.3758997  85.4010149
  62.3342363  47.8247034  88.5216822  62.9043720  48.2534302  87.8834306
  62.9250474  47.5429618  89.2201007  64.3787168  44.3998704  82.3926624
  65.0811211  44.8519748  82.8600550  64.0467796  43.7582523  83.0206517
  62.8267529  42.9910461  96.7677833  62.1966190  43.6726742  97.0013230
  62.7203617  42.8793543  95.8230971  58.1212502  42.6582257  87.6943757
  57.3311556  42.9139786  87.2183868  58.6123749  43.4730595  87.7995798
  72.1376311  49.9987496  90.4449038  72.9593755  49.5967684  90.1631720
  72.1338714  49.8955730  91.3965154  60.0727247  43.0226836  84.6527234
  59.2758410  43.1345531  85.1710729  59.8452839  43.3613489  83.7868124
  65.9032915  49.5471540  92.6009748  65.9677347  50.0091947  93.4367920
  65.1943838  48.9168904  92.7292058  56.4050205  42.9112748  90.1258748
  56.6558243  43.7959757  90.3916324  56.9409753  42.7317349  89.3533840
  80.2282304  46.3426245  86.7934009  79.4746013  45.7733643  86.6378014
  80.3629845  46.3088909  87.7404644  65.6180932  51.2139647  82.4688729
  65.4826607  52.0591183  82.8973577  66.1590745  51.4158925  81.7054663
  62.1048272  37.2931227  99.1303084  61.7115217  36.7397425  99.8050728
  62.9214412  37.6041805  99.5209602  59.0710330  48.7315085  83.0416654
  59.5834850  49.5258335  83.1922219  59.7233042  48.0341376  82.9750255
  60.8805214  51.8480841  85.1239407  61.0571843  52.7698806  84.9360391
  61.6762048  51.5339261  85.5533787  65.0216233  38.7089106  96.7223341
  65.7625946  39.3096259  96.6427803  65.2534156  37.9666744  96.1641383
  60.1657571  43.8945473  95.0001570  60.0511086  42.9930730  95.3008669
  59.3102089  44.1409170  94.6486387  67.2449409  51.8363214  96.5989071
  66.8013263  51.0499592  96.2809975  67.9066622  52.0242364  95.9332962
  62.0036530  53.3659015  91.1249749  62.5543955  53.2376079  90.3526743
  61.1648006  53.6653904  90.7744642  69.3430647  52.1166013  94.6270472
  69.3249122  52.9374895  94.1350741  70.2650567  51.9920089  94.8520613
  65.8003701  49.6310143  95.4693980  66.3332038  48.8698431  95.2393288
  65.2717782  49.3383795  96.2118135  68.9673396  34.7370209  90.9987622
  68.6237665  35.6271851  90.9226733  69.3352358  34.5471867  90.1357207
  57.0359246  47.0603739  83.8176224  57.8734468  47.4700748  83.6009932
  57.2137514  46.1203182  83.7876418  68.9323679  44.7278820  79.5060057
  68.4170302  45.4983425  79.7448445  68.6600987  44.0543956  80.1293119
  66.5170790  39.5728521  84.5645296  65.6612386  39.1835371  84.3850934
  66.9297741  39.6520482  83.7045081  68.0469936  37.1074864  88.9636855
  67.5434732  37.0704999  88.1504661  68.3400543  38.0167607  89.0233512
  64.2912822  37.1913594  87.9703037  65.1565819  36.9956402  87.6108927
  64.3590331  36.9623946  88.8972394  73.9057953  47.4811175  81.4413231
  73.1287395  47.1422334  80.9968393  74.5849434  47.4863798  80.7668196
  68.7209982  42.6005912  81.3319839  68.4160117  42.9152061  82.1829982
  69.6740424  42.6787332  81.3747172  67.1656414  48.7596135  82.9812792
  66.6377775  48.0248895  82.6686030  66.6643916  49.5370812  82.7352761
  72.1449260  46.9545156  88.0979839  71.4872934  47.6444417  88.1859967
  72.9489659  47.3441588  88.4413825  61.8975141  39.4215802  85.3419404
  62.4718893  39.1990983  84.6092597  62.4846124  39.4904496  86.0948005
  70.9554718  45.3089529  86.1483781  71.4686600  45.9419520  86.6505490
  71.6055942  44.7090724  85.7827141  62.2244728  41.4520263  79.3615289
  61.3882041  41.7894949  79.6824564  62.0849498  41.3169243  78.4242426
  64.1997809  36.2957051  84.0694473  63.5462221  35.9806068  83.4451088
  64.1578283  35.6732791  84.7954296  65.3109014  46.5776346  75.9847766
  64.4036075  46.3465599  76.1838915  65.8080046  45.7813965  76.1721747
  68.2177093  55.2873853  78.9044452  67.5438791  55.5905550  79.5129410
  68.6042915  56.0902933  78.5549909  67.4335549  42.7838984  88.3942121
  66.5158111  43.0053931  88.2363809  67.8495693  42.8585295  87.5353828
  68.2170597  44.1830400  83.5244801  68.9642416  44.6951797  83.2151923
  68.4862187  43.8614453  84.3849195  66.4897247  46.6788941  80.5071756
  65.5808466  46.3947973  80.6044225  66.5192331  47.0988019  79.6475062
  71.7216515  50.2895530  84.2762923  71.2678842  49.4486440  84.3328114
  71.0910481  50.9256928  84.6137703  70.6649434  41.2187516  85.5063591
  69.9272191  40.7064902  85.8373833  70.9176208  40.7787898  84.6946868
  70.1649454  52.1272027  85.2112741  70.4572428  52.6877084  84.4925107
  70.6748074  52.4200588  85.9665900  70.7661061  33.9963768  86.1005360
  71.0719938  33.1361132  85.8131275  71.4913666  34.5881388  85.9004354
  57.0585418  44.3994455  84.4886958  56.8609817  43.8063815  83.7638024
  56.5032082  44.0946665  85.2062897  65.0382141  44.2917561  86.6081551
  65.0930751  43.3391398  86.5324028  64.2273343  44.4477000  87.0922849
  66.1873335  48.2197684  77.8459834  65.7492765  47.5033543  77.3865472
  66.9283776  48.4473799  77.2844926  62.9774501  42.9094621  84.3671930
  62.1642367  43.2088791  84.7737122  63.4733495  42.5150310  85.0846412
  65.1283079  52.9052378  86.3006195  65.0859258  53.1313224  85.3714727
  66.0445778  52.6715752  86.4491996  68.5748713  43.3736445  93.1986824
  68.9298101  43.6007919  94.0581289  69.2220844  43.7054822  92.5764079
  74.3046450  46.4954881  83.9036153  74.1664348  46.6856477  82.9757342
  73.9482669  47.2574264  84.3604204  62.4688576  40.4812976  89.9833165
  63.1087955  40.3401736  89.2856128  61.6366106  40.1947490  89.6071767
  74.3315829  48.5631408  88.9147424  74.7652336  48.4706697  89.7630478
  75.0447410  48.5388909  88.2767440  63.2448880  49.7815407  86.0968157
  64.0389478  49.2865727  85.8950732  62.5340572  49.2533270  85.7335863
  68.0643724  52.1633502  90.4480525  68.1180747  52.7324439  91.2158241
  67.1958506  52.3335387  90.0834562  59.5531643  43.9258489  82.1727910
  58.6229231  43.8642944  82.3897872  59.6489115  43.4034441  81.3764551
  59.4717192  40.4513301  84.7606152  59.7324010  41.3658635  84.6515312
  60.2934365  39.9837744  84.9102764  60.9442118  41.8651059  91.9304976
  61.6165171  41.6568421  91.2817625  60.1171904  41.6673145  91.4910208
  75.1931379  48.6055109  91.4480310  75.3867269  49.5100919  91.6939585
  75.0931997  48.1462528  92.2818895  66.8467690  38.4913000  93.9470637
  66.1995605  39.1902949  93.8535113  67.6168705  38.9249143  94.3146885
  70.2546488  48.7561852  97.0221190  70.1031994  48.5272403  96.1051274
  70.2451167  49.7132453  97.0352535  67.0231824  46.3293764  92.0067457
  67.9523884  46.4804924  91.8336424  66.6022854  46.4177785  91.1516103
  65.8220156  50.3544429  89.7765994  65.6831241  49.9863213  90.6491932
  65.0334752  50.8692068  89.6049952  66.4168308  55.4553525  81.1191531
  66.5920063  54.9841569  81.9337154  65.7301096  56.0819292  81.3472792
  67.3725371  49.7326032  87.1654832  67.0375204  49.6926802  88.0612482
  66.8729317  49.0670747  86.6925242  61.3469615  45.1393662  92.6907413
  61.2089413  44.4073900  93.2918952  62.2574538  45.0502562  92.4091601
  70.3084563  47.0782066  77.4391892  69.6913733  46.3528894  77.3424944
  69.8401051  47.8391426  77.0958966  63.9751916  44.8513621  92.1791093
  64.6851534  44.2106813  92.1377711  63.9321224  45.1026516  93.1017274
  71.9638694  51.7880974  95.0997672  71.9051240  51.1040194  94.4328255
  72.3658213  52.5299964  94.6478298  62.6880850  41.8378839  93.9986732
  62.1518207  41.3869577  94.6508329  62.0997558  41.9724748  93.2557197
  60.9829393  58.6042888  87.8931391  61.2225991  59.2361412  88.5710410
  60.1398590  58.2530928  88.1796750  62.0983108  41.2967490  76.5613196
  61.2212575  41.1756291  76.1975443  62.5740862  40.5053569  76.3092085
  71.9656101  49.7520558  93.3311652  71.0782880  49.4146480  93.4538051
  72.5354653  49.0203589  93.5680417  53.6185249  46.0844650  86.6554703
  54.3056288  45.7706380  86.0675719  53.4633377  46.9886015  86.3821955
  58.4219971  40.9734846  91.0839727  58.3378159  40.3660516  90.3490137
  57.6002677  41.4643865  91.0849223  65.4957255  54.4122011  90.2972895
  65.4227426  55.2176982  90.8092200  65.0534648  54.6113976  89.4720916
  65.2847035  53.6493781  83.8075717  64.5014556  54.1915461  83.9013941
  65.9839780  54.1667760  84.2069958  68.5943685  39.4588410  86.4509922
  69.0912384  38.7058372  86.1310992  67.8230666  39.4952727  85.8853131
  76.4473442  45.1628776  88.0928213  76.4363318  46.0453491  87.7222147
  75.5790821  44.8100326  87.8982751  67.9555938  54.3108845  92.4531054
  68.6683911  54.9456309  92.3806955  67.4645967  54.4072711  91.6371056
  69.6773465  48.2160097  84.0248345  68.7429744  48.3361560  83.8553050
  69.8550134  47.3132564  83.7608355  65.1778653  41.6005793  86.1781607
  64.8076441  41.0476833  86.8662512  65.6737746  40.9963926  85.6256607
  73.0646017  44.0577417  84.5598380  73.5306469  44.8905408  84.4858682
  73.5153517  43.5922398  85.2643638  63.0067852  52.0603288  93.2736625
  63.7077311  52.6939771  93.4266019  62.5362967  52.4018020  92.5132264
  71.1322248  50.4021238  81.5584532  71.4082092  50.2877832  82.4678406
  70.2626747  50.0038723  81.5196705  71.0362679  36.4258004  88.5989281
  70.1225759  36.6562230  88.7671488  71.4655781  36.5096448  89.4503313
  70.8069138  44.6147895  91.0989175  70.1540588  44.8623803  90.4441628
  71.1849518  43.8012034  90.7651652  67.7676312  54.6507589  85.2017345
  67.9498706  53.8329245  85.6645097  68.5909298  54.8675281  84.7642235
  68.1018477  53.5775774  82.4632394  68.6306244  53.0668228  81.8502556
  68.3646697  53.2618304  83.3277927  66.8556711  45.3567707  97.5855212
  66.1797348  45.2561836  98.2557587  67.6784345  45.2006920  98.0491209
  58.6035570  51.5939643  90.2067727  59.1889007  50.8483331  90.3395631
  58.4060408  51.9043600  91.0904391  61.4574225  54.6290890  85.2230170
  60.7884600  55.1137018  84.7394210  61.3187095  54.8760111  86.1373548
  53.1953225  44.1645243  88.9272170  53.2337324  43.6308834  89.7209288
  52.6893518  43.6380449  88.3083148  65.5979494  56.6634634  91.8212828
  66.1497802  56.8266255  92.5861913  65.9385687  57.2539072  91.1492853
  60.5743987  39.0109784  92.4234713  60.6385314  39.8724615  92.0112110
  60.5111107  38.3983785  91.6907071  60.0496260  41.0832916  96.0707747
  60.6768298  40.7009994  96.6845271  59.1924178  40.8647118  96.4363439
  70.4490368  51.4895891  97.6761482  70.9930272  52.1025850  97.1816437
  69.8677213  52.0475470  98.1928495  56.8261802  42.8909345  82.0026102
  57.1215243  41.9820024  81.9493155  55.9249838  42.8697085  81.6807104
  68.7347881  54.6116610  88.8076510  68.6099021  53.8106349  88.2987456
  69.3926972  55.1062803  88.3190480  60.3556049  40.9665342  87.9853650
  59.6342635  41.5801310  87.8461124  61.1449305  41.5023107  87.9070296
  70.7982789  52.4125630  90.4356060  69.8513125  52.2930981  90.3634387
  71.1465563  51.5248128  90.5182322  63.1582363  38.3019769  94.2594302
  63.6816765  38.5482065  95.0220611  62.9394696  39.1339803  93.8397439
  58.5549644  40.5723443  82.1265427  58.2262350  39.6920822  81.9440533
  58.9089015  40.5171112  83.0141816  67.8029223  52.2078346  86.6360412
  67.6554185  51.2795053  86.8167982  68.6282716  52.2298437  86.1517488
  61.6691467  40.8596413  82.4940905  62.0087540  41.3882334  81.7719513
  62.1163588  41.1976819  83.2699471  71.4063345  53.0306905  87.7225285
  72.3309892  52.8249766  87.5849736  71.2378648  52.7823306  88.6314627
  64.3634908  39.2433464  91.9443973  64.0231728  38.4441277  92.3464652
  63.6573914  39.5435174  91.3720806  65.0151380  36.3282776  90.3971296
  65.8377449  35.8543254  90.2750186  65.2589443  37.1073260  90.8969982
  63.6559614  39.3571034  80.6934197  64.3767977  39.7352287  80.1897914
  63.0324918  40.0759911  80.7969175  67.7990737  40.0616183  81.6292530
  68.0154351  40.9440821  81.3281358  67.3184804  39.6702397  80.8998172
  62.5389958  43.0201897  88.2063274  62.3934539  43.3342200  89.0987556
  62.0615162  43.6386797  87.6534173  64.3986341  40.0104445  88.2544164
  64.3847910  39.1145538  87.9176462  65.1158769  40.0175108  88.8882450
  66.2512472  40.4441785  90.2997291  65.9930250  41.3658856  90.2981622
  65.7197512  40.0472219  90.9897755  57.0135621  45.5607241  91.1450935
  56.4689089  46.3367049  91.2771210  57.8914970  45.9078046  90.9870057
  63.8023237  38.8918825  83.5231734  63.9239148  37.9635471  83.7222621
  63.5125280  38.9057511  82.6110049  66.6714428  36.5773735  86.6598454
  66.6936124  36.6413068  85.7050433  67.0882487  35.7378244  86.8538960
  77.0498052  46.3128995  84.6977676  77.4929198  45.5636320  84.2996800
  76.1724562  46.3039131  84.3151408  72.1833833  52.8659336  80.1784275
  72.8784738  53.4866029  80.3971590  72.5256983  52.0154688  80.4536653
  57.8001642  44.6877137  94.0381092  57.0583379  44.8359773  94.6245723
  57.4794387  44.9485403  93.1747842  74.0825256  50.3159042  81.7071606
  74.6076581  50.6546315  80.9820926  73.9947609  49.3806057  81.5234740
  65.7445305  54.2293116  93.8361482  66.0532432  53.9842262  94.7084182
  66.5420787  54.4339754  93.3480353  65.7665917  56.3831025  86.0666859
  65.3270907  55.8907404  86.7599716  66.5174034  55.8403993  85.8258934
  58.2458256  52.5742566  86.0691487  59.0716276  52.2746338  85.6890130
  57.8952308  51.8050189  86.5181276  63.2139789  51.9269034  88.1389161
  62.5919799  51.2639739  87.8391388  63.8844656  51.9530166  87.4562808
  56.4466861  50.4928893  87.0280421  55.6098770  50.0651067  86.8464422
  56.4190507  50.6861336  87.9651212  63.2864317  40.4050822  97.7321667
  63.3352472  41.2812945  97.3499436  63.8286831  39.8628215  97.1593310
  73.7719163  50.9491946  97.0122804  72.9814706  50.9316084  96.4727303
  73.5352517  51.4880239  97.7671840  73.8917038  47.7984412  94.3255532
  73.9415042  47.6334419  95.2671055  73.7830961  46.9311671  93.9353413
  62.7753296  50.4772958  81.6147621  62.9241417  51.1608422  80.9614294
  63.5819740  50.4578048  82.1297077  71.1820800  43.7815340  95.6414839
  72.0830663  43.6421805  95.3498837  71.2568774  43.9469795  96.5813016
  65.5163605  41.1582195  94.4868025  64.6466915  41.4515761  94.2150614
  65.7523086  41.7422640  95.2075289  75.3935234  50.2181353  94.5697554
  75.1020043  50.5811334  95.4061015  74.7807366  49.5048362  94.3910886
  76.5930917  47.7834233  87.0900124  77.4277808  48.2224037  87.2537684
  76.7290045  47.3072886  86.2708370  73.6422423  45.3413968  93.0377612
  74.1176544  45.5341614  92.2296463  72.7187988  45.3973154  92.7920995
  60.5305929  46.5038135  82.6208690  60.2851971  45.6000465  82.8188900
  60.7001844  46.5055286  81.6788168  68.2202639  37.3761812  92.0033446
  68.7384583  38.1122839  91.6779934  67.8657772  37.6825805  92.8380205
  59.8001577  42.2366493  80.1194851  59.1070822  42.3110848  79.4634887
  59.5553329  41.4726836  80.6416368  68.4715233  33.7962094  87.5234342
  68.7516987  33.1285283  88.1494769  69.2565840  33.9891190  87.0109006
  66.2748702  52.9721088  79.0859368  65.7022669  53.5911275  78.6329840
  66.8481495  53.5220450  79.6199290  72.3424092  42.2179728  91.2705917
  73.2941515  42.3177826  91.2918141  72.1727542  41.4257997  91.7804002
  70.3638471  39.3035311  91.4565318  69.7688403  39.5840324  90.7611807
  70.0788168  39.7929212  92.2282059  69.4945962  53.2558238  80.2167951
  70.4276635  53.1903800  80.4200826  69.4069174  54.0914505  79.7582483
  72.1233978  52.5724109  77.1771898  72.0447610  52.2383972  78.0707656
  72.9443645  53.0645876  77.1763371  74.8212169  45.4385848  90.3848217
  74.7888490  44.5001849  90.5707901  75.4312793  45.5169885  89.6514042
  66.6595500  44.3081901  76.4275421  67.6054605  44.1788109  76.4963839
  66.2809745  43.5696563  76.9044849  74.9706658  42.2296891  90.4306500
  74.4545707  41.4455348  90.2436429  75.8546606  41.9015608  90.5953020
  72.6317385  35.9737907  86.3902313  72.4342206  35.6652995  87.2745645
  73.2417090  36.6999546  86.5200243  80.6388719  46.5001855  89.5254254
  81.3692108  46.2387143  90.0861957  80.0295665  45.7630577  89.5656322
  78.7204016  44.6409717  90.1228705  77.9937180  44.5065682  89.5145197
  78.3051303  44.9486546  90.9285423  66.5434193  48.3599647  97.8876078
  67.4637202  48.5378246  98.0816124  66.5083776  47.4155692  97.7355777
  64.8438417  42.2331877  76.3630306  63.9369873  41.9364990  76.4393020
  65.1214398  41.9361695  75.4964592  55.7616358  43.5538241  86.8129353
  55.4419142  42.7003549  86.5203727  55.2149786  43.7686819  87.5687320
  59.5396265  46.2700682  90.5298859  59.7582275  47.2017789  90.5486893
  59.9522039  45.9108656  91.3153663  66.4600483  36.7768767  82.5174548
  65.6501211  36.4315852  82.8929794  67.1484900  36.4676311  83.1062159
  68.3891031  35.8546814  84.1398844  68.9422070  36.2742267  84.7988867
  68.6261118  34.9282562  84.1821800  64.4124131  41.8433887  99.9201608
  64.3120858  42.7928244  99.8513699  64.1945673  41.5152126  99.0477678
  63.6137202  39.0918812  76.5042285  64.4756366  39.4173711  76.7638103
  63.7987546  38.3050308  75.9915351  55.6304618  47.1741152  88.7822474
  54.9368089  46.7595105  88.2692429  56.3777609  47.2161689  88.1855893
  71.7669839  37.9647339  83.6477508  71.1868508  38.6232143  83.2655561
  71.5005771  37.1424684  83.2364926  70.2173405  37.3652397  85.8498829
  70.7173183  37.4768931  85.0413148  70.8609013  37.0613449  86.4899637
  64.2755401  45.2731026  98.7366670  63.7922482  46.0731386  98.9430559
  64.3616340  45.2838971  97.7834114  57.5441360  47.1059406  86.6588489
  57.5212048  47.2047093  85.7070372  57.8541997  47.9524557  86.9805655
  60.2028738  49.1635561  90.7735103  61.1571992  49.1319503  90.7065035
  60.0041262  48.7026185  91.5885329  60.7928120  47.7336677  93.3405901
  61.6121009  48.2280756  93.3640738  61.0664928  46.8168645  93.3123469
  70.5494717  40.1247429  82.7033857  69.6620572  40.4097080  82.4854051
  70.9648706  39.9641193  81.8561134  73.9009253  40.1493950  86.4188196
  74.6769643  40.6390403  86.6912813  73.1757387  40.5752004  86.8760065
  76.3381811  40.8621569  87.4762137  76.9326302  40.6217305  86.7655445
  76.4108395  40.1428700  88.1035673  58.5578967  54.7055180  87.7905301
  58.4233435  53.9455581  87.2243299  58.1411029  55.4296080  87.3234090
  69.6937930  49.8892104  76.7981877  70.3973780  50.0942106  77.4139532
  68.9700579  50.4568866  77.0630960  70.5235740  45.6401965  82.9184147
  70.4670942  46.0970517  82.0791779  71.0764083  44.8792650  82.7406990
  74.3340546  41.4291697  83.7434266  74.0777480  41.0288333  84.5742474
  73.7093414  42.1435491  83.6184405  78.6452884  44.1687770  86.2505558
  78.0852442  44.2380960  87.0237120  78.0396387  43.9928755  85.5305054
  61.7148093  55.6024497  88.0023744  61.5980477  56.5469930  87.9002434
  60.8940539  55.2998059  88.3909543  71.6024627  50.3274633  78.8480337
  72.4370231  49.8955832  78.6657812  71.4408970  50.1556647  79.7757231
  71.2570520  46.8306746  80.2136676  71.2019323  46.6651018  79.2725120
  70.6316575  47.5382779  80.3698866  56.0463035  42.0674811  94.0398098
  56.6921898  41.5573765  94.5285323  55.8380186  42.8043492  94.6141523
  68.5716427  49.1355658  99.5390239  69.4407586  49.3096311  99.1776874
  68.0923178  49.9550075  99.4165968  64.5666645  36.3314855  79.7921994
  64.5545315  37.2756695  79.9490265  65.4590067  36.1485001  79.4981456
  62.7402607  56.2552759  91.2179672  63.6429854  56.2876370  91.5346167
  62.5139977  55.3253210  91.2326008  64.4956209  55.0083746  87.8789751
  63.5451840  55.0085607  87.7654123  64.7988695  54.2616480  87.3625786
  68.3818765  32.9257632  84.0467931  67.6151160  32.3716119  84.1924614
  68.7929469  32.9979501  84.9082083  60.3860526  39.2142428  98.1373112
  61.2491987  38.8579233  98.3476437  59.8125936  38.8756323  98.8248517
  80.2308902  60.8444284  88.9435513  80.8687312  60.7251032  88.2398854
  80.1129745  61.7925128  89.0023466  77.0398609  60.7971712  88.8797038
  76.7017120  60.6812777  87.9917573  77.9088377  60.3962877  88.8598044
  72.8985424  62.6507189  84.8693929  72.3350290  62.5597126  84.1010217
  72.7837820  61.8307093  85.3496422  77.5218392  61.9506564  94.8383244
  77.5107033  61.5559362  93.9663747  77.6839031  61.2172637  95.4317015
  70.4449856  64.1458380  87.7078150  71.2371148  63.8049205  87.2924449
  70.6846507  64.2553355  88.6280303  74.2425653  64.7343676  93.7862428
  73.9515519  65.6389307  93.6709094  74.8782637  64.7760204  94.5006497
  75.1681860  62.1120524  90.3763787  75.7645432  61.8876547  89.6620750
  75.2256831  61.3705270  90.9789235  79.7850171  58.5695738  86.0188721
  80.5713260  58.1515161  85.6679139  80.0488875  59.4741830  86.1870370
  79.9560248  64.0068588  80.7177378  79.3206081  64.0803215  81.4298283
  79.6257655  64.5962187  80.0396458  85.1858598  58.5070971  86.9221700
  85.9183770  57.9370188  87.1559529  84.4297954  58.1192572  87.3628206
  76.8034718  60.9298213  84.1185042  76.4392925  60.4028834  84.8297964
  77.6601834  60.5396682  83.9451528  82.7084018  52.2192545  91.3816309
  82.3767343  53.0887956  91.1577524  82.1129632  51.9028829  92.0610339
  76.4440205  55.9588113  79.1146391  76.6114607  56.8268349  79.4816862
  76.2537374  56.1215394  78.1907680  79.2015538  64.4205091  90.7812221
  78.9016261  65.3230130  90.6728029  78.8566598  64.1537275  91.6333374
  72.6528019  60.8718888  86.8148926  71.7278516  60.7395102  87.0226618
  72.9012433  61.6513108  87.3118868  82.6012682  56.9387632  88.4609659
  81.6929559  56.8703040  88.1668420  82.5500278  57.4159577  89.2891484
  70.0136831  60.5152162  87.6492715  70.1429212  60.7686641  88.5632127
  69.3334282  61.1079870  87.3297370  74.1836318  71.1849412  83.7483189
  74.1060347  72.1357237  83.8271670  73.5797961  70.8395284  84.4058115
  76.6753548  58.3577277  96.4044556  75.8986882  58.9171197  96.3947421
  77.3144111  58.8434060  96.9259426  84.4674328  55.1404070  90.2387533
  83.8248708  55.4336603  89.5927327  83.9629257  55.0256990  91.0440729
  82.1214492  58.8867243  80.9273392  83.0332348  59.1194630  80.7521089
  81.6124139  59.4704287  80.3648470  74.9299920  61.1662731  95.9662523
  75.6714604  61.7047775  95.6897347  74.2236905  61.7929019  96.1234075
  80.4055260  63.3091871  94.5634684  80.8138616  62.8674282  93.8189317
  79.6832521  62.7344499  94.8168877  76.7586330  58.2464478  91.9368241
  77.6047525  58.6703891  92.0802890  76.6984967  57.5898102  92.6306804
  80.7284074  63.8693062  88.3186973  80.0992937  64.0338776  87.6163041
  80.3409736  64.2834671  89.0897937  84.6073306  64.8047499  85.6731337
  83.9224344  65.1846401  85.1228370  84.6917155  65.4142826  86.4063285
  79.9085775  55.9068846  93.5949415  79.6646707  56.6610907  93.0583691
  80.1845705  56.2854194  94.4296662  81.8624238  62.4507459  92.2726681
  82.0741133  63.0939218  91.5961062  81.8153986  61.6169775  91.8048611
  79.4650467  55.0625279  89.1763253  78.6034946  55.3606533  89.4679990
  79.4912901  55.2795678  88.2444285  76.2812036  63.6067470  85.5837058
  76.7450382  63.8855173  84.7941681  76.0168834  62.7050914  85.4010149
  73.1736117  63.1538951  88.5216822  73.7437474  63.5826220  87.8834306
  73.7644229  62.8721536  89.2201007  75.2180922  59.7290622  82.3926624
  75.9204965  60.1811666  82.8600550  74.8861551  59.0874441  83.0206517
  73.6661284  58.3202379  96.7677833  73.0359944  59.0018660  97.0013230
  73.5597372  58.2085460  95.8230971  68.9606256  57.9874175  87.6943757
  68.1705310  58.2431703  87.2183868  69.4517503  58.8022513  87.7995798
  82.9770066  65.3279414  90.4449038  83.7987509  64.9259601  90.1631720
  82.9732468  65.2247648  91.3965154  76.7426669  64.8763457  92.6009748
  76.8071102  65.3383864  93.4367920  76.0337593  64.2460822  92.7292058
  67.2443959  58.2404665  90.1258748  67.4951997  59.1251675  90.3916324
  67.7803507  58.0609267  89.3533840  91.0676059  61.6718162  86.7934009
  90.3139767  61.1025560  86.6378014  91.2023600  61.6380827  87.7404644
  72.9442026  52.6223145  99.1303084  72.5508972  52.0689343  99.8050728
  73.7608167  52.9333723  99.5209602  71.7198969  67.1772759  85.1239407
  71.8965597  68.0990724  84.9360391  72.5155802  66.8631178  85.5533787
  75.8609987  54.0381024  96.7223341  76.6019701  54.6388177  96.6427803
  76.0927910  53.2958661  96.1641383  71.0051325  59.2237391  95.0001570
  70.8904840  58.3222648  95.3008669  70.1495843  59.4701088  94.6486387
  78.0843163  67.1655131  96.5989071  77.6407017  66.3791510  96.2809975
  78.7460377  67.3534282  95.9332962  72.8430284  68.6950933  91.1249749
  73.3937709  68.5667996  90.3526743  72.0041760  68.9945822  90.7744642
  80.1824401  67.4457931  94.6270472  80.1642877  68.2666812  94.1350741
  81.1044321  67.3212006  94.8520613  76.6397455  64.9602061  95.4693980
  77.1725792  64.1990349  95.2393288  76.1111536  64.6675712  96.2118135
  79.8067150  50.0662127  90.9987622  79.4631420  50.9563768  90.9226733
  80.1746113  49.8763784  90.1357207  67.8753001  62.3895657  83.8176224
  68.7128223  62.7992665  83.6009932  68.0531269  61.4495099  83.7876418
  79.7717433  60.0570738  79.5060057  79.2564056  60.8275342  79.7448445
  79.4994741  59.3835874  80.1293119  77.3564544  54.9020438  84.5645296
  76.5006140  54.5127289  84.3850934  77.7691496  54.9812399  83.7045081
  78.8863691  52.4366782  88.9636855  78.3828486  52.3996917  88.1504661
  79.1794298  53.3459524  89.0233512  75.1306577  52.5205511  87.9703037
  75.9959573  52.3248320  87.6108927  75.1984085  52.2915863  88.8972394
  84.7451707  62.8103092  81.4413231  83.9681150  62.4714252  80.9968393
  85.4243188  62.8155716  80.7668196  79.5603736  57.9297830  81.3319839
  79.2553872  58.2443979  82.1829982  80.5134178  58.0079250  81.3747172
  78.0050168  64.0888053  82.9812792  77.4771530  63.3540813  82.6686030
  77.5037671  64.8662729  82.7352761  82.9843014  62.2837074  88.0979839
  82.3266688  62.9736335  88.1859967  83.7883413  62.6733506  88.4413825
  81.7948473  60.6381446  86.1483781  82.3080355  61.2711438  86.6505490
  82.4449697  60.0382642  85.7827141  75.0391563  51.6248968  84.0694473
  74.3855976  51.3097985  83.4451088  74.9972037  51.0024709  84.7954296
  79.0570847  70.6165771  78.9044452  78.3832546  70.9197467  79.5129410
  79.4436669  71.4194851  78.5549909  78.2729304  58.1130902  88.3942121
  77.3551865  58.3345849  88.2363809  78.6889447  58.1877212  87.5353828
  79.0564351  59.5122318  83.5244801  79.8036170  60.0243715  83.2151923
  79.3255941  59.1906370  84.3849195  77.3291002  62.0080858  80.5071756
  76.4202221  61.7239891  80.6044225  77.3586085  62.4279937  79.6475062
  82.5610269  65.6187448  84.2762923  82.1072596  64.7778358  84.3328114
  81.9304236  66.2548846  84.6137703  81.5043189  56.5479434  85.5063591
  80.7665945  56.0356820  85.8373833  81.7569962  56.1079815  84.6946868
  81.0043208  67.4563944  85.2112741  81.2966183  68.0169002  84.4925107
  81.5141829  67.7492505  85.9665900  81.6054816  49.3255686  86.1005360
  81.9113693  48.4653049  85.8131275  82.3307421  49.9173306  85.9004354
  67.8979172  59.7286372  84.4886958  67.7003572  59.1355733  83.7638024
  67.3425836  59.4238583  85.2062897  75.8775896  59.6209479  86.6081551
  75.9324505  58.6683315  86.5324028  75.0667098  59.7768918  87.0922849
  75.9676833  68.2344296  86.3006195  75.9253012  68.4605142  85.3714727
  76.8839532  68.0007670  86.4491996  79.4142467  58.7028363  93.1986824
  79.7691855  58.9299836  94.0581289  80.0614599  59.0346740  92.5764079
  85.1440204  61.8246799  83.9036153  85.0058103  62.0148395  82.9757342
  84.7876423  62.5866182  84.3604204  73.3082330  55.8104894  89.9833165
  73.9481710  55.6693653  89.2856128  72.4759861  55.5239408  89.6071767
  85.1709584  63.8923326  88.9147424  85.6046090  63.7998615  89.7630478
  85.8841165  63.8680826  88.2767440  74.0842634  65.1107325  86.0968157
  74.8783233  64.6157645  85.8950732  73.3734327  64.5825188  85.7335863
  78.9037479  67.4925420  90.4480525  78.9574501  68.0616356  91.2158241
  78.0352260  67.6627305  90.0834562  71.7835872  57.1942976  91.9304976
  72.4558926  56.9860338  91.2817625  70.9565659  56.9965062  91.4910208
  86.0325133  63.9347027  91.4480310  86.2261023  64.8392837  91.6939585
  85.9325752  63.4754446  92.2818895  77.6861444  53.8204917  93.9470637
  77.0389359  54.5194867  93.8535113  78.4562460  54.2541061  94.3146885
  81.0940242  64.0853769  97.0221190  80.9425748  63.8564321  96.1051274
  81.0844922  65.0424371  97.0352535  77.8625578  61.6585682  92.0067457
  78.7917638  61.8096842  91.8336424  77.4416608  61.7469703  91.1516103
  76.6613910  65.6836347  89.7765994  76.5224996  65.3155131  90.6491932
  75.8728506  66.1983986  89.6049952  77.2562062  70.7845443  81.1191531
  77.4313818  70.3133486  81.9337154  76.5694850  71.4111209  81.3472792
  78.2119125  65.0617949  87.1654832  77.8768958  65.0218719  88.0612482
  77.7123071  64.3962665  86.6925242  72.1863369  60.4685579  92.6907413
  72.0483167  59.7365818  93.2918952  73.0968293  60.3794479  92.4091601
  81.1478317  62.4073984  77.4391892  80.5307488  61.6820812  77.3424944
  80.6794806  63.1683344  77.0958966  74.8145670  60.1805539  92.1791093
  75.5245289  59.5398731  92.1377711  74.7714978  60.4318433  93.1017274
  82.8032449  67.1172892  95.0997672  82.7444995  66.4332112  94.4328255
  83.2051967  67.8591882  94.6478298  73.5274604  57.1670756  93.9986732
  72.9911961  56.7161495  94.6508329  72.9391312  57.3016665  93.2557197
  82.8049856  65.0812476  93.3311652  81.9176635  64.7438398  93.4538051
  83.3748407  64.3495507  93.5680417  64.4579003  61.4136568  86.6554703
  65.1450043  61.0998298  86.0675719  64.3027132  62.3177932  86.3821955
  69.2613725  56.3026764  91.0839727  69.1771914  55.6952434  90.3490137
  68.4396432  56.7935782  91.0849223  76.3351009  69.7413928  90.2972895
  76.2621181  70.5468900  90.8092200  75.8928402  69.9405894  89.4720916
  79.4337439  54.7880328  86.4509922  79.9306139  54.0350290  86.1310992
  78.6624421  54.8244644  85.8853131  87.2867197  60.4920693  88.0928213
  87.2757073  61.3745409  87.7222147  86.4184576  60.1392244  87.8982751
  78.7949693  69.6400762  92.4531054  79.5077665  70.2748227  92.3806955
  78.3039722  69.7364628  91.6371056  80.5167220  63.5452015  84.0248345
  79.5823499  63.6653477  83.8553050  80.6943888  62.6424482  83.7608355
  76.0172408  56.9297711  86.1781607  75.6470195  56.3768751  86.8662512
  76.5131500  56.3255844  85.6256607  83.9039771  59.3869334  84.5598380
  84.3700223  60.2197326  84.4858682  84.3547272  58.9214316  85.2643638
  73.8461606  67.3895206  93.2736625  74.5471066  68.0231689  93.4266019
  73.3756721  67.7309937  92.5132264  81.9716002  65.7313155  81.5584532
  82.2475846  65.6169750  82.4678406  81.1020501  65.3330640  81.5196705
  81.8756434  51.7549921  88.5989281  80.9619514  51.9854148  88.7671488
  82.3049535  51.8388365  89.4503313  81.6462892  59.9439813  91.0989175
  80.9934343  60.1915721  90.4441628  82.0243272  59.1303951  90.7651652
  78.6070066  69.9799506  85.2017345  78.7892461  69.1621162  85.6645097
  79.4303052  70.1967199  84.7642235  78.9412232  68.9067691  82.4632394
  79.4699998  68.3960146  81.8502556  79.2040451  68.5910222  83.3277927
  77.6950465  60.6859624  97.5855212  77.0191102  60.5853754  98.2557587
  78.5178099  60.5298838  98.0491209  69.4429324  66.9231561  90.2067727
  70.0282761  66.1775249  90.3395631  69.2454163  67.2335517  91.0904391
  72.2967980  69.9582808  85.2230170  71.6278355  70.4428936  84.7394210
  72.1580849  70.2052029  86.1373548  64.0346979  59.4937161  88.9272170
  64.0731079  58.9600752  89.7209288  63.5287272  58.9672366  88.3083148
  76.4373248  71.9926552  91.8212828  76.9891556  72.1558173  92.5861913
  76.7779442  72.5830989  91.1492853  71.4137742  54.3401701  92.4234713
  71.4779068  55.2016532  92.0112110  71.3504862  53.7275703  91.6907071
  70.8890014  56.4124834  96.0707747  71.5162053  56.0301911  96.6845271
  70.0317933  56.1939036  96.4363439  81.2884123  66.8187809  97.6761482
  81.8324027  67.4317767  97.1816437  80.7070967  67.3767388  98.1928495
  79.5741636  69.9408527  88.8076510  79.4492775  69.1398267  88.2987456
  80.2320727  70.4354721  88.3190480  71.1949804  56.2957260  87.9853650
  70.4736390  56.9093227  87.8461124  71.9843060  56.8315025  87.9070296
  81.6376544  67.7417547  90.4356060  80.6906879  67.6222898  90.3634387
  81.9859317  66.8540045  90.5182322  73.9976117  53.6311686  94.2594302
  74.5210519  53.8773983  95.0220611  73.7788451  54.4631721  93.8397439
  78.6422977  67.5370263  86.6360412  78.4947940  66.6086971  86.8167982
  79.4676471  67.5590354  86.1517488  82.2457099  68.3598822  87.7225285
  83.1703647  68.1541684  87.5849736  82.0772402  68.1115223  88.6314627
  75.2028662  54.5725381  91.9443973  74.8625483  53.7733194  92.3464652
  74.4967669  54.8727092  91.3720806  75.8545134  51.6574694  90.3971296
  76.6771204  51.1835172  90.2750186  76.0983198  52.4365177  90.8969982
  78.6384492  55.3908101  81.6292530  78.8548106  56.2732739  81.3281358
  78.1578559  54.9994315  80.8998172  73.3783713  58.3493814  88.2063274
  73.2328294  58.6634117  89.0987556  72.9008917  58.9678715  87.6534173
  75.2380096  55.3396362  88.2544164  75.2241665  54.4437456  87.9176462
  75.9552524  55.3467026  88.8882450  77.0906227  55.7733703  90.2997291
  76.8324004  56.6950773  90.2981622  76.5591267  55.3764137  90.9897755
  82.0352415  68.8784490  83.0787377  82.2089293  68.3130912  82.3261229
  82.5281307  69.6785385  82.8966867  67.8529375  60.8899159  91.1450935
  67.3082843  61.6658967  91.2771210  68.7308725  61.2369963  90.9870057
  74.6416992  54.2210743  83.5231734  74.7632903  53.2927389  83.7222621
  74.3519034  54.2349429  82.6110049  77.5108182  51.9065653  86.6598454
  77.5329879  51.9704986  85.7050433  77.9276241  51.0670162  86.8538960
  87.8891806  61.6420913  84.6977676  88.3322953  60.8928238  84.2996800
  87.0118317  61.6331049  84.3151408  83.0227588  68.1951254  80.1784275
  83.7178492  68.8157947  80.3971590  83.3650738  67.3446605  80.4536653
  68.6395397  60.0169055  94.0381092  67.8977133  60.1651690  94.6245723
  68.3188141  60.2777321  93.1747842  84.9219011  65.6450960  81.7071606
  85.4470335  65.9838232  80.9820926  84.8341363  64.7097975  81.5234740
  76.5839060  69.5585033  93.8361482  76.8926186  69.3134180  94.7084182
  77.3814542  69.7631672  93.3480353  76.6059672  71.7122943  86.0666859
  76.1664662  71.2199322  86.7599716  77.3567789  71.1695911  85.8258934
  69.0852011  67.9034484  86.0691487  69.9110031  67.6038256  85.6890130
  68.7346063  67.1342106  86.5181276  74.0533544  67.2560952  88.1389161
  73.4313553  66.5931657  87.8391388  74.7238411  67.2822084  87.4562808
  67.2860616  65.8220810  87.0280421  66.4492524  65.3942985  86.8464422
  67.2584261  66.0153254  87.9651212  74.1258071  55.7342740  97.7321667
  74.1746227  56.6104863  97.3499436  74.6680586  55.1920133  97.1593310
  84.6112917  66.2783863  97.0122804  83.8208461  66.2608002  96.4727303
  84.3746272  66.8172157  97.7671840  84.7310792  63.1276330  94.3255532
  84.7808797  62.9626337  95.2671055  84.6224715  62.2603589  93.9353413
  82.0214554  59.1107258  95.6414839  82.9224417  58.9713723  95.3498837
  82.0962529  59.2761712  96.5813016  76.3557360  56.4874112  94.4868025
  75.4860669  56.7807678  94.2150614  76.5916840  57.0714557  95.2075289
  86.2328989  65.5473271  94.5697554  85.9413797  65.9103252  95.4061015
  85.6201120  64.8340279  94.3910886  87.4324671  63.1126151  87.0900124
  88.2671563  63.5515955  87.2537684  87.5683800  62.6364804  86.2708370
  84.4816177  60.6705886  93.0377612  84.9570299  60.8633532  92.2296463
  83.5581742  60.7265072  92.7920995  79.0596394  52.7053729  92.0033446
  79.5778337  53.4414756  91.6779934  78.7051526  53.0117723  92.8380205
  79.3108988  49.1254012  87.5234342  79.5910742  48.4577201  88.1494769
  80.0959595  49.3183107  87.0109006  83.1817846  57.5471646  91.2705917
  84.1335269  57.6469744  91.2918141  83.0121297  56.7549914  91.7804002
  81.2032226  54.6327229  91.4565318  80.6082158  54.9132242  90.7611807
  80.9181922  55.1221130  92.2282059  80.3339716  68.5850156  80.2167951
  81.2670389  68.5195718  80.4200826  80.2462929  69.4206423  79.7582483
  82.9627733  67.9016026  77.1771898  82.8841364  67.5675890  78.0707656
  83.7837400  68.3937794  77.1763371  85.6605924  60.7677766  90.3848217
  85.6282244  59.8293766  90.5707901  86.2706548  60.8461802  89.6514042
  77.4989255  59.6373819  76.4275421  78.4448359  59.5080027  76.4963839
  77.1203500  58.8988480  76.9044849  85.8100412  57.5588809  90.4306500
  85.2939461  56.7747266  90.2436429  86.6940361  57.2307526  90.5953020
  83.4711139  51.3029825  86.3902313  83.2735960  50.9944913  87.2745645
  84.0810845  52.0291463  86.5200243  91.4782474  61.8293772  89.5254254
  92.2085862  61.5679061  90.0861957  90.8689419  61.0922494  89.5656322
  89.5597771  59.9701635  90.1228705  88.8330934  59.8357600  89.5145197
  89.1445058  60.2778464  90.9285423  77.3827947  63.6891565  97.8876078
  78.3030957  63.8670164  98.0816124  77.3477530  62.7447610  97.7355777
  66.6010112  58.8830158  86.8129353  66.2812897  58.0295467  86.5203727
  66.0543540  59.0978736  87.5687320  70.3790020  61.5992599  90.5298859
  70.5976030  62.5309707  90.5486893  70.7915794  61.2400574  91.3153663
  77.2994238  52.1060685  82.5174548  76.4894966  51.7607770  82.8929794
  77.9878655  51.7968228  83.1062159  79.2284786  51.1838731  84.1398844
  79.7815825  51.6034185  84.7988867  79.4654872  50.2574480  84.1821800
  75.2517885  57.1725805  99.9201608  75.1514612  58.1220162  99.8513699
  75.0339427  56.8444044  99.0477678  74.4530957  54.4210730  76.5042285
  75.3150121  54.7465628  76.7638103  74.6381301  53.6342226  75.9915351
  66.4698372  62.5033070  88.7822474  65.7761844  62.0887023  88.2692429
  67.2171363  62.5453606  88.1855893  82.6063593  53.2939257  83.6477508
  82.0262262  53.9524061  83.2655561  82.3399526  52.4716601  83.2364926
  81.0567159  52.6944314  85.8498829  81.5566938  52.8060849  85.0413148
  81.7002767  52.3905367  86.4899637  75.1149155  60.6022944  98.7366670
  74.6316237  61.4023304  98.9430559  75.2010094  60.6130889  97.7834114
  68.3835115  62.4351324  86.6588489  68.3605803  62.5339011  85.7070372
  68.6935751  63.2816474  86.9805655  71.0422493  64.4927479  90.7735103
  71.9965746  64.4611421  90.7065035  70.8435016  64.0318102  91.5885329
  71.6321875  63.0628595  93.3405901  72.4514764  63.5572673  93.3640738
  71.9058683  62.1460563  93.3123469  81.3888471  55.4539347  82.7033857
  80.5014326  55.7388998  82.4854051  81.8042460  55.2933110  81.8561134
  84.7403007  55.4785868  86.4188196  85.5163397  55.9682320  86.6912813
  84.0151141  55.9043922  86.8760065  87.1775566  56.1913487  87.4762137
  87.7720057  55.9509223  86.7655445  87.2502149  55.4720618  88.1035673
  69.3972721  70.0347098  87.7905301  69.2627189  69.2747499  87.2243299
  68.9804784  70.7587998  87.3234090  80.5331684  65.2184022  76.7981877
  81.2367535  65.4234024  77.4139532  79.8094333  65.7860784  77.0630960
  81.3629495  60.9693883  82.9184147  81.3064696  61.4262434  82.0791779
  81.9157837  60.2084567  82.7406990  85.1734301  56.7583615  83.7434266
  84.9171235  56.3580250  84.5742474  84.5487169  57.4727409  83.6184405
  89.4846639  59.4979688  86.2505558  88.9246197  59.5672877  87.0237120
  88.8790142  59.3220673  85.5305054  72.5541847  70.9316415  88.0023744
  72.4374232  71.8761848  87.9002434  71.7334294  70.6289977  88.3909543
  82.4418382  65.6566551  78.8480337  83.2763986  65.2247749  78.6657812
  82.2802725  65.4848565  79.7757231  82.0964274  62.1598664  80.2136676
  82.0413078  61.9942936  79.2725120  81.4710329  62.8674697  80.3698866
  66.8856789  57.3966729  94.0398098  67.5315653  56.8865683  94.5285323
  66.6773940  58.1335410  94.6141523  79.4110181  64.4647576  99.5390239
  80.2801341  64.6388228  99.1776874  78.9316933  65.2841993  99.4165968
  75.4060400  51.6606773  79.7921994  75.3939069  52.6048613  79.9490265
  76.2983821  51.4776919  79.4981456  73.5796361  71.5844677  91.2179672
  74.4823608  71.6168287  91.5346167  73.3533732  70.6545128  91.2326008
  75.3349964  70.3375664  87.8789751  74.3845595  70.3377525  87.7654123
  75.6382450  69.5908398  87.3625786  79.2212519  48.2549550  84.0467931
  78.4544915  47.7008036  84.1924614  79.6323224  48.3271419  84.9082083
  71.2254280  54.5434346  98.1373112  72.0885742  54.1871150  98.3476437
  70.6519691  54.2048240  98.8248517  91.0702657  76.1736202  88.9435513
  91.7081067  76.0542949  88.2398854  90.9523500  77.1217046  89.0023466
  87.8792363  76.1263630  88.8797038  87.5410875  76.0104695  87.9917573
  88.7482131  75.7254795  88.8598044  83.7379179  77.9799106  84.8693929
  83.1744044  77.8889043  84.1010217  83.6231574  77.1599011  85.3496422
  88.3612146  77.2798482  94.8383244  88.3500787  76.8851280  93.9663747
  88.5232786  76.5464554  95.4317015  81.2843611  79.4750298  87.7078150
  82.0764903  79.1341123  87.2924449  81.5240261  79.5845273  88.6280303
  89.3178738  81.6470074  80.1808394  88.6666717  82.2324155  79.7942408
  90.1123100  82.1776269  80.2403431  83.2434365  78.7359211  80.5795528
  84.0165241  78.1888198  80.4408404  83.5959764  79.6003461  80.7909990
  85.0819407  80.0635594  93.7862428  84.7909273  80.9681224  93.6709094
  85.7176392  80.1052121  94.5006497  86.0075614  77.4412442  90.3763787
  86.6039187  77.2168465  89.6620750  86.0650586  76.6997188  90.9789235
  85.5800643  74.8951877  78.2113978  85.8326163  74.3733399  77.4497441
  84.6425202  74.7318023  78.3140662  90.6243925  73.8987656  86.0188721
  91.4107015  73.4807079  85.6679139  90.8882630  74.8033748  86.1870370
  90.7954003  79.3360506  80.7177378  90.1599836  79.4095133  81.4298283
  90.4651409  79.9254105  80.0396458  96.0252353  73.8362889  86.9221700
  96.7577525  73.2662106  87.1559529  95.2691708  73.4484489  87.3628206
  85.2996931  76.7979983  80.4138353  85.1833189  76.1224887  81.0819438
  85.4099191  76.3112357  79.5970506  87.6428472  76.2590130  84.1185042
  87.2786680  75.7320751  84.8297964  88.4995588  75.8688600  83.9451528
  93.5477773  67.5484463  91.3816309  93.2161098  68.4179874  91.1577524
  92.9523386  67.2320747  92.0610339  87.2833959  71.2880030  79.1146391
  87.4508362  72.1560267  79.4816862  87.0931128  71.4507312  78.1907680
  90.0409292  79.7497009  90.7812221  89.7410016  80.6522048  90.6728029
  89.6960352  79.4829192  91.6333374  83.4921774  76.2010806  86.8148926
  82.5672270  76.0687020  87.0226618  83.7406187  76.9805025  87.3118868
  93.4406436  72.2679549  88.4609659  92.5323314  72.1994958  88.1668420
  93.3894032  72.7451494  89.2891484  87.2623180  73.7437688  80.0993058
  87.1422805  74.1894738  80.9378538  86.5675769  74.0923005  79.5406596
  80.8530585  75.8444079  87.6492715  80.9822966  76.0978558  88.5632127
  80.1728036  76.4371787  87.3297370  85.0230072  86.5141329  83.7483189
  84.9454102  87.4649155  83.8271670  84.4191716  86.1687202  84.4058115
  87.5147302  73.6869195  96.4044556  86.7380636  74.2463115  96.3947421
  88.1537865  74.1725978  96.9259426  95.3068083  70.4695988  90.2387533
  94.6642463  70.7628521  89.5927327  94.8023011  70.3548908  91.0440729
  85.7693674  76.4954648  95.9662523  86.5108359  77.0339692  95.6897347
  85.0630660  77.1220937  96.1234075  91.2449014  78.6383789  94.5634684
  91.6532370  78.1966199  93.8189317  90.5226276  78.0636416  94.8168877
  87.5980084  73.5756395  91.9368241  88.4441279  73.9995809  92.0802890
  87.5378722  72.9190020  92.6306804  91.5677829  79.1984979  88.3186973
  90.9386691  79.3630693  87.6163041  91.1803491  79.6126589  89.0897937
  95.4467061  80.1339417  85.6731337  94.7618099  80.5138319  85.1228370
  95.5310910  80.7434744  86.4063285  90.7479529  71.2360764  93.5949415
  90.5040461  71.9902824  93.0583691  91.0239460  71.6146111  94.4296662
  92.7017992  77.7799376  92.2726681  92.9134887  78.4231136  91.5961062
  92.6547740  76.9461693  91.8048611  90.3044221  70.3917197  89.1763253
  89.4428700  70.6898450  89.4679990  90.3306656  70.6087596  88.2444285
  87.1205791  78.9359387  85.5837058  87.5844136  79.2147090  84.7941681
  86.8562589  78.0342832  85.4010149  84.0129872  78.4830869  88.5216822
  84.5831229  78.9118137  87.8834306  84.6037983  78.2013454  89.2201007
  86.0574677  75.0582540  82.3926624  86.7598720  75.5103583  82.8600550
  85.7255305  74.4166359  83.0206517  84.5055038  73.6494296  96.7677833
  83.8753699  74.3310577  97.0013230  84.3991126  73.5377378  95.8230971
  79.8000011  73.3166092  87.6943757  79.0099065  73.5723621  87.2183868
  80.2911258  74.1314430  87.7995798  93.8163820  80.6571332  90.4449038
  94.6381264  80.2551519  90.1631720  93.8126223  80.5539566  91.3965154
  81.7514756  73.6810672  84.6527234  80.9545919  73.7929366  85.1710729
  81.5240348  74.0197324  83.7868124  87.5820424  80.2055375  92.6009748
  87.6464856  80.6675782  93.4367920  86.8731347  79.5752740  92.7292058
  78.0837714  73.5696583  90.1258748  78.3345752  74.4543593  90.3916324
  78.6197262  73.3901184  89.3533840 101.9069813  77.0010080  86.7934009
 101.1533522  76.4317478  86.6378014 102.0417354  76.9672745  87.7404644
  87.2968441  81.8723482  82.4688729  87.1614116  82.7175018  82.8973577
  87.8378254  82.0742760  81.7054663  83.7835781  67.9515062  99.1303084
  83.3902726  67.3981261  99.8050728  84.6001921  68.2625641  99.5209602
  80.7497839  79.3898920  83.0416654  81.2622359  80.1842171  83.1922219
  81.4020551  78.6925211  82.9750255  82.5592723  82.5064677  85.1239407
  82.7359352  83.4282641  84.9360391  83.3549557  82.1923096  85.5533787
  86.7003742  69.3672941  96.7223341  87.4413455  69.9680094  96.6427803
  86.9321665  68.6250579  96.1641383  81.8445080  74.5529309  95.0001570
  81.7298595  73.6514566  95.3008669  80.9889598  74.7993005  94.6486387
  88.9236918  82.4947049  96.5989071  88.4800772  81.7083427  96.2809975
  89.5854131  82.6826199  95.9332962  83.6824039  84.0242851  91.1249749
  84.2331464  83.8959914  90.3526743  82.8435515  84.3237740  90.7744642
  91.0218156  82.7749849  94.6270472  91.0036631  83.5958730  94.1350741
  91.9438076  82.6503924  94.8520613  87.4791210  80.2893978  95.4693980
  88.0119547  79.5282267  95.2393288  86.9505291  79.9967630  96.2118135
  90.6460905  65.3954044  90.9987622  90.3025174  66.2855686  90.9226733
  91.0139867  65.2055702  90.1357207  78.7146755  77.7187575  83.8176224
  79.5521977  78.1284583  83.6009932  78.8925023  76.7787017  83.7876418
  90.6111187  75.3862655  79.5060057  90.0957811  76.1567260  79.7448445
  90.3388496  74.7127792  80.1293119  88.1958299  70.2312356  84.5645296
  87.3399895  69.8419207  84.3850934  88.6085250  70.3104317  83.7045081
  89.7257445  67.7658699  88.9636855  89.2222241  67.7288835  88.1504661
  90.0188052  68.6751442  89.0233512  85.9700331  67.8497429  87.9703037
  86.8353328  67.6540238  87.6108927  86.0377840  67.6207781  88.8972394
  90.3997491  73.2589747  81.3319839  90.0947626  73.5735897  82.1829982
  91.3527933  73.3371167  81.3747172  88.8443923  79.4179971  82.9812792
  88.3165284  78.6832730  82.6686030  88.3431425  80.1954647  82.7352761
  93.8236769  77.6128991  88.0979839  93.1660443  78.3028253  88.1859967
  94.6277168  78.0025423  88.4413825  83.5762650  70.0799637  85.3419404
  84.1506402  69.8574819  84.6092597  84.1633633  70.1488332  86.0948005
  92.6342227  75.9673364  86.1483781  93.1474109  76.6003356  86.6505490
  93.2843451  75.3674559  85.7827141  83.9032237  72.1104098  79.3615289
  83.0669549  72.4478785  79.6824564  83.7637007  71.9753078  78.4242426
  85.8785318  66.9540886  84.0694473  85.2249730  66.6389903  83.4451088
  85.8365792  66.3316626  84.7954296  86.9896523  77.2360181  75.9847766
  86.0823584  77.0049435  76.1838915  87.4867555  76.4397800  76.1721747
  89.8964602  85.9457688  78.9044452  89.2226300  86.2489385  79.5129410
  90.2830424  86.7486769  78.5549909  89.1123058  73.4422820  88.3942121
  88.1945620  73.6637767  88.2363809  89.5283202  73.5169130  87.5353828
  89.8958106  74.8414235  83.5244801  90.6429925  75.3535632  83.2151923
  90.1649696  74.5198288  84.3849195  88.1684756  77.3372776  80.5071756
  87.2595975  77.0531809  80.6044225  88.1979840  77.7571854  79.6475062
  93.4004024  80.9479365  84.2762923  92.9466351  80.1070275  84.3328114
  92.7697990  81.5840764  84.6137703  78.7372927  75.0578290  84.4886958
  78.5397326  74.4647651  83.7638024  78.1819591  74.7530500  85.2062897
  86.7169650  74.9501397  86.6081551  86.7718260  73.9975233  86.5324028
  85.9060852  75.1060836  87.0922849  87.8660844  78.8781520  77.8459834
  87.4280274  78.1617379  77.3865472  88.6071285  79.1057634  77.2844926
  84.6562010  73.5678456  84.3671930  83.8429876  73.8672627  84.7737122
  85.1521004  73.1734145  85.0846412  86.8070588  83.5636213  86.3006195
  86.7646767  83.7897060  85.3714727  87.7233287  83.3299588  86.4491996
  90.2536222  74.0320281  93.1986824  90.6085609  74.2591754  94.0581289
  90.9008353  74.3638658  92.5764079  95.9833959  77.1538717  83.9036153
  95.8451857  77.3440313  82.9757342  95.6270178  77.9158099  84.3604204
  84.1476085  71.1396812  89.9833165  84.7875464  70.9985571  89.2856128
  83.3153615  70.8531325  89.6071767  96.0103338  79.2215244  88.9147424
  96.4439845  79.1290533  89.7630478  96.7234919  79.1972744  88.2767440
  84.9236389  80.4399242  86.0968157  85.7176987  79.9449562  85.8950732
  84.2128081  79.9117105  85.7335863  89.7431233  82.8217338  90.4480525
  89.7968256  83.3908274  91.2158241  88.8746015  82.9919223  90.0834562
  81.2319152  74.5842324  82.1727910  80.3016740  74.5226779  82.3897872
  81.3276624  74.0618277  81.3764551  81.1504701  71.1097137  84.7606152
  81.4111519  72.0242470  84.6515312  81.9721874  70.6421579  84.9102764
  82.6229627  72.5234894  91.9304976  83.2952680  72.3152256  91.2817625
  81.7959413  72.3256980  91.4910208  96.8718888  79.2638944  91.4480310
  97.0654778  80.1684755  91.6939585  96.7719506  78.8046363  92.2818895
  88.5255199  69.1496835  93.9470637  87.8783114  69.8486785  93.8535113
  89.2956214  69.5832979  94.3146885  91.9333997  79.4145687  97.0221190
  91.7819503  79.1856239  96.1051274  91.9238676  80.3716288  97.0352535
  88.7019333  76.9877600  92.0067457  89.6311393  77.1388759  91.8336424
  88.2810363  77.0761621  91.1516103  87.5007665  81.0128264  89.7765994
  87.3618750  80.6447049  90.6491932  86.7122261  81.5275904  89.6049952
  88.0955817  86.1137361  81.1191531  88.2707572  85.6425404  81.9337154
  87.4088605  86.7403127  81.3472792  89.0512880  80.3909867  87.1654832
  88.7162713  80.3510637  88.0612482  88.5516826  79.7254583  86.6925242
  83.0257124  75.7977497  92.6907413  82.8876922  75.0657736  93.2918952
  83.9362047  75.7086397  92.4091601  91.9872072  77.7365901  77.4391892
  91.3701242  77.0112729  77.3424944  91.5188560  78.4975262  77.0958966
  85.6539425  75.5097456  92.1791093  86.3639043  74.8690648  92.1377711
  85.6108733  75.7610351  93.1017274  93.6426203  82.4464810  95.0997672
  93.5838749  81.7624030  94.4328255  94.0445722  83.1883800  94.6478298
  84.3668359  72.4962674  93.9986732  83.8305716  72.0453413  94.6508329
  83.7785067  72.6308583  93.2557197  82.6616902  89.2626723  87.8931391
  82.9013500  89.8945248  88.5710410  81.8186098  88.9114763  88.1796750
  83.7770617  71.9551326  76.5613196  82.9000084  71.8340126  76.1975443
  84.2528371  71.1637404  76.3092085  93.6443610  80.4104394  93.3311652
  92.7570389  80.0730315  93.4538051  94.2142162  79.6787425  93.5680417
  75.2972758  76.7428485  86.6554703  75.9843797  76.4290215  86.0675719
  75.1420886  77.6469850  86.3821955  80.1007480  71.6318682  91.0839727
  80.0165668  71.0244351  90.3490137  79.2790186  72.1227700  91.0849223
  87.1744764  85.0705846  90.2972895  87.1014935  85.8760817  90.8092200
  86.7322157  85.2697812  89.4720916  86.9634543  84.3077616  83.8075717
  86.1802065  84.8499296  83.9013941  87.6627289  84.8251596  84.2069958
  90.2731194  70.1172245  86.4509922  90.7699893  69.3642208  86.1310992
  89.5018175  70.1536562  85.8853131  98.1260951  75.8212611  88.0928213
  98.1150827  76.7037326  87.7222147  97.2578330  75.4684162  87.8982751
  89.6343447  84.9692680  92.4531054  90.3471420  85.6040145  92.3806955
  89.1433476  85.0656546  91.6371056  86.8566162  72.2589628  86.1781607
  86.4863950  71.7060669  86.8662512  87.3525255  71.6547762  85.6256607
  94.7433526  74.7161252  84.5598380  95.2093978  75.5489243  84.4858682
  95.1941026  74.2506233  85.2643638  84.6855361  82.7187123  93.2736625
  85.3864820  83.3523606  93.4266019  84.2150476  83.0601855  92.5132264
  92.8109757  81.0605073  81.5584532  93.0869601  80.9461668  82.4678406
  91.9414255  80.6622558  81.5196705  92.7150188  67.0841839  88.5989281
  91.8013268  67.3146066  88.7671488  93.1443290  67.1680283  89.4503313
  92.4856647  75.2731731  91.0989175  91.8328097  75.5207638  90.4441628
  92.8637027  74.4595869  90.7651652  89.4463821  85.3091424  85.2017345
  89.6286215  84.4913080  85.6645097  90.2696807  85.5259116  84.7642235
  89.7805986  84.2359609  82.4632394  90.3093753  83.7252064  81.8502556
  90.0434206  83.9202139  83.3277927  88.5344220  76.0151542  97.5855212
  87.8584857  75.9145671  98.2557587  89.3571854  75.8590756  98.0491209
  80.2823079  82.2523478  90.2067727  80.8676516  81.5067166  90.3395631
  80.0847917  82.5627435  91.0904391  83.1361734  85.2874726  85.2230170
  82.4672109  85.7720853  84.7394210  82.9974604  85.5343946  86.1373548
  74.8740734  74.8229079  88.9272170  74.9124833  74.2892669  89.7209288
  74.3681027  74.2964284  88.3083148  87.2767003  87.3218469  91.8212828
  87.8285311  87.4850091  92.5861913  87.6173196  87.9122907  91.1492853
  82.2531496  69.6693619  92.4234713  82.3172823  70.5308450  92.0112110
  82.1898616  69.0567621  91.6907071  81.7283769  71.7416752  96.0707747
  82.3555807  71.3593829  96.6845271  80.8711687  71.5230954  96.4363439
  92.1277877  82.1479727  97.6761482  92.6717781  82.7609685  97.1816437
  91.5464722  82.7059305  98.1928495  78.5049311  73.5493181  82.0026102
  78.8002752  72.6403859  81.9493155  77.6037347  73.5280920  81.6807104
  90.4135390  85.2700445  88.8076510  90.2886530  84.4690185  88.2987456
  91.0714481  85.7646638  88.3190480  82.0343558  71.6249177  87.9853650
  81.3130144  72.2385145  87.8461124  82.8236814  72.1606942  87.9070296
  92.4770298  83.0709465  90.4356060  91.5300634  82.9514816  90.3634387
  92.8253072  82.1831963  90.5182322  84.8369872  68.9603604  94.2594302
  85.3604274  69.2065900  95.0220611  84.6182205  69.7923639  93.8397439
  80.2337153  71.2307278  82.1265427  79.9049859  70.3504657  81.9440533
  80.5876524  71.1754947  83.0141816  89.4816732  82.8662181  86.6360412
  89.3341694  81.9378889  86.8167982  90.3070225  82.8882272  86.1517488
  83.3478976  71.5180248  82.4940905  83.6875049  72.0466170  81.7719513
  83.7951097  71.8560654  83.2699471  93.0850854  83.6890740  87.7225285
  94.0097401  83.4833601  87.5849736  92.9166157  83.4407141  88.6314627
  86.0422417  69.9017299  91.9443973  85.7019237  69.1025112  92.3464652
  85.3361423  70.2019010  91.3720806  86.6938889  66.9866611  90.3971296
  87.5164958  66.5127090  90.2750186  86.9376952  67.7657095  90.8969982
  85.3347123  70.0154870  80.6934197  86.0555486  70.3936123  80.1897914
  84.7112427  70.7343747  80.7969175  89.4778246  70.7200019  81.6292530
  89.6941860  71.6024657  81.3281358  88.9972313  70.3286232  80.8998172
  84.2177467  73.6785732  88.2063274  84.0722048  73.9926035  89.0987556
  83.7402671  74.2970632  87.6534173  86.0773850  70.6688280  88.2544164
  86.0635419  69.7729373  87.9176462  86.7946278  70.6758944  88.8882450
  87.9299981  71.1025620  90.2997291  87.6717759  72.0242691  90.2981622
  87.3985021  70.7056055  90.9897755  92.8746170  84.2076407  83.0787377
  93.0483047  83.6422830  82.3261229  93.3675061  85.0077302  82.8966867
  78.6923130  76.2191076  91.1450935  78.1476598  76.9950884  91.2771210
  79.5702479  76.5661881  90.9870057  85.4810746  69.5502660  83.5231734
  85.6026657  68.6219306  83.7222621  85.1912789  69.5641346  82.6110049
  88.3501937  67.2357571  86.6598454  88.3723633  67.2996904  85.7050433
  88.7669996  66.3962079  86.8538960  98.7285561  76.9712830  84.6977676
  99.1716707  76.2220155  84.2996800  97.8512071  76.9622967  84.3151408
  93.8621342  83.5243172  80.1784275  94.5572247  84.1449864  80.3971590
  94.2044492  82.6738523  80.4536653  79.4789151  75.3460973  94.0381092
  78.7370888  75.4943608  94.6245723  79.1581896  75.6069238  93.1747842
  95.7612765  80.9742877  81.7071606  96.2864090  81.3130150  80.9820926
  95.6735118  80.0389893  81.5234740  87.4232814  84.8876951  93.8361482
  87.7319941  84.6426098  94.7084182  88.2208296  85.0923589  93.3480353
  87.4453426  87.0414861  86.0666859  87.0058416  86.5491239  86.7599716
  88.1961543  86.4987828  85.8258934  79.9245765  83.2326401  86.0691487
  80.7503785  82.9330173  85.6890130  79.5739817  82.4634024  86.5181276
  84.8927298  82.5852870  88.1389161  84.2707308  81.9223575  87.8391388
  85.5632165  82.6114002  87.4562808  78.1254370  81.1512728  87.0280421
  77.2886279  80.7234902  86.8464422  78.0978016  81.3445171  87.9651212
  84.9651826  71.0634658  97.7321667  85.0139981  71.9396780  97.3499436
  85.5074340  70.5212051  97.1593310  95.4506671  81.6075781  97.0122804
  94.6602215  81.5899920  96.4727303  95.2140026  82.1464075  97.7671840
  95.5704547  78.4568247  94.3255532  95.6202551  78.2918255  95.2671055
  95.4618470  77.5895506  93.9353413  84.4540805  81.1356793  81.6147621
  84.6028926  81.8192257  80.9614294  85.2607249  81.1161883  82.1297077
  92.8608309  74.4399175  95.6414839  93.7618172  74.3005640  95.3498837
  92.9356283  74.6053630  96.5813016  87.1951114  71.8166030  94.4868025
  86.3254424  72.1099596  94.2150614  87.4310595  72.4006475  95.2075289
  97.0722743  80.8765189  94.5697554  96.7807552  81.2395169  95.4061015
  96.4594875  80.1632197  94.3910886  98.2718426  78.4418069  87.0900124
  99.1065317  78.8807873  87.2537684  98.4077554  77.9656722  86.2708370
  95.3209932  75.9997803  93.0377612  95.7964053  76.1925450  92.2296463
  94.3975497  76.0556989  92.7920995  82.2093438  77.1621971  82.6208690
  81.9639480  76.2584301  82.8188900  82.3789353  77.1639121  81.6788168
  89.8990148  68.0345647  92.0033446  90.4172092  68.7706674  91.6779934
  89.5445281  68.3409640  92.8380205  81.4789086  72.8950328  80.1194851
  80.7858331  72.9694683  79.4634887  81.2340838  72.1310672  80.6416368
  90.1502742  64.4545930  87.5234342  90.4304496  63.7869119  88.1494769
  90.9353349  64.6475025  87.0109006  87.9536211  83.6304923  79.0859368
  87.3810178  84.2495111  78.6329840  88.5269004  84.1804285  79.6199290
  94.0211601  72.8763564  91.2705917  94.9729023  72.9761661  91.2918141
  93.8515051  72.0841832  91.7804002  92.0425980  69.9619147  91.4565318
  91.4475912  70.2424159  90.7611807  91.7575677  70.4513048  92.2282059
  91.1733471  83.9142074  80.2167951  92.1064144  83.8487635  80.4200826
  91.0856683  84.7498340  79.7582483  93.8021487  83.2307944  77.1771898
  93.7235119  82.8967808  78.0707656  94.6231154  83.7229712  77.1763371
  96.4999678  76.0969683  90.3848217  96.4675998  75.1585684  90.5707901
  97.1100302  76.1753720  89.6514042  88.3383009  74.9665736  76.4275421
  89.2842114  74.8371944  76.4963839  87.9597254  74.2280398  76.9044849
  96.6494167  72.8880727  90.4306500  96.1333216  72.1039183  90.2436429
  97.5334115  72.5599443  90.5953020  94.3104894  66.6321742  86.3902313
  94.1129715  66.3236830  87.2745645  94.9204599  67.3583381  86.5200243
 102.3176228  77.1585690  89.5254254 103.0479617  76.8970978  90.0861957
 101.7083174  76.4214412  89.5656322 100.3991525  75.2993553  90.1228705
  99.6724689  75.1649518  89.5145197  99.9838812  75.6070381  90.9285423
  88.2221702  79.0183482  97.8876078  89.1424711  79.1962081  98.0816124
  88.1871285  78.0739528  97.7355777  86.5225926  72.8915713  76.3630306
  85.6157382  72.5948825  76.4393020  86.8001907  72.5945531  75.4964592
  77.4403867  74.2122076  86.8129353  77.1206651  73.3587384  86.5203727
  76.8937295  74.4270654  87.5687320  81.2183774  76.9284517  90.5298859
  81.4369784  77.8601625  90.5486893  81.6309548  76.5692491  91.3153663
  88.1387992  67.4352602  82.5174548  87.3288720  67.0899687  82.8929794
  88.8272409  67.1260146  83.1062159  90.0678540  66.5130649  84.1398844
  90.6209579  66.9326103  84.7988867  90.3048627  65.5866397  84.1821800
  86.0911640  72.5017723  99.9201608  85.9908367  73.4512080  99.8513699
  85.8733182  72.1735962  99.0477678  85.2924711  69.7502648  76.5042285
  86.1543875  70.0757546  76.7638103  85.4775055  68.9634144  75.9915351
  77.3092127  77.8324987  88.7822474  76.6155598  77.4178940  88.2692429
  78.0565118  77.8745524  88.1855893  93.4457347  68.6231174  83.6477508
  92.8656017  69.2815978  83.2655561  93.1793280  67.8008519  83.2364926
  91.8960914  68.0236232  85.8498829  92.3960692  68.1352766  85.0413148
  92.5396522  67.7197285  86.4899637  85.9542910  75.9314862  98.7366670
  85.4709991  76.7315222  98.9430559  86.0403849  75.9422806  97.7834114
  79.2228869  77.7643241  86.6588489  79.1999557  77.8630929  85.7070372
  79.5329506  78.6108392  86.9805655  81.8816247  79.8219396  90.7735103
  82.8359501  79.7903339  90.7065035  81.6828771  79.3610020  91.5885329
  82.4715629  78.3920512  93.3405901  83.2908518  78.8864591  93.3640738
  82.7452437  77.4752480  93.3123469  92.2282226  70.7831265  82.7033857
  91.3408081  71.0680915  82.4854051  92.6436215  70.6225028  81.8561134
  95.5796762  70.8077786  86.4188196  96.3557152  71.2974238  86.6912813
  94.8544896  71.2335840  86.8760065  98.0169320  71.5205405  87.4762137
  98.6113811  71.2801141  86.7655445  98.0895904  70.8012535  88.1035673
  80.2366476  85.3639016  87.7905301  80.1020944  84.6039417  87.2243299
  79.8198538  86.0879916  87.3234090  91.3725439  80.5475939  76.7981877
  92.0761289  80.7525942  77.4139532  90.6488088  81.1152701  77.0630960
  92.2023249  76.2985801  82.9184147  92.1458451  76.7554352  82.0791779
  92.7551592  75.5376485  82.7406990  96.0128055  72.0875532  83.7434266
  95.7564989  71.6872168  84.5742474  95.3880923  72.8019326  83.6184405
 100.3240393  74.8271606  86.2505558  99.7639951  74.8964795  87.0237120
  99.7183896  74.6512590  85.5305054  83.3935602  86.2608333  88.0023744
  83.2767986  87.2053765  87.9002434  82.5728048  85.9581894  88.3909543
  93.2812136  80.9858469  78.8480337  94.1157740  80.5539667  78.6657812
  93.1196479  80.8140482  79.7757231  92.9358029  77.4890582  80.2136676
  92.8806832  77.3234853  79.2725120  92.3104084  78.1966615  80.3698866
  77.7250544  72.7258646  94.0398098  78.3709407  72.2157600  94.5285323
  77.5167695  73.4627328  94.6141523  90.2503936  79.7939494  99.5390239
  91.1195095  79.9680146  99.1776874  89.7710687  80.6133911  99.4165968
  86.2454154  66.9898691  79.7921994  86.2332824  67.9340531  79.9490265
  87.1377576  66.8068836  79.4981456  84.4190116  86.9136595  91.2179672
  85.3217363  86.9460205  91.5346167  84.1927486  85.9837046  91.2326008
  86.1743718  85.6667581  87.8789751  85.2239349  85.6669443  87.7654123
  86.4776204  84.9200316  87.3625786  90.0606273  63.5841467  84.0467931
  89.2938669  63.0299954  84.1924614  90.4716978  63.6563336  84.9082083
  82.0648035  69.8726263  98.1373112  82.9279496  69.5163068  98.3476437
  81.4913445  69.5340158  98.8248517 101.9096411  91.5028120  88.9435513
 102.5474821  91.3834867  88.2398854 101.7917254  92.4508964  89.0023466
  98.7186118  91.4555548  88.8797038  98.3804629  91.3396612  87.9917573
  99.5875886  91.0546713  88.8598044  94.5772933  93.3091024  84.8693929
  94.0137799  93.2180961  84.1010217  94.4625329  92.4890929  85.3496422
  99.2005901  92.6090399  94.8383244  99.1894542  92.2143198  93.9663747
  99.3626540  91.8756472  95.4317015  92.1237365  94.8042216  87.7078150
  92.9158657  94.4633040  87.2924449  92.3634016  94.9137191  88.6280303
 100.1572492  96.9761992  80.1808394  99.5060472  97.5616072  79.7942408
 100.9516855  97.5068187  80.2403431  94.0828119  94.0651129  80.5795528
  94.8558995  93.5180116  80.4408404  94.4353518  94.9295378  80.7909990
  95.9213162  95.3927511  93.7862428  95.6303028  96.2973142  93.6709094
  96.5570146  95.4344039  94.5006497  96.8469369  92.7704360  90.3763787
  97.4432941  92.5460382  89.6620750  96.9044340  92.0289105  90.9789235
  96.4194397  90.2243795  78.2113978  96.6719918  89.7025316  77.4497441
  95.4818956  90.0609941  78.3140662 101.4637680  89.2279573  86.0188721
 102.2500769  88.8098997  85.6679139 101.7276384  90.1325666  86.1870370
 101.6347757  94.6652424  80.7177378 100.9993590  94.7387050  81.4298283
 101.3045164  95.2546023  80.0396458 106.8646107  89.1654807  86.9221700
 107.5971279  88.5954023  87.1559529 106.1085463  88.7776407  87.3628206
  96.1390686  92.1271901  80.4138353  96.0226944  91.4516804  81.0819438
  96.2492946  91.6404275  79.5970506  98.4822227  91.5882048  84.1185042
  98.1180434  91.0612669  84.8297964  99.3389343  91.1980517  83.9451528
 104.3871527  82.8776381  91.3816309 104.0554852  83.7471792  91.1577524
 103.7917141  82.5612665  92.0610339  98.1227714  86.6171948  79.1146391
  98.2902116  87.4852184  79.4816862  97.9324883  86.7799230  78.1907680
 100.8803047  95.0788927  90.7812221 100.5803770  95.9813966  90.6728029
 100.5354106  94.8121110  91.6333374  94.3315528  91.5302724  86.8148926
  93.4066025  91.3978938  87.0226618  94.5799942  92.3096943  87.3118868
 104.2800191  87.5971467  88.4609659 103.3717068  87.5286875  88.1668420
 104.2287787  88.0743412  89.2891484  98.1016935  89.0729605  80.0993058
  97.9816560  89.5186656  80.9378538  97.4069523  89.4214923  79.5406596
  91.6924339  91.1735997  87.6492715  91.8216721  91.4270476  88.5632127
  91.0121791  91.7663705  87.3297370  95.8623827 101.8433247  83.7483189
  95.7847856 102.7941072  83.8271670  95.2585470 101.4979120  84.4058115
  98.3541057  89.0161113  96.4044556  97.5774391  89.5755033  96.3947421
  98.9931620  89.5017896  96.9259426 106.1461837  85.7987905  90.2387533
 105.5036217  86.0920439  89.5927327 105.6416766  85.6840826  91.0440729
 103.8002001  89.5451079  80.9273392 104.7119857  89.7778465  80.7521089
 103.2911648  90.1288123  80.3648470  96.6087429  91.8246566  95.9662523
  97.3502113  92.3631610  95.6897347  95.9024414  92.4512855  96.1234075
 102.0842768  93.9675706  94.5634684 102.4926125  93.5258117  93.8189317
 101.3620030  93.3928334  94.8168877  98.4373839  88.9048313  91.9368241
  99.2835034  89.3287727  92.0802890  98.3772476  88.2481937  92.6306804
 102.4071583  94.5276897  88.3186973 101.7780446  94.6922611  87.6163041
 102.0197245  94.9418507  89.0897937 106.2860815  95.4631335  85.6731337
 105.6011853  95.8430236  85.1228370 106.3704664  96.0726662  86.4063285
 101.5873284  86.5652682  93.5949415 101.3434216  87.3194742  93.0583691
 101.8633214  86.9438029  94.4296662 103.5411747  93.1091294  92.2726681
 103.7528642  93.7523054  91.5961062 103.4941495  92.2753610  91.8048611
 101.1437976  85.7209115  89.1763253 100.2822455  86.0190368  89.4679990
 101.1700410  85.9379513  88.2444285  97.9599545  94.2651305  85.5837058
  98.4237891  94.5439008  84.7941681  97.6956343  93.3634750  85.4010149
  94.8523626  93.8122787  88.5216822  95.4224983  94.2410055  87.8834306
  95.4431738  93.5305371  89.2201007  96.8968431  90.3874457  82.3926624
  97.5992474  90.8395501  82.8600550  96.5649060  89.7458276  83.0206517
  95.3448793  88.9786214  96.7677833  94.7147453  89.6602495  97.0013230
  95.2384880  88.8669296  95.8230971  90.6393765  88.6458010  87.6943757
  89.8492819  88.9015539  87.2183868  91.1305012  89.4606348  87.7995798
 104.6557575  95.9863249  90.4449038 105.4775018  95.5843437  90.1631720
 104.6519977  95.8831483  91.3965154  92.5908510  89.0102589  84.6527234
  91.7939674  89.1221284  85.1710729  92.3634103  89.3489242  83.7868124
  98.4214178  95.5347293  92.6009748  98.4858611  95.9967700  93.4367920
  97.7125102  94.9044658  92.7292058  88.9231468  88.8988501  90.1258748
  89.1739506  89.7835510  90.3916324  89.4591016  88.7193102  89.3533840
 112.7463568  92.3301998  86.7934009 111.9927276  91.7609396  86.6378014
 112.8811109  92.2964662  87.7404644  98.1362196  97.2015400  82.4688729
  98.0007870  98.0466936  82.8973577  98.6772008  97.4034678  81.7054663
  94.6229535  83.2806980  99.1303084  94.2296481  82.7273178  99.8050728
  95.4395676  83.5917558  99.5209602  91.5891593  94.7190838  83.0416654
  92.1016114  95.5134088  83.1922219  92.2414306  94.0217129  82.9750255
  93.3986478  97.8356594  85.1239407  93.5753106  98.7574559  84.9360391
  94.1943311  97.5215014  85.5533787  97.5397496  84.6964859  96.7223341
  98.2807210  85.2972012  96.6427803  97.7715419  83.9542497  96.1641383
  92.6838834  89.8821226  95.0001570  92.5692349  88.9806484  95.3008669
  91.8283352  90.1284923  94.6486387  99.7630672  97.8238967  96.5989071
  99.3194526  97.0375345  96.2809975 100.4247886  98.0118117  95.9332962
  94.5217793  99.3534768  91.1249749  95.0725218  99.2251832  90.3526743
  93.6829269  99.6529657  90.7744642 101.8611910  98.1041767  94.6270472
 101.8430385  98.9250648  94.1350741 102.7831830  97.9795842  94.8520613
  98.3184964  95.6185896  95.4693980  98.8513301  94.8574184  95.2393288
  97.7899045  95.3259548  96.2118135 101.4854659  80.7245962  90.9987622
 101.1418929  81.6147604  90.9226733 101.8533622  80.5347620  90.1357207
  89.5540510  93.0479492  83.8176224  90.3915732  93.4576501  83.6009932
  89.7318778  92.1078935  83.7876418 101.4504942  90.7154573  79.5060057
 100.9351565  91.4859178  79.7448445 101.1782250  90.0419709  80.1293119
  99.0352053  85.5604274  84.5645296  98.1793649  85.1711124  84.3850934
  99.4479005  85.6396235  83.7045081 100.5651200  83.0950617  88.9636855
 100.0615995  83.0580752  88.1504661 100.8581807  84.0043360  89.0233512
  96.8094086  83.1789347  87.9703037  97.6747082  82.9832156  87.6108927
  96.8771594  82.9499699  88.8972394 106.4239216  93.4686928  81.4413231
 105.6468659  93.1298087  80.9968393 107.1030697  93.4739551  80.7668196
 101.2391245  88.5881665  81.3319839 100.9341381  88.9027814  82.1829982
 102.1921687  88.6663085  81.3747172  99.6837677  94.7471888  82.9812792
  99.1559039  94.0124648  82.6686030  99.1825180  95.5246565  82.7352761
 104.6630523  92.9420909  88.0979839 104.0054197  93.6320170  88.1859967
 105.4670922  93.3317341  88.4413825  94.4156405  85.4091555  85.3419404
  94.9900157  85.1866736  84.6092597  95.0027387  85.4780249  86.0948005
 103.4735982  91.2965282  86.1483781 103.9867864  91.9295273  86.6505490
 104.1237206  90.6966477  85.7827141  94.7425992  87.4396016  79.3615289
  93.9063304  87.7770702  79.6824564  94.6030761  87.3044996  78.4242426
  96.7179072  82.2832804  84.0694473  96.0643485  81.9681821  83.4451088
  96.6759546  81.6608544  84.7954296  97.8290277  92.5652099  75.9847766
  96.9217339  92.3341352  76.1838915  98.3261309  91.7689718  76.1721747
 100.7358356 101.2749606  78.9044452 100.0620055 101.5781303  79.5129410
 101.1224178 102.0778686  78.5549909  99.9516813  88.7714737  88.3942121
  99.0339374  88.9929684  88.2363809 100.3676956  88.8461048  87.5353828
 100.7351860  90.1706153  83.5244801 101.4823679  90.6827550  83.2151923
 101.0043450  89.8490206  84.3849195  99.0078511  92.6664694  80.5071756
  98.0989730  92.3823726  80.6044225  99.0373594  93.0863772  79.6475062
 104.2397778  96.2771283  84.2762923 103.7860105  95.4362193  84.3328114
 103.6091745  96.9132681  84.6137703 103.1830698  87.2063269  85.5063591
 102.4453454  86.6940655  85.8373833 103.4357471  86.7663651  84.6946868
 102.6830717  98.1147780  85.2112741 102.9753692  98.6752837  84.4925107
 103.1929338  98.4076341  85.9665900 103.2842325  79.9839521  86.1005360
 103.5901202  79.1236885  85.8131275 104.0094930  80.5757141  85.9004354
  89.5766681  90.3870208  84.4886958  89.3791081  89.7939568  83.7638024
  89.0213345  90.0822418  85.2062897  97.5563405  90.2793314  86.6081551
  97.6112014  89.3267151  86.5324028  96.7454607  90.4352753  87.0922849
  98.7054598  94.2073437  77.8459834  98.2674028  93.4909296  77.3865472
  99.4465039  94.4349552  77.2844926  95.4955765  88.8970374  84.3671930
  94.6823630  89.1964545  84.7737122  95.9914759  88.5026063  85.0846412
  97.6464342  98.8928131  86.3006195  97.6040521  99.1188977  85.3714727
  98.5627041  98.6591505  86.4491996 101.0929976  89.3612198  93.1986824
 101.4479364  89.5883672  94.0581289 101.7402107  89.6930575  92.5764079
 106.8227713  92.4830634  83.9036153 106.6845612  92.6732230  82.9757342
 106.4663932  93.2450017  84.3604204  94.9869839  86.4688729  89.9833165
  95.6269219  86.3277489  89.2856128  94.1547370  86.1823243  89.6071767
 106.8497093  94.5507161  88.9147424 107.2833599  94.4582450  89.7630478
 107.5628674  94.5264662  88.2767440  95.7630143  95.7691160  86.0968157
  96.5570742  95.2741480  85.8950732  95.0521836  95.2409023  85.7335863
 100.5824988  98.1509255  90.4480525 100.6362010  98.7200192  91.2158241
  99.7139769  98.3211140  90.0834562  92.0712907  89.9134242  82.1727910
  91.1410495  89.8518697  82.3897872  92.1670379  89.3910194  81.3764551
  91.9898456  86.4389054  84.7606152  92.2505273  87.3534388  84.6515312
  92.8115628  85.9713497  84.9102764  93.4623381  87.8526812  91.9304976
  94.1346435  87.6444174  91.2817625  92.6353168  87.6548898  91.4910208
 107.7112642  94.5930862  91.4480310 107.9048532  95.4976672  91.6939585
 107.6113261  94.1338281  92.2818895  99.3648953  84.4788753  93.9470637
  98.7176868  85.1778702  93.8535113 100.1349969  84.9124896  94.3146885
 102.7727751  94.7437605  97.0221190 102.6213257  94.5148156  96.1051274
 102.7632431  95.7008206  97.0352535  99.5413087  92.3169517  92.0067457
 100.4705147  92.4680677  91.8336424  99.1204117  92.4053538  91.1516103
  98.3401419  96.3420182  89.7765994  98.2012505  95.9738966  90.6491932
  97.5516015  96.8567821  89.6049952  98.9349571 101.4429278  81.1191531
  99.1101327 100.9717322  81.9337154  98.2482359 102.0695045  81.3472792
  99.8906634  95.7201785  87.1654832  99.5556467  95.6802555  88.0612482
  99.3910580  95.0546501  86.6925242  93.8650878  91.1269415  92.6907413
  93.7270676  90.3949653  93.2918952  94.7755802  91.0378315  92.4091601
 102.8265826  93.0657819  77.4391892 102.2094997  92.3404647  77.3424944
 102.3582314  93.8267179  77.0958966  96.4933179  90.8389374  92.1791093
  97.2032798  90.1982566  92.1377711  96.4502487  91.0902269  93.1017274
 104.4819958  97.7756727  95.0997672 104.4232504  97.0915947  94.4328255
 104.8839476  98.5175717  94.6478298  95.2062113  87.8254592  93.9986732
  94.6699470  87.3745330  94.6508329  94.6178821  87.9600501  93.2557197
  93.5010656 104.5918641  87.8931391  93.7407255 105.2237165  88.5710410
  92.6579853 104.2406681  88.1796750  94.6164372  87.2843243  76.5613196
  93.7393838  87.1632044  76.1975443  95.0922125  86.4929322  76.3092085
 104.4837365  95.7396311  93.3311652 103.5964144  95.4022233  93.4538051
 105.0535916  95.0079342  93.5680417  86.1366512  92.0720403  86.6554703
  86.8237552  91.7582133  86.0675719  85.9814641  92.9761768  86.3821955
  90.9401234  86.9610600  91.0839727  90.8559423  86.3536269  90.3490137
  90.1183941  87.4519618  91.0849223  98.0138518 100.3997764  90.2972895
  97.9408690 101.2052735  90.8092200  97.5715911 100.5989729  89.4720916
  97.8028298  99.6369534  83.8075717  97.0195820 100.1791214  83.9013941
  98.5021043 100.1543513  84.2069958 101.1124948  85.4464163  86.4509922
 101.6093648  84.6934125  86.1310992 100.3411930  85.4828480  85.8853131
 108.9654706  91.1504529  88.0928213 108.9544582  92.0329244  87.7222147
 108.0972085  90.7976079  87.8982751 100.4737202 100.2984598  92.4531054
 101.1865174 100.9332062  92.3806955  99.9827231 100.3948464  91.6371056
 102.1954729  94.2035850  84.0248345 101.2611008  94.3237313  83.8553050
 102.3731397  93.3008317  83.7608355  97.6959917  87.5881546  86.1781607
  97.3257704  87.0352586  86.8662512  98.1919009  86.9839680  85.6256607
 105.5827280  90.0453170  84.5598380 106.0487732  90.8781161  84.4858682
 106.0334781  89.5798151  85.2643638  95.5249115  98.0479041  93.2736625
  96.2258575  98.6815524  93.4266019  95.0544230  98.3893773  92.5132264
 103.6503511  96.3896991  81.5584532 103.9263355  96.2753585  82.4678406
 102.7808010  95.9914476  81.5196705 103.5543943  82.4133757  88.5989281
 102.6407023  82.6437983  88.7671488 103.9837044  82.4972201  89.4503313
 103.3250401  90.6023649  91.0989175 102.6721852  90.8499556  90.4441628
 103.7030781  89.7887787  90.7651652 100.2857575 100.6383342  85.2017345
 100.4679970  99.8204998  85.6645097 101.1090561 100.8551034  84.7642235
 100.6199741  99.5651527  82.4632394 101.1487507  99.0543981  81.8502556
 100.8827960  99.2494057  83.3277927  99.3737974  91.3443460  97.5855212
  98.6978611  91.2437589  98.2557587 100.1965608  91.1882673  98.0491209
  91.1216833  97.5815396  90.2067727  91.7070270  96.8359084  90.3395631
  90.9241672  97.8919353  91.0904391  93.9755489 100.6166643  85.2230170
  93.3065864 101.1012771  84.7394210  93.8368358 100.8635864  86.1373548
  85.7134488  90.1520996  88.9272170  85.7518588  89.6184587  89.7209288
  85.2074781  89.6256202  88.3083148  98.1160757 102.6510387  91.8212828
  98.6679065 102.8142009  92.5861913  98.4566951 103.2414825  91.1492853
  93.0925251  84.9985537  92.4234713  93.1566577  85.8600368  92.0112110
  93.0292371  84.3859538  91.6907071  92.5677523  87.0708669  96.0707747
  93.1949562  86.6885747  96.6845271  91.7105442  86.8522871  96.4363439
  89.3443066  88.8785098  82.0026102  89.6396507  87.9695777  81.9493155
  88.4431102  88.8572838  81.6807104 101.2529145 100.5992363  88.8076510
 101.1280284  99.7982102  88.2987456 101.9108236 101.0938556  88.3190480
  92.8737313  86.9541095  87.9853650  92.1523899  87.5677063  87.8461124
  93.6630569  87.4898860  87.9070296 103.3164053  98.4001383  90.4356060
 102.3694388  98.2806734  90.3634387 103.6646826  97.5123881  90.5182322
  95.6763626  84.2895522  94.2594302  96.1998028  84.5357818  95.0220611
  95.4575960  85.1215556  93.8397439  91.0730907  86.5599196  82.1265427
  90.7443614  85.6796575  81.9440533  91.4270278  86.5046865  83.0141816
 100.3210486  98.1954099  86.6360412 100.1735449  97.2670806  86.8167982
 101.1463980  98.2174190  86.1517488  94.1872731  86.8472166  82.4940905
  94.5268803  87.3758087  81.7719513  94.6344851  87.1852572  83.2699471
 103.9244608  99.0182658  87.7225285 104.8491156  98.8125519  87.5849736
 103.7559911  98.7699059  88.6314627  96.8816171  85.2309217  91.9443973
  96.5412992  84.4317030  92.3464652  96.1755178  85.5310927  91.3720806
  97.5332643  82.3158529  90.3971296  98.3558712  81.8419007  90.2750186
  97.7770707  83.0949013  90.8969982  96.1740878  85.3446788  80.6934197
  96.8949240  85.7228040  80.1897914  95.5506182  86.0635664  80.7969175
 100.3172001  86.0491936  81.6292530 100.5335615  86.9316574  81.3281358
  99.8366068  85.6578150  80.8998172  95.0571222  89.0077650  88.2063274
  94.9115803  89.3217953  89.0987556  94.5796426  89.6262550  87.6534173
  96.9167605  85.9980198  88.2544164  96.9029174  85.1021291  87.9176462
  97.6340033  86.0050861  88.8882450  98.7693736  86.4317538  90.2997291
  98.5111513  87.3534609  90.2981622  98.2378776  86.0347972  90.9897755
 103.7139924  99.5368325  83.0787377 103.8876802  98.9714748  82.3261229
 104.2068816 100.3369220  82.8966867  89.5316884  91.5482994  91.1450935
  88.9870352  92.3242802  91.2771210  90.4096234  91.8953799  90.9870057
  96.3204501  84.8794578  83.5231734  96.4420412  83.9511224  83.7222621
  96.0306543  84.8933264  82.6110049  99.1895691  82.5649488  86.6598454
  99.2117388  82.6288822  85.7050433  99.6063750  81.7253997  86.8538960
 109.5679315  92.3004748  84.6977676 110.0110462  91.5512073  84.2996800
 108.6905826  92.2914884  84.3151408 104.7015097  98.8535089  80.1784275
 105.3966001  99.4741782  80.3971590 105.0438247  98.0030441  80.4536653
  90.3182906  90.6752890  94.0381092  89.5764642  90.8235526  94.6245723
  89.9975650  90.9361156  93.1747842 106.6006520  96.3034795  81.7071606
 107.1257844  96.6422068  80.9820926 106.5128872  95.3681810  81.5234740
  98.2626569 100.2168869  93.8361482  98.5713695  99.9718015  94.7084182
  99.0602051 100.4215507  93.3480353  98.2847181 102.3706778  86.0666859
  97.8452171 101.8783157  86.7599716  99.0355298 101.8279746  85.8258934
  90.7639520  98.5618319  86.0691487  91.5897540  98.2622091  85.6890130
  90.4133572  97.7925942  86.5181276  95.7321053  97.9144787  88.1389161
  95.1101062  97.2515492  87.8391388  96.4025920  97.9405919  87.4562808
  88.9648125  96.4804646  87.0280421  88.1280033  96.0526820  86.8464422
  88.9371770  96.6737089  87.9651212  95.8045580  86.3926575  97.7321667
  95.8533736  87.2688698  97.3499436  96.3468095  85.8503968  97.1593310
 106.4098301  93.7860165  94.3255532 106.4596306  93.6210172  95.2671055
 106.3012224  92.9187424  93.9353413  95.2934560  96.4648711  81.6147621
  95.4422680  97.1484175  80.9614294  96.1001003  96.4453801  82.1297077
 103.7002063  89.7691093  95.6414839 104.6011926  89.6297558  95.3498837
 103.7750038  89.9345548  96.5813016  98.0344869  87.1457948  94.4868025
  97.1648178  87.4391514  94.2150614  98.2704349  87.7298393  95.2075289
 107.9116498  96.2057106  94.5697554 107.6201306  96.5687087  95.4061015
 107.2988629  95.4924115  94.3910886 109.1112180  93.7709986  87.0900124
 109.9459072  94.2099790  87.2537684 109.2471309  93.2948639  86.2708370
 106.1603686  91.3289721  93.0377612 106.6357808  91.5217367  92.2296463
 105.2369251  91.3848907  92.7920995  93.0487193  92.4913888  82.6208690
  92.8033235  91.5876218  82.8188900  93.2183107  92.4931039  81.6788168
 100.7383903  83.3637565  92.0033446 101.2565846  84.0998592  91.6779934
 100.3839035  83.6701558  92.8380205  92.3182840  88.2242246  80.1194851
  91.6252085  88.2986601  79.4634887  92.0734592  87.4602590  80.6416368
 100.9896497  79.7837847  87.5234342 101.2698251  79.1161036  88.1494769
 101.7747104  79.9766943  87.0109006  98.7929965  98.9596841  79.0859368
  98.2203932  99.5787028  78.6329840  99.3662759  99.5096203  79.6199290
 104.8605355  88.2055481  91.2705917 105.8122778  88.3053579  91.2918141
 104.6908806  87.4133750  91.7804002 102.8819735  85.2911064  91.4565318
 102.2869667  85.5716077  90.7611807 102.5969431  85.7804965  92.2282059
 102.0127225  99.2433991  80.2167951 102.9457898  99.1779553  80.4200826
 101.9250438 100.0790258  79.7582483 104.6415242  98.5599862  77.1771898
 104.5628873  98.2259725  78.0707656 105.4624908  99.0521629  77.1763371
 107.3393433  91.4261601  90.3848217 107.3069753  90.4877602  90.5707901
 107.9494057  91.5045638  89.6514042  99.1776764  90.2957654  76.4275421
 100.1235868  90.1663862  76.4963839  98.7991009  89.5572316  76.9044849
 107.4887921  88.2172644  90.4306500 106.9726970  87.4331101  90.2436429
 108.3727870  87.8891361  90.5953020 105.1498648  81.9613660  86.3902313
 104.9523469  81.6528748  87.2745645 105.7598354  82.6875299  86.5200243
 113.1569983  92.4877608  89.5254254 113.8873371  92.2262896  90.0861957
 112.5476928  91.7506330  89.5656322 111.2385280  90.6285470  90.1228705
 110.5118443  90.4941435  89.5145197 110.8232567  90.9362299  90.9285423
  99.0615456  94.3475400  97.8876078  99.9818466  94.5253999  98.0816124
  99.0265039  93.4031445  97.7355777  97.3619681  88.2207630  76.3630306
  96.4551136  87.9240743  76.4393020  97.6395662  87.9237448  75.4964592
  88.2797621  89.5413994  86.8129353  87.9600406  88.6879302  86.5203727
  87.7331049  89.7562572  87.5687320  92.0577529  92.2576435  90.5298859
  92.2763539  93.1893542  90.5486893  92.4703303  91.8984409  91.3153663
  98.9781747  82.7644520  82.5174548  98.1682475  82.4191605  82.8929794
  99.6666164  82.4552064  83.1062159 100.9072295  81.8422567  84.1398844
 101.4603334  82.2618020  84.7988867 101.1442381  80.9158315  84.1821800
  96.9305394  87.8309640  99.9201608  96.8302121  88.7803997  99.8513699
  96.7126936  87.5027879  99.0477678  96.1318466  85.0794565  76.5042285
  96.9937630  85.4049464  76.7638103  96.3168810  84.2926061  75.9915351
  88.1485881  93.1616905  88.7822474  87.4549353  92.7470858  88.2692429
  88.8958872  93.2037442  88.1855893 104.2851102  83.9523092  83.6477508
 103.7049771  84.6107896  83.2655561 104.0187035  83.1300437  83.2364926
 102.7354668  83.3528150  85.8498829 103.2354447  83.4644684  85.0413148
 103.3790276  83.0489202  86.4899637  96.7936664  91.2606779  98.7366670
  96.3103746  92.0607139  98.9430559  96.8797603  91.2714724  97.7834114
  90.0622624  93.0935159  86.6588489  90.0393312  93.1922846  85.7070372
  90.3723260  93.9400310  86.9805655  92.7210002  95.1511314  90.7735103
  93.6753255  95.1195256  90.7065035  92.5222525  94.6901938  91.5885329
  93.3109384  93.7212430  93.3405901  94.1302273  94.2156509  93.3640738
  93.5846192  92.8044398  93.3123469 103.0675980  86.1123182  82.7033857
 102.1801835  86.3972833  82.4854051 103.4829969  85.9516946  81.8561134
 106.4190516  86.1369703  86.4188196 107.1950906  86.6266156  86.6912813
 105.6938650  86.5627757  86.8760065 108.8563075  86.8497323  87.4762137
 109.4507566  86.6093058  86.7655445 108.9289658  86.1304453  88.1035673
  91.0760230 100.6930933  87.7905301  90.9414698  99.9331334  87.2243299
  90.6592293 101.4171833  87.3234090 102.2119193  95.8767857  76.7981877
 102.9155044  96.0817859  77.4139532 101.4881842  96.4444619  77.0630960
 103.0417004  91.6277718  82.9184147 102.9852205  92.0846270  82.0791779
 103.5945346  90.8668403  82.7406990 106.8521810  87.4167450  83.7434266
 106.5958744  87.0164086  84.5742474 106.2274678  88.1311244  83.6184405
 111.1634148  90.1563523  86.2505558 110.6033705  90.2256713  87.0237120
 110.5577651  89.9804508  85.5305054  94.2329356 101.5900250  88.0023744
  94.1161740 102.5345683  87.9002434  93.4121803 101.2873812  88.3909543
 104.1205891  96.3150386  78.8480337 104.9551495  95.8831585  78.6657812
 103.9590234  96.1432400  79.7757231 103.7751783  92.8182500  80.2136676
 103.7200587  92.6526771  79.2725120 103.1497838  93.5258532  80.3698866
  88.5644298  88.0550564  94.0398098  89.2103162  87.5449518  94.5285323
  88.3561449  88.7919246  94.6141523  97.0847909  82.3190609  79.7921994
  97.0726578  83.2632448  79.9490265  97.9771330  82.1360754  79.4981456
  95.2583870 102.2428512  91.2179672  96.1611117 102.2752123  91.5346167
  95.0321241 101.3128963  91.2326008  97.0137472 100.9959499  87.8789751
  96.0633103 100.9961361  87.7654123  97.3169959 100.2492233  87.3625786
 100.9000028  78.9133385  84.0467931 100.1332424  78.3591872  84.1924614
 101.3110733  78.9855254  84.9082083  92.9041789  85.2018181  98.1373112
  93.7673251  84.8454986  98.3476437  92.3307200  84.8632076  98.8248517
 105.4166688 108.6382942  84.8693929 104.8531553 108.5472879  84.1010217
 105.3019083 107.8182846  85.3496422 102.9631120 110.1334133  87.7078150
 103.7552412 109.7924958  87.2924449 103.2027770 110.2429108  88.6280303
 104.9221874 109.3943047  80.5795528 105.6952750 108.8472034  80.4408404
 105.2747273 110.2587296  80.7909990 107.2588152 105.5535713  78.2113978
 107.5113672 105.0317234  77.4497441 106.3212711 105.3901858  78.3140662
 112.3031434 104.5571491  86.0188721 113.0894524 104.1390914  85.6679139
 112.5670139 105.4617583  86.1870370 106.9784440 107.4563819  80.4138353
 106.8620698 106.7808722  81.0819438 107.0886700 106.9696193  79.5970506
 109.3215981 106.9173966  84.1185042 108.9574189 106.3904587  84.8297964
 110.1783097 106.5272435  83.9451528 108.9621468 101.9463866  79.1146391
 109.1295871 102.8144102  79.4816862 108.7718637 102.1091147  78.1907680
 105.1709283 106.8594641  86.8148926 104.2459779 106.7270855  87.0226618
 105.4193696 107.6388861  87.3118868 108.9410689 104.4021523  80.0993058
 108.8210314 104.8478574  80.9378538 108.2463278 104.7506841  79.5406596
 102.5318094 106.5027915  87.6492715 102.6610475 106.7562394  88.5632127
 101.8515545 107.0955623  87.3297370 114.6395755 104.8742996  80.9273392
 115.5513611 105.1070383  80.7521089 114.1305402 105.4580040  80.3648470
 111.9831730 101.0501032  89.1763253 111.1216209 101.3482286  89.4679990
 112.0094165 101.2671431  88.2444285 108.7993300 109.5943223  85.5837058
 109.2631645 109.8730926  84.7941681 108.5350098 108.6926667  85.4010149
 107.7362186 105.7166375  82.3926624 108.4386229 106.1687419  82.8600550
 107.4042814 105.0750194  83.0206517 101.4787520 103.9749928  87.6943757
 100.6886574 104.2307456  87.2183868 101.9698767 104.7898266  87.7995798
 103.4302265 104.3394507  84.6527234 102.6333428 104.4513201  85.1710729
 103.2027857 104.6781159  83.7868124  99.7625223 104.2280418  90.1258748
 100.0133261 105.1127428  90.3916324 100.2984771 104.0485020  89.3533840
 102.4285348 110.0482756  83.0416654 102.9409868 110.8426006  83.1922219
 103.0808060 109.3509046  82.9750255 104.2380232 113.1648512  85.1239407
 104.4146861 114.0866477  84.9360391 105.0337066 112.8506931  85.5533787
 112.3248414  96.0537880  90.9987622 111.9812683  96.9439521  90.9226733
 112.6927376  95.8639537  90.1357207 100.3934264 108.3771410  83.8176224
 101.2309486 108.7868418  83.6009932 100.5712532 107.4370852  83.7876418
 112.2898696 106.0446491  79.5060057 111.7745320 106.8151095  79.7448445
 112.0176005 105.3711627  80.1293119 109.8745808 100.8896192  84.5645296
 109.0187404 100.5003042  84.3850934 110.2872759 100.9688152  83.7045081
 111.4044954  98.4242535  88.9636855 110.9009750  98.3872670  88.1504661
 111.6975561  99.3335278  89.0233512 107.6487840  98.5081265  87.9703037
 108.5140837  98.3124073  87.6108927 107.7165349  98.2791616  88.8972394
 112.0785000 103.9173583  81.3319839 111.7735135 104.2319732  82.1829982
 113.0315442 103.9955003  81.3747172 110.5231431 110.0763806  82.9812792
 109.9952793 109.3416566  82.6686030 110.0218934 110.8538483  82.7352761
 105.2550159 100.7383472  85.3419404 105.8293911 100.5158654  84.6092597
 105.8421142 100.8072167  86.0948005 105.5819746 102.7687933  79.3615289
 104.7457058 103.1062620  79.6824564 105.4424516 102.6336913  78.4242426
 107.5572827  97.6124721  84.0694473 106.9037239  97.2973739  83.4451088
 107.5153301  96.9900462  84.7954296 108.6684032 107.8944016  75.9847766
 107.7611093 107.6633270  76.1838915 109.1655064 107.0981636  76.1721747
 110.7910567 104.1006655  88.3942121 109.8733129 104.3221602  88.2363809
 111.2070711 104.1752965  87.5353828 111.5745615 105.4998071  83.5244801
 112.3217434 106.0119468  83.2151923 111.8437204 105.1782123  84.3849195
 109.8472265 107.9956611  80.5071756 108.9383484 107.7115644  80.6044225
 109.8767349 108.4155690  79.6475062 114.0224452 102.5355187  85.5063591
 113.2847209 102.0232573  85.8373833 114.2751226 102.0955568  84.6946868
 114.1236079  95.3131439  86.1005360 114.4294956  94.4528802  85.8131275
 114.8488684  95.9049059  85.9004354 100.4160435 105.7162125  84.4886958
 100.2184835 105.1231486  83.7638024  99.8607099 105.4114336  85.2062897
 108.3957159 105.6085232  86.6081551 108.4505769 104.6559068  86.5324028
 107.5848361 105.7644671  87.0922849 109.5448353 109.5365355  77.8459834
 109.1067783 108.8201214  77.3865472 110.2858794 109.7641470  77.2844926
 106.3349519 104.2262292  84.3671930 105.5217385 104.5256462  84.7737122
 106.8308513 103.8317980  85.0846412 105.8263594 101.7980647  89.9833165
 106.4662973 101.6569406  89.2856128 104.9941124 101.5115161  89.6071767
 106.6023898 111.0983078  86.0968157 107.3964496 110.6033398  85.8950732
 105.8915590 110.5700941  85.7335863 102.9106661 105.2426159  82.1727910
 101.9804249 105.1810615  82.3897872 103.0064133 104.7202112  81.3764551
 102.8292210 101.7680972  84.7606152 103.0899028 102.6826305  84.6515312
 103.6509383 101.3005415  84.9102764 104.3017136 103.1818729  91.9304976
 104.9740189 102.9736091  91.2817625 103.4746922 102.9840815  91.4910208
 113.6659581 108.3949737  77.4391892 113.0488751 107.6696565  77.3424944
 113.1976069 109.1559097  77.0958966 105.4558126 102.6135161  76.5613196
 104.5787593 102.4923962  76.1975443 105.9315880 101.8221239  76.3092085
  96.9760267 107.4012321  86.6554703  97.6631306 107.0874051  86.0675719
  96.8208395 108.3053685  86.3821955 101.7794989 102.2902517  91.0839727
 101.6953177 101.6828187  90.3490137 100.9577695 102.7811536  91.0849223
 111.9518703 100.7756081  86.4509922 112.4487402 100.0226043  86.1310992
 111.1805684 100.8120397  85.8853131 113.0348483 109.5327768  84.0248345
 112.1004762 109.6529230  83.8553050 113.2125152 108.6300235  83.7608355
 108.5353671 102.9173464  86.1781607 108.1651459 102.3644504  86.8662512
 109.0312764 102.3131597  85.6256607 116.4221035 105.3745087  84.5598380
 116.8881487 106.2073079  84.4858682 116.8728535 104.9090069  85.2643638
 114.3937697  97.7425674  88.5989281 113.4800777  97.9729901  88.7671488
 114.8230799  97.8264118  89.4503313  96.5528243 105.4812914  88.9272170
  96.5912342 104.9476505  89.7209288  96.0468536 104.9548120  88.3083148
 103.9319005 100.3277455  92.4234713 103.9960331 101.1892285  92.0112110
 103.8686125  99.7151456  91.6907071 100.1836820 104.2077016  82.0026102
 100.4790261 103.2987695  81.9493155  99.2824856 104.1864756  81.6807104
 103.7131067 102.2833013  87.9853650 102.9917653 102.8968980  87.8461124
 104.5024323 102.8190778  87.9070296 101.9124662 101.8891114  82.1265427
 101.5837368 101.0088493  81.9440533 102.2664033 101.8338783  83.0141816
 105.0266485 102.1764084  82.4940905 105.3662558 102.7050005  81.7719513
 105.4738605 102.5144490  83.2699471 107.7209926 100.5601134  91.9443973
 107.3806746  99.7608947  92.3464652 107.0148932 100.8602845  91.3720806
 108.3726398  97.6450447  90.3971296 109.1952467  97.1710925  90.2750186
 108.6164461  98.4240931  90.8969982 107.0134632 100.6738705  80.6934197
 107.7342995 101.0519958  80.1897914 106.3899936 101.3927582  80.7969175
 111.1565755 101.3783854  81.6292530 111.3729369 102.2608492  81.3281358
 110.6759822 100.9870068  80.8998172 105.8964976 104.3369567  88.2063274
 105.7509557 104.6509870  89.0987556 105.4190180 104.9554468  87.6534173
 107.7561359 101.3272115  88.2544164 107.7422928 100.4313209  87.9176462
 108.4733787 101.3342779  88.8882450 109.6087490 101.7609456  90.2997291
 109.3505268 102.6826526  90.2981622 109.0772530 101.3639890  90.9897755
 100.3710639 106.8774912  91.1450935  99.8264107 107.6534720  91.2771210
 101.2489988 107.2245716  90.9870057 107.1598255 100.2086496  83.5231734
 107.2814166  99.2803142  83.7222621 106.8700298 100.2225182  82.6110049
 110.0289446  97.8941406  86.6598454 110.0511142  97.9580739  85.7050433
 110.4457505  97.0545915  86.8538960 101.6033274 113.8910237  86.0691487
 102.4291294 113.5914009  85.6890130 101.2527326 113.1217859  86.5181276
  99.8041879 111.8096563  87.0280421  98.9673787 111.3818738  86.8464422
  99.7765525 112.0029007  87.9651212 106.1328314 111.7940628  81.6147621
 106.2816435 112.4776093  80.9614294 106.9394758 111.7745718  82.1297077
 103.8880947 107.8205806  82.6208690 103.6426989 106.9168136  82.8188900
 104.0576862 107.8222956  81.6788168 103.1576595 103.5534164  80.1194851
 102.4645840 103.6278519  79.4634887 102.9128347 102.7894507  80.6416368
 111.8290251  95.1129765  87.5234342 112.1092005  94.4452954  88.1494769
 112.6140858  95.3058861  87.0109006 110.0170518 105.6249572  76.4275421
 110.9629623 105.4955780  76.4963839 109.6384763 104.8864233  76.9044849
 115.9892403  97.2905578  86.3902313 115.7917224  96.9820666  87.2745645
 116.5992108  98.0167216  86.5200243 108.2013435 103.5499548  76.3630306
 107.2944891 103.2532661  76.4393020 108.4789416 103.2529366  75.4964592
  99.1191376 104.8705911  86.8129353  98.7994160 104.0171220  86.5203727
  98.5724804 105.0854489  87.5687320 109.8175501  98.0936438  82.5174548
 109.0076229  97.7483523  82.8929794 110.5059918  97.7843981  83.1062159
 111.7466049  97.1714484  84.1398844 112.2997088  97.5909938  84.7988867
 111.9836136  96.2450233  84.1821800 106.9712220 100.4086483  76.5042285
 107.8331384 100.7341381  76.7638103 107.1562564  99.6217979  75.9915351
  98.9879636 108.4908823  88.7822474  98.2943107 108.0762776  88.2692429
  99.7352627 108.5329359  88.1855893 115.1244856  99.2815010  83.6477508
 114.5443526  99.9399814  83.2655561 114.8580789  98.4592354  83.2364926
 113.5748423  98.6820067  85.8498829 114.0748201  98.7936602  85.0413148
 114.2184031  98.3781120  86.4899637 100.9016378 108.4227077  86.6588489
 100.8787066 108.5214764  85.7070372 101.2117015 109.2692227  86.9805655
 113.9069735 101.4415100  82.7033857 113.0195590 101.7264751  82.4854051
 114.3223724 101.2808863  81.8561134 117.2584271 101.4661621  86.4188196
 118.0344661 101.9558073  86.6912813 116.5332405 101.8919675  86.8760065
 113.8810758 106.9569636  82.9184147 113.8245960 107.4138187  82.0791779
 114.4339101 106.1960321  82.7406990 117.6915564 102.7459368  83.7434266
 117.4352498 102.3456003  84.5742474 117.0668432 103.4603162  83.6184405
 114.6145538 108.1474417  80.2136676 114.5594341 107.9818689  79.2725120
 113.9891593 108.8550450  80.3698866  99.4038053 103.3842482  94.0398098
 100.0496916 102.8741436  94.5285323  99.1955204 104.1211163  94.6141523
 107.9241663  97.6482526  79.7921994 107.9120333  98.5924366  79.9490265
 108.8165085  97.4652672  79.4981456 111.7393782  94.2425303  84.0467931
 110.9726178  93.6883790  84.1924614 112.1504487  94.3147172  84.9082083
  44.5217347  -8.1841918  75.6042345  44.1835858  -8.3000853  74.7162880
  45.3907115  -8.5850753  75.5843351  40.3804162  -6.3306442  71.5939236
  39.8169027  -6.4216505  70.8255523  40.2656557  -7.1506537  72.0741728
  45.0037130  -7.0307066  81.5628550  44.9925770  -7.4254268  80.6909054
  45.1657769  -7.7640994  82.1562322  37.9268594  -4.8355250  74.4323456
  38.7189886  -5.1764425  74.0169755  38.1665244  -4.7260275  75.3525610
  45.9603721  -2.6635474  66.9053701  45.3091701  -2.0781394  66.5187714
  46.7548084  -2.1329279  66.9648738  39.8859348  -5.5746337  67.3040835
  40.6590224  -6.1217350  67.1653711  40.2384747  -4.7102087  67.5155296
  41.7244391  -4.2469955  80.5107734  41.4334257  -3.3424324  80.3954401
  42.3601375  -4.2053427  81.2251804  42.6500598  -6.8693106  77.1009094
  43.2464170  -7.0937084  76.3866057  42.7075569  -7.6108361  77.7034542
  47.4378986  -4.9745042  67.4422685  46.8024819  -4.9010415  68.1543590
  47.1076393  -4.3851443  66.7641764  41.9421915  -7.5125565  67.1383660
  41.8258173  -8.1880661  67.8064744  42.0524175  -7.9993191  66.3215813
  44.2853456  -8.0515418  70.8430349  43.9211663  -8.5784797  71.5543271
  45.1420572  -8.4416949  70.6696835  46.6834276  -4.5608539  77.5057528
  46.3834999  -3.6583500  77.3973335  46.3385335  -4.8276356  78.3578681
  40.1346757  -8.1094742  73.5394232  39.2097254  -8.2418528  73.7471924
  40.3831170  -7.3300523  74.0364175  41.6655056   2.2035781  70.4728496
  41.5879085   3.1543606  70.5516976  41.0616699   1.8581654  71.1303422
  42.4118658  -7.8150900  82.6907830  43.1533342  -7.2765856  82.4142653
  41.7055643  -7.1884611  82.8479381  47.8873997  -5.6721759  81.2879991
  48.2957353  -6.1139349  80.5434623  47.1651259  -6.2469132  81.5414184
  48.2102812  -5.1120569  75.0432280  47.5811674  -4.9474855  74.3408348
  47.8228474  -4.6978959  75.8143244  52.0892044  -4.1766131  72.3976644
  51.4043082  -3.7967230  71.8473677  52.1735893  -3.5670804  73.1308591
  49.3442975  -6.5306172  78.9971987  49.5559871  -5.8874412  78.3206368
  49.2972724  -7.3643855  78.5293917  43.7630774  -5.3746161  72.3082365
  44.2269119  -5.0958458  71.5186988  43.4987572  -6.2762716  72.1255456
  40.6554855  -5.8274679  75.2462128  41.2256212  -5.3987411  74.6079613
  41.2462967  -6.1092094  75.9446314  50.4588803  -3.6534216  77.1694345
  51.2806247  -4.0554029  76.8877026  50.4551206  -3.7565982  78.1210460
  44.2245407  -4.1050173  79.3255055  44.2889839  -3.6429766  80.1613227
  43.5156331  -4.7352808  79.4537365  43.9393424  -2.4382066  69.1934035
  43.8039099  -1.5930530  69.6218883  44.4803237  -2.2362788  68.4299969
  37.3922822  -4.9206628  69.7661960  37.9047342  -4.1263377  69.9167525
  38.0445535  -5.6180337  69.6995562  39.2017707  -1.8040871  71.8484714
  39.3784335  -0.8822907  71.6605698  39.9974540  -2.1182452  72.2779093
  45.5661901  -1.8158499  83.3234377  45.1225755  -2.6022121  83.0055282
  46.2279114  -1.6279349  82.6578268  40.3249022  -0.2862698  77.8495056
  40.8756447  -0.4145634  77.0772050  39.4860498   0.0132191  77.4989949
  47.6643139  -1.5355699  81.3515779  47.6461614  -0.7146818  80.8596048
  48.5863059  -1.6601624  81.5765920  44.1216193  -4.0211570  82.1939287
  44.6544530  -4.7823282  81.9638595  43.5930274  -4.3137918  82.9363442
  45.4868906  -4.8925577  69.7058099  44.9590267  -5.6272818  69.3931337
  44.9856409  -4.1150901  69.4598067  50.4661752  -6.6976557  74.8225145
  49.8085426  -6.0077295  74.9105274  51.2702151  -6.3080125  75.1659132
  43.6321506  -7.0745367  62.7093072  42.7248568  -7.3056114  62.9084221
  44.1292538  -7.8707748  62.8967054  46.5389585   1.6352140  65.6289758
  45.8651284   1.9383837  66.2374716  46.9255407   2.4381220  65.2795215
  44.8109739  -6.9732772  67.2317062  43.9020959  -7.2573739  67.3289532
  44.8404823  -6.5533694  66.3720369  50.0429007  -3.3626183  71.0008230
  49.5891334  -4.2035273  71.0573420  49.4122974  -2.7264784  71.3383010
  48.4861946  -1.5249686  71.9358048  48.7784920  -0.9644629  71.2170414
  48.9960567  -1.2321125  72.6911207  44.5085827  -5.4324029  64.5705141
  44.0705257  -6.1488170  64.1110778  45.2496268  -5.2047914  64.0090232
  43.4495571  -0.7469335  73.0251501  43.4071750  -0.5208489  72.0960033
  44.3658270  -0.9805960  73.1737302  52.6528322  -5.0890304  75.6392731
  53.0864828  -5.1815015  76.4875785  53.3659902  -5.1132804  75.0012747
  41.5661372  -3.8706306  72.8213464  42.3601971  -4.3655986  72.6196039
  40.8553064  -4.3988443  72.4581169  46.3856217  -1.4888210  77.1725832
  46.4393239  -0.9197274  77.9403547  45.5170998  -1.3186325  76.8079869
  53.5143871  -5.0466604  78.1725616  53.7079761  -4.1420793  78.4184891
  53.4144489  -5.5059185  79.0064201  48.5758980  -4.8959861  83.7466497
  48.4244486  -5.1249309  82.8296581  48.5663659  -3.9389260  83.7597842
  45.3444316  -7.3227948  78.7312763  46.2736376  -7.1716789  78.5581731
  44.9235346  -7.2343928  77.8761410  44.1432648  -3.2977284  76.5011301
  44.0043734  -3.6658499  77.3737239  43.3547244  -2.7829644  76.3295259
  44.7380800   1.8031813  67.8436838  44.9132556   1.3319856  68.6582460
  44.0513588   2.4297579  68.0718098  45.6937863  -3.9195681  73.8900139
  45.3587696  -3.9594911  74.7857789  45.1941809  -4.5850965  73.4170549
  39.6682107  -8.5128051  79.4152720  39.5301905  -9.2447812  80.0164259
  40.5787031  -8.6019151  79.1336908  48.6297055  -6.5739647  64.1637198
  48.0126225  -7.2992819  64.0670251  48.1613543  -5.8130287  63.8204273
  42.2964408  -8.8008092  78.9036400  43.0064026  -9.4414900  78.8623018
  42.2533716  -8.5495197  79.8262580  50.2851186  -1.8640739  81.8242979
  50.2263733  -2.5481518  81.1573562  50.6870705  -1.1221749  81.3723605
  39.3041885   4.9521175  74.6176698  39.5438484   5.5839699  75.2955716
  38.4611082   4.6009215  74.9042057  50.2868594  -3.9001155  80.0556958
  49.3995373  -4.2375233  80.1783357  50.8567145  -4.6318123  80.2925724
  43.8169747   0.7600298  77.0218202  43.7439919   1.5655269  77.5337506
  43.3747140   0.9592264  76.1966223  43.6059527  -0.0027932  70.5321023
  42.8227049   0.5393748  70.6259248  44.3052272   0.5146047  70.9315264
  46.2768431   0.6587132  79.1776360  46.9896403   1.2934597  79.1052262
  45.7858459   0.7550998  78.3616362  47.9985958  -5.4361616  70.7493652
  47.0642236  -5.3160153  70.5798356  48.1762626  -6.3389149  70.4853662
  41.3280344  -1.5918425  79.9981931  42.0289804  -0.9581942  80.1511325
  40.8575459  -1.2503693  79.2377570  49.4534740  -3.2500475  68.2829838
  49.7294584  -3.3643880  69.1923712  48.5839239  -3.6482990  68.2442011
  46.0888804   0.9985876  71.9262652  46.2711199   0.1807532  72.3890404
  46.9121790   1.2153568  71.4887542  46.4230970  -0.0745939  69.1877700
  46.9518736  -0.5853484  68.5747862  46.6859189  -0.3903409  70.0523233
  45.1769203  -8.2954006  84.3100519  44.5009840  -8.3959877  84.9802894
  45.9996837  -8.4514792  84.7736516  36.9248062  -2.0582070  76.9313034
  37.5101499  -2.8038382  77.0640938  36.7272901  -1.7478113  77.8149698
  39.7786717   0.9769178  71.9475476  39.1097093   1.4615305  71.4639516
  39.6399587   1.2238398  72.8618855  43.9191986   3.0112921  78.5458135
  44.4710294   3.1744543  79.3107220  44.2598180   3.6017359  77.8738159
  48.7702860  -2.1625821  84.4006789  49.3142764  -1.5495863  83.9061744
  48.1889705  -1.6046243  84.9173802  47.0560373   0.9594897  75.5321817
  46.9311513   0.1584637  75.0232762  47.7139464   1.4541090  75.0435787
  49.1195282  -1.2396083  77.1601367  48.1725617  -1.3590732  77.0879694
  49.4678055  -2.1273585  77.2427628  46.1241715  -1.4443367  73.3605719
  45.9766677  -2.3726660  73.5413289  46.9495209  -1.4223276  72.8762794
  49.7275837  -0.6214808  74.4470592  50.6522384  -0.8271947  74.3095043
  49.5591140  -0.8698407  75.3559933  49.5171153  -0.1029141  69.8032683
  49.6908031  -0.6682718  69.0506536  50.0100044   0.6971754  69.6212173
  50.5046326  -0.7862376  66.9029582  51.1997230  -0.1655684  67.1216896
  50.8469476  -1.6367025  67.1781959  52.4037749  -3.3362671  68.4316912
  52.9289073  -2.9975398  67.7066232  52.3160101  -4.2715655  68.2480047
  44.0657797   0.5771403  80.5606789  44.3744924   0.3320550  81.4329489
  44.8633279   0.7818041  80.0725659  44.0878409   2.7309312  72.7912165
  43.6483400   2.2385691  73.4845022  44.8386526   2.1882280  72.5504241
  36.5670748  -1.0779147  72.7936794  37.3928768  -1.3775375  72.4135437
  36.2164800  -1.8471524  73.2426582  41.5352282  -1.7252678  74.8634467
  40.9132291  -2.3881973  74.5636695  42.2057149  -1.6991547  74.1808115
  34.7679353  -3.1592820  73.7525727  33.9311262  -3.5870646  73.5709728
  34.7402999  -2.9660377  74.6896518  52.0931655  -2.7029767  83.7368110
  51.3027198  -2.7205628  83.1972610  51.8565009  -2.1641473  84.4917147
  41.0965789  -3.1748755  68.3392928  41.2453909  -2.4913291  67.6859600
  41.9032232  -3.1943665  68.8542383  53.7147727  -3.4340359  81.2942860
  53.4232535  -3.0710379  82.1306321  53.1019858  -4.1473351  81.1156192
  38.8518421  -7.1483577  69.3453997  38.6064463  -8.0521247  69.5434207
  39.0214336  -7.1466427  68.4033475  44.5961194  -0.6800625  65.8104675
  44.0235161  -0.0610438  65.3575147  45.1693988  -0.1301263  66.3444597
  47.8158454  -0.3963475  66.9413257  48.7489127  -0.4617913  67.1446133
  47.7281667   0.4392792  66.4827790  50.4446470  -1.0797604  63.9017205
  50.3660102  -1.4137741  64.7952963  51.2656137  -0.5875836  63.9008677
  44.8646685  -5.2922066  84.6121385  45.7849695  -5.1143467  84.8061431
  44.8296268  -6.2366020  84.4601084  37.8608758  -7.3821031  77.2544166
  38.0794767  -6.4503923  77.2732200  38.2734531  -7.7413057  78.0398970
  42.5967893  -8.3790687  85.4611976  42.1134975  -7.5790326  85.6675865
  42.6828832  -8.3682742  84.5079420  35.8653853  -6.5462307  73.3833796
  35.8424541  -6.4474620  72.4315679  36.1754489  -5.6997156  73.7050962
  38.5241230  -4.4886152  77.4980410  39.4784484  -4.5202209  77.4310342
  38.3253754  -4.9495528  78.3130636  39.1140613  -5.9185036  80.0651208
  39.9333502  -5.4240957  80.0886045  39.3877420  -6.8353068  80.0368775
  36.8791459   1.0533468  74.5150608  36.7445927   0.2933869  73.9488606
  36.4623522   1.7774368  74.0479397  48.0150422  -3.7629609  63.5227183
  48.7186272  -3.5579606  64.1384839  47.2913071  -3.1952847  63.7876267
  40.0360585   1.9502785  74.7269051  39.9192969   2.8948217  74.6247741
  39.2153031   1.6476346  75.1154850  49.9237120  -3.3247080  65.5725643
  50.7582724  -3.7565881  65.3903118  49.7621463  -3.4965066  66.5002538
  49.5783012  -6.8214966  66.9381983  49.5231816  -6.9870695  65.9970427
  48.9529067  -6.1138933  67.0944172  46.8928919  -4.5166054  86.2635545
  47.7620079  -4.3425402  85.9022180  46.4135671  -3.6971638  86.1411275
  41.0615099   2.6031047  77.9424979  41.9642346   2.6354657  78.2591474
  40.8352469   1.6731498  77.9571315  42.8168701   1.3562033  74.6035058
  41.8664332   1.3563895  74.4899430  43.1201187   0.6094768  74.0871092
  58.5521395   7.1922572  75.6680820  59.1899805   7.0729319  74.9644160
  58.4342238   8.1403415  75.7268772  55.3611101   7.1450000  75.6042345
  55.0229613   7.0291064  74.7162880  56.2300869   6.7441165  75.5843351
  51.2197917   8.9985476  71.5939236  50.6562782   8.9075413  70.8255523
  51.1050312   8.1785380  72.0741728  55.8430884   8.2984851  81.5628550
  55.8319525   7.9037650  80.6909054  56.0051524   7.5650924  82.1562322
  48.7662349  10.4936668  74.4323456  49.5583641  10.1527492  74.0169755
  49.0058999  10.6031643  75.3525610  56.7997475  12.6656444  66.9053701
  56.1485455  13.2510524  66.5187714  57.5941838  13.1962639  66.9648738
  50.7253103   9.7545581  67.3040835  51.4983979   9.2074568  67.1653711
  51.0778501  10.6189830  67.5155296  52.5638145  11.0821963  80.5107734
  52.2728011  11.9867594  80.3954401  53.1995130  11.1238491  81.2251804
  53.4894352   8.4598812  77.1009094  54.0857924   8.2354834  76.3866057
  53.5469324   7.7183557  77.7034542  53.0619380   5.9138247  64.9359285
  53.3144901   5.3919768  64.1742748  52.1243940   5.7504392  65.0385969
  58.1062663   4.9174025  72.7434028  58.8925752   4.4993449  72.3924445
  58.3701368   5.8220118  72.9115677  58.2772741  10.3546876  67.4422685
  57.6418574  10.4281502  68.1543590  57.9470147  10.9440475  66.7641764
  63.5071090   4.8549259  73.6467007  64.2396262   4.2848475  73.8804836
  62.7510446   4.4670859  74.0873512  52.7815669   7.8166353  67.1383660
  52.6651927   7.1411256  67.8064744  52.8917929   7.3298727  66.3215813
  55.1247210   7.2776500  70.8430349  54.7605417   6.7507121  71.5543271
  55.9814326   6.8874969  70.6696835  61.0296511  -1.4329167  78.1061615
  60.6979836  -0.5633756  77.8822830  60.4342124  -1.7492883  78.7855646
  54.7652697   2.3066400  65.8391698  54.9327099   3.1746636  66.2062169
  54.5749866   2.4693681  64.9152987  57.5228030  10.7683379  77.5057528
  57.2228753  11.6708417  77.3973335  57.1779090  10.5015562  78.3578681
  50.9740512   7.2197176  73.5394232  50.0491008   7.0873390  73.7471924
  51.2224925   7.9991395  74.0364175  60.9225174   3.2865919  75.1854965
  60.0142051   3.2181327  74.8913726  60.8712770   3.7637864  76.0136791
  54.7441918   4.7624057  66.8238364  54.6241543   5.2081108  67.6623845
  54.0494506   5.1109375  66.2651903  48.3349323   6.8630449  74.3738021
  48.4641704   7.1164928  75.2877433  47.6546774   7.4558157  74.0542677
  52.5048810  17.5327699  70.4728496  52.4272840  18.4835524  70.5516976
  51.9010454  17.1873572  71.1303422  54.9966040   4.7055564  83.1289863
  54.2199374   5.2649485  83.1192727  55.6356603   5.1912347  83.6504733
  62.7886820   1.4882357  76.9632839  62.1461201   1.7814890  76.3172634
  62.2841749   1.3735278  77.7686036  60.4426984   5.2345530  67.6518698
  61.3544840   5.4672917  67.4766396  59.9336631   5.8182575  67.0893777
  53.2512412   7.5141018  82.6907830  53.9927097   8.0526062  82.4142653
  52.5449398   8.1407307  82.8479381  58.7267752   9.6570158  81.2879991
  59.1351108   9.2152569  80.5434623  58.0045013   9.0822786  81.5414184
  55.0798822   4.5942765  78.6613548  55.9260017   5.0182179  78.8048197
  55.0197460   3.9376389  79.3552111  59.0496566  10.2171349  75.0432280
  58.4205429  10.3817063  74.3408348  58.6622229  10.6312958  75.8143244
  62.9285798  11.1525787  72.3976644  62.2436836  11.5324688  71.8473677
  63.0129648  11.7621113  73.1308591  58.2298267   2.2547133  80.3194722
  57.9859199   3.0089194  79.7828997  58.5058198   2.6332481  81.1541969
  60.1836730   8.7985746  78.9971987  60.3953625   9.4417506  78.3206368
  60.1366478   7.9648062  78.5293917  57.7862959   1.4103566  75.9008559
  56.9247438   1.7084820  76.1925297  57.8125394   1.6273965  74.9689592
  54.6024528   9.9545757  72.3082365  55.0662874  10.2333460  71.5186988
  54.3381326   9.0529202  72.1255456  51.4948609   9.5017239  75.2462128
  52.0649966   9.9304507  74.6079613  52.0856721   9.2199823  75.9446314
  53.5393414   6.0768909  69.1171930  54.2417458   6.5289953  69.5845857
  53.2074043   5.4352728  69.7451823  51.9873776   4.6680666  83.4923140
  51.3572436   5.3496947  83.7258536  51.8809864   4.5563748  82.5476278
  47.2818748   4.3352462  74.4189064  46.4917802   4.5909991  73.9429174
  47.7729996   5.1500800  74.5241104  61.2982558  11.6757701  77.1694345
  62.1200002  11.2737888  76.8877026  61.2944961  11.5725935  78.1210460
  49.2333494   4.6997041  71.3772540  48.4364657   4.8115736  71.8956036
  49.0059086   5.0383693  70.5113431  55.0639161  11.2241744  79.3255055
  55.1283594  11.6862152  80.1613227  54.3550085  10.5939109  79.4537365
  45.5656451   4.5882952  76.8504055  45.8164490   5.4729962  77.1161630
  46.1016000   4.4087554  76.0779146  69.3888551   8.0196450  73.5179316
  68.6352259   7.4503848  73.3623320  69.5236092   7.9859114  74.4649951
  54.7787179  12.8909852  69.1934035  54.6432854  13.7361388  69.6218883
  55.3196991  13.0929130  68.4299969  51.2654519  -1.0298568  85.8548391
  50.8721464  -1.5832370  86.5296035  52.0820659  -0.7187990  86.2454908
  48.2316576  10.4085290  69.7661960  48.7441097  11.2028540  69.9167525
  48.8839289   9.7111580  69.6995562  50.0411461  13.5251046  71.8484714
  50.2178089  14.4469011  71.6605698  50.8368295  13.2109465  72.2779093
  54.1822480   0.3859311  83.4468647  54.9232193   0.9866464  83.3673110
  54.4140402  -0.3563051  82.8886690  49.3263818   5.5715678  81.7246877
  49.2117333   4.6700935  82.0253976  48.4708335   5.8179375  81.3731693
  56.4055655  13.5133418  83.3234377  55.9619510  12.7269797  83.0055282
  57.0672869  13.7012569  82.6578268  51.1642777  15.0429220  77.8495056
  51.7150202  14.9146283  77.0772050  50.3254252  15.3424109  77.4989949
  58.5036893  13.7936218  81.3515779  58.4855369  14.6145099  80.8596048
  59.4256813  13.6690294  81.5765920  54.9609948  11.3080348  82.1939287
  55.4938284  10.5468636  81.9638595  54.4324029  11.0154000  82.9363442
  58.1279643  -3.5859586  77.7232929  57.7843912  -2.6957944  77.6472039
  58.4958605  -3.7757929  76.8602514  46.1965493   8.7373944  70.5421531
  47.0340715   9.1470953  70.3255239  46.3743761   7.7973386  70.5121725
  58.0929925   6.4049025  66.2305364  57.5776549   7.1753630  66.4693751
  57.8207234   5.7314161  66.8538425  55.6777036   1.2498726  71.2890602
  54.8218633   0.8605576  71.1096241  56.0903988   1.3290687  70.4290388
  57.2076183  -1.2154931  75.6882162  56.7040979  -1.2524796  74.8749967
  57.5006790  -0.3062188  75.7478819  53.4519069  -1.1316201  74.6948344
  54.3172066  -1.3273393  74.3354233  53.5196578  -1.3605850  75.6217701
  63.0664199   9.1581380  68.1658537  62.2893642   8.8192539  67.7213700
  63.7455680   9.1634003  67.4913503  57.8816228   4.2776117  68.0565145
  57.5766364   4.5922266  68.9075288  58.8346671   4.3557537  68.0992478
  56.3262660  10.4366340  69.7058099  55.7984022   9.7019100  69.3931337
  55.8250163  11.2141017  69.4598067  61.3055506   8.6315361  74.8225145
  60.6479181   9.3214622  74.9105274  62.1095906   9.0211793  75.1659132
  51.0581388   1.0986007  72.0664711  51.6325140   0.8761188  71.3337904
  51.6452370   1.1674701  72.8193312  60.1160965   6.9859734  72.8729087
  60.6292847   7.6189725  73.3750797  60.7662189   6.3860929  72.5072447
  51.3850975   3.1290468  66.0860596  50.5488287   3.4665154  66.4069871
  51.2455745   2.9939447  65.1487733  53.3604056  -2.0272744  70.7939780
  52.7068468  -2.3423727  70.1696395  53.3184530  -2.6497004  71.5199603
  54.4715260   8.2546551  62.7093072  53.5642322   8.0235804  62.9084221
  54.9686292   7.4584170  62.8967054  57.3783339  16.9644058  65.6289758
  56.7045038  17.2675755  66.2374716  57.7649161  17.7673138  65.2795215
  56.5941796   4.4609189  75.1187428  55.6764357   4.6824136  74.9609116
  57.0101940   4.5355500  74.2599135  57.3776844   5.8600605  70.2490108
  58.1248663   6.3722002  69.9397230  57.6468433   5.5384658  71.1094502
  55.6503494   8.3559146  67.2317062  54.7414713   8.0718178  67.3289532
  55.6798578   8.7758224  66.3720369  60.8822761  11.9665735  71.0008230
  60.4285088  11.1256645  71.0573420  60.2516728  12.6027133  71.3383010
  59.8255681   2.8957721  72.2308897  59.0878438   2.3835107  72.5619140
  60.0782454   2.4558103  71.4192174  59.3255701  13.8042232  71.9358048
  59.6178675  14.3647289  71.2170414  59.8354321  14.0970793  72.6911207
  46.2191664   6.0764660  71.2132264  46.0216064   5.4834020  70.4883331
  45.6638328   5.7716870  71.9308203  54.1988388   5.9687766  73.3326858
  54.2536998   5.0161603  73.2569334  53.3879590   6.1247205  73.8168156
  55.3479582   9.8967889  64.5705141  54.9099012   9.1803748  64.1110778
  56.0890023  10.1244004  64.0090232  52.1380748   4.5864826  71.0917236
  51.3248613   4.8858996  71.4982429  52.6339742   4.1920515  71.8091719
  54.2889326  14.5822583  73.0251501  54.2465505  14.8083429  72.0960033
  55.2052025  14.3485957  73.1737302  57.7354960   5.0506650  79.9232130
  58.0904347   5.2778123  80.7826596  58.3827091   5.3825027  79.3009386
  63.4652697   8.1725086  70.6281459  63.3270595   8.3626682  69.7002649
  63.1088915   8.9344469  71.0849511  51.6294823   2.1583181  76.7078471
  52.2694202   2.0171940  76.0101435  50.7972353   1.8717695  76.3317073
  63.4922076  10.2401613  75.6392731  63.9258583  10.1476902  76.4875785
  64.2053657  10.2159114  75.0012747  52.4055127  11.4585612  72.8213464
  53.1995725  10.9635932  72.6196039  51.6946819  10.9303475  72.4581169
  57.2249971  13.8403707  77.1725832  57.2786993  14.4094644  77.9403547
  56.3564752  14.0105592  76.8079869  48.7137890   5.6028694  68.8973217
  47.7835478   5.5413149  69.1143179  48.8095362   5.0804646  68.1009858
  48.6323439   2.1283506  71.4851458  48.8930256   3.0428840  71.3760619
  49.4540611   1.6607949  71.6348071  50.1048364   3.5421264  78.6550283
  50.7771418   3.3338626  78.0062932  49.2778151   3.3443350  78.2155515
  64.3537626  10.2825314  78.1725616  64.5473516  11.1871124  78.4184891
  64.2538244   9.8232733  79.0064201  56.0073936   0.1683204  80.6715944
  55.3601851   0.8673154  80.5780420  56.7774952   0.6019348  81.0392192
  59.4152734  10.4332057  83.7466497  59.2638241  10.2042608  82.8296581
  59.4057414  11.3902658  83.7597842  56.1838071   8.0063969  78.7312763
  57.1130131   8.1575129  78.5581731  55.7629101   8.0947990  77.8761410
  54.9826403  12.0314634  76.5011301  54.8437488  11.6633418  77.3737239
  54.1940999  12.5462273  76.3295259  55.5774555  17.1323730  67.8436838
  55.7526310  16.6611773  68.6582460  54.8907343  17.7589496  68.0718098
  56.5331618  11.4096236  73.8900139  56.1981450  11.3697006  74.7857789
  56.0335563  10.7440952  73.4170549  50.5075862   6.8163867  79.4152720
  50.3695660   6.0844105  80.0164259  51.4180785   6.7272767  79.1336908
  59.4690809   8.7552271  64.1637198  58.8519980   8.0299099  64.0670251
  59.0007298   9.5161631  63.8204273  53.1358162   6.5283826  78.9036400
  53.8457781   5.8877018  78.8623018  53.0927470   6.7796721  79.8262580
  61.1244941  13.4651179  81.8242979  61.0657487  12.7810399  81.1573562
  61.5264459  14.2070169  81.3723605  51.8487096   3.5149044  80.7232039
  51.3124453   3.0639782  81.3753635  51.2603805   3.6494953  79.9802503
  50.1435640  20.2813093  74.6176698  50.3832238  20.9131617  75.2955716
  49.3004836  19.9301133  74.9042057  51.2589355   2.9737695  63.2858503
  50.3818822   2.8526496  62.9220749  51.7347108   2.1823773  63.0337391
  61.1262348  11.4290763  80.0556958  60.2389127  11.0916685  80.1783357
  61.6960899  10.6973794  80.2925724  42.7791495   7.7614855  73.3800010
  43.4662535   7.4476585  72.7921025  42.6239624   8.6656219  73.1067261
  47.5826218   2.6505051  77.8085034  47.4984406   2.0430721  77.0735443
  46.7608924   3.1414070  77.8094530  54.6563502  16.0892215  77.0218202
  54.5833673  16.8947187  77.5337506  54.2140895  16.2884181  76.1966223
  54.4453281  15.3263985  70.5321023  53.6620803  15.8685666  70.6259248
  55.1446026  15.8437965  70.9315264  57.7549931   1.1358615  73.1755229
  58.2518631   0.3828577  72.8556299  56.9836913   1.1722932  72.6098438
  65.6079689   6.8398980  74.8173520  65.5969565   7.7223696  74.4467453
  64.7397068   6.4870531  74.6228057  57.1162185  15.9879049  79.1776360
  57.8290157  16.6226514  79.1052262  56.6252214  16.0842915  78.3616362
  58.8379712   9.8930302  70.7493652  57.9035991  10.0131765  70.5798356
  59.0156381   8.9902769  70.4853662  54.3384900   3.2775998  72.9026913
  53.9682688   2.7247038  73.5907819  54.8343993   2.6734131  72.3501913
  62.2252263   5.7347621  71.2843686  62.6912716   6.5675613  71.2103989
  62.6759764   5.2692603  71.9888945  52.1674099  13.7373493  79.9981931
  52.8683558  14.3709976  80.1511325  51.6969214  14.0788224  79.2377570
  60.2928495  12.0791443  68.2829838  60.5688338  11.9648037  69.1923712
  59.4232993  11.6808928  68.2442011  60.1968926  -1.8971792  75.3234587
  59.2832006  -1.6667565  75.4916794  60.6262028  -1.8133347  76.1748620
  59.9675385   6.2918100  77.8234481  59.3146835   6.5394008  77.1686934
  60.3455765   5.4782239  77.4896959  56.9282559  16.3277794  71.9262652
  57.1104953  15.5099450  72.3890404  57.7515545  16.5445486  71.4887542
  57.2624724  15.2545979  69.1877700  57.7912490  14.7438433  68.5747862
  57.5252944  14.9388509  70.0523233  56.0162958   7.0337911  84.3100519
  55.3403595   6.9332041  84.9802894  56.8390592   6.8777125  84.7736516
  47.7641817  13.2709848  76.9313034  48.3495254  12.5253536  77.0640938
  47.5666655  13.5813805  77.8149698  50.6180472  16.3061095  71.9475476
  49.9490847  16.7907223  71.4639516  50.4793342  16.5530316  72.8618855
  42.3559472   5.8415448  75.6517477  42.3943571   5.3079039  76.4454595
  41.8499764   5.3150654  75.0328454  54.7585741  18.3404839  78.5458135
  55.3104049  18.5036460  79.3107220  55.0991934  18.9309277  77.8738159
  49.7350234   0.6879989  79.1480019  49.7991560   1.5494820  78.7357417
  49.6717354   0.0753990  78.4152378  49.2102506   2.7603121  82.7953054
  49.8374545   2.3780199  83.4090578  48.3530425   2.5417323  83.1608746
  59.6096615  13.1666096  84.4006789  60.1536519  13.7796055  83.9061744
  59.0283460  13.7245675  84.9173802  45.9868049   4.5679550  68.7271408
  46.2821490   3.6590229  68.6738462  45.0856085   4.5467290  68.4052411
  57.8954128  16.2886814  75.5321817  57.7705267  15.4876554  75.0232762
  58.5533219  16.7833008  75.0435787  49.5162296   2.6435547  74.7098957
  48.7948882   3.2571515  74.5706430  50.3055552   3.1793312  74.6315603
  59.9589036  14.0895835  77.1601367  59.0119372  13.9701186  77.0879694
  60.3071809  13.2018333  77.2427628  52.3188610  -0.0210027  80.9839609
  52.8423011   0.2252270  81.7465918  52.1000943   0.8110008  80.5642746
  47.7155891   2.2493648  68.8510734  47.3868597   1.3691027  68.6685839
  48.0695261   2.1941317  69.7387123  56.9635470  13.8848551  73.3605719
  56.8160432  12.9565258  73.5413289  57.7888963  13.9068641  72.8762794
  50.8297714   2.5366618  69.2186211  51.1693786   3.0652539  68.4964820
  51.2769834   2.8747024  69.9944778  60.5669591  14.7077109  74.4470592
  61.4916139  14.5019971  74.3095043  60.3984895  14.4593511  75.3559933
  53.5241155   0.9203669  78.6689279  53.1837975   0.1211482  79.0709959
  52.8180161   1.2205379  78.0966112  54.1757626  -1.9947019  77.1216602
  54.9983696  -2.4686541  76.9995493  54.4195690  -1.2156535  77.6215289
  52.8165861   1.0341239  67.4179504  53.5374223   1.4122492  66.9143221
  52.1931165   1.7530116  67.5214482  56.9596984   1.7386388  68.3537836
  57.1760598   2.6211026  68.0526664  56.4791051   1.3472602  67.6243478
  51.6996205   4.6972102  74.9308581  51.5540786   5.0112405  75.8232862
  51.2221409   5.3157002  74.3779480  53.5592588   1.6874650  74.9789470
  53.5454157   0.7915743  74.6421768  54.2765016   1.6945313  75.6127756
  55.4118719   2.1211990  77.0242598  55.1536497   3.0429060  77.0226928
  54.8803759   1.7242424  77.7143062  60.3564908  15.2262777  69.8032683
  60.5301785  14.6609199  69.0506536  60.8493799  16.0263672  69.6212173
  46.1741867   7.2377446  77.8696242  45.6295335   8.0137254  78.0016516
  47.0521217   7.5848250  77.7115363  52.9629484   0.5689030  70.2477041
  53.0845395  -0.3594324  70.4467928  52.6731526   0.5827716  69.3355356
  55.8320674  -1.7456060  73.3843760  55.8542371  -1.6816727  72.4295740
  56.2488733  -2.5851551  73.5784267  66.2104299   7.9899200  71.4222983
  66.6535445   7.2406525  71.0242106  65.3330809   7.9809336  71.0396715
  61.3440080  14.5429541  66.9029582  62.0390985  15.1636234  67.1216896
  61.6863230  13.6924893  67.1781959  46.9607889   6.3647342  80.7626399
  46.2189625   6.5129978  81.3491029  46.6400634   6.6255608  79.8993148
  63.2431503  11.9929247  68.4316912  63.7682827  12.3316520  67.7066232
  63.1553856  11.0576262  68.2480047  54.9051552  15.9063321  80.5606789
  55.2138678  15.6612467  81.4329489  55.7027034  16.1109959  80.0725659
  54.9272164  18.0601230  72.7912165  54.4877154  17.5677609  73.4845022
  55.6780281  17.5174198  72.5504241  47.4064503  14.2512771  72.7936794
  48.2322523  13.9516543  72.4135437  47.0558555  13.4820393  73.2426582
  52.3746036  13.6039239  74.8634467  51.7526045  12.9409944  74.5636695
  53.0450903  13.6300371  74.1808115  45.6073108  12.1699097  73.7525727
  44.7705016  11.7421272  73.5709728  45.5796753  12.3631541  74.6896518
  52.4470564   2.0821027  84.4566973  52.4958719   2.9583150  84.0744743
  52.9893078   1.5398420  83.8838616  62.9325409  12.6262150  83.7368110
  62.1420953  12.6086289  83.1972610  62.6958764  13.1650444  84.4917147
  63.0523284   9.4754617  81.0500839  63.1021289   9.3104624  81.9916362
  62.9437208   8.6081876  80.6598720  51.9359543  12.1543163  68.3392928
  52.0847663  12.8378627  67.6859600  52.7425986  12.1348253  68.8542383
  60.3427047   5.4585545  82.3660146  61.2436909   5.3192010  82.0744143
  60.4175021   5.6240000  83.3058323  54.6769852   2.8352400  81.2113332
  53.8073161   3.1285966  80.9395920  54.9129332   3.4192845  81.9320595
  64.5541481  11.8951558  81.2942860  64.2626289  12.2581539  82.1306321
  63.9413612  11.1818567  81.1156192  65.7537163   9.4604438  73.8145431
  66.5884055   9.8994242  73.9782991  65.8896292   8.9843091  72.9953676
  62.8028669   7.0184173  79.7622918  63.2782791   7.2111819  78.9541770
  61.8794235   7.0743359  79.5166302  49.6912176   8.1808340  69.3453997
  49.4458218   7.2770670  69.5434207  49.8608091   8.1825491  68.4033475
  57.3808886  -0.9467983  78.7278752  57.8990830  -0.2106957  78.4025241
  57.0264019  -0.6403990  79.5625511  48.9607824   3.9136698  66.8440158
  48.2677068   3.9881053  66.1880194  48.7159575   3.1497041  67.3661675
  55.4354949  14.6491293  65.8104675  54.8628916  15.2681480  65.3575147
  56.0087742  15.1990655  66.3444597  61.5030338   3.8949933  77.9951224
  62.4547761   3.9948031  78.0163448  61.3333789   3.1028202  78.5049308
  59.5244718   0.9805516  78.1810625  58.9294650   1.2610529  77.4857113
  59.2394415   1.4699417  78.9527366  58.6552208  14.9328443  66.9413257
  59.5882881  14.8674005  67.1446133  58.5675421  15.7684710  66.4827790
  61.2840225  14.2494313  63.9017205  61.2053857  13.9154177  64.7952963
  62.1049892  14.7416081  63.9008677  63.9818416   7.1156053  77.1093524
  63.9494736   6.1772054  77.2953207  64.5919040   7.1940090  76.3759348
  55.8201747   5.9852106  63.1520728  56.7660852   5.8558314  63.2209146
  55.4415992   5.2466768  63.6290156  64.1312905   3.9067096  77.1551807
  63.6151953   3.1225553  76.9681736  65.0152853   3.5785813  77.3198326
  61.7923632  -2.3491888  73.1147619  61.5948453  -2.6576800  73.9990951
  62.4023337  -1.6230249  73.2445549  69.7994966   8.1772060  76.2499560
  70.5298354   7.9157348  76.8107264  69.1901911   7.4400782  76.2901628
  67.8810263   6.3179922  76.8474012  67.1543427   6.1835887  76.2390503
  67.4657550   6.6256751  77.6530730  55.7040440  10.0369852  84.6121385
  56.6243449  10.2148451  84.8061431  55.6690023   9.0925897  84.4601084
  54.0044664   3.9102082  63.0875613  53.0976120   3.6135195  63.1638326
  54.2820645   3.6131900  62.2209899  44.9222605   5.2308446  73.5374659
  44.6025389   4.3773754  73.2449033  44.3756033   5.4457024  74.2932627
  48.7002512   7.9470887  77.2544166  48.9188522   8.8787994  77.2732200
  49.1128286   7.5878861  78.0398970  55.6206730  -1.5461028  69.2419854
  54.8107458  -1.8913943  69.6175100  56.3091147  -1.8553484  69.8307466
  57.5497278  -2.4682981  70.8644151  58.1028317  -2.0487528  71.5234174
  57.7867365  -3.3947233  70.9067107  53.5730377   3.5204092  86.6446915
  53.4727104   4.4698449  86.5759006  53.3551919   3.1922331  85.7722985
  52.7743449   0.7689017  63.2287592  53.6362613   1.0943916  63.4883409
  52.9593793  -0.0179487  62.7160658  44.7910865   8.8511357  75.5067781
  44.0974336   8.4365310  74.9937735  45.5383856   8.8931894  74.9101200
  60.9276085  -0.3582456  70.3722815  60.3474754   0.3002348  69.9900867
  60.6612018  -1.1805112  69.9610233  59.3779652  -0.9577398  72.5744135
  59.8779430  -0.8460864  71.7658454  60.0215260  -1.2616346  73.2144944
  53.4361647   6.9501231  85.4611976  52.9528729   7.7501591  85.6675865
  53.5222587   6.9609176  84.5079420  46.7047607   8.7829611  73.3833796
  46.6818295   8.8817298  72.4315679  47.0148244   9.6294762  73.7050962
  49.3634985  10.8405766  77.4980410  50.3178239  10.8089708  77.4310342
  49.1647509  10.3796390  78.3130636  49.9534367   9.4106882  80.0651208
  50.7727256   9.9050961  80.0886045  50.2271175   8.4938850  80.0368775
  59.7100963   1.8017634  69.4279163  58.8226818   2.0867285  69.2099358
  60.1254952   1.6411398  68.5806440  63.0615499   1.8264155  73.1433503
  63.8375890   2.3160608  73.4158119  62.3363634   2.2522209  73.6005372
  65.4988058   2.5391774  74.2007443  66.0932549   2.2987510  73.4900751
  65.5714642   1.8198905  74.8280979  47.7185214  16.3825385  74.5150608
  47.5839682  15.6225786  73.9488606  47.3017276  17.1066285  74.0479397
  58.8544177  11.5662309  63.5227183  59.5580027  11.7712311  64.1384839
  58.1306826  12.1339071  63.7876267  59.6841987   7.3172170  69.6429453
  59.6277188   7.7740722  68.8037086  60.2370330   6.5562855  69.4652296
  63.4946793   3.1061902  70.4679573  63.2383727   2.7058538  71.2987781
  62.8699661   3.8205696  70.3429712  67.8059131   5.8457975  72.9750864
  67.2458689   5.9151165  73.7482426  67.2002634   5.6698960  72.2550361
  50.8754340  17.2794702  74.7269051  50.7586724  18.2240135  74.6247741
  50.0546786  16.9768264  75.1154850  60.7630874  12.0044838  65.5725643
  61.5976478  11.5726037  65.3903118  60.6015217  11.8326852  66.5002538
  60.4176766   8.5076951  66.9381983  60.3625570   8.3421223  65.9970427
  59.7922822   9.2152984  67.0944172  45.2069281   3.7445016  80.7643405
  45.8528145   3.2343970  81.2530630  44.9986432   4.4813697  81.3386830
  57.7322674  10.8125863  86.2635545  58.6013833  10.9866516  85.9022180
  57.2529425  11.6320280  86.1411275  53.7272892  -1.9914940  66.5167301
  53.7151562  -1.0473100  66.6735572  54.6196314  -2.1744794  66.2226762
  51.9008854  17.9322964  77.9424979  52.8036100  17.9646575  78.2591474
  51.6746224  17.0023415  77.9571315  53.6562456  16.6853951  74.6035058
  52.7058087  16.6855812  74.4899430  53.9594942  15.9386685  74.0871092
  49.5466772   0.8912633  84.8618419  50.4098234   0.5349438  85.0721744
  48.9732183   0.5526528  85.5493823  69.3915149  22.5214489  75.6680820
  70.0293559  22.4021237  74.9644160  69.2735992  23.4695333  75.7268772
  66.2004856  22.4741917  75.6042345  65.8623367  22.3582982  74.7162880
  67.0694624  22.0733082  75.5843351  62.0591671  24.3277394  71.5939236
  61.4956536  24.2367331  70.8255523  61.9444066  23.5077298  72.0741728
  66.6824639  23.6276769  81.5628550  66.6713279  23.2329567  80.6909054
  66.8445278  22.8942842  82.1562322  59.6056103  25.8228585  74.4323456
  60.3977395  25.4819410  74.0169755  59.8452753  25.9323560  75.3525610
  67.6391230  27.9948361  66.9053701  66.9879210  28.5802442  66.5187714
  68.4335593  28.5254556  66.9648738  61.5646857  25.0837499  67.3040835
  62.3377733  24.5366486  67.1653711  61.9172256  25.9481748  67.5155296
  63.4031900  26.4113881  80.5107734  63.1121766  27.3159512  80.3954401
  64.0388884  26.4530408  81.2251804  64.3288107  23.7890729  77.1009094
  64.9251679  23.5646752  76.3866057  64.3863078  23.0475475  77.7034542
  63.9013135  21.2430165  64.9359285  64.1538656  20.7211686  64.1742748
  62.9637694  21.0796310  65.0385969  68.9456418  20.2465943  72.7434028
  69.7319507  19.8285366  72.3924445  69.2095122  21.1512035  72.9115677
  69.1166495  25.6838793  67.4422685  68.4812328  25.7573420  68.1543590
  68.7863902  26.2732392  66.7641764  74.3464845  20.1841176  73.6467007
  75.0790017  19.6140393  73.8804836  73.5904201  19.7962777  74.0873512
  63.6209424  23.1458271  67.1383660  63.5045682  22.4703174  67.8064744
  63.7311684  22.6590645  66.3215813  65.9640965  22.6068418  70.8430349
  65.5999172  22.0799039  71.5543271  66.8208081  22.2166887  70.6696835
  71.8690265  13.8962750  78.1061615  71.5373590  14.7658161  77.8822830
  71.2735879  13.5799034  78.7855646  65.6046452  17.6358317  65.8391698
  65.7720854  18.5038554  66.2062169  65.4143621  17.7985599  64.9152987
  68.3621785  26.0975296  77.5057528  68.0622508  27.0000335  77.3973335
  68.0172844  25.8307480  78.3578681  61.8134266  22.5489093  73.5394232
  60.8884763  22.4165307  73.7471924  62.0618679  23.3283312  74.0364175
  71.7618929  18.6157837  75.1854965  70.8535806  18.5473245  74.8913726
  71.7106524  19.0929781  76.0136791  65.5835672  20.0915975  66.8238364
  65.4635298  20.5373026  67.6623845  64.8888261  20.4401293  66.2651903
  59.1743077  22.1922367  74.3738021  59.3035458  22.4456846  75.2877433
  58.4940529  22.7850075  74.0542677  63.3442565  32.8619617  70.4728496
  63.2666594  33.8127442  70.5516976  62.7404208  32.5165489  71.1303422
  65.8359794  20.0347482  83.1289863  65.0593128  20.5941402  83.1192727
  66.4750357  20.5204265  83.6504733  73.6280575  16.8174275  76.9632839
  72.9854955  17.1106808  76.3172634  73.1235503  16.7027195  77.7686036
  71.2820739  20.5637448  67.6518698  72.1938595  20.7964835  67.4766396
  70.7730386  21.1474492  67.0893777  64.0906167  22.8432935  82.6907830
  64.8320851  23.3817979  82.4142653  63.3843152  23.4699224  82.8479381
  69.5661506  24.9862076  81.2879991  69.9744862  24.5444486  80.5434623
  68.8438768  24.4114703  81.5414184  65.9192576  19.9234683  78.6613548
  66.7653772  20.3474096  78.8048197  65.8591214  19.2668307  79.3552111
  69.8890321  25.5463267  75.0432280  69.2599183  25.7108981  74.3408348
  69.5015983  25.9604876  75.8143244  73.7679553  26.4817704  72.3976644
  73.0830591  26.8616606  71.8473677  73.8523402  27.0913031  73.1308591
  69.0692022  17.5839051  80.3194722  68.8252954  18.3381112  79.7828997
  69.3451952  17.9624399  81.1541969  71.0230484  24.1277663  78.9971987
  71.2347380  24.7709423  78.3206368  70.9760233  23.2939980  78.5293917
  68.6256713  16.7395484  75.9008559  67.7641192  17.0376738  76.1925297
  68.6519148  16.9565883  74.9689592  65.4418283  25.2837675  72.3082365
  65.9056628  25.5625378  71.5186988  65.1775081  24.3821119  72.1255456
  62.3342364  24.8309156  75.2462128  62.9043721  25.2596425  74.6079613
  62.9250476  24.5491741  75.9446314  64.3787169  21.4060827  69.1171930
  65.0811212  21.8581871  69.5845857  64.0467797  20.7644646  69.7451823
  62.8267530  19.9972584  83.4923140  62.1966191  20.6788865  83.7258536
  62.7203618  19.8855665  82.5476278  58.1212503  19.6644380  74.4189064
  57.3311557  19.9201908  73.9429174  58.6123750  20.4792718  74.5241104
  72.1376312  27.0049619  77.1694345  72.9593756  26.6029806  76.8877026
  72.1338715  26.9017853  78.1210460  60.0727248  20.0288959  71.3772540
  59.2758411  20.1407653  71.8956036  59.8452840  20.3675611  70.5113431
  65.9032916  26.5533662  79.3255055  65.9677348  27.0154069  80.1613227
  65.1943840  25.9231027  79.4537365  56.4050206  19.9174870  76.8504055
  56.6558244  20.8021880  77.1161630  56.9409754  19.7379472  76.0779146
  80.2282305  23.3488367  73.5179316  79.4746014  22.7795765  73.3623320
  80.3629847  23.3151032  74.4649951  65.6180933  28.2201770  69.1934035
  65.4826608  29.0653305  69.6218883  66.1590746  28.4221047  68.4299969
  62.1048273  14.2993350  85.8548391  61.7115219  13.7459548  86.5296035
  62.9214413  14.6103928  86.2454908  59.0710331  25.7377208  69.7661960
  59.5834851  26.5320458  69.9167525  59.7233044  25.0403498  69.6995562
  60.8805216  28.8542964  71.8484714  61.0571844  29.7760929  71.6605698
  61.6762049  28.5401383  72.2779093  65.0216234  15.7151229  83.4468647
  65.7625947  16.3158382  83.3673110  65.2534157  14.9728866  82.8886690
  60.1657572  20.9007596  81.7246877  60.0511087  19.9992853  82.0253976
  59.3102090  21.1471293  81.3731693  67.2449410  28.8425336  83.3234377
  66.8013264  28.0561715  83.0055282  67.9066623  29.0304487  82.6578268
  62.0036531  30.3721138  77.8495056  62.5543956  30.2438201  77.0772050
  61.1648007  30.6716027  77.4989949  69.3430648  29.1228136  81.3515779
  69.3249123  29.9437017  80.8596048  70.2650568  28.9982211  81.5765920
  65.8003702  26.6372266  82.1939287  66.3332039  25.8760554  81.9638595
  65.2717783  26.3445917  82.9363442  68.9673397  11.7432332  77.7232929
  68.6237666  12.6333973  77.6472039  69.3352360  11.5533989  76.8602514
  57.0359248  24.0665862  70.5421531  57.8734470  24.4762870  70.3255239
  57.2137515  23.1265304  70.5121725  68.9323680  21.7340943  66.2305364
  68.4170303  22.5045547  66.4693751  68.6600988  21.0606079  66.8538425
  66.5170791  16.5790643  71.2890602  65.6612387  16.1897494  71.1096241
  66.9297743  16.6582604  70.4290388  68.0469937  14.1136987  75.6882162
  67.5434733  14.0767122  74.8749967  68.3400544  15.0229729  75.7478819
  64.2912823  14.1975716  74.6948344  65.1565820  14.0018525  74.3354233
  64.3590332  13.9686068  75.6217701  73.9057954  24.4873297  68.1658537
  73.1287397  24.1484457  67.7213700  74.5849435  24.4925920  67.4913503
  68.7209983  19.6068035  68.0565145  68.4160119  19.9214184  68.9075288
  69.6740425  19.6849455  68.0992478  67.1656415  25.7658258  69.7058099
  66.6377776  25.0311018  69.3931337  66.6643918  26.5432934  69.4598067
  72.1449261  23.9607279  74.8225145  71.4872935  24.6506540  74.9105274
  72.9489660  24.3503710  75.1659132  61.8975142  16.4277924  72.0664711
  62.4718894  16.2053106  71.3337904  62.4846125  16.4966619  72.8193312
  70.9554720  22.3151651  72.8729087  71.4686601  22.9481643  73.3750797
  71.6055943  21.7152847  72.5072447  62.2244730  18.4582385  66.0860596
  61.3882042  18.7957072  66.4069871  62.0849499  18.3231365  65.1487733
  64.1997810  13.3019173  70.7939780  63.5462222  12.9868190  70.1696395
  64.1578284  12.6794914  71.5199603  65.3109015  23.5838468  62.7093072
  64.4036077  23.3527722  62.9084221  65.8080047  22.7876088  62.8967054
  68.2177094  32.2935976  65.6289758  67.5438793  32.5967672  66.2374716
  68.6042916  33.0965056  65.2795215  67.4335550  19.7901107  75.1187428
  66.5158112  20.0116054  74.9609116  67.8495694  19.8647417  74.2599135
  68.2170598  21.1892522  70.2490108  68.9642417  21.7013920  69.9397230
  68.4862188  20.8676575  71.1094502  66.4897248  23.6851063  67.2317062
  65.5808468  23.4010096  67.3289532  66.5192332  24.1050142  66.3720369
  71.7216516  27.2957653  71.0008230  71.2678843  26.4548563  71.0573420
  71.0910483  27.9319051  71.3383010  70.6649435  18.2249639  72.2308897
  69.9272192  17.7127025  72.5619140  70.9176209  17.7850020  71.4192174
  70.1649455  29.1334149  71.9358048  70.4572429  29.6939206  71.2170414
  70.6748076  29.4262710  72.6911207  70.7661063  11.0025891  72.8250667
  71.0719940  10.1423254  72.5376582  71.4913668  11.5943511  72.6249660
  57.0585419  21.4056577  71.2132264  56.8609819  20.8125938  70.4883331
  56.5032083  21.1008787  71.9308203  65.0382142  21.2979684  73.3326858
  65.0930752  20.3453520  73.2569334  64.2273344  21.4539123  73.8168156
  66.1873336  25.2259807  64.5705141  65.7492766  24.5095666  64.1110778
  66.9283777  25.4535922  64.0090232  62.9774502  19.9156744  71.0917236
  62.1642368  20.2150914  71.4982429  63.4733497  19.5212432  71.8091719
  65.1283080  29.9114500  73.0251501  65.0859259  30.1375347  72.0960033
  66.0445779  29.6777875  73.1737302  68.5748714  20.3798568  79.9232130
  68.9298102  20.6070041  80.7826596  69.2220845  20.7116945  79.3009386
  74.3046451  23.5017004  70.6281459  74.1664350  23.6918600  69.7002649
  73.9482670  24.2636387  71.0849511  62.4688577  17.4875099  76.7078471
  63.1087956  17.3463858  76.0101435  61.6366108  17.2009612  76.3317073
  74.3315831  25.5693531  75.6392731  74.7652337  25.4768820  76.4875785
  75.0447411  25.5451031  75.0012747  63.2448881  26.7877529  72.8213464
  64.0389480  26.2927850  72.6196039  62.5340573  26.2595393  72.4581169
  68.0643726  29.1695625  77.1725832  68.1180748  29.7386561  77.9403547
  67.1958507  29.3397510  76.8079869  59.5531644  20.9320611  68.8973217
  58.6229233  20.8705067  69.1143179  59.6489116  20.4096564  68.1009858
  59.4717194  17.4575424  71.4851458  59.7324011  18.3720757  71.3760619
  60.2934366  16.9899867  71.6348071  60.9442119  18.8713181  78.6550283
  61.6165172  18.6630543  78.0062932  60.1171905  18.6735267  78.2155515
  75.1931380  25.6117232  78.1725616  75.3867270  26.5163042  78.4184891
  75.0931998  25.1524651  79.0064201  66.8467691  15.4975122  80.6715944
  66.1995606  16.1965072  80.5780420  67.6168706  15.9311266  81.0392192
  70.2546489  25.7623974  83.7466497  70.1031995  25.5334526  82.8296581
  70.2451168  26.7194576  83.7597842  67.0231825  23.3355887  78.7312763
  67.9523885  23.4867047  78.5581731  66.6022855  23.4239908  77.8761410
  65.8220157  27.3606551  76.5011301  65.6831243  26.9925336  77.3737239
  65.0334753  27.8754191  76.3295259  66.4168309  32.4615648  67.8436838
  66.5920065  31.9903691  68.6582460  65.7301097  33.0881414  68.0718098
  67.3725372  26.7388154  73.8900139  67.0375205  26.6988924  74.7857789
  66.8729318  26.0732870  73.4170549  61.3469616  22.1455784  79.4152720
  61.2089414  21.4136023  80.0164259  62.2574540  22.0564684  79.1336908
  70.3084564  24.0844188  64.1637198  69.6913734  23.3591017  64.0670251
  69.8401052  24.8453549  63.8204273  63.9751917  21.8575744  78.9036400
  64.6851535  21.2168936  78.8623018  63.9321225  22.1088638  79.8262580
  71.9638695  28.7943097  81.8242979  71.9051242  28.1102317  81.1573562
  72.3658214  29.5362087  81.3723605  62.6880851  18.8440961  80.7232039
  62.1518208  18.3931700  81.3753635  62.0997559  18.9786870  79.9802503
  60.9829394  35.6105011  74.6176698  61.2225993  36.2423535  75.2955716
  60.1398591  35.2593051  74.9042057  62.0983110  18.3029613  63.2858503
  61.2212576  18.1818414  62.9220749  62.5740863  17.5115691  63.0337391
  71.9656103  26.7582681  80.0556958  71.0782882  26.4208603  80.1783357
  72.5354654  26.0265712  80.2925724  53.6185250  23.0906773  73.3800010
  54.3056290  22.7768503  72.7921025  53.4633379  23.9948137  73.1067261
  58.4219972  17.9796969  77.8085034  58.3378161  17.3722639  77.0735443
  57.6002678  18.4705987  77.8094530  65.4957256  31.4184133  77.0218202
  65.4227428  32.2239105  77.5337506  65.0534649  31.6176099  76.1966223
  65.2847036  30.6555903  70.5321023  64.5014558  31.1977583  70.6259248
  65.9839781  31.1729883  70.9315264  68.5943686  16.4650533  73.1755229
  69.0912385  15.7120495  72.8556299  67.8230667  16.5014849  72.6098438
  76.4473443  22.1690898  74.8173520  76.4363320  23.0515614  74.4467453
  75.5790823  21.8162449  74.6228057  67.9555940  31.3170967  79.1776360
  68.6683912  31.9518432  79.1052262  67.4645968  31.4134833  78.3616362
  69.6773467  25.2222220  70.7493652  68.7429745  25.3423682  70.5798356
  69.8550135  24.3194687  70.4853662  65.1778655  18.6067916  72.9026913
  64.8076442  18.0538956  73.5907819  65.6737747  18.0026049  72.3501913
  73.0646018  21.0639539  71.2843686  73.5306470  21.8967531  71.2103989
  73.5153518  20.5984521  71.9888945  63.0067853  29.0665411  79.9981931
  63.7077313  29.7001894  80.1511325  62.5362968  29.4080142  79.2377570
  71.1322249  27.4083360  68.2829838  71.4082093  27.2939955  69.1923712
  70.2626748  27.0100845  68.2442011  71.0362681  13.4320126  75.3234587
  70.1225760  13.6624353  75.4916794  71.4655782  13.5158570  76.1748620
  70.8069139  21.6210018  77.8234481  70.1540589  21.8685926  77.1686934
  71.1849519  20.8074156  77.4896959  67.7676313  31.6569711  71.9262652
  67.9498708  30.8391367  72.3890404  68.5909299  31.8737404  71.4887542
  68.1018479  30.5837896  69.1877700  68.6306245  30.0730351  68.5747862
  68.3646698  30.2680427  70.0523233  66.8556712  22.3629829  84.3100519
  66.1797349  22.2623958  84.9802894  67.6784346  22.2069043  84.7736516
  58.6035571  28.6001766  76.9313034  59.1889008  27.8545454  77.0640938
  58.4060410  28.9105722  77.8149698  61.4574226  31.6353013  71.9475476
  60.7884602  32.1199141  71.4639516  61.3187096  31.8822234  72.8618855
  53.1953226  21.1707366  75.6517477  53.2337326  20.6370957  76.4454595
  52.6893519  20.6442571  75.0328454  65.5979495  33.6696757  78.5458135
  66.1497803  33.8328378  79.3107220  65.9385689  34.2601194  77.8738159
  60.5743988  16.0171906  79.1480019  60.6385315  16.8786737  78.7357417
  60.5111109  15.4045908  78.4152378  60.0496261  18.0895039  82.7953054
  60.6768300  17.7072116  83.4090578  59.1924180  17.8709241  83.1608746
  70.4490369  28.4958014  84.4006789  70.9930273  29.1087972  83.9061744
  69.8677214  29.0537593  84.9173802  56.8261804  19.8971468  68.7271408
  57.1215245  18.9882146  68.6738462  55.9249839  19.8759207  68.4052411
  68.7347882  31.6178732  75.5321817  68.6099022  30.8168472  75.0232762
  69.3926973  32.1124925  75.0435787  60.3556051  17.9727465  74.7098957
  59.6342636  18.5863432  74.5706430  61.1449306  18.5085229  74.6315603
  70.7982791  29.4187752  77.1601367  69.8513126  29.2993103  77.0879694
  71.1465564  28.5310250  77.2427628  63.1582364  15.3081891  80.9839609
  63.6816766  15.5544188  81.7465918  62.9394697  16.1401926  80.5642746
  58.5549645  17.5785566  68.8510734  58.2262351  16.6982945  68.6685839
  58.9089016  17.5233234  69.7387123  67.8029224  29.2140468  73.3605719
  67.6554186  28.2857176  73.5413289  68.6282718  29.2360559  72.8762794
  61.6691468  17.8658535  69.2186211  62.0087541  18.3944457  68.4964820
  62.1163589  18.2038942  69.9944778  71.4063346  30.0369027  74.4470592
  72.3309893  29.8311888  74.3095043  71.2378649  29.7885428  75.3559933
  64.3634909  16.2495586  78.6689279  64.0231730  15.4503399  79.0709959
  63.6573915  16.5497297  78.0966112  65.0151381  13.3344899  77.1216602
  65.8377450  12.8605377  76.9995493  65.2589444  14.1135382  77.6215289
  63.6559615  16.3633157  67.4179504  64.3767978  16.7414410  66.9143221
  63.0324920  17.0822034  67.5214482  67.7990738  17.0678306  68.3537836
  68.0154353  17.9502944  68.0526664  67.3184805  16.6764519  67.6243478
  62.5389960  20.0264019  74.9308581  62.3934540  20.3404322  75.8232862
  62.0615163  20.6448920  74.3779480  64.3986343  17.0166567  74.9789470
  64.3847911  16.1207661  74.6421768  65.1158771  17.0237231  75.6127756
  66.2512473  17.4503907  77.0242598  65.9930251  18.3720978  77.0226928
  65.7197514  17.0534342  77.7143062  71.1958662  30.5554695  69.8032683
  71.3695540  29.9901117  69.0506536  71.6887553  31.3555589  69.6212173
  57.0135622  22.5669364  77.8696242  56.4689090  23.3429172  78.0016516
  57.8914972  22.9140168  77.7115363  63.8023239  15.8980948  70.2477041
  63.9239150  14.9697594  70.4467928  63.5125281  15.9119634  69.3355356
  66.6714429  13.5835858  73.3843760  66.6936126  13.6475191  72.4295740
  67.0882488  12.7440367  73.5784267  77.0498053  23.3191118  71.4222983
  77.4929199  22.5698443  71.0242106  76.1724564  23.3101254  71.0396715
  72.1833835  29.8721459  66.9029582  72.8784739  30.4928152  67.1216896
  72.5256985  29.0216810  67.1781959  57.8001644  21.6939260  80.7626399
  57.0583380  21.8421895  81.3491029  57.4794388  21.9547526  79.8993148
  74.0825258  27.3221165  68.4316912  74.6076582  27.6608437  67.7066232
  73.9947610  26.3868180  68.2480047  65.7445306  31.2355238  80.5606789
  66.0532433  30.9904385  81.4329489  66.5420788  31.4401877  80.0725659
  65.7665918  33.3893148  72.7912165  65.3270909  32.8969527  73.4845022
  66.5174035  32.8466115  72.5504241  58.2458257  29.5804689  72.7936794
  59.0716277  29.2808461  72.4135437  57.8952309  28.8112311  73.2426582
  63.2139791  28.9331157  74.8634467  62.5919800  28.2701862  74.5636695
  63.8844657  28.9592289  74.1808115  56.4466862  27.4991015  73.7525727
  55.6098771  27.0713189  73.5709728  56.4190508  27.6923458  74.6896518
  63.2864318  17.4112945  84.4566973  63.3352474  18.2875068  84.0744743
  63.8286832  16.8690338  83.8838616  73.7719164  27.9554068  83.7368110
  72.9814707  27.9378207  83.1972610  73.5352518  28.4942362  84.4917147
  73.8917039  24.8046535  81.0500839  73.9415044  24.6396542  81.9916362
  73.7830962  23.9373794  80.6598720  62.7753297  27.4835080  68.3392928
  62.9241418  28.1670545  67.6859600  63.5819741  27.4640170  68.8542383
  71.1820801  20.7877463  82.3660146  72.0830664  20.6483927  82.0744143
  71.2568776  20.9531917  83.3058323  65.5163607  18.1644317  81.2113332
  64.6466916  18.4577883  80.9395920  65.7523087  18.7484762  81.9320595
  75.3935236  27.2243476  81.2942860  75.1020044  27.5873457  82.1306321
  74.7807367  26.5110484  81.1156192  76.5930918  24.7896356  73.8145431
  77.4277809  25.2286160  73.9782991  76.7290047  24.3135009  72.9953676
  73.6422424  22.3476091  79.7622918  74.1176545  22.5403737  78.9541770
  72.7187989  22.4035277  79.5166302  60.5305930  23.5100258  69.3453997
  60.2851972  22.6062588  69.5434207  60.7001845  23.5117408  68.4033475
  68.2202640  14.3823934  78.7278752  68.7384584  15.1184961  78.4025241
  67.8657773  14.6887928  79.5625511  59.8001578  19.2428615  66.8440158
  59.1070823  19.3172970  66.1880194  59.5553330  18.4788959  67.3661675
  68.4715235  10.8024217  74.2479649  68.7516988  10.1347406  74.8740075
  69.2565841  10.9953312  73.7354313  66.2748703  29.9783211  65.8104675
  65.7022670  30.5973398  65.3575147  66.8481497  30.5282572  66.3444597
  72.3424093  19.2241851  77.9951224  73.2941516  19.3239948  78.0163448
  72.1727543  18.4320119  78.5049308  70.3638472  16.3097434  78.1810625
  69.7688404  16.5902447  77.4857113  70.0788169  16.7991335  78.9527366
  69.4945963  30.2620361  66.9413257  70.4276636  30.1965922  67.1446133
  69.4069176  31.0976628  66.4827790  72.1233979  29.5786231  63.9017205
  72.0447611  29.2446095  64.7952963  72.9443646  30.0707999  63.9008677
  74.8212171  22.4447970  77.1093524  74.7888491  21.5063971  77.2953207
  75.4312794  22.5232007  76.3759348  66.6595502  21.3144023  63.1520728
  67.6054606  21.1850232  63.2209146  66.2809746  20.5758685  63.6290156
  74.9706659  19.2359014  77.1551807  74.4545708  18.4517471  76.9681736
  75.8546608  18.9077731  77.3198326  72.6317386  12.9800029  73.1147619
  72.4342207  12.6715118  73.9990951  73.2417092  13.7061668  73.2445549
  80.6388721  23.5063977  76.2499560  81.3692109  23.2449265  76.8107264
  80.0295666  22.7692699  76.2901628  78.7204018  21.6471840  76.8474012
  77.9937181  21.5127805  76.2390503  78.3051305  21.9548669  77.6530730
  66.5434194  25.3661770  84.6121385  67.4637204  25.5440369  84.8061431
  66.5083777  24.4217815  84.4601084  64.8438419  19.2394000  63.0875613
  63.9369874  18.9427113  63.1638326  65.1214400  18.9423818  62.2209899
  55.7616359  20.5600363  73.5374659  55.4419143  19.7065671  73.2449033
  55.2149787  20.7748941  74.2932627  59.5396267  23.2762804  77.2544166
  59.7582276  24.2079912  77.2732200  59.9522040  22.9170779  78.0398970
  66.4600484  13.7830890  69.2419854  65.6501213  13.4377975  69.6175100
  67.1484901  13.4738433  69.8307466  68.3891033  12.8608936  70.8644151
  68.9422071  13.2804390  71.5234174  68.6261119  11.9344684  70.9067107
  64.4124132  18.8496010  86.6446915  64.3120859  19.7990367  86.5759006
  64.1945674  18.5214249  85.7722985  63.6137203  16.0980935  63.2287592
  64.4756367  16.4235833  63.4883409  63.7987547  15.3112431  62.7160658
  55.6304619  24.1803275  75.5067781  54.9368090  23.7657228  74.9937735
  56.3777610  24.2223811  74.9101200  71.7669840  14.9709462  70.3722815
  71.1868509  15.6294266  69.9900867  71.5005772  14.1486806  69.9610233
  70.2173406  14.3714519  72.5744135  70.7173185  14.4831054  71.7658454
  70.8609014  14.0675572  73.2144944  64.2755402  22.2793149  85.4611976
  63.7922484  23.0793509  85.6675865  64.3616341  22.2901094  84.5079420
  57.5441362  24.1121529  73.3833796  57.5212050  24.2109216  72.4315679
  57.8541998  24.9586679  73.7050962  60.2028739  26.1697684  77.4980410
  61.1571993  26.1381626  77.4310342  60.0041263  25.7088307  78.3130636
  60.7928122  24.7398800  80.0651208  61.6121011  25.2342878  80.0886045
  61.0664929  23.8230768  80.0368775  70.5494718  17.1309552  69.4279163
  69.6620573  17.4159203  69.2099358  70.9648707  16.9703315  68.5806440
  73.9009254  17.1556073  73.1433503  74.6769644  17.6452525  73.4158119
  73.1757388  17.5814127  73.6005372  76.3381813  17.8683692  74.2007443
  76.9326303  17.6279428  73.4900751  76.4108396  17.1490823  74.8280979
  58.5578968  31.7117303  74.5150608  58.4233436  30.9517704  73.9488606
  58.1411031  32.4358203  74.0479397  69.6937931  26.8954227  63.5227183
  70.3973781  27.1004229  64.1384839  68.9700580  27.4630988  63.7876267
  70.5235742  22.6464088  69.6429453  70.4670943  23.1032639  68.8037086
  71.0764084  21.8854772  69.4652296  74.3340547  18.4353820  70.4679573
  74.0777482  18.0350455  71.2987781  73.7093415  19.1497614  70.3429712
  78.6452885  21.1749893  72.9750864  78.0852443  21.2443082  73.7482426
  78.0396389  20.9990878  72.2550361  61.7148094  32.6086620  74.7269051
  61.5980478  33.5532053  74.6247741  60.8940540  32.3060182  75.1154850
  71.6024629  27.3336756  65.5725643  72.4370233  26.9017954  65.3903118
  71.4408972  27.1618769  66.5002538  71.2570521  23.8368869  66.9381983
  71.2019325  23.6713140  65.9970427  70.6316576  24.5444902  67.0944172
  56.0463036  19.0736933  80.7643405  56.6921899  18.5635887  81.2530630
  55.8380187  19.8105615  81.3386830  68.5716428  26.1417781  86.2635545
  69.4407588  26.3158433  85.9022180  68.0923180  26.9612198  86.1411275
  64.5666646  13.3376978  66.5167301  64.5545316  14.2818818  66.6735572
  65.4590068  13.1547123  66.2226762  62.7402608  33.2614882  77.9424979
  63.6429855  33.2938492  78.2591474  62.5139978  32.3315333  77.9571315
  64.4956210  32.0145868  74.6035058  63.5451841  32.0147730  74.4899430
  64.7988696  31.2678603  74.0871092  68.3818766   9.9319755  70.7713238
  67.6151162   9.3778241  70.9169920  68.7929471  10.0041623  71.6327389
  60.3860527  16.2204551  84.8618419  61.2491988  15.8641355  85.0721744
  59.8125937  15.8818445  85.5493823  80.2308904  37.8506407  75.6680820
  80.8687314  37.7313154  74.9644160  80.1129747  38.7987251  75.7268772
  77.0398610  37.8033835  75.6042345  76.7017122  37.6874900  74.7162880
  77.9088378  37.4025000  75.5843351  72.8985426  39.6569311  71.5939236
  72.3350291  39.5659248  70.8255523  72.7837821  38.8369216  72.0741728
  77.5218393  38.9568687  81.5628550  77.5107034  38.5621485  80.6909054
  77.6839033  38.2234759  82.1562322  70.4449858  41.1520503  74.4323456
  71.2371150  40.8111328  74.0169755  70.6846508  41.2615478  75.3525610
  78.4784984  43.3240279  66.9053701  77.8272964  43.9094360  66.5187714
  79.2729347  43.8546474  66.9648738  72.4040612  40.4129416  67.3040835
  73.1771488  39.8658403  67.1653711  72.7566010  41.2773666  67.5155296
  74.2425654  41.7405799  80.5107734  73.9515520  42.6451429  80.3954401
  74.8782639  41.7822326  81.2251804  75.1681861  39.1182647  77.1009094
  75.7645433  38.8938669  76.3866057  75.2256833  38.3767393  77.7034542
  74.7406889  36.5722082  64.9359285  74.9932410  36.0503604  64.1742748
  73.8031449  36.4088228  65.0385969  79.7850172  35.5757861  72.7434028
  80.5713261  35.1577284  72.3924445  80.0488877  36.4803953  72.9115677
  79.9560250  41.0130711  67.4422685  79.3206083  41.0865338  68.1543590
  79.6257656  41.6024310  66.7641764  85.1858599  35.5133094  73.6467007
  85.9183771  34.9432311  73.8804836  84.4297955  35.1254694  74.0873512
  74.4603178  38.4750188  67.1383660  74.3439436  37.7995092  67.8064744
  74.5705438  37.9882562  66.3215813  76.8034719  37.9360335  70.8430349
  76.4392926  37.4090956  71.5543271  77.6601835  37.5458804  70.6696835
  82.7084020  29.2254668  78.1061615  82.3767345  30.0950079  77.8822830
  82.1129633  28.9090952  78.7855646  76.4440206  32.9650235  65.8391698
  76.6114608  33.8330472  66.2062169  76.2537375  33.1277517  64.9152987
  79.2015539  41.4267214  77.5057528  78.9016262  42.3292253  77.3973335
  78.8566599  41.1599397  78.3578681  72.6528021  37.8781011  73.5394232
  71.7278517  37.7457225  73.7471924  72.9012434  38.6575230  74.0364175
  82.6012683  33.9449754  75.1854965  81.6929560  33.8765163  74.8913726
  82.5500279  34.4221699  76.0136791  76.4229427  35.4207893  66.8238364
  76.3029052  35.8664943  67.6623845  75.7282015  35.7693210  66.2651903
  70.0136832  37.5214284  74.3738021  70.1429213  37.7748763  75.2877433
  69.3334283  38.1141992  74.0542677  76.6753549  35.3639400  83.1289863
  75.8986883  35.9233320  83.1192727  77.3144112  35.8496183  83.6504733
  84.4674329  32.1466193  76.9632839  83.8248710  32.4398726  76.3172634
  83.9629258  32.0319113  77.7686036  82.1214493  35.8929366  67.6518698
  83.0332349  36.1256753  67.4766396  81.6124140  36.4766410  67.0893777
  74.9299921  38.1724853  82.6907830  75.6714606  38.7109897  82.4142653
  74.2236907  38.7991142  82.8479381  80.4055261  40.3153994  81.2879991
  80.8138617  39.8736404  80.5434623  79.6832522  39.7406621  81.5414184
  76.7586331  35.2526600  78.6613548  77.6047526  35.6766014  78.8048197
  76.6984968  34.5960225  79.3552111  80.7284075  40.8755184  75.0432280
  80.0992938  41.0400898  74.3408348  80.3409738  41.2896794  75.8143244
  84.6073307  41.8109622  72.3976644  83.9224345  42.1908523  71.8473677
  84.6917157  42.4204949  73.1308591  79.9085776  32.9130969  80.3194722
  79.6646708  33.6673029  79.7828997  80.1845707  33.2916316  81.1541969
  81.8624239  39.4569581  78.9971987  82.0741134  40.1001341  78.3206368
  81.8153987  38.6231898  78.5293917  79.4650468  32.0687402  75.9008559
  78.6034947  32.3668655  76.1925297  79.4912903  32.2857801  74.9689592
  76.2812037  40.6129592  72.3082365  76.7450383  40.8917295  71.5186988
  76.0168835  39.7113037  72.1255456  73.1736118  40.1601074  75.2462128
  73.7437475  40.5888342  74.6079613  73.7644230  39.8783659  75.9446314
  75.2180923  36.7352745  69.1171930  75.9204967  37.1873788  69.5845857
  74.8861552  36.0936564  69.7451823  73.6661285  35.3264501  83.4923140
  73.0359945  36.0080782  83.7258536  73.5597373  35.2147583  82.5476278
  68.9606257  34.9936297  74.4189064  68.1705311  35.2493826  73.9429174
  69.4517505  35.8084635  74.5241104  82.9770067  42.3341537  77.1694345
  83.7987511  41.9321724  76.8877026  82.9732470  42.2309771  78.1210460
  70.9121003  35.3580877  71.3772540  70.1152166  35.4699571  71.8956036
  70.6846595  35.6967529  70.5113431  76.7426670  41.8825580  79.3255055
  76.8071103  42.3445987  80.1613227  76.0337594  41.2522945  79.4537365
  67.2443960  35.2466788  76.8504055  67.4951999  36.1313798  77.1161630
  67.7803509  35.0671389  76.0779146  91.0676060  38.6780285  73.5179316
  90.3139768  38.1087683  73.3623320  91.2023601  38.6442950  74.4649951
  76.4574688  43.5493687  69.1934035  76.3220363  44.3945223  69.6218883
  76.9984500  43.7512965  68.4299969  72.9442028  29.6285267  85.8548391
  72.5508973  29.0751466  86.5296035  73.7608168  29.9395846  86.2454908
  69.9104085  41.0669125  69.7661960  70.4228606  41.8612376  69.9167525
  70.5626798  40.3695416  69.6995562  71.7198970  44.1834882  71.8484714
  71.8965598  45.1052846  71.6605698  72.5155804  43.8693301  72.2779093
  75.8609989  31.0443146  83.4468647  76.6019702  31.6450299  83.3673110
  76.0927911  30.3020784  82.8886690  71.0051327  36.2299514  81.7246877
  70.8904842  35.3284771  82.0253976  70.1495844  36.4763210  81.3731693
  78.0843164  44.1717254  83.3234377  77.6407019  43.3853632  83.0055282
  78.7460378  44.3596404  82.6578268  72.8430286  45.7013055  77.8495056
  73.3937711  45.5730119  77.0772050  72.0041761  46.0007944  77.4989949
  80.1824402  44.4520054  81.3515779  80.1642878  45.2728935  80.8596048
  81.1044322  44.3274129  81.5765920  76.6397457  41.9664183  82.1939287
  77.1725793  41.2052471  81.9638595  76.1111538  41.6737835  82.9363442
  79.8067152  27.0724249  77.7232929  79.4631421  27.9625891  77.6472039
  80.1746114  26.8825907  76.8602514  67.8753002  39.3957780  70.5421531
  68.7128224  39.8054788  70.3255239  68.0531270  38.4557222  70.5121725
  79.7717434  37.0632860  66.2305364  79.2564058  37.8337465  66.4693751
  79.4994743  36.3897996  66.8538425  77.3564545  31.9082561  71.2890602
  76.5006142  31.5189411  71.1096241  77.7691497  31.9874522  70.4290388
  78.8863692  29.4428904  75.6882162  78.3828488  29.4059040  74.8749967
  79.1794299  30.3521647  75.7478819  75.1306578  29.5267634  74.6948344
  75.9959575  29.3310443  74.3354233  75.1984087  29.2977986  75.6217701
  84.7451708  39.8165215  68.1658537  83.9681151  39.4776374  67.7213700
  85.4243189  39.8217838  67.4913503  79.5603737  34.9359952  68.0565145
  79.2553873  35.2506102  68.9075288  80.5134180  35.0141372  68.0992478
  78.0050169  41.0950176  69.7058099  77.4771531  40.3602935  69.3931337
  77.5037672  41.8724852  69.4598067  82.9843015  39.2899196  74.8225145
  82.3266690  39.9798458  74.9105274  83.7883415  39.6795628  75.1659132
  72.7368897  31.7569842  72.0664711  73.3112649  31.5345024  71.3337904
  73.3239879  31.8258537  72.8193312  81.7948474  37.6443569  72.8729087
  82.3080356  38.2773561  73.3750797  82.4449698  37.0444764  72.5072447
  73.0638484  33.7874303  66.0860596  72.2275796  34.1248990  66.4069871
  72.9243254  33.6523283  65.1487733  75.0391565  28.6311091  70.7939780
  74.3855977  28.3160108  70.1696395  74.9972039  28.0086831  71.5199603
  76.1502769  38.9130386  62.7093072  75.2429831  38.6819639  62.9084221
  76.6473801  38.1168005  62.8967054  79.0570848  47.6227893  65.6289758
  78.3832547  47.9259590  66.2374716  79.4436670  48.4256974  65.2795215
  78.2729305  35.1193024  75.1187428  77.3551866  35.3407971  74.9609116
  78.6889449  35.1939335  74.2599135  79.0564353  36.5184440  70.2490108
  79.8036172  37.0305837  69.9397230  79.3255942  36.1968493  71.1094502
  77.3291003  39.0142981  67.2317062  76.4202222  38.7302014  67.3289532
  77.3586087  39.4342059  66.3720369  82.5610270  42.6249570  71.0008230
  82.1072597  41.7840480  71.0573420  81.9304237  43.2610969  71.3383010
  81.5043190  33.5541556  72.2308897  80.7665947  33.0418943  72.5619140
  81.7569963  33.1141938  71.4192174  81.0043210  44.4626067  71.9358048
  81.2966184  45.0231124  71.2170414  81.5141830  44.7554628  72.6911207
  81.6054817  26.3317808  72.8250667  81.9113694  25.4715172  72.5376582
  82.3307422  26.9235429  72.6249660  67.8979173  36.7348495  71.2132264
  67.7003573  36.1417856  70.4883331  67.3425837  36.4300705  71.9308203
  75.8775897  36.6271601  73.3326858  75.9324507  35.6745438  73.2569334
  75.0667099  36.7831041  73.8168156  77.0267091  40.5551725  64.5705141
  76.5886521  39.8387583  64.1110778  77.7677532  40.7827839  64.0090232
  73.8168257  35.2448661  71.0917236  73.0036122  35.5442832  71.4982429
  74.3127251  34.8504350  71.8091719  75.9676835  45.2406418  73.0251501
  75.9253014  45.4667264  72.0960033  76.8839534  45.0069793  73.1737302
  79.4142469  35.7090486  79.9232130  79.7691856  35.9361959  80.7826596
  80.0614600  36.0408862  79.3009386  85.1440205  38.8308922  70.6281459
  85.0058104  39.0210518  69.7002649  84.7876424  39.5928304  71.0849511
  73.3082332  32.8167017  76.7078471  73.9481711  32.6755776  76.0101435
  72.4759862  32.5301530  76.3317073  85.1709585  40.8985449  75.6392731
  85.6046092  40.8060738  76.4875785  85.8841166  40.8742949  75.0012747
  74.0842636  42.1169447  72.8213464  74.8783234  41.6219767  72.6196039
  73.3734328  41.5887310  72.4581169  78.9037480  44.4987543  77.1725832
  78.9574502  45.0678479  77.9403547  78.0352261  44.6689428  76.8079869
  70.3925399  36.2612529  68.8973217  69.4622987  36.1996984  69.1143179
  70.4882871  35.7388482  68.1009858  70.3110948  32.7867342  71.4851458
  70.5717765  33.7012675  71.3760619  71.1328120  32.3191784  71.6348071
  71.7835873  34.2005099  78.6550283  72.4558927  33.9922461  78.0062932
  70.9565660  34.0027185  78.2155515  86.0325135  40.9409149  78.1725616
  86.2261025  41.8454960  78.4184891  85.9325753  40.4816568  79.0064201
  77.6861445  30.8267040  80.6715944  77.0389360  31.5256989  80.5780420
  78.4562461  31.2603184  81.0392192  81.0940243  41.0915892  83.7466497
  80.9425750  40.8626444  82.8296581  81.0844923  42.0486493  83.7597842
  77.8625580  38.6647805  78.7312763  78.7917640  38.8158964  78.5581731
  77.4416610  38.7531826  77.8761410  76.6613912  42.6898469  76.5011301
  76.5224997  42.3217254  77.3737239  75.8728508  43.2046109  76.3295259
  77.2562063  47.7907566  67.8436838  77.4313819  47.3195609  68.6582460
  76.5694852  48.4173332  68.0718098  78.2119127  42.0680072  73.8900139
  77.8768959  42.0280842  74.7857789  77.7123072  41.4024788  73.4170549
  72.1863371  37.4747702  79.4152720  72.0483169  36.7427941  80.0164259
  73.0968294  37.3856602  79.1336908  81.1478318  39.4136106  64.1637198
  80.5307489  38.6882934  64.0670251  80.6794807  40.1745466  63.8204273
  74.8145671  37.1867661  78.9036400  75.5245290  36.5460853  78.8623018
  74.7714979  37.4380556  79.8262580  82.8032450  44.1235015  81.8242979
  82.7444996  43.4394235  81.1573562  83.2051968  44.8654005  81.3723605
  73.5274605  34.1732879  80.7232039  72.9911962  33.7223618  81.3753635
  72.9391314  34.3078788  79.9802503  71.8223149  50.9396928  74.6176698
  72.0619747  51.5715453  75.2955716  70.9792345  50.5884968  74.9042057
  72.9376864  33.6321530  63.2858503  72.0606331  33.5110331  62.9220749
  73.4134617  32.8407609  63.0337391  82.8049857  42.0874598  80.0556958
  81.9176636  41.7500520  80.1783357  83.3748408  41.3557630  80.2925724
  64.4579004  38.4198690  73.3800010  65.1450044  38.1060420  72.7921025
  64.3027133  39.3240055  73.1067261  69.2613727  33.3088887  77.8085034
  69.1771915  32.7014556  77.0735443  68.4396433  33.7997905  77.8094530
  76.3351011  46.7476051  77.0218202  76.2621182  47.5531022  77.5337506
  75.8928404  46.9468017  76.1966223  76.1240790  45.9847821  70.5321023
  75.3408312  46.5269501  70.6259248  76.8233535  46.5021800  70.9315264
  79.4337440  31.7942450  73.1755229  79.9306140  31.0412413  72.8556299
  78.6624422  31.8306767  72.6098438  87.2867198  37.4982816  74.8173520
  87.2757074  38.3807531  74.4467453  86.4184577  37.1454367  74.6228057
  78.7949694  46.6462885  79.1776360  79.5077666  47.2810350  79.1052262
  78.3039723  46.7426751  78.3616362  80.5167221  40.5514138  70.7493652
  79.5823500  40.6715600  70.5798356  80.6943890  39.6486604  70.4853662
  76.0172409  33.9359833  72.9026913  75.6470197  33.3830874  73.5907819
  76.5131502  33.3317967  72.3501913  83.9039772  36.3931457  71.2843686
  84.3700225  37.2259448  71.2103989  84.3547273  35.9276438  71.9888945
  73.8461608  44.3957328  79.9981931  74.5471067  45.0293811  80.1511325
  73.3756723  44.7372060  79.2377570  81.9716004  42.7375278  68.2829838
  82.2475847  42.6231873  69.1923712  81.1020502  42.3392763  68.2442011
  81.8756435  28.7612044  75.3234587  80.9619515  28.9916271  75.4916794
  82.3049537  28.8450488  76.1748620  81.6462894  36.9501936  77.8234481
  80.9934344  37.1977843  77.1686934  82.0243274  36.1366074  77.4896959
  78.6070068  46.9861629  71.9262652  78.7892462  46.1683285  72.3890404
  79.4303054  47.2029321  71.4887542  78.9412233  45.9129814  69.1877700
  79.4699999  45.4022269  68.5747862  79.2040453  45.5972344  70.0523233
  77.6950467  37.6921747  84.3100519  77.0191104  37.5915876  84.9802894
  78.5178101  37.5360961  84.7736516  69.4429326  43.9293683  76.9313034
  70.0282763  43.1837371  77.0640938  69.2454164  44.2397640  77.8149698
  72.2967981  46.9644931  71.9475476  71.6278356  47.4491058  71.4639516
  72.1580851  47.2114151  72.8618855  64.0346980  36.4999284  75.6517477
  64.0731080  35.9662874  76.4454595  63.5287273  35.9734489  75.0328454
  76.4373250  48.9988674  78.5458135  76.9891558  49.1620296  79.3107220
  76.7779443  49.5893112  77.8738159  71.4137743  31.3463824  79.1480019
  71.4779069  32.2078655  78.7357417  71.3504863  30.7337826  78.4152378
  70.8890015  33.4186957  82.7953054  71.5162054  33.0364034  83.4090578
  70.0317934  33.2001159  83.1608746  81.2884124  43.8249932  84.4006789
  81.8324028  44.4379890  83.9061744  80.7070969  44.3829510  84.9173802
  67.6655558  35.2263386  68.7271408  67.9608999  34.3174064  68.6738462
  66.7643594  35.2051125  68.4052411  79.5741637  46.9470650  75.5321817
  79.4492776  46.1460390  75.0232762  80.2320728  47.4416843  75.0435787
  71.1949805  33.3019382  74.7098957  70.4736391  33.9155350  74.5706430
  71.9843061  33.8377147  74.6315603  81.6376545  44.7479670  77.1601367
  80.6906881  44.6285021  77.0879694  81.9859318  43.8602168  77.2427628
  73.9976119  30.6373809  80.9839609  74.5210520  30.8836105  81.7465918
  73.7788452  31.4693844  80.5642746  69.3943400  32.9077483  68.8510734
  69.0656106  32.0274862  68.6685839  69.7482770  32.8525152  69.7387123
  78.6422979  44.5432386  73.3605719  78.4947941  43.6149094  73.5413289
  79.4676472  44.5652477  72.8762794  72.5085223  33.1950453  69.2186211
  72.8481295  33.7236374  68.4964820  72.9557343  33.5330859  69.9944778
  82.2457100  45.3660945  74.4470592  83.1703648  45.1603806  74.3095043
  82.0772404  45.1177346  75.3559933  75.2028664  31.5787504  78.6689279
  74.8625484  30.7795317  79.0709959  74.4967670  31.8789215  78.0966112
  75.8545135  28.6636816  77.1216602  76.6771205  28.1897295  76.9995493
  76.0983199  29.4427300  77.6215289  74.4953370  31.6925075  67.4179504
  75.2161732  32.0706328  66.9143221  73.8718674  32.4113952  67.5214482
  78.6384493  32.3970224  68.3537836  78.8548107  33.2794862  68.0526664
  78.1578560  32.0056437  67.6243478  73.3783714  35.3555937  74.9308581
  73.2328295  35.6696240  75.8232862  72.9008918  35.9740837  74.3779480
  75.2380097  32.3458485  74.9789470  75.2241666  31.4499578  74.6421768
  75.9552525  32.3529149  75.6127756  77.0906228  32.7795825  77.0242598
  76.8324006  33.7012896  77.0226928  76.5591268  32.3826260  77.7143062
  82.0352417  45.8846612  69.8032683  82.2089294  45.3193035  69.0506536
  82.5281308  46.6847507  69.6212173  67.8529376  37.8961281  77.8696242
  67.3082844  38.6721089  78.0016516  68.7308726  38.2432086  77.7115363
  74.6416993  31.2272865  70.2477041  74.7632904  30.2989511  70.4467928
  74.3519035  31.2411551  69.3355356  77.5108183  28.9127776  73.3843760
  77.5329880  28.9767109  72.4295740  77.9276242  28.0732284  73.5784267
  87.8891808  38.6483035  71.4222983  88.3322954  37.8990360  71.0242106
  87.0118318  38.6393172  71.0396715  83.0227589  45.2013377  66.9029582
  83.7178494  45.8220069  67.1216896  83.3650739  44.3508728  67.1781959
  68.6395398  37.0231178  80.7626399  67.8977134  37.1713813  81.3491029
  68.3188143  37.2839443  79.8993148  84.9219012  42.6513082  68.4316912
  85.4470336  42.9900355  67.7066232  84.8341365  41.7160098  68.2480047
  76.5839061  46.5647156  80.5606789  76.8926187  46.3196303  81.4329489
  77.3814543  46.7693794  80.0725659  76.6059673  48.7185065  72.7912165
  76.1664663  48.2261444  73.4845022  77.3567790  48.1758033  72.5504241
  69.0852012  44.9096606  72.7936794  69.9110032  44.6100378  72.4135437
  68.7346064  44.1404229  73.2426582  74.0533545  44.2623075  74.8634467
  73.4313554  43.5993780  74.5636695  74.7238412  44.2884206  74.1808115
  67.2860617  42.8282933  73.7525727  66.4492525  42.4005107  73.5709728
  67.2584262  43.0215376  74.6896518  74.1258073  32.7404863  84.4566973
  74.1746228  33.6166985  84.0744743  74.6680587  32.1982256  83.8838616
  84.6112918  43.2845986  83.7368110  83.8208462  43.2670125  83.1972610
  84.3746273  43.8234280  84.4917147  84.7310793  40.1338452  81.0500839
  84.7808798  39.9688460  81.9916362  84.6224717  39.2665711  80.6598720
  73.6147052  42.8126998  68.3392928  73.7635172  43.4962462  67.6859600
  74.4213495  42.7932088  68.8542383  82.0214556  36.1169380  82.3660146
  82.9224418  35.9775845  82.0744143  82.0962530  36.2823835  83.3058323
  76.3557361  33.4936235  81.2113332  75.4860670  33.7869801  80.9395920
  76.5916841  34.0776680  81.9320595  86.2328990  42.5535394  81.2942860
  85.9413798  42.9165374  82.1306321  85.6201121  41.8402402  81.1156192
  87.4324672  40.1188274  73.8145431  88.2671564  40.5578078  73.9782991
  87.5683801  39.6426927  72.9953676  84.4816178  37.6768008  79.7622918
  84.9570300  37.8695655  78.9541770  83.5581744  37.7327194  79.5166302
  71.3699685  38.8392176  69.3453997  71.1245727  37.9354506  69.5434207
  71.5395600  38.8409326  68.4033475  79.0596395  29.7115852  78.7278752
  79.5778339  30.4476879  78.4025241  78.7051528  30.0179845  79.5625511
  70.6395333  34.5720533  66.8440158  69.9464577  34.6464888  66.1880194
  70.3947084  33.8080877  67.3661675  79.3108989  26.1316134  74.2479649
  79.5910743  25.4639324  74.8740075  80.0959596  26.3245230  73.7354313
  77.1142458  45.3075128  65.8104675  76.5416425  45.9265315  65.3575147
  77.6875251  45.8574490  66.3444597  83.1817847  34.5533768  77.9951224
  84.1335270  34.6531866  78.0163448  83.0121298  33.7612037  78.5049308
  81.2032227  31.6389352  78.1810625  80.6082159  31.9194364  77.4857113
  80.9181924  32.1283253  78.9527366  80.3339717  45.5912278  66.9413257
  81.2670390  45.5257840  67.1446133  80.2462930  46.4268545  66.4827790
  82.9627734  44.9078149  63.9017205  82.8841365  44.5738012  64.7952963
  83.7837401  45.3999917  63.9008677  85.6605925  37.7739888  77.1093524
  85.6282245  36.8355889  77.2953207  86.2706549  37.8523925  76.3759348
  77.4989256  36.6435941  63.1520728  78.4448361  36.5142149  63.2209146
  77.1203501  35.9050603  63.6290156  85.8100414  34.5650932  77.1551807
  85.2939462  33.7809388  76.9681736  86.6940362  34.2369648  77.3198326
  83.4711141  28.3091947  73.1147619  83.2735962  28.0007035  73.9990951
  84.0810846  29.0353586  73.2445549  91.4782475  38.8355895  76.2499560
  92.2085863  38.5741183  76.8107264  90.8689420  38.0984617  76.2901628
  89.5597772  36.9763758  76.8474012  88.8330936  36.8419723  76.2390503
  89.1445059  37.2840586  77.6530730  77.3827949  40.6953687  84.6121385
  78.3030958  40.8732286  84.8061431  77.3477532  39.7509733  84.4601084
  75.6832173  34.5685918  63.0875613  74.7763629  34.2719030  63.1638326
  75.9608154  34.2715736  62.2209899  66.6010114  35.8892281  73.5374659
  66.2812898  35.0357589  73.2449033  66.0543542  36.1040859  74.2932627
  70.3790021  38.6054722  77.2544166  70.5976031  39.5371830  77.2732200
  70.7915795  38.2462696  78.0398970  77.2994239  29.1122807  69.2419854
  76.4894967  28.7669892  69.6175100  77.9878656  28.8030351  69.8307466
  79.2284787  28.1900854  70.8644151  79.7815826  28.6096307  71.5234174
  79.4654874  27.2636602  70.9067107  75.2517886  34.1787928  86.6446915
  75.1514613  35.1282285  86.5759006  75.0339428  33.8506167  85.7722985
  74.4530958  31.4272853  63.2287592  75.3150122  31.7527751  63.4883409
  74.6381302  30.6404349  62.7160658  66.4698374  39.5095192  75.5067781
  65.7761845  39.0949145  74.9937735  67.2171365  39.5515729  74.9101200
  82.6063594  30.3001379  70.3722815  82.0262263  30.9586183  69.9900867
  82.3399527  29.4778724  69.9610233  81.0567161  29.7006437  72.5744135
  81.5566939  29.8122971  71.7658454  81.7002769  29.3967490  73.2144944
  75.1149156  37.6085067  85.4611976  74.6316238  38.4085427  85.6675865
  75.2010096  37.6193011  84.5079420  68.3835116  39.4413446  73.3833796
  68.3605804  39.5401133  72.4315679  68.6935753  40.2878597  73.7050962
  71.0422494  41.4989601  77.4980410  71.9965748  41.4673544  77.4310342
  70.8435018  41.0380225  78.3130636  71.6321876  40.0690717  80.0651208
  72.4514765  40.5634796  80.0886045  71.9058684  39.1522685  80.0368775
  81.3888472  32.4601470  69.4279163  80.5014327  32.7451120  69.2099358
  81.8042461  32.2995233  68.5806440  84.7403008  32.4847991  73.1433503
  85.5163399  32.9744443  73.4158119  84.0151143  32.9106045  73.6005372
  87.1775567  33.1975610  74.2007443  87.7720058  32.9571346  73.4900751
  87.2502151  32.4782740  74.8280979  69.3972723  47.0409221  74.5150608
  69.2627191  46.2809622  73.9488606  68.9804785  47.7650121  74.0479397
  80.5331686  42.2246144  63.5227183  81.2367536  42.4296147  64.1384839
  79.8094335  42.7922906  63.7876267  81.3629496  37.9756005  69.6429453
  81.3064697  38.4324557  68.8037086  81.9157838  37.2146690  69.4652296
  85.1734302  33.7645737  70.4679573  84.9171236  33.3642373  71.2987781
  84.5487170  34.4789531  70.3429712  89.4846640  36.5041811  72.9750864
  88.9246198  36.5735000  73.7482426  88.8790143  36.3282795  72.2550361
  72.5541849  47.9378538  74.7269051  72.4374233  48.8823970  74.6247741
  71.7334295  47.6352099  75.1154850  82.4418383  42.6628673  65.5725643
  83.2763987  42.2309872  65.3903118  82.2802726  42.4910687  66.5002538
  82.0964275  39.1660787  66.9381983  82.0413079  39.0005058  65.9970427
  81.4710331  39.8736820  67.0944172  66.8856790  34.4028851  80.7643405
  67.5315654  33.8927805  81.2530630  66.6773941  35.1397533  81.3386830
  79.4110183  41.4709699  86.2635545  80.2801342  41.6450351  85.9022180
  78.9316934  42.2904115  86.1411275  75.4060401  28.6668896  66.5167301
  75.3939071  29.6110736  66.6735572  76.2983823  28.4839041  66.2226762
  73.5796363  48.5906800  77.9424979  74.4823609  48.6230410  78.2591474
  73.3533733  47.6607251  77.9571315  75.3349965  47.3437786  74.6035058
  74.3845596  47.3439648  74.4899430  75.6382451  46.5970521  74.0871092
  79.2212520  25.2611672  70.7713238  78.4544916  24.7070159  70.9169920
  79.6323225  25.3333541  71.6327389  71.2254281  31.5496468  84.8618419
  72.0885743  31.1933273  85.0721744  70.6519692  31.2110363  85.5493823
  91.0702658  53.1798325  75.6680820  91.7081068  53.0605072  74.9644160
  90.9523501  54.1279169  75.7268772  87.8792365  53.1325753  75.6042345
  87.5410876  53.0166817  74.7162880  88.7482133  52.7316918  75.5843351
  83.7379180  54.9861229  71.5939236  83.1744045  54.8951166  70.8255523
  83.6231575  54.1661134  72.0741728  88.3612148  54.2860604  81.5628550
  88.3500788  53.8913403  80.6909054  88.5232787  53.5526677  82.1562322
  81.2843612  56.4812421  74.4323456  82.0764904  56.1403245  74.0169755
  81.5240262  56.5907396  75.3525610  89.3178739  58.6532197  66.9053701
  88.6666719  59.2386277  66.5187714  90.1123102  59.1838392  66.9648738
  83.2434366  55.7421334  67.3040835  84.0165242  55.1950321  67.1653711
  83.5959765  56.6065583  67.5155296  85.0819409  57.0697716  80.5107734
  84.7909275  57.9743347  80.3954401  85.7176393  57.1114244  81.2251804
  86.0075616  54.4474565  77.1009094  86.6039188  54.2230587  76.3866057
  86.0650587  53.7059310  77.7034542  85.5800644  51.9014000  64.9359285
  85.8326165  51.3795521  64.1742748  84.6425203  51.7380145  65.0385969
  90.6243927  50.9049778  72.7434028  91.4107016  50.4869202  72.3924445
  90.8882631  51.8095871  72.9115677  90.7954004  56.3422629  67.4422685
  90.1599837  56.4157255  68.1543590  90.4651411  56.9316228  66.7641764
  96.0252354  50.8425012  73.6467007  96.7577526  50.2724228  73.8804836
  95.2691710  50.4546612  74.0873512  85.2996933  53.8042106  67.1383660
  85.1833191  53.1287009  67.8064744  85.4099193  53.3174480  66.3215813
  87.6428474  53.2652253  70.8430349  87.2786681  52.7382874  71.5543271
  88.4995590  52.8750722  70.6696835  93.5477774  44.5546586  78.1061615
  93.2161099  45.4241997  77.8822830  92.9523388  44.2382870  78.7855646
  87.2833961  48.2942153  65.8391698  87.4508363  49.1622389  66.2062169
  87.0931130  48.4569434  64.9152987  90.0409294  56.7559132  77.5057528
  89.7410017  57.6584171  77.3973335  89.6960353  56.4891315  78.3578681
  83.4921775  53.2072929  73.5394232  82.5672272  53.0749143  73.7471924
  83.7406188  53.9867148  74.0364175  87.2623181  50.7499810  66.8238364
  87.1422807  51.1956861  67.6623845  86.5675770  51.0985128  66.2651903
  80.8530586  52.8506202  74.3738021  80.9822967  53.1040681  75.2877433
  80.1728038  53.4433910  74.0542677  85.0230074  63.5203452  70.4728496
  84.9454103  64.4711277  70.5516976  84.4191717  63.1749325  71.1303422
  87.5147303  50.6931317  83.1289863  86.7380637  51.2525238  83.1192727
  88.1537866  51.1788100  83.6504733  95.3068084  47.4758110  76.9632839
  94.6642464  47.7690643  76.3172634  94.8023012  47.3611031  77.7686036
  92.9608248  51.2221283  67.6518698  93.8726104  51.4548670  67.4766396
  92.4517895  51.8058328  67.0893777  85.7693676  53.5016771  82.6907830
  86.5108360  54.0401815  82.4142653  85.0630661  54.1283060  82.8479381
  91.2449015  55.6445911  81.2879991  91.6532371  55.2028322  80.5434623
  90.5226277  55.0698539  81.5414184  87.5980085  50.5818518  78.6613548
  88.4441281  51.0057932  78.8048197  87.5378723  49.9252142  79.3552111
  91.5677830  56.2047102  75.0432280  90.9386692  56.3692816  74.3408348
  91.1803492  56.6188711  75.8143244  90.7479531  48.2422886  80.3194722
  90.5040463  48.9964947  79.7828997  91.0239461  48.6208234  81.1541969
  92.7017993  54.7861499  78.9971987  92.9134889  55.4293259  78.3206368
  92.6547742  53.9523815  78.5293917  90.3044222  47.3979319  75.9008559
  89.4428701  47.6960573  76.1925297  90.3306657  47.6149718  74.9689592
  87.1205792  55.9421510  72.3082365  87.5844137  56.2209213  71.5186988
  86.8562590  55.0404955  72.1255456  84.0129873  55.4892992  75.2462128
  84.5831230  55.9180260  74.6079613  84.6037985  55.2075576  75.9446314
  86.0574678  52.0644662  69.1171930  86.7598721  52.5165706  69.5845857
  85.7255306  51.4228481  69.7451823  84.5055039  50.6556419  83.4923140
  83.8753700  51.3372700  83.7258536  84.3991127  50.5439501  82.5476278
  79.8000012  50.3228215  74.4189064  79.0099066  50.5785744  73.9429174
  80.2911259  51.1376553  74.5241104  93.8163821  57.6633454  77.1694345
  94.6381265  57.2613641  76.8877026  93.8126224  57.5601688  78.1210460
  81.7514757  50.6872794  71.3772540  80.9545920  50.7991489  71.8956036
  81.5240349  51.0259447  70.5113431  87.5820425  57.2117498  79.3255055
  87.6464857  57.6737905  80.1613227  86.8731349  56.5814862  79.4537365
  78.0837715  50.5758705  76.8504055  78.3345753  51.4605715  77.1161630
  78.6197263  50.3963307  76.0779146 101.9069814  54.0072203  73.5179316
 101.1533523  53.4379601  73.3623320 102.0417356  53.9734867  74.4649951
  87.2968442  58.8785605  69.1934035  87.1614117  59.7237141  69.6218883
  87.8378255  59.0804883  68.4299969  83.7835782  44.9577185  85.8548391
  83.3902728  44.4043383  86.5296035  84.6001922  45.2687763  86.2454908
  82.5592725  59.5126799  71.8484714  82.7359353  60.4344764  71.6605698
  83.3549558  59.1985219  72.2779093  86.7003743  46.3735064  83.4468647
  87.4413456  46.9742217  83.3673110  86.9321666  45.6312702  82.8886690
  81.8445081  51.5591431  81.7246877  81.7298596  50.6576688  82.0253976
  80.9889599  51.8055128  81.3731693  88.9236919  59.5009172  83.3234377
  88.4800773  58.7145550  83.0055282  89.5854132  59.6888322  82.6578268
  83.6824040  61.0304973  77.8495056  84.2331465  60.9022036  77.0772050
  82.8435516  61.3299862  77.4989949  91.0218157  59.7811971  81.3515779
  91.0036632  60.6020852  80.8596048  91.9438077  59.6566047  81.5765920
  87.4791211  57.2956101  82.1939287  88.0119548  56.5344389  81.9638595
  86.9505292  57.0029753  82.9363442  90.6460906  42.4016167  77.7232929
  90.3025175  43.2917809  77.6472039  91.0139869  42.2117825  76.8602514
  90.6111189  52.3924778  66.2305364  90.0957812  53.1629383  66.4693751
  90.3388497  51.7189914  66.8538425  88.1958300  47.2374479  71.2890602
  87.3399896  46.8481329  71.1096241  88.6085252  47.3166440  70.4290388
  89.7257446  44.7720822  75.6882162  89.2222242  44.7350957  74.8749967
  90.0188053  45.6813565  75.7478819  85.9700332  44.8559552  74.6948344
  86.8353329  44.6602360  74.3354233  86.0377841  44.6269904  75.6217701
  90.3997492  50.2651870  68.0565145  90.0947627  50.5798019  68.9075288
  91.3527934  50.3433290  68.0992478  88.8443924  56.4242093  69.7058099
  88.3165285  55.6894853  69.3931337  88.3431426  57.2016770  69.4598067
  83.5762651  47.0861760  72.0664711  84.1506403  46.8636941  71.3337904
  84.1633634  47.1550454  72.8193312  92.6342229  52.9735487  72.8729087
  93.1474110  53.6065478  73.3750797  93.2843452  52.3736682  72.5072447
  83.9032238  49.1166221  66.0860596  83.0669551  49.4540907  66.4069871
  83.7637008  48.9815201  65.1487733  85.8785319  43.9603009  70.7939780
  85.2249731  43.6452026  70.1696395  85.8365793  43.3378749  71.5199603
  86.9896524  54.2422304  62.7093072  86.0823586  54.0111557  62.9084221
  87.4867556  53.4459923  62.8967054  89.8964603  62.9519811  65.6289758
  89.2226302  63.2551508  66.2374716  90.2830425  63.7548891  65.2795215
  89.1123059  50.4484942  75.1187428  88.1945621  50.6699889  74.9609116
  89.5283203  50.5231253  74.2599135  89.8958107  51.8476358  70.2490108
  90.6429926  52.3597755  69.9397230  90.1649697  51.5260411  71.1094502
  88.1684757  54.3434899  67.2317062  87.2595977  54.0593931  67.3289532
  88.1979841  54.7633977  66.3720369  93.4004025  57.9541488  71.0008230
  92.9466352  57.1132398  71.0573420  92.7697992  58.5902886  71.3383010
  92.3436944  48.8833474  72.2308897  91.6059701  48.3710860  72.5619140
  92.5963718  48.4433856  71.4192174  91.8436964  59.7917985  71.9358048
  92.1359938  60.3523042  71.2170414  92.3535585  60.0846546  72.6911207
  92.4448572  41.6609726  72.8250667  92.7507448  40.8007089  72.5376582
  93.1701177  42.2527346  72.6249660  78.7372928  52.0640413  71.2132264
  78.5397328  51.4709773  70.4883331  78.1819592  51.7592623  71.9308203
  86.7169651  51.9563519  73.3326858  86.7718261  51.0037356  73.2569334
  85.9060853  52.1122958  73.8168156  87.8660845  55.8843642  64.5705141
  87.4280275  55.1679501  64.1110778  88.6071286  56.1119757  64.0090232
  84.6562011  50.5740579  71.0917236  83.8429877  50.8734749  71.4982429
  85.1521006  50.1796268  71.8091719  86.8070589  60.5698336  73.0251501
  86.7646768  60.7959182  72.0960033  87.7233288  60.3361710  73.1737302
  90.2536223  51.0382403  79.9232130  90.6085611  51.2653876  80.7826596
  90.9008354  51.3700780  79.3009386  95.9833960  54.1600839  70.6281459
  95.8451859  54.3502435  69.7002649  95.6270179  54.9220222  71.0849511
  84.1476086  48.1458934  76.7078471  84.7875465  48.0047693  76.0101435
  83.3153617  47.8593448  76.3317073  96.0103340  56.2277366  75.6392731
  96.4439846  56.1352655  76.4875785  96.7234920  56.2034867  75.0012747
  84.9236390  57.4461365  72.8213464  85.7176989  56.9511685  72.6196039
  84.2128082  56.9179228  72.4581169  89.7431234  59.8279460  77.1725832
  89.7968257  60.3970397  77.9403547  88.8746016  59.9981345  76.8079869
  81.2319153  51.5904447  68.8973217  80.3016742  51.5288902  69.1143179
  81.3276625  51.0680399  68.1009858  81.1504703  48.1159259  71.4851458
  81.4111520  49.0304593  71.3760619  81.9721875  47.6483702  71.6348071
  82.6229628  49.5297017  78.6550283  83.2952681  49.3214379  78.0062932
  81.7959414  49.3319103  78.2155515  96.8718889  56.2701067  78.1725616
  97.0654779  57.1746877  78.4184891  96.7719507  55.8108486  79.0064201
  88.5255200  46.1558957  80.6715944  87.8783115  46.8548907  80.5780420
  89.2956215  46.5895101  81.0392192  91.9333998  56.4207810  83.7466497
  91.7819504  56.1918361  82.8296581  91.9238677  57.3778411  83.7597842
  88.7019334  53.9939722  78.7312763  89.6311394  54.1450882  78.5581731
  88.2810364  54.0823743  77.8761410  87.5007666  58.0190387  76.5011301
  87.3618752  57.6509171  77.3737239  86.7122262  58.5338026  76.3295259
  88.0955818  63.1199483  67.8436838  88.2707574  62.6487526  68.6582460
  87.4088606  63.7465249  68.0718098  89.0512881  57.3971989  73.8900139
  88.7162714  57.3572759  74.7857789  88.5516827  56.7316705  73.4170549
  83.0257125  52.8039620  79.4152720  82.8876923  52.0719858  80.0164259
  83.9362049  52.7148520  79.1336908  91.9872073  54.7428024  64.1637198
  91.3701243  54.0174852  64.0670251  91.5188561  55.5037384  63.8204273
  85.6539426  52.5159579  78.9036400  86.3639044  51.8752771  78.8623018
  85.6108734  52.7672474  79.8262580  93.6426204  59.4526932  81.8242979
  93.5838751  58.7686152  81.1573562  94.0445723  60.1945922  81.3723605
  84.3668360  49.5024797  80.7232039  83.8305717  49.0515535  81.3753635
  83.7785068  49.6370706  79.9802503  83.7770619  48.9613448  63.2858503
  82.9000085  48.8402249  62.9220749  84.2528372  48.1699526  63.0337391
  93.6443612  57.4166516  80.0556958  92.7570390  57.0792438  80.1783357
  94.2142163  56.6849547  80.2925724  80.1007481  48.6380804  77.8085034
  80.0165670  48.0306474  77.0735443  79.2790187  49.1289823  77.8094530
  87.1744765  62.0767968  77.0218202  87.1014937  62.8822940  77.5337506
  86.7322158  62.2759934  76.1966223  86.9634545  61.3139739  70.5321023
  86.1802067  61.8561419  70.6259248  87.6627290  61.8313718  70.9315264
  90.2731195  47.1234368  73.1755229  90.7699894  46.3704330  72.8556299
  89.5018176  47.1598685  72.6098438  98.1260952  52.8274733  74.8173520
  98.1150829  53.7099449  74.4467453  97.2578332  52.4746284  74.6228057
  89.6343449  61.9754803  79.1776360  90.3471421  62.6102267  79.1052262
  89.1433477  62.0718669  78.3616362  86.8566164  49.2651751  72.9026913
  86.4863951  48.7122791  73.5907819  87.3525256  48.6609884  72.3501913
  84.6855362  59.7249246  79.9981931  85.3864822  60.3585729  80.1511325
  84.2150477  60.0663978  79.2377570  92.8109758  58.0667196  68.2829838
  93.0869602  57.9523790  69.1923712  91.9414257  57.6684681  68.2442011
  92.7150190  44.0903961  75.3234587  91.8013269  44.3208188  75.4916794
  93.1443291  44.1742406  76.1748620  92.4856648  52.2793853  77.8234481
  91.8328098  52.5269761  77.1686934  92.8637028  51.4657992  77.4896959
  89.4463822  62.3153547  71.9262652  89.6286217  61.4975203  72.3890404
  90.2696808  62.5321239  71.4887542  89.7805988  61.2421732  69.1877700
  90.3093754  60.7314186  68.5747862  90.0434207  60.9264262  70.0523233
  88.5344221  53.0213664  84.3100519  87.8584858  52.9207794  84.9802894
  89.3571855  52.8652878  84.7736516  80.2823080  59.2585601  76.9313034
  80.8676517  58.5129289  77.0640938  80.0847919  59.5689558  77.8149698
  83.1361735  62.2936848  71.9475476  82.4672111  62.7782976  71.4639516
  82.9974605  62.5406069  72.8618855  74.8740735  51.8291201  75.6517477
  74.9124834  51.2954792  76.4454595  74.3681028  51.3026407  75.0328454
  87.2767004  64.3280592  78.5458135  87.8285312  64.4912213  79.3107220
  87.6173198  64.9185030  77.8738159  82.2531497  46.6755742  79.1480019
  82.3172824  47.5370573  78.7357417  82.1898618  46.0629743  78.4152378
  81.7283770  48.7478874  82.7953054  82.3555809  48.3655952  83.4090578
  80.8711689  48.5293076  83.1608746  92.1277878  59.1541849  84.4006789
  92.6717782  59.7671808  83.9061744  91.5464723  59.7121428  84.9173802
  78.5049313  50.5555303  68.7271408  78.8002754  49.6465982  68.6738462
  77.6037348  50.5343043  68.4052411  90.4135391  62.2762567  75.5321817
  90.2886531  61.4752307  75.0232762  91.0714482  62.7708761  75.0435787
  82.0343560  48.6311300  74.7098957  81.3130145  49.2447268  74.5706430
  82.8236815  49.1669065  74.6315603  84.8369873  45.9665726  80.9839609
  85.3604275  46.2128023  81.7465918  84.6182206  46.7985761  80.5642746
  80.2337154  48.2369401  68.8510734  79.9049860  47.3566780  68.6685839
  80.5876525  48.1817070  69.7387123  89.4816733  59.8724304  73.3605719
  89.3341695  58.9441011  73.5413289  90.3070227  59.8944394  72.8762794
  83.3478977  48.5242371  69.2186211  83.6875050  49.0528292  68.4964820
  83.7951098  48.8622777  69.9944778  86.0422418  46.9079422  78.6689279
  85.7019238  46.1087235  79.0709959  85.3361424  47.2081132  78.0966112
  86.6938890  43.9928734  77.1216602  87.5164959  43.5189212  76.9995493
  86.9376953  44.7719218  77.6215289  85.3347124  47.0216992  67.4179504
  86.0555487  47.3998245  66.9143221  84.7112429  47.7405869  67.5214482
  84.2177469  50.6847855  74.9308581  84.0722049  50.9988158  75.8232862
  83.7402672  51.3032755  74.3779480  86.0773852  47.6750403  74.9789470
  86.0635420  46.7791496  74.6421768  86.7946280  47.6821066  75.6127756
  87.9299982  48.1087743  77.0242598  87.6717760  49.0304813  77.0226928
  87.3985023  47.7118177  77.7143062  92.8746171  61.2138530  69.8032683
  93.0483049  60.6484952  69.0506536  93.3675062  62.0139425  69.6212173
  78.6923131  53.2253199  77.8696242  78.1476599  54.0013007  78.0016516
  79.5702481  53.5724004  77.7115363  85.4810748  46.5564783  70.2477041
  85.6026659  45.6281429  70.4467928  85.1912790  46.5703469  69.3355356
  88.3501938  44.2419693  73.3843760  88.3723635  44.3059026  72.4295740
  88.7669997  43.4024202  73.5784267  98.7285562  53.9774953  71.4222983
  99.1716708  53.2282278  71.0242106  97.8512073  53.9685089  71.0396715
  93.8621344  60.5305294  66.9029582  94.5572248  61.1511987  67.1216896
  94.2044494  59.6800646  67.1781959  79.4789153  52.3523095  80.7626399
  78.7370889  52.5005731  81.3491029  79.1581897  52.6131361  79.8993148
  87.4232815  61.8939074  80.5606789  87.7319942  61.6488220  81.4329489
  88.2208297  62.0985712  80.0725659  87.4453427  64.0476983  72.7912165
  87.0058418  63.5553362  73.4845022  88.1961544  63.5049951  72.5504241
  79.9245766  60.2388524  72.7936794  80.7503786  59.9392296  72.4135437
  79.5739818  59.4696146  73.2426582  84.8927300  59.5914992  74.8634467
  84.2707309  58.9285697  74.5636695  85.5632166  59.6176124  74.1808115
  78.1254371  58.1574850  73.7525727  77.2886280  57.7297025  73.5709728
  78.0978017  58.3507294  74.6896518  84.9651827  48.0696780  84.4566973
  85.0139983  48.9458903  84.0744743  85.5074341  47.5274173  83.8838616
  95.4506673  58.6137904  83.7368110  94.6602216  58.5962042  83.1972610
  95.2140027  59.1526197  84.4917147  95.5704548  55.4630370  81.0500839
  95.6202553  55.2980377  81.9916362  95.4618471  54.5957629  80.6598720
  84.4540806  58.1418916  68.3392928  84.6028927  58.8254380  67.6859600
  85.2607250  58.1224006  68.8542383  92.8608310  51.4461298  82.3660146
  93.7618173  51.3067763  82.0744143  92.9356285  51.6115753  83.3058323
  87.1951116  48.8228153  81.2113332  86.3254425  49.1161719  80.9395920
  87.4310596  49.4068598  81.9320595  97.0722745  57.8827311  81.2942860
  96.7807553  58.2457292  82.1306321  96.4594876  57.1694320  81.1156192
  98.2718427  55.4480191  73.8145431  99.1065318  55.8869995  73.9782991
  98.4077556  54.9718844  72.9953676  95.3209933  53.0059926  79.7622918
  95.7964054  53.1987572  78.9541770  94.3975498  53.0619112  79.5166302
  82.2093439  54.1684093  69.3453997  81.9639481  53.2646423  69.5434207
  82.3789354  54.1701244  68.4033475  89.8990149  45.0407770  78.7278752
  90.4172093  45.7768797  78.4025241  89.5445282  45.3471763  79.5625511
  81.4789087  49.9012451  66.8440158  80.7858332  49.9756806  66.1880194
  81.2340839  49.1372794  67.3661675  90.1502744  41.4608052  74.2479649
  90.4304497  40.7931241  74.8740075  90.9353350  41.6537148  73.7354313
  87.9536212  60.6367046  65.8104675  87.3810179  61.2557233  65.3575147
  88.5269006  61.1866408  66.3444597  94.0211602  49.8825686  77.9951224
  94.9729025  49.9823784  78.0163448  93.8515052  49.0903955  78.5049308
  92.0425981  46.9681269  78.1810625  91.4475913  47.2486282  77.4857113
  91.7575678  47.4575170  78.9527366  91.1733472  60.9204196  66.9413257
  92.1064145  60.8549758  67.1446133  91.0856685  61.7560463  66.4827790
  93.8021488  60.2370067  63.9017205  93.7235120  59.9029930  64.7952963
  94.6231155  60.7291834  63.9008677  96.4999680  53.1031806  77.1093524
  96.4676000  52.1647807  77.2953207  97.1100303  53.1815843  76.3759348
  88.3383010  51.9727859  63.1520728  89.2842115  51.8434067  63.2209146
  87.9597255  51.2342521  63.6290156  96.6494168  49.8942849  77.1551807
  96.1333217  49.1101306  76.9681736  97.5334117  49.5661566  77.3198326
  94.3104895  43.6383865  73.1147619  94.1129716  43.3298953  73.9990951
  94.9204601  44.3645504  73.2445549 102.3176229  54.1647813  76.2499560
 103.0479618  53.9033101  76.8107264 101.7083175  53.4276535  76.2901628
 100.3991527  52.3055675  76.8474012  99.6724690  52.1711640  76.2390503
  99.9838813  52.6132504  77.6530730  88.2221703  56.0245605  84.6121385
  89.1424713  56.2024204  84.8061431  88.1871286  55.0801650  84.4601084
  86.5225928  49.8977835  63.0875613  85.6157383  49.6010948  63.1638326
  86.8001909  49.6007653  62.2209899  77.4403868  51.2184199  73.5374659
  77.1206652  50.3649507  73.2449033  76.8937296  51.4332777  74.2932627
  81.2183776  53.9346640  77.2544166  81.4369785  54.8663747  77.2732200
  81.6309549  53.5754614  78.0398970  88.1387993  44.4414725  69.2419854
  87.3288722  44.0961810  69.6175100  88.8272410  44.1322269  69.8307466
  90.0678542  43.5192772  70.8644151  90.6209580  43.9388225  71.5234174
  90.3048628  42.5928520  70.9067107  86.0911641  49.5079845  86.6446915
  85.9908368  50.4574202  86.5759006  85.8733183  49.1798084  85.7722985
  85.2924712  46.7564770  63.2287592  86.1543876  47.0819669  63.4883409
  85.4775056  45.9696266  62.7160658  77.3092128  54.8387110  75.5067781
  76.6155599  54.4241063  74.9937735  78.0565119  54.8807647  74.9101200
  93.4457349  45.6293297  70.3722815  92.8656018  46.2878101  69.9900867
  93.1793281  44.8070641  69.9610233  91.8960915  45.0298355  72.5744135
  92.3960693  45.1414889  71.7658454  92.5396523  44.7259407  73.2144944
  85.9542911  52.9376984  85.4611976  85.4709993  53.7377344  85.6675865
  86.0403850  52.9484929  84.5079420  79.2228871  54.7705364  73.3833796
  79.1999559  54.8693051  72.4315679  79.5329507  55.6170515  73.7050962
  81.8816248  56.8281519  77.4980410  82.8359502  56.7965461  77.4310342
  81.6828772  56.3672143  78.3130636  82.4715631  55.3982635  80.0651208
  83.2908520  55.8926714  80.0886045  82.7452438  54.4814603  80.0368775
  98.0169322  48.5267527  74.2007443  98.6113812  48.2863263  73.4900751
  98.0895905  47.8074658  74.8280979  80.2366477  62.3701138  74.5150608
  80.1020945  61.6101539  73.9488606  79.8198539  63.0942038  74.0479397
  91.3725440  57.5538062  63.5227183  92.0761290  57.7588064  64.1384839
  90.6488089  58.1214824  63.7876267  92.2023251  53.3047923  69.6429453
  92.1458452  53.7616475  68.8037086  92.7551593  52.5438608  69.4652296
  96.0128056  49.0937655  70.4679573  95.7564991  48.6934291  71.2987781
  95.3880924  49.8081449  70.3429712 100.3240394  51.8333728  72.9750864
  99.7639952  51.9026918  73.7482426  99.7183898  51.6574713  72.2550361
  83.3935603  63.2670455  74.7269051  83.2767987  64.2115888  74.6247741
  82.5728049  62.9644017  75.1154850  93.2812138  57.9920591  65.5725643
  94.1157742  57.5601790  65.3903118  93.1196481  57.8202605  66.5002538
  77.7250545  49.7320769  80.7643405  78.3709408  49.2219723  81.2530630
  77.5167696  50.4689450  81.3386830  90.2503937  56.8001616  86.2635545
  91.1195097  56.9742269  85.9022180  89.7710688  57.6196033  86.1411275
  86.2454155  43.9960813  66.5167301  86.2332825  44.9402653  66.6735572
  87.1377577  43.8130959  66.2226762  84.4190117  63.9198717  77.9424979
  85.3217364  63.9522328  78.2591474  84.1927487  62.9899168  77.9571315
  86.1743719  62.6729704  74.6035058  85.2239350  62.6731565  74.4899430
  86.4776205  61.9262438  74.0871092  90.0606275  40.5903590  70.7713238
  89.2938671  40.0362077  70.9169920  90.4716980  40.6625459  71.6327389
  82.0648036  46.8788386  84.8618419  82.9279497  46.5225191  85.0721744
  81.4913446  46.5402281  85.5493823 101.9096413  68.5090242  75.6680820
 102.5474823  68.3896990  74.9644160 101.7917256  69.4571086  75.7268772
  98.7186119  68.4617670  75.6042345  98.3804631  68.3458735  74.7162880
  99.5875887  68.0608835  75.5843351  99.2005902  69.6152522  81.5628550
  99.1894543  69.2205320  80.6909054  99.3626541  68.8818595  82.1562322
  92.1237367  71.8104338  74.4323456  92.9158659  71.4695163  74.0169755
  92.3634017  71.9199313  75.3525610 100.1572493  73.9824114  66.9053701
  99.5060473  74.5678195  66.5187714 100.9516856  74.5130309  66.9648738
  94.0828121  71.0713252  67.3040835  94.8558997  70.5242239  67.1653711
  94.4353519  71.9357501  67.5155296  95.9213163  72.3989634  80.5107734
  95.6303029  73.3035265  80.3954401  96.5570148  72.4406161  81.2251804
  96.8469370  69.7766482  77.1009094  97.4432942  69.5522505  76.3866057
  96.9044342  69.0351228  77.7034542  96.4194398  67.2305918  64.9359285
  96.6719919  66.7087439  64.1742748  95.4818957  67.0672063  65.0385969
 101.4637681  66.2341696  72.7434028 102.2500770  65.8161119  72.3924445
 101.7276386  67.1387788  72.9115677 101.6347759  71.6714546  67.4422685
 100.9993592  71.7449173  68.1543590 101.3045165  72.2608145  66.7641764
 106.8646108  66.1716929  73.6467007 107.5971280  65.6016146  73.8804836
 106.1085464  65.7838530  74.0873512  98.4822228  68.5944171  70.8430349
  98.1180435  68.0674792  71.5543271  99.3389344  68.2042640  70.6696835
 104.3871529  59.8838503  78.1061615 104.0554853  60.7533914  77.8822830
 103.7917142  59.5674787  78.7855646 100.8803048  72.0851049  77.5057528
 100.5803771  72.9876088  77.3973335 100.5354108  71.8183233  78.3578681
  94.3315530  68.5364846  73.5394232  93.4066026  68.4041060  73.7471924
  94.5799943  69.3159065  74.0364175 104.2800192  64.6033590  75.1854965
 103.3717069  64.5348998  74.8913726 104.2287788  65.0805534  76.0136791
  98.1016936  66.0791728  66.8238364  97.9816561  66.5248779  67.6623845
  97.4069524  66.4277046  66.2651903  91.6924341  68.1798120  74.3738021
  91.8216722  68.4332599  75.2877433  91.0121792  68.7725828  74.0542677
  95.8623828  78.8495370  70.4728496  95.7847858  79.8003195  70.5516976
  95.2585472  78.5041242  71.1303422  98.3541058  66.0223235  83.1289863
  97.5774392  66.5817155  83.1192727  98.9931621  66.5080018  83.6504733
 106.1461838  62.8050028  76.9632839 105.5036219  63.0982561  76.3172634
 105.6416767  62.6902948  77.7686036 103.8002002  66.5513201  67.6518698
 104.7119858  66.7840588  67.4766396 103.2911649  67.1350245  67.0893777
  96.6087430  68.8308689  82.6907830  97.3502114  69.3693732  82.4142653
  95.9024416  69.4574977  82.8479381 102.0842770  70.9737829  81.2879991
 102.4926126  70.5320239  80.5434623 101.3620031  70.3990456  81.5414184
  98.4373840  65.9110436  78.6613548  99.2835035  66.3349849  78.8048197
  98.3772477  65.2544060  79.3552111 102.4071584  71.5339020  75.0432280
 101.7780447  71.6984734  74.3408348 102.0197246  71.9480629  75.8143244
 106.2860816  72.4693457  72.3976644 105.6011854  72.8492359  71.8473677
 106.3704666  73.0788784  73.1308591 101.5873285  63.5714804  80.3194722
 101.3434217  64.3256865  79.7828997 101.8633216  63.9500152  81.1541969
 103.5411748  70.1153416  78.9971987 103.7528643  70.7585176  78.3206368
 103.4941496  69.2815733  78.5293917 101.1437977  62.7271237  75.9008559
 100.2822456  63.0252491  76.1925297 101.1700412  62.9441636  74.9689592
  97.9599546  71.2713428  72.3082365  98.4237892  71.5501131  71.5186988
  97.6956344  70.3696872  72.1255456  95.3448794  65.9848337  83.4923140
  94.7147454  66.6664618  83.7258536  95.2384882  65.8731418  82.5476278
  90.6393766  65.6520133  74.4189064  89.8492820  65.9077661  73.9429174
  91.1305014  66.4668471  74.5241104 104.6557576  72.9925372  77.1694345
 105.4775020  72.5905559  76.8877026 104.6519979  72.8893606  78.1210460
  92.5908512  66.0164712  71.3772540  91.7939675  66.1283406  71.8956036
  92.3634104  66.3551364  70.5113431  98.4214179  72.5409415  79.3255055
  98.4858612  73.0029822  80.1613227  97.7125103  71.9106780  79.4537365
  88.9231469  65.9050623  76.8504055  89.1739508  66.7897633  77.1161630
  89.4591018  65.7255225  76.0779146 112.7463569  69.3364120  73.5179316
 111.9927277  68.7671518  73.3623320 112.8811110  69.3026785  74.4649951
  98.1362197  74.2077523  69.1934035  98.0007872  75.0529058  69.6218883
  98.6772009  74.4096800  68.4299969  94.6229537  60.2869103  85.8548391
  94.2296482  59.7335301  86.5296035  95.4395677  60.5979681  86.2454908
  91.5891594  71.7252961  69.7661960  92.1016115  72.5196211  69.9167525
  92.2414307  71.0279251  69.6995562  93.3986479  74.8418717  71.8484714
  93.5753107  75.7636682  71.6605698  94.1943313  74.5277136  72.2779093
  97.5397498  61.7026982  83.4468647  98.2807211  62.3034135  83.3673110
  97.7715420  60.9604619  82.8886690  92.6838836  66.8883349  81.7246877
  92.5692351  65.9868606  82.0253976  91.8283353  67.1347046  81.3731693
  99.7630673  74.8301089  83.3234377  99.3194528  74.0437468  83.0055282
 100.4247887  75.0180240  82.6578268 101.8611911  75.1103889  81.3515779
 101.8430387  75.9312770  80.8596048 102.7831831  74.9857964  81.5765920
  98.3184966  72.6248019  82.1939287  98.8513302  71.8636307  81.9638595
  97.7899047  72.3321670  82.9363442 101.4854661  57.7308085  77.7232929
 101.1418930  58.6209726  77.6472039 101.8533623  57.5409742  76.8602514
  89.5540511  70.0541615  70.5421531  90.3915733  70.4638623  70.3255239
  89.7318779  69.1141057  70.5121725 101.4504943  67.7216696  66.2305364
 100.9351567  68.4921300  66.4693751 101.1782252  67.0481832  66.8538425
  99.0352054  62.5666396  71.2890602  98.1793651  62.1773247  71.1096241
  99.4479006  62.6458357  70.4290388 100.5651201  60.1012740  75.6882162
 100.0615996  60.0642875  74.8749967 100.8581808  61.0105482  75.7478819
  96.8094087  60.1851469  74.6948344  97.6747084  59.9894278  74.3354233
  96.8771596  59.9561821  75.6217701 106.4239217  70.4749050  68.1658537
 105.6468660  70.1360210  67.7213700 107.1030698  70.4801673  67.4913503
 101.2391246  65.5943788  68.0565145 100.9341382  65.9089937  68.9075288
 102.1921689  65.6725208  68.0992478  99.6837678  71.7534011  69.7058099
  99.1559040  71.0186771  69.3931337  99.1825181  72.5308687  69.4598067
 104.6630524  69.9483032  74.8225145 104.0054199  70.6382293  74.9105274
 105.4670923  70.3379464  75.1659132 103.4735983  68.3027404  72.8729087
 103.9867865  68.9357396  73.3750797 104.1237207  67.7028600  72.5072447
  96.7179074  59.2894926  70.7939780  96.0643486  58.9743943  70.1696395
  96.6759548  58.6670667  71.5199603  97.8290278  69.5714221  62.7093072
  96.9217340  69.3403475  62.9084221  98.3261310  68.7751841  62.8967054
 100.7358357  78.2811729  65.6289758 100.0620056  78.5843425  66.2374716
 101.1224179  79.0840809  65.2795215  99.9516814  65.7776860  75.1187428
  99.0339375  65.9991807  74.9609116 100.3676958  65.8523170  74.2599135
 100.7351862  67.1768275  70.2490108 101.4823681  67.6889673  69.9397230
 101.0043451  66.8552328  71.1094502  99.0078512  69.6726816  67.2317062
  98.0989731  69.3885849  67.3289532  99.0373596  70.0925895  66.3720369
 104.2397779  73.2833406  71.0008230 103.7860106  72.4424316  71.0573420
 103.6091746  73.9194804  71.3383010 103.1830699  64.2125392  72.2308897
 102.4453456  63.7002778  72.5619140 103.4357472  63.7725773  71.4192174
 102.6830719  75.1209902  71.9358048 102.9753693  75.6814960  71.2170414
 103.1929339  75.4138463  72.6911207 103.2842326  56.9901644  72.8250667
 103.5901203  56.1299007  72.5376582 104.0094931  57.5819264  72.6249660
  89.5766682  67.3932330  71.2132264  89.3791082  66.8001691  70.4883331
  89.0213346  67.0884541  71.9308203  98.7054600  71.2135560  64.5705141
  98.2674030  70.4971419  64.1110778  99.4465041  71.4411675  64.0090232
  95.4955766  65.9032497  71.0917236  94.6823631  66.2026667  71.4982429
  95.9914760  65.5088185  71.8091719  97.6464344  75.8990253  73.0251501
  97.6040523  76.1251100  72.0960033  98.5627043  75.6653628  73.1737302
 101.0929978  66.3674321  79.9232130 101.4479365  66.5945794  80.7826596
 101.7402109  66.6992698  79.3009386 106.8227714  69.4892757  70.6281459
 106.6845613  69.6794353  69.7002649 106.4663933  70.2512140  71.0849511
 106.8497094  71.5569284  75.6392731 107.2833601  71.4644573  76.4875785
 107.5628675  71.5326784  75.0012747  95.7630145  72.7753282  72.8213464
  96.5570743  72.2803603  72.6196039  95.0521837  72.2471146  72.4581169
 100.5824989  75.1571378  77.1725832 100.6362011  75.7262314  77.9403547
  99.7139770  75.3273263  76.8079869  92.0712908  66.9196364  68.8973217
  91.1410496  66.8580820  69.1143179  92.1670380  66.3972317  68.1009858
  91.9898457  63.4451177  71.4851458  92.2505274  64.3596510  71.3760619
  92.8115629  62.9775620  71.6348071  93.4623382  64.8588934  78.6550283
  94.1346436  64.6506296  78.0062932  92.6353169  64.6611020  78.2155515
 107.7112644  71.5992985  78.1725616 107.9048534  72.5038795  78.4184891
 107.6113262  71.1400404  79.0064201  99.3648954  61.4850875  80.6715944
  98.7176869  62.1840825  80.5780420 100.1349970  61.9187019  81.0392192
 102.7727752  71.7499727  83.7466497 102.6213259  71.5210279  82.8296581
 102.7632432  72.7070329  83.7597842  99.5413089  69.3231640  78.7312763
 100.4705149  69.4742800  78.5581731  99.1204119  69.4115661  77.8761410
  98.3401420  73.3482304  76.5011301  98.2012506  72.9801089  77.3737239
  97.5516017  73.8629944  76.3295259  98.9349572  78.4491401  67.8436838
  99.1101328  77.9779444  68.6582460  98.2482360  79.0757167  68.0718098
  99.8906636  72.7263907  73.8900139  99.5556468  72.6864677  74.7857789
  99.3910581  72.0608623  73.4170549  93.8650880  68.1331537  79.4152720
  93.7270678  67.4011776  80.0164259  94.7755803  68.0440437  79.1336908
 102.8265827  70.0719942  64.1637198 102.2094998  69.3466770  64.0670251
 102.3582316  70.8329302  63.8204273  96.4933180  67.8451497  78.9036400
  97.2032799  67.2044689  78.8623018  96.4502488  68.0964391  79.8262580
 104.4819959  74.7818850  81.8242979 104.4232505  74.0978070  81.1573562
 104.8839477  75.5237840  81.3723605  95.2062114  64.8316714  80.7232039
  94.6699471  64.3807453  81.3753635  94.6178823  64.9662623  79.9802503
  93.5010658  81.5980764  74.6176698  93.7407256  82.2299288  75.2955716
  92.6579854  81.2468804  74.9042057  94.6164373  64.2905366  63.2858503
  93.7393840  64.1694167  62.9220749  95.0922126  63.4991444  63.0337391
 104.4837366  72.7458434  80.0556958 103.5964145  72.4084356  80.1783357
 105.0535917  72.0141465  80.2925724  86.1366513  69.0782526  73.3800010
  86.8237553  68.7644256  72.7921025  85.9814642  69.9823890  73.1067261
  90.9401235  63.9672722  77.8085034  90.8559424  63.3598392  77.0735443
  90.1183942  64.4581740  77.8094530  98.0138520  77.4059886  77.0218202
  97.9408691  78.2114858  77.5337506  97.5715913  77.6051852  76.1966223
  97.8028299  76.6431656  70.5321023  97.0195821  77.1853336  70.6259248
  98.5021044  77.1605636  70.9315264 101.1124949  62.4526286  73.1755229
 101.6093649  61.6996248  72.8556299 100.3411931  62.4890602  72.6098438
 108.9654707  68.1566651  74.8173520 108.9544583  69.0391367  74.4467453
 108.0972086  67.8038202  74.6228057 100.4737203  77.3046720  79.1776360
 101.1865175  77.9394185  79.1052262  99.9827232  77.4010586  78.3616362
 102.1954730  71.2097973  70.7493652 101.2611009  71.3299435  70.5798356
 102.3731399  70.3070440  70.4853662 105.5827281  67.0515292  71.2843686
 106.0487734  67.8843284  71.2103989 106.0334782  66.5860274  71.9888945
  95.5249117  75.0541164  79.9981931  96.2258576  75.6877647  80.1511325
  95.0544232  75.3955895  79.2377570 103.6503513  73.3959113  68.2829838
 103.9263356  73.2815708  69.1923712 102.7808011  72.9976598  68.2442011
 103.5543944  59.4195879  75.3234587 102.6407024  59.6500106  75.4916794
 103.9837046  59.5034323  76.1748620 103.3250403  67.6085771  77.8234481
 102.6721853  67.8561679  77.1686934 103.7030783  66.7949909  77.4896959
 100.2857577  77.6445464  71.9262652 100.4679971  76.8267120  72.3890404
 101.1090563  77.8613157  71.4887542 100.6199742  76.5713649  69.1877700
 101.1487508  76.0606104  68.5747862 100.8827962  76.2556180  70.0523233
  99.3737976  68.3505582  84.3100519  98.6978613  68.2499711  84.9802894
 100.1965610  68.1944796  84.7736516  91.1216835  74.5877519  76.9313034
  91.7070272  73.8421207  77.0640938  90.9241673  74.8981475  77.8149698
  93.9755490  77.6228766  71.9475476  93.3065865  78.1074894  71.4639516
  93.8368360  77.8697987  72.8618855  85.7134489  67.1583119  75.6517477
  85.7518589  66.6246710  76.4454595  85.2074782  66.6318324  75.0328454
  98.1160759  79.6572510  78.5458135  98.6679067  79.8204131  79.3107220
  98.4566952  80.2476947  77.8738159  92.5677524  64.0770792  82.7953054
  93.1949563  63.6947869  83.4090578  91.7105443  63.8584994  83.1608746
 102.9671633  74.4833767  84.4006789 103.5111537  75.0963725  83.9061744
 102.3858478  75.0413346  84.9173802  89.3443067  65.8847221  68.7271408
  89.6396508  64.9757899  68.6738462  88.4431103  65.8634961  68.4052411
 101.2529146  77.6054485  75.5321817 101.1280285  76.8044225  75.0232762
 101.9108237  78.1000679  75.0435787  92.8737314  63.9603218  74.7098957
  92.1523900  64.5739185  74.5706430  93.6630570  64.4960982  74.6315603
 103.3164054  75.4063505  77.1601367 102.3694390  75.2868856  77.0879694
 103.6646827  74.5186003  77.2427628  95.6763628  61.2957644  80.9839609
  96.1998029  61.5419941  81.7465918  95.4575961  62.1277679  80.5642746
  91.0730909  63.5661319  68.8510734  90.7443615  62.6858698  68.6685839
  91.4270279  63.5108987  69.7387123 100.3210488  75.2016221  73.3605719
 100.1735450  74.2732929  73.5413289 101.1463981  75.2236312  72.8762794
  94.1872732  63.8534289  69.2186211  94.5268804  64.3820210  68.4964820
  94.6344852  64.1914695  69.9944778 103.9244609  76.0244780  74.4470592
 104.8491157  75.8187642  74.3095043 103.7559913  75.7761181  75.3559933
  96.8816173  62.2371339  78.6689279  96.5412993  61.4379152  79.0709959
  96.1755179  62.5373050  78.0966112  97.5332644  59.3220652  77.1216602
  98.3558714  58.8481130  76.9995493  97.7770708  60.1011135  77.6215289
  96.1740879  62.3508910  67.4179504  96.8949241  62.7290163  66.9143221
  95.5506183  63.0697787  67.5214482 100.3172002  63.0554059  68.3537836
 100.5335616  63.9378697  68.0526664  99.8366069  62.6640272  67.6243478
  96.9167606  63.0042320  74.9789470  96.9029175  62.1083414  74.6421768
  97.6340034  63.0112984  75.6127756  98.7693737  63.4379661  77.0242598
  98.5111515  64.3596731  77.0226928  98.2378777  63.0410095  77.7143062
 103.7139926  76.5430448  69.8032683 103.8876803  75.9776870  69.0506536
 104.2068817  77.3431343  69.6212173  89.5316885  68.5545117  77.8696242
  88.9870353  69.3304925  78.0016516  90.4096235  68.9015921  77.7115363
  96.3204502  61.8856701  70.2477041  96.4420413  60.9573347  70.4467928
  96.0306544  61.8995387  69.3355356  99.1895692  59.5711611  73.3843760
  99.2117389  59.6350944  72.4295740  99.6063751  58.7316120  73.5784267
 109.5679317  69.3066871  71.4222983 110.0110463  68.5574196  71.0242106
 108.6905827  69.2977007  71.0396715 104.7015098  75.8597212  66.9029582
 105.3966003  76.4803905  67.1216896 105.0438248  75.0092563  67.1781959
  90.3182907  67.6815013  80.7626399  89.5764643  67.8297648  81.3491029
  89.9975652  67.9423279  79.8993148 106.6006521  73.3096918  68.4316912
 107.1257845  73.6484190  67.7066232 106.5128874  72.3743933  68.2480047
  98.2626570  77.2230991  80.5606789  98.5713696  76.9780138  81.4329489
  99.0602052  77.4277630  80.0725659  98.2847182  79.3768901  72.7912165
  97.8452172  78.8845280  73.4845022  99.0355299  78.8341869  72.5504241
  90.7639521  75.5680442  72.7936794  91.5897541  75.2684214  72.4135437
  90.4133573  74.7988064  73.2426582  88.9648126  73.4866768  73.7525727
  88.1280034  73.0588943  73.5709728  88.9371771  73.6799211  74.6896518
  95.8045582  63.3988698  84.4566973  95.8533737  64.2750821  84.0744743
  96.3468096  62.8566091  83.8838616 106.2900427  73.9429821  83.7368110
 105.4995971  73.9253960  83.1972610 106.0533782  74.4818115  84.4917147
 106.4098302  70.7922288  81.0500839 106.4596307  70.6272295  81.9916362
 106.3012226  69.9249547  80.6598720 103.7002065  66.7753216  82.3660146
 104.6011927  66.6359680  82.0744143 103.7750039  66.9407670  83.3058323
  98.0344870  64.1520070  81.2113332  97.1648179  64.4453636  80.9395920
  98.2704350  64.7360515  81.9320595 107.9116499  73.2119229  81.2942860
 107.6201307  73.5749210  82.1306321 107.2988630  72.4986237  81.1156192
 109.1112181  70.7772109  73.8145431 109.9459073  71.2161913  73.9782991
 109.2471310  70.3010762  72.9953676 106.1603687  68.3351844  79.7622918
 106.6357809  68.5279490  78.9541770 105.2369253  68.3911030  79.5166302
  93.0487194  69.4976011  69.3453997  92.8033236  68.5938341  69.5434207
  93.2183108  69.4993161  68.4033475 100.7383904  60.3699687  78.7278752
 101.2565848  61.1060714  78.4025241 100.3839037  60.6763681  79.5625511
  92.3182841  65.2304368  66.8440158  91.6252086  65.3048723  66.1880194
  92.0734593  64.4664712  67.3661675 100.9896498  56.7899970  74.2479649
 101.2698252  56.1223159  74.8740075 101.7747105  56.9829065  73.7354313
  98.7929966  75.9658964  65.8104675  98.2203934  76.5849151  65.3575147
  99.3662760  76.5158325  66.3444597 104.8605356  65.2117604  77.9951224
 105.8122779  65.3115701  78.0163448 104.6908807  64.4195872  78.5049308
 102.8819736  62.2973187  78.1810625 102.2869668  62.5778200  77.4857113
 102.5969433  62.7867088  78.9527366 102.0127226  76.2496114  66.9413257
 102.9457899  76.1841676  67.1446133 101.9250439  77.0852381  66.4827790
 104.6415243  75.5661984  63.9017205 104.5628874  75.2321848  64.7952963
 105.4624910  76.0583752  63.9008677 107.3393434  68.4323723  77.1093524
 107.3069754  67.4939724  77.2953207 107.9494058  68.5107760  76.3759348
 107.4887923  65.2234767  77.1551807 106.9726971  64.4393224  76.9681736
 108.3727871  64.8953484  77.3198326 105.1498650  58.9675782  73.1147619
 104.9523471  58.6590871  73.9990951 105.7598355  59.6937421  73.2445549
 113.1569984  69.4939730  76.2499560 113.8873372  69.2325018  76.8107264
 112.5476929  68.7568452  76.2901628 111.2385281  67.6347593  76.8474012
 110.5118445  67.5003558  76.2390503 110.8232568  67.9424422  77.6530730
  99.0615458  71.3537523  84.6121385  99.9818467  71.5316122  84.8061431
  99.0265041  70.4093568  84.4601084  88.2797623  66.5476116  73.5374659
  87.9600407  65.6941424  73.2449033  87.7331051  66.7624694  74.2932627
  92.0577530  69.2638557  77.2544166  92.2763540  70.1955665  77.2732200
  92.4703304  68.9046532  78.0398970 100.9072296  58.8484689  70.8644151
 101.4603335  59.2680143  71.5234174 101.1442383  57.9220437  70.9067107
  96.9305395  64.8371763  86.6446915  96.8302122  65.7866120  86.5759006
  96.7126937  64.5090002  85.7722985  88.1485883  70.1679028  75.5067781
  87.4549354  69.7532981  74.9937735  88.8958874  70.2099564  74.9101200
 104.2851103  60.9585215  70.3722815 103.7049772  61.6170019  69.9900867
 104.0187036  60.1362559  69.9610233 102.7354670  60.3590272  72.5744135
 103.2354448  60.4706807  71.7658454 103.3790278  60.0551325  73.2144944
  96.7936665  68.2668902  85.4611976  96.3103747  69.0669262  85.6675865
  96.8797604  68.2776847  84.5079420  90.0622625  70.0997282  73.3833796
  90.0393313  70.1984969  72.4315679  90.3723262  70.9462432  73.7050962
  92.7210003  72.1573437  77.4980410  93.6753256  72.1257379  77.4310342
  92.5222527  71.6964060  78.3130636  93.3109385  70.7274553  80.0651208
  94.1302274  71.2218631  80.0886045  93.5846193  69.8106521  80.0368775
 103.0675981  63.1185305  69.4279163 102.1801836  63.4034956  69.2099358
 103.4829970  62.9579068  68.5806440 106.4190517  63.1431826  73.1433503
 107.1950908  63.6328278  73.4158119 105.6938652  63.5689880  73.6005372
 108.8563076  63.8559445  74.2007443 109.4507567  63.6155181  73.4900751
 108.9289660  63.1366576  74.8280979  91.0760232  77.6993056  74.5150608
  90.9414700  76.9393457  73.9488606  90.6592294  78.4233956  74.0479397
 102.2119195  72.8829980  63.5227183 102.9155045  73.0879982  64.1384839
 101.4881844  73.4506741  63.7876267 103.0417005  68.6339841  69.6429453
 102.9852206  69.0908392  68.8037086 103.5945347  67.8730525  69.4652296
 106.8521811  64.4229573  70.4679573 106.5958745  64.0226208  71.2987781
 106.2274679  65.1373367  70.3429712 111.1634149  67.1625646  72.9750864
 110.6033707  67.2318835  73.7482426 110.5577652  66.9866631  72.2550361
 104.1205892  73.3212509  65.5725643 104.9551496  72.8893707  65.3903118
 103.9590235  73.1494522  66.5002538 103.7751784  69.8244622  66.9381983
 103.7200588  69.6588894  65.9970427 103.1497840  70.5320655  67.0944172
  88.5644299  65.0612686  80.7643405  89.2103163  64.5511640  81.2530630
  88.3561450  65.7981368  81.3386830 101.0897692  72.1293534  86.2635545
 101.9588851  72.3034186  85.9022180 100.6104443  72.9487951  86.1411275
  95.2583872  79.2490635  77.9424979  96.1611118  79.2814245  78.2591474
  95.0321242  78.3191086  77.9571315  97.0137474  78.0021622  74.6035058
  96.0633105  78.0023483  74.4899430  97.3169960  77.2554356  74.0871092
 100.9000029  55.9195508  70.7713238 100.1332425  55.3653994  70.9169920
 101.3110734  55.9917377  71.6327389 112.7490167  83.8382160  75.6680820
 113.3868577  83.7188907  74.9644160 112.6311010  84.7863004  75.7268772
 109.5579874  83.7909588  75.6042345 109.2198385  83.6750653  74.7162880
 110.4269642  83.3900753  75.5843351 105.4166689  85.6445064  71.5939236
 104.8531554  85.5535001  70.8255523 105.3019084  84.8244969  72.0741728
 110.0399657  84.9444440  81.5628550 110.0288297  84.5497238  80.6909054
 110.2020296  84.2110512  82.1562322 102.9631121  87.1396256  74.4323456
 103.7552413  86.7987081  74.0169755 103.2027771  87.2491231  75.3525610
 110.9966248  89.3116032  66.9053701 110.3454228  89.8970113  66.5187714
 111.7910611  89.8422227  66.9648738 104.9221875  86.4005169  67.3040835
 105.6952751  85.8534156  67.1653711 105.2747274  87.2649419  67.5155296
 106.7606918  87.7281552  80.5107734 106.4696784  88.6327182  80.3954401
 107.3963902  87.7698079  81.2251804 107.6863125  85.1058400  77.1009094
 108.2826697  84.8814422  76.3866057 107.7438096  84.3643146  77.7034542
 107.2588153  82.5597835  64.9359285 107.5113674  82.0379357  64.1742748
 106.3212712  82.3963981  65.0385969 112.3031436  81.5633614  72.7434028
 113.0894525  81.1453037  72.3924445 112.5670140  82.4679706  72.9115677
 112.4741513  87.0006464  67.4422685 111.8387346  87.0741091  68.1543590
 112.1438919  87.5900063  66.7641764 117.7039863  81.5008847  73.6467007
 118.4365035  80.9308064  73.8804836 116.9479219  81.1130447  74.0873512
 106.9784442  84.4625941  67.1383660 106.8620700  83.7870845  67.8064744
 107.0886702  83.9758315  66.3215813 109.3215983  83.9236088  70.8430349
 108.9574190  83.3966709  71.5543271 110.1783098  83.5334558  70.6696835
 115.2265283  75.2130421  78.1061615 114.8948608  76.0825832  77.8822830
 114.6310897  74.8966705  78.7855646 108.9621470  78.9525988  65.8391698
 109.1295872  79.8206225  66.2062169 108.7718639  79.1153270  64.9152987
 111.7196803  87.4142967  77.5057528 111.4197526  88.3168006  77.3973335
 111.3747862  87.1475150  78.3578681 105.1709284  83.8656764  73.5394232
 104.2459781  83.7332978  73.7471924 105.4193697  84.6450983  74.0364175
 115.1193947  79.9325507  75.1854965 114.2110824  79.8640916  74.8913726
 115.0681542  80.4097452  76.0136791 108.9410690  81.4083646  66.8238364
 108.8210316  81.8540696  67.6623845 108.2463279  81.7568963  66.2651903
 102.5318095  83.5090037  74.3738021 102.6610476  83.7624516  75.2877433
 101.8515547  84.1017745  74.0542677 106.7017583  94.1787287  70.4728496
 106.6241612  95.1295112  70.5516976 106.0979226  93.8333160  71.1303422
 109.1934812  81.3515153  83.1289863 108.4168146  81.9109073  83.1192727
 109.8325375  81.8371936  83.6504733 116.9855593  78.1341946  76.9632839
 116.3429973  78.4274479  76.3172634 116.4810521  78.0194866  77.7686036
 114.6395757  81.8805119  67.6518698 115.5513613  82.1132506  67.4766396
 114.1305404  82.4642163  67.0893777 107.4481185  84.1600606  82.6907830
 108.1895869  84.6985650  82.4142653 106.7418170  84.7866895  82.8479381
 112.9236524  86.3029747  81.2879991 113.3319880  85.8612157  80.5434623
 112.2013786  85.7282374  81.5414184 109.2767594  81.2402353  78.6613548
 110.1228789  81.6641767  78.8048197 109.2166232  80.5835978  79.3552111
 113.2465339  86.8630937  75.0432280 112.6174201  87.0276651  74.3408348
 112.8591001  87.2772547  75.8143244 117.1254571  87.7985375  72.3976644
 116.4405609  88.1784276  71.8473677 117.2098420  88.4080702  73.1308591
 112.4267040  78.9006722  80.3194722 112.1827972  79.6548782  79.7828997
 112.7026970  79.2792069  81.1541969 114.3805502  85.4445334  78.9971987
 114.5922398  86.0877094  78.3206368 114.3335251  84.6107651  78.5293917
 111.9831731  78.0563155  75.9008559 111.1216210  78.3544408  76.1925297
 112.0094166  78.2733554  74.9689592 108.7993301  86.6005345  72.3082365
 109.2631646  86.8793048  71.5186988 108.5350099  85.6988790  72.1255456
 105.6917382  86.1476827  75.2462128 106.2618739  86.5764095  74.6079613
 106.2825494  85.8659412  75.9446314 107.7362187  82.7228498  69.1171930
 108.4386230  83.1749541  69.5845857 107.4042815  82.0812317  69.7451823
 106.1842548  81.3140254  83.4923140 105.5541209  81.9956535  83.7258536
 106.0778636  81.2023336  82.5476278 101.4787521  80.9812050  74.4189064
 100.6886575  81.2369579  73.9429174 101.9698768  81.7960388  74.5241104
 115.4951330  88.3217290  77.1694345 116.3168774  87.9197477  76.8877026
 115.4913733  88.2185524  78.1210460 103.4302266  81.3456630  71.3772540
 102.6333429  81.4575324  71.8956036 103.2027858  81.6843282  70.5113431
 109.2607934  87.8701333  79.3255055 109.3252366  88.3321740  80.1613227
 108.5518858  87.2398698  79.4537365  99.7625224  81.2342541  76.8504055
 100.0133262  82.1189551  77.1161630 100.2984772  81.0547142  76.0779146
 108.9755951  89.5369440  69.1934035 108.8401626  90.3820976  69.6218883
 109.5165764  89.7388718  68.4299969 105.4623291  75.6161020  85.8548391
 105.0690237  75.0627219  86.5296035 106.2789431  75.9271599  86.2454908
 102.4285349  87.0544878  69.7661960 102.9409869  87.8488129  69.9167525
 103.0808062  86.3571169  69.6995562 104.2380234  90.1710635  71.8484714
 104.4146862  91.0928599  71.6605698 105.0337067  89.8569054  72.2779093
 108.3791252  77.0318899  83.4468647 109.1200965  77.6326052  83.3673110
 108.6109175  76.2896537  82.8886690 103.5232590  82.2175267  81.7246877
 103.4086105  81.3160524  82.0253976 102.6677108  82.4638963  81.3731693
 110.6024428  90.1593007  83.3234377 110.1588282  89.3729385  83.0055282
 111.2641641  90.3472157  82.6578268 105.3611549  91.6888808  77.8495056
 105.9118974  91.5605872  77.0772050 104.5223025  91.9883697  77.4989949
 112.7005666  90.4395807  81.3515779 112.6824141  91.2604688  80.8596048
 113.6225586  90.3149882  81.5765920 109.1578720  87.9539936  82.1939287
 109.6907057  87.1928224  81.9638595 108.6292801  87.6613588  82.9363442
 112.3248415  73.0600002  77.7232929 111.9812684  73.9501644  77.6472039
 112.6927378  72.8701660  76.8602514 100.3934266  85.3833533  70.5421531
 101.2309488  85.7930541  70.3255239 100.5712533  84.4432975  70.5121725
 112.2898698  83.0508613  66.2305364 111.7745321  83.8213218  66.4693751
 112.0176006  82.3773749  66.8538425 109.8745809  77.8958314  71.2890602
 109.0187405  77.5065165  71.1096241 110.2872761  77.9750275  70.4290388
 111.4044955  75.4304657  75.6882162 110.9009751  75.3934793  74.8749967
 111.6975562  76.3397400  75.7478819 107.6487841  75.5143387  74.6948344
 108.5140838  75.3186196  74.3354233 107.7165350  75.2853739  75.6217701
 117.2632972  85.8040968  68.1658537 116.4862415  85.4652127  67.7213700
 117.9424453  85.8093591  67.4913503 112.0785001  80.9235705  68.0565145
 111.7735136  81.2381855  68.9075288 113.0315443  81.0017125  68.0992478
 110.5231433  87.0825929  69.7058099 109.9952794  86.3478688  69.3931337
 110.0218935  87.8600605  69.4598067 115.5024279  85.2774949  74.8225145
 114.8447953  85.9674211  74.9105274 116.3064678  85.6671381  75.1659132
 105.2550160  77.7445595  72.0664711 105.8293912  77.5220777  71.3337904
 105.8421143  77.8134290  72.8193312 114.3129738  83.6319322  72.8729087
 114.8261619  84.2649314  73.3750797 114.9630961  83.0320517  72.5072447
 105.5819747  79.7750056  66.0860596 104.7457060  80.1124743  66.4069871
 105.4424517  79.6399036  65.1487733 107.5572828  74.6186844  70.7939780
 106.9037240  74.3035861  70.1696395 107.5153302  73.9962584  71.5199603
 108.6684033  84.9006139  62.7093072 107.7611095  84.6695392  62.9084221
 109.1655065  84.1043758  62.8967054 111.5752112  93.6103646  65.6289758
 110.9013811  93.9135343  66.2374716 111.9617934  94.4132727  65.2795215
 110.7910568  81.1068777  75.1187428 109.8733130  81.3283724  74.9609116
 111.2070712  81.1815088  74.2599135 111.5745616  82.5060193  70.2490108
 112.3217435  83.0181590  69.9397230 111.8437206  82.1844246  71.1094502
 109.8472266  85.0018734  67.2317062 108.9383486  84.7177767  67.3289532
 109.8767350  85.4217812  66.3720369 115.0791534  88.6125323  71.0008230
 114.6253861  87.7716233  71.0573420 114.4485500  89.2486722  71.3383010
 114.0224453  79.5417309  72.2308897 113.2847210  79.0294696  72.5619140
 114.2751227  79.1017691  71.4192174 113.5224473  90.4501820  71.9358048
 113.8147447  91.0106877  71.2170414 114.0323094  90.7430381  72.6911207
 114.1236081  72.3193561  72.8250667 114.4294957  71.4590925  72.5376582
 114.8488685  72.9111182  72.6249660 100.4160437  82.7224248  71.2132264
 100.2184837  82.1293609  70.4883331  99.8607101  82.4176458  71.9308203
 108.3957160  82.6147354  73.3326858 108.4505770  81.6621191  73.2569334
 107.5848362  82.7706794  73.8168156 109.5448354  86.5427478  64.5705141
 109.1067784  85.8263336  64.1110778 110.2858795  86.7703592  64.0090232
 106.3349520  81.2324414  71.0917236 105.5217386  81.5318585  71.4982429
 106.8308515  80.8380103  71.8091719 108.4858098  91.2282171  73.0251501
 108.4434277  91.4543017  72.0960033 109.4020797  90.9945546  73.1737302
 111.9323732  81.6966239  79.9232130 112.2873120  81.9237712  80.7826596
 112.5795863  82.0284615  79.3009386 117.6621469  84.8184675  70.6281459
 117.5239368  85.0086271  69.7002649 117.3057688  85.5804057  71.0849511
 105.8263595  78.8042770  76.7078471 106.4662974  78.6631529  76.0101435
 104.9941126  78.5177283  76.3317073 117.6890849  86.8861202  75.6392731
 118.1227355  86.7936491  76.4875785 118.4022429  86.8618702  75.0012747
 106.6023899  88.1045200  72.8213464 107.3964497  87.6095520  72.6196039
 105.8915591  87.5763063  72.4581169 111.4218743  90.4863296  77.1725832
 111.4755766  91.0554232  77.9403547 110.5533525  90.6565181  76.8079869
 102.9106662  82.2488282  68.8973217 101.9804251  82.1872737  69.1143179
 103.0064134  81.7264235  68.1009858 102.8292212  78.7743095  71.4851458
 103.0899029  79.6888428  71.3760619 103.6509384  78.3067537  71.6348071
 104.3017137  80.1880852  78.6550283 104.9740190  79.9798214  78.0062932
 103.4746923  79.9902938  78.2155515 118.5506398  86.9284902  78.1725616
 118.7442288  87.8330713  78.4184891 118.4507016  86.4692321  79.0064201
 110.2042709  76.8142793  80.6715944 109.5570624  77.5132742  80.5780420
 110.9743724  77.2478937  81.0392192 113.6121507  87.0791645  83.7466497
 113.4607013  86.8502197  82.8296581 113.6026186  88.0362246  83.7597842
 110.3806843  84.6523558  78.7312763 111.3098903  84.8034717  78.5581731
 109.9597873  84.7407579  77.8761410 109.1795175  88.6774222  76.5011301
 109.0406261  88.3093007  77.3737239 108.3909771  89.1921862  76.3295259
 109.7743327  93.7783319  67.8436838 109.9495083  93.3071362  68.6582460
 109.0876115  94.4049085  68.0718098 110.7300390  88.0555825  73.8900139
 110.3950223  88.0156595  74.7857789 110.2304336  87.3900541  73.4170549
 104.7044634  83.4623455  79.4152720 104.5664432  82.7303694  80.0164259
 105.6149558  83.3732355  79.1336908 113.6659582  85.4011859  64.1637198
 113.0488752  84.6758687  64.0670251 113.1976070  86.1621219  63.8204273
 107.3326935  83.1743414  78.9036400 108.0426553  82.5336606  78.8623018
 107.2896243  83.4256309  79.8262580 115.3213713  90.1110768  81.8242979
 115.2626260  89.4269988  81.1573562 115.7233232  90.8529758  81.3723605
 106.0455869  80.1608632  80.7232039 105.5093226  79.7099371  81.3753635
 105.4572577  80.2954541  79.9802503 104.3404412  96.9272681  74.6176698
 104.5801010  97.5591206  75.2955716 103.4973609  96.5760721  74.9042057
 105.4558128  79.6197284  63.2858503 104.5787594  79.4986084  62.9220749
 105.9315881  78.8283362  63.0337391 115.3231121  88.0750351  80.0556958
 114.4357899  87.7376273  80.1783357 115.8929672  87.3433383  80.2925724
  96.9760268  84.4074443  73.3800010  97.6631308  84.0936173  72.7921025
  96.8208397  85.3115808  73.1067261 101.7794990  79.2964640  77.8085034
 101.6953179  78.6890309  77.0735443 100.9577696  79.7873658  77.8094530
 108.8532274  92.7351804  77.0218202 108.7802446  93.5406775  77.5337506
 108.4109667  92.9343770  76.1966223 108.6422054  91.9723574  70.5321023
 107.8589576  92.5145254  70.6259248 109.3414799  92.4897554  70.9315264
 111.9518704  77.7818203  73.1755229 112.4487403  77.0288166  72.8556299
 111.1805685  77.8182520  72.6098438 119.8048461  83.4858569  74.8173520
 119.7938337  84.3683284  74.4467453 118.9365841  83.1330120  74.6228057
 111.3130958  92.6338638  79.1776360 112.0258930  93.2686103  79.1052262
 110.8220986  92.7302504  78.3616362 113.0348485  86.5389891  70.7493652
 112.1004763  86.6591353  70.5798356 113.2125153  85.6362357  70.4853662
 108.5353673  79.9235586  72.9026913 108.1651460  79.3706627  73.5907819
 109.0312765  79.3193720  72.3501913 116.4221036  82.3807210  71.2843686
 116.8881488  83.2135201  71.2103989 116.8728536  81.9152191  71.9888945
 106.3642871  90.3833081  79.9981931 107.0652331  91.0169564  80.1511325
 105.8937986  90.7247813  79.2377570 114.4897267  88.7251031  68.2829838
 114.7657111  88.6107626  69.1923712 113.6201766  88.3268516  68.2442011
 114.3937699  74.7487797  75.3234587 113.4800778  74.9792024  75.4916794
 114.8230800  74.8326241  76.1748620 114.1644157  82.9377689  77.8234481
 113.5115607  83.1853596  77.1686934 114.5424537  82.1241827  77.4896959
 111.1251331  92.9737382  71.9262652 111.3073726  92.1559038  72.3890404
 111.9484317  93.1905074  71.4887542 111.4593497  91.9005567  69.1877700
 111.9881263  91.3898022  68.5747862 111.7221716  91.5848097  70.0523233
 110.2131730  83.6797500  84.3100519 109.5372367  83.5791629  84.9802894
 111.0359364  83.5236714  84.7736516 101.9610589  89.9169436  76.9313034
 102.5464026  89.1713124  77.0640938 101.7635428  90.2273393  77.8149698
 104.8149244  92.9520684  71.9475476 104.1459620  93.4366811  71.4639516
 104.6762114  93.1989904  72.8618855  96.5528244  82.4875037  75.6517477
  96.5912343  81.9538627  76.4454595  96.0468537  81.9610242  75.0328454
 108.9554513  94.9864427  78.5458135 109.5072821  95.1496049  79.3107220
 109.2960706  95.5768865  77.8738159 103.9319006  77.3339577  79.1480019
 103.9960333  78.1954408  78.7357417 103.8686127  76.7213579  78.4152378
 103.4071279  79.4062710  82.7953054 104.0343318  79.0239787  83.4090578
 102.5499198  79.1876912  83.1608746 113.8065387  89.8125685  84.4006789
 114.3505291  90.4255643  83.9061744 113.2252232  90.3705263  84.9173802
 100.1836822  81.2139139  68.7271408 100.4790263  80.3049817  68.6738462
  99.2824857  81.1926878  68.4052411 112.0922900  92.9346403  75.5321817
 111.9674040  92.1336143  75.0232762 112.7501991  93.4292596  75.0435787
 103.7131069  79.2895135  74.7098957 102.9917654  79.9031103  74.5706430
 104.5024324  79.8252900  74.6315603 114.1557809  90.7355423  77.1601367
 113.2088144  90.6160774  77.0879694 114.5040582  89.8477921  77.2427628
 106.5157382  76.6249562  80.9839609 107.0391784  76.8711858  81.7465918
 106.2969715  77.4569597  80.5642746 101.9124663  78.8953236  68.8510734
 101.5837369  78.0150615  68.6685839 102.2664034  78.8400905  69.7387123
 111.1604242  90.5308139  73.3605719 111.0129204  89.6024847  73.5413289
 111.9857735  90.5528230  72.8762794 105.0266486  79.1826206  69.2186211
 105.3662559  79.7112127  68.4964820 105.4738607  79.5206612  69.9944778
 114.7638364  91.3536698  74.4470592 115.6884911  91.1479559  74.3095043
 114.5953667  91.1053099  75.3559933 107.7209927  77.5663257  78.6689279
 107.3806747  76.7671070  79.0709959 107.0148933  77.8664968  78.0966112
 108.3726399  74.6512569  77.1216602 109.1952468  74.1773048  76.9995493
 108.6164462  75.4303053  77.6215289 107.0134633  77.6800828  67.4179504
 107.7342996  78.0582081  66.9143221 106.3899938  78.3989705  67.5214482
 111.1565756  78.3845977  68.3537836 111.3729371  79.2670615  68.0526664
 110.6759823  77.9932190  67.6243478 105.8964978  81.3431690  74.9308581
 105.7509558  81.6571993  75.8232862 105.4190181  81.9616590  74.3779480
 107.7561361  78.3334238  74.9789470 107.7422929  77.4375331  74.6421768
 108.4733789  78.3404902  75.6127756 109.6087491  78.7671578  77.0242598
 109.3505269  79.6888649  77.0226928 109.0772532  78.3702013  77.7143062
 114.5533680  91.8722365  69.8032683 114.7270558  91.3068788  69.0506536
 115.0462571  92.6723260  69.6212173 100.3710640  83.8837034  77.8696242
  99.8264108  84.6596842  78.0016516 101.2489990  84.2307839  77.7115363
 107.1598257  77.2148618  70.2477041 107.2814168  76.2865264  70.4467928
 106.8700299  77.2287304  69.3355356 110.0289447  74.9003529  73.3843760
 110.0511144  74.9642862  72.4295740 110.4457506  74.0608037  73.5784267
 120.4073071  84.6358788  71.4222983 120.8504217  83.8866113  71.0242106
 119.5299582  84.6268925  71.0396715 115.5408853  91.1889130  66.9029582
 116.2359757  91.8095822  67.1216896 115.8832003  90.3384481  67.1781959
 101.1576662  83.0106931  80.7626399 100.4158398  83.1589566  81.3491029
 100.8369406  83.2715196  79.8993148 117.4400276  88.6388835  68.4316912
 117.9651600  88.9776108  67.7066232 117.3522628  87.7035851  68.2480047
 109.1020324  92.5522909  80.5606789 109.4107451  92.3072056  81.4329489
 109.8995806  92.7569547  80.0725659 109.1240936  94.7060819  72.7912165
 108.6845927  94.2137197  73.4845022 109.8749053  94.1633786  72.5504241
 101.6033275  90.8972359  72.7936794 102.4291295  90.5976131  72.4135437
 101.2527327  90.1279982  73.2426582 106.5714809  90.2498828  74.8634467
 105.9494818  89.5869533  74.5636695 107.2419675  90.2759959  74.1808115
  99.8041880  88.8158686  73.7525727  98.9673789  88.3880860  73.5709728
  99.7765526  89.0091129  74.6896518 106.6439336  78.7280616  84.4566973
 106.6927492  79.6042738  84.0744743 107.1861850  78.1858009  83.8838616
 117.1294182  89.2721739  83.7368110 116.3389725  89.2545878  83.1972610
 116.8927536  89.8110033  84.4917147 117.2492057  86.1214205  81.0500839
 117.2990062  85.9564213  81.9916362 117.1405980  85.2541464  80.6598720
 106.1328315  88.8002751  68.3392928 106.2816436  89.4838215  67.6859600
 106.9394759  88.7807841  68.8542383 114.5395819  82.1045133  82.3660146
 115.4405682  81.9651598  82.0744143 114.6143794  82.2699588  83.3058323
 108.8738624  79.4811988  81.2113332 108.0041934  79.7745554  80.9395920
 109.1098105  80.0652433  81.9320595 118.7510254  88.5411147  81.2942860
 118.4595062  88.9041127  82.1306321 118.1382385  87.8278155  81.1156192
 119.9505936  86.1064027  73.8145431 120.7852827  86.5453831  73.9782991
 120.0865065  85.6302680  72.9953676 116.9997442  83.6643761  79.7622918
 117.4751563  83.8571408  78.9541770 116.0763007  83.7202947  79.5166302
 103.8880948  84.8267929  69.3453997 103.6426990  83.9230259  69.5434207
 104.0576863  84.8285079  68.4033475 111.5777658  75.6991605  78.7278752
 112.0959602  76.4352632  78.4025241 111.2232791  76.0055598  79.5625511
 103.1576596  80.5596286  66.8440158 102.4645841  80.6340641  66.1880194
 102.9128348  79.7956630  67.3661675 111.8290252  72.1191887  74.2479649
 112.1092006  71.4515077  74.8740075 112.6140859  72.3120983  73.7354313
 109.6323721  91.2950881  65.8104675 109.0597688  91.9141069  65.3575147
 110.2056515  91.8450243  66.3444597 115.6999111  80.5409521  77.9951224
 116.6516534  80.6407619  78.0163448 115.5302561  79.7487790  78.5049308
 113.7213490  77.6265105  78.1810625 113.1263422  77.9070117  77.4857113
 113.4363187  78.1159006  78.9527366 112.8520981  91.5788032  66.9413257
 113.7851654  91.5133593  67.1446133 112.7644194  92.4144298  66.4827790
 115.4808997  90.8953902  63.9017205 115.4022629  90.5613765  64.7952963
 116.3018664  91.3875670  63.9008677 118.1787189  83.7615641  77.1093524
 118.1463509  82.8231642  77.2953207 118.7887812  83.8399678  76.3759348
 110.0170519  82.6311694  63.1520728 110.9629624  82.5017902  63.2209146
 109.6384764  81.8926356  63.6290156 118.3281677  80.5526685  77.1551807
 117.8120726  79.7685141  76.9681736 119.2121626  80.2245401  77.3198326
 115.9892404  74.2967700  73.1147619 115.7917225  73.9882788  73.9990951
 116.5992110  75.0229339  73.2445549 109.9009212  86.6829440  84.6121385
 110.8212221  86.8608039  84.8061431 109.8658795  85.7385486  84.4601084
 108.2013437  80.5561671  63.0875613 107.2944892  80.2594783  63.1638326
 108.4789418  80.2591489  62.2209899  99.1191377  81.8768034  73.5374659
  98.7994161  81.0233342  73.2449033  98.5724805  82.0916612  74.2932627
 102.8971285  84.5930475  77.2544166 103.1157294  85.5247583  77.2732200
 103.3097058  84.2338449  78.0398970 109.8175502  75.0998560  69.2419854
 109.0076231  74.7545645  69.6175100 110.5059919  74.7906104  69.8307466
 111.7466051  74.1776607  70.8644151 112.2997089  74.5972060  71.5234174
 111.9836137  73.2512355  70.9067107 107.7699150  80.1663681  86.6446915
 107.6695877  81.1158038  86.5759006 107.5520692  79.8381920  85.7722985
 106.9712221  77.4148606  63.2287592 107.8331385  77.7403504  63.4883409
 107.1562565  76.6280102  62.7160658  98.9879637  85.4970945  75.5067781
  98.2943108  85.0824898  74.9937735  99.7352628  85.5391482  74.9101200
 115.1244858  76.2877132  70.3722815 114.5443527  76.9461936  69.9900867
 114.8580790  75.4654477  69.9610233 113.5748424  75.6882190  72.5744135
 114.0748202  75.7998724  71.7658454 114.2184032  75.3843243  73.2144944
 107.6330420  83.5960820  85.4611976 107.1497502  84.3961180  85.6675865
 107.7191359  83.6068764  84.5079420 100.9016380  85.4289199  73.3833796
 100.8787068  85.5276886  72.4315679 101.2117016  86.2754350  73.7050962
 103.5603757  87.4865354  77.4980410 104.5147011  87.4549297  77.4310342
 103.3616281  87.0255978  78.3130636 104.1503140  86.0566470  80.0651208
 104.9696029  86.5510549  80.0886045 104.4239947  85.1398438  80.0368775
 113.9069736  78.4477223  69.4279163 113.0195591  78.7326873  69.2099358
 114.3223725  78.2870986  68.5806440 117.2584272  78.4723744  73.1433503
 118.0344662  78.9620196  73.4158119 116.5332406  78.8981798  73.6005372
 119.6956831  79.1851363  74.2007443 120.2901321  78.9447099  73.4900751
 119.7683414  78.4658493  74.8280979 101.9153986  93.0284974  74.5150608
 101.7808454  92.2685375  73.9488606 101.4986048  93.7525874  74.0479397
 113.0512949  88.2121897  63.5227183 113.7548799  88.4171900  64.1384839
 112.3275598  88.7798659  63.7876267 113.8810760  83.9631759  69.6429453
 113.8245961  84.4200310  68.8037086 114.4339102  83.2022443  69.4652296
 117.6915565  79.7521490  70.4679573 117.4352500  79.3518126  71.2987781
 117.0668433  80.4665284  70.3429712 105.0723112  93.9254291  74.7269051
 104.9555496  94.8699723  74.6247741 104.2515558  93.6227852  75.1154850
 114.9599647  88.6504426  65.5725643 115.7945251  88.2185625  65.3903118
 114.7983990  88.4786440  66.5002538 114.6145539  85.1536540  66.9381983
 114.5594343  84.9880811  65.9970427 113.9891594  85.8612573  67.0944172
  99.4038054  80.3904604  80.7643405 100.0496917  79.8803558  81.2530630
  99.1955205  81.1273286  81.3386830 111.9291446  87.4585452  86.2635545
 112.7982606  87.6326104  85.9022180 111.4498197  88.2779868  86.1411275
 107.9241664  74.6544649  66.5167301 107.9120334  75.5986489  66.6735572
 108.8165086  74.4714794  66.2226762 106.0977626  94.5782553  77.9424979
 107.0004873  94.6106163  78.2591474 105.8714996  93.6483004  77.9571315
 107.8531228  93.3313539  74.6035058 106.9026859  93.3315401  74.4899430
 108.1563714  92.5846274  74.0871092 111.7393784  71.2487425  70.7713238
 110.9726180  70.6945912  70.9169920 112.1504489  71.3209294  71.6327389
 103.7435545  77.5372221  84.8618419 104.6067006  77.1809026  85.0721744
 103.1700955  77.1986116  85.5493823 120.3973628  99.1201506  75.6042345
 120.0592140  99.0042570  74.7162880 121.2663396  98.7192671  75.5843351
 116.2560444 100.9736982  71.5939236 115.6925309 100.8826919  70.8255523
 116.1412839 100.1536887  72.0741728 120.8793411 100.2736357  81.5628550
 120.8682052  99.8789156  80.6909054 121.0414050  99.5402430  82.1562322
 113.8024876 102.4688174  74.4323456 114.5946168 102.1278998  74.0169755
 114.0421526 102.5783149  75.3525610 115.7615630 101.7297087  67.3040835
 116.5346506 101.1826074  67.1653711 116.1141028 102.5941336  67.5155296
 117.6000672 103.0573469  80.5107734 117.3090538 103.9619100  80.3954401
 118.2357656 103.0989997  81.2251804 118.5256879 100.4350318  77.1009094
 119.1220451 100.2106340  76.3866057 118.5831851  99.6935063  77.7034542
 118.0981907  97.8889753  64.9359285 118.3507428  97.3671274  64.1742748
 117.1606466  97.7255899  65.0385969 117.8178196  99.7917859  67.1383660
 117.7014454  99.1162762  67.8064744 117.9280456  99.3050233  66.3215813
 120.1609737  99.2528006  70.8430349 119.7967944  98.7258627  71.5543271
 121.0176853  98.8626475  70.6696835 119.8015224  94.2817906  65.8391698
 119.9689626  95.1498142  66.2062169 119.6112393  94.4445188  64.9152987
 116.0103039  99.1948682  73.5394232 115.0853535  99.0624896  73.7471924
 116.2587452  99.9742901  74.0364175 119.7804445  96.7375563  66.8238364
 119.6604070  97.1832614  67.6623845 119.0857033  97.0860881  66.2651903
 113.3711850  98.8381955  74.3738021 113.5004231  99.0916434  75.2877433
 112.6909301  99.4309663  74.0542677 120.0328567  96.6807070  83.1289863
 119.2561901  97.2400991  83.1192727 120.6719130  97.1663853  83.6504733
 118.2874939  99.4892524  82.6907830 119.0289623 100.0277568  82.4142653
 117.5811925 100.1158813  82.8479381 120.1161349  96.5694271  78.6613548
 120.9622544  96.9933685  78.8048197 120.0559986  95.9127895  79.3552111
 119.6387055 101.9297263  72.3082365 120.1025401 102.2084966  71.5186988
 119.3743853 101.0280708  72.1255456 116.5311136 101.4768745  75.2462128
 117.1012493 101.9056013  74.6079613 117.1219248 101.1951329  75.9446314
 118.5755941  98.0520415  69.1171930 119.2779985  98.5041459  69.5845857
 118.2436570  97.4104234  69.7451823 117.0236303  96.6432172  83.4923140
 116.3934963  97.3248453  83.7258536 116.9172391  96.5315254  82.5476278
 112.3181275  96.3103968  74.4189064 111.5280329  96.5661497  73.9429174
 112.8092523  97.1252306  74.5241104 114.2696021  96.6748547  71.3772540
 113.4727184  96.7867242  71.8956036 114.0421613  97.0135200  70.5113431
 120.1001688 103.1993251  79.3255055 120.1646121 103.6613658  80.1613227
 119.3912612 102.5690615  79.4537365 110.6018978  96.5634459  76.8504055
 110.8527017  97.4481468  77.1161630 111.1378527  96.3839060  76.0779146
 116.3017046  90.9452938  85.8548391 115.9083991  90.3919136  86.5296035
 117.1183186  91.2563516  86.2454908 113.2679103 102.3836796  69.7661960
 113.7803624 103.1780046  69.9167525 113.9201816 101.6863087  69.6995562
 115.0773988 105.5002552  71.8484714 115.2540616 106.4220517  71.6605698
 115.8730822 105.1860972  72.2779093 119.2185007  92.3610817  83.4468647
 119.9594720  92.9617970  83.3673110 119.4502929  91.6188455  82.8886690
 114.3626345  97.5467184  81.7246877 114.2479860  96.6452441  82.0253976
 113.5070862  97.7930881  81.3731693 116.2005303 107.0180726  77.8495056
 116.7512729 106.8897789  77.0772050 115.3616779 107.3175615  77.4989949
 119.9972475 103.2831854  82.1939287 120.5300811 102.5220142  81.9638595
 119.4686556 102.9905506  82.9363442 111.2328020 100.7125450  70.5421531
 112.0703242 101.1222459  70.3255239 111.4106288  99.7724893  70.5121725
 120.7139563  93.2250232  71.2890602 119.8581160  92.8357082  71.1096241
 121.1266515  93.3042193  70.4290388 118.4881596  90.8435305  74.6948344
 119.3534593  90.6478113  74.3354233 118.5559105  90.6145657  75.6217701
 121.3625187 102.4117846  69.7058099 120.8346549 101.6770606  69.3931337
 120.8612690 103.1892523  69.4598067 116.0943915  93.0737513  72.0664711
 116.6687667  92.8512694  71.3337904 116.6814897  93.1426207  72.8193312
 116.4213502  95.1041974  66.0860596 115.5850814  95.4416660  66.4069871
 116.2818272  94.9690954  65.1487733 118.3966583  89.9478762  70.7939780
 117.7430995  89.6327779  70.1696395 118.3547057  89.3254502  71.5199603
 119.5077787 100.2298057  62.7093072 118.6004849  99.9987310  62.9084221
 120.0048819  99.4335676  62.8967054 120.6866021 100.3310652  67.2317062
 119.7777240 100.0469684  67.3289532 120.7161105 100.7509730  66.3720369
 111.2554191  98.0516166  71.2132264 111.0578591  97.4585526  70.4883331
 110.7000855  97.7468376  71.9308203 119.2350915  97.9439272  73.3326858
 119.2899525  96.9913109  73.2569334 118.4242117  98.0998711  73.8168156
 120.3842109 101.8719395  64.5705141 119.9461539 101.1555254  64.1110778
 121.1252550 102.0995510  64.0090232 117.1743275  96.5616332  71.0917236
 116.3611140  96.8610502  71.4982429 117.6702269  96.1672021  71.8091719
 116.6657350  94.1334687  76.7078471 117.3056729  93.9923447  76.0101435
 115.8334880  93.8469201  76.3317073 117.4417653 103.4337118  72.8213464
 118.2358252 102.9387438  72.6196039 116.7309346 102.9054981  72.4581169
 113.7500417  97.5780200  68.8973217 112.8198005  97.5164655  69.1143179
 113.8457889  97.0556152  68.1009858 113.6685966  94.1035012  71.4851458
 113.9292783  95.0180346  71.3760619 114.4903138  93.6359455  71.6348071
 115.1410891  95.5172770  78.6550283 115.8133945  95.3090132  78.0062932
 114.3140678  95.3194856  78.2155515 120.0188929 104.0066140  76.5011301
 119.8800015 103.6384924  77.3737239 119.2303526 104.5213779  76.3295259
 121.5694145 103.3847743  73.8900139 121.2343977 103.3448513  74.7857789
 121.0698090 102.7192458  73.4170549 115.5438389  98.7915373  79.4152720
 115.4058187  98.0595611  80.0164259 116.4543312  98.7024273  79.1336908
 118.1720689  98.5035332  78.9036400 118.8820308  97.8628524  78.8623018
 118.1289997  98.7548227  79.8262580 116.8849623  95.4900550  80.7232039
 116.3486980  95.0391288  81.3753635 116.2966332  95.6246459  79.9802503
 116.2951882  94.9489201  63.2858503 115.4181349  94.8278002  62.9220749
 116.7709635  94.1575279  63.0337391 107.8154022  99.7366361  73.3800010
 108.5025062  99.4228091  72.7921025 107.6602151 100.6407726  73.1067261
 112.6188744  94.6256557  77.8085034 112.5346933  94.0182227  77.0735443
 111.7971451  95.1165576  77.8094530 119.3747427  95.2527504  72.9026913
 119.0045215  94.6998544  73.5907819 119.8706520  94.6485637  72.3501913
 117.2036626 105.7124999  79.9981931 117.9046085 106.3461482  80.1511325
 116.7331741 106.0539731  79.2377570 112.8004344 105.2461354  76.9313034
 113.3857781 104.5005042  77.0640938 112.6029182 105.5565311  77.8149698
 107.3921998  97.8166954  75.6517477 107.4306098  97.2830545  76.4454595
 106.8862291  97.2902160  75.0328454 114.7712761  92.6631495  79.1480019
 114.8354087  93.5246326  78.7357417 114.7079881  92.0505496  78.4152378
 114.2465033  94.7354627  82.7953054 114.8737072  94.3531705  83.4090578
 113.3892952  94.5168829  83.1608746 111.0230576  96.5431056  68.7271408
 111.3184017  95.6341735  68.6738462 110.1218612  96.5218796  68.4052411
 114.5524823  94.6187053  74.7098957 113.8311409  95.2323021  74.5706430
 115.3418079  95.1544818  74.6315603 117.3551137  91.9541479  80.9839609
 117.8785538  92.2003776  81.7465918 117.1363470  92.7861514  80.5642746
 112.7518418  94.2245154  68.8510734 112.4231124  93.3442533  68.6685839
 113.1057788  94.1692823  69.7387123 115.8660241  94.5118124  69.2186211
 116.2056313  95.0404045  68.4964820 116.3132361  94.8498530  69.9944778
 118.5603682  92.8955175  78.6689279 118.2200502  92.0962988  79.0709959
 117.8542688  93.1956885  78.0966112 119.2120153  89.9804487  77.1216602
 120.0346223  89.5064965  76.9995493 119.4558217  90.7594971  77.6215289
 117.8528388  93.0092745  67.4179504 118.5736750  93.3873998  66.9143221
 117.2293692  93.7281622  67.5214482 116.7358732  96.6723608  74.9308581
 116.5903313  96.9863911  75.8232862 116.2583936  97.2908508  74.3779480
 118.5955115  93.6626156  74.9789470 118.5816684  92.7667249  74.6421768
 119.3127543  93.6696819  75.6127756 120.4481246  94.0963496  77.0242598
 120.1899024  95.0180567  77.0226928 119.9166286  93.6993930  77.7143062
 111.2104394  99.2128952  77.8696242 110.6657862  99.9888760  78.0016516
 112.0883744  99.5599757  77.7115363 117.9992011  92.5440536  70.2477041
 118.1207922  91.6157182  70.4467928 117.7094053  92.5579222  69.3355356
 120.8683201  90.2295446  73.3843760 120.8904898  90.2934779  72.4295740
 121.2851260  89.3899955  73.5784267 111.9970416  98.3398848  80.7626399
 111.2552152  98.4881484  81.3491029 111.6763160  98.6007114  79.8993148
 112.4427030 106.2264277  72.7936794 113.2685050 105.9268049  72.4135437
 112.0921082 105.4571899  73.2426582 117.4108563 105.5790745  74.8634467
 116.7888572 104.9161450  74.5636695 118.0813430 105.6051877  74.1808115
 110.6435635 104.1450604  73.7525727 109.8067543 103.7172778  73.5709728
 110.6159280 104.3383047  74.6896518 117.4833091  94.0572533  84.4566973
 117.5321246  94.9334656  84.0744743 118.0255605  93.5149926  83.8838616
 116.9722070 104.1294669  68.3392928 117.1210190 104.8130133  67.6859600
 117.7788513 104.1099759  68.8542383 119.7132379  94.8103906  81.2113332
 118.8435688  95.1037472  80.9395920 119.9491859  95.3944351  81.9320595
 114.7274703 100.1559846  69.3453997 114.4820745  99.2522176  69.5434207
 114.8970617 100.1576997  68.4033475 113.9970350  95.8888204  66.8440158
 113.3039595  95.9632559  66.1880194 113.7522102  95.1248547  67.3661675
 119.0407191  95.8853588  63.0875613 118.1338647  95.5886701  63.1638326
 119.3183172  95.5883406  62.2209899 109.9585132  97.2059952  73.5374659
 109.6387916  96.3525260  73.2449033 109.4118560  97.4208530  74.2932627
 113.7365039  99.9222393  77.2544166 113.9551049 100.8539500  77.2732200
 114.1490813  99.5630367  78.0398970 120.6569257  90.4290478  69.2419854
 119.8469985  90.0837563  69.6175100 121.3453674  90.1198022  69.8307466
 118.6092904  95.4955598  86.6446915 118.5089631  96.4449955  86.5759006
 118.3914446  95.1673837  85.7722985 117.8105976  92.7440523  63.2287592
 118.6725140  93.0695422  63.4883409 117.9956320  91.9572019  62.7160658
 109.8273392 100.8262863  75.5067781 109.1336863 100.4116816  74.9937735
 110.5746383 100.8683400  74.9101200 118.4724174  98.9252737  85.4611976
 117.9891256  99.7253097  85.6675865 118.5585113  98.9360682  84.5079420
 111.7410134 100.7581117  73.3833796 111.7180822 100.8568804  72.4315679
 112.0510771 101.6046268  73.7050962 114.3997512 102.8157272  77.4980410
 115.3540765 102.7841214  77.4310342 114.2010035 102.3547896  78.3130636
 114.9896894 101.3858388  80.0651208 115.8089783 101.8802467  80.0886045
 115.2633702 100.4690356  80.0368775 112.7547741 108.3576891  74.5150608
 112.6202209 107.5977292  73.9488606 112.3379803 109.0817791  74.0479397
 110.2431808  95.7196522  80.7643405 110.8890672  95.2095476  81.2530630
 110.0348959  96.4565203  81.3386830 118.7635419  89.9836566  66.5167301
 118.7514089  90.9278406  66.6735572 119.6558841  89.8006712  66.2226762
 114.5829299  92.8664139  84.8618419 115.4460761  92.5100944  85.0721744
 114.0094710  92.5278034  85.5493823  52.5048811  -5.4610178  57.1973802
  52.4272841  -4.5102353  57.2762283  51.9010455  -5.8064306  57.8548729
  50.1435641  -2.7124784  61.3422004  50.3832239  -2.0806260  62.0201023
  49.3004838  -3.0636744  61.6287364  50.6180473  -6.6876782  58.6720783
  49.9490849  -6.2030654  58.1884823  50.4793343  -6.4407562  59.5864161
  54.7585742  -4.6533038  65.2703441  55.3104050  -4.4901417  66.0352526
  55.0991935  -4.0628601  64.5983466  47.7185215  -6.6112492  61.2395915
  47.5839683  -7.3712091  60.6733913  47.3017277  -5.8871592  60.7724704
  50.8754341  -5.7143175  61.4514357  50.7586725  -4.7697743  61.3493048
  50.0546787  -6.0169613  61.8400156  51.9008855  -5.0614913  64.6670286
  52.8036102  -5.0291303  64.9836781  51.6746225  -5.9914462  64.6816621
  66.2004857  -0.5195960  62.3287651  65.8623368  -0.6354895  61.4408186
  67.0694625  -0.9204795  62.3088658  62.0591672   1.3339516  58.3184542
  61.4956538   1.2429453  57.5500830  61.9444068   0.5139421  58.7987035
  66.6824640   0.6338892  68.2873857  66.6713281   0.2391690  67.4154361
  66.8445279  -0.0995036  68.8807628  59.6056104   2.8290708  61.1568763
  60.3977396   2.4881533  60.7415062  59.8452755   2.9385683  62.0770916
  67.6391231   5.0010484  53.6299007  66.9879211   5.5864564  53.2433021
  68.4335594   5.5316679  53.6894045  61.5646858   2.0899621  54.0286142
  62.3377734   1.5428608  53.8899017  61.9172257   2.9543870  54.2400603
  63.4031901   3.4176003  67.2353041  63.1121767   4.3221634  67.1199707
  64.0388885   3.4592531  67.9497110  64.3288108   0.7952852  63.8254401
  64.9251680   0.5708874  63.1111364  64.3863079   0.0537597  64.4279848
  69.1166496   2.6900916  54.1667992  68.4812329   2.7635542  54.8788896
  68.7863903   3.2794515  53.4887071  63.6209425   0.1520393  53.8628966
  63.5045683  -0.5234703  54.5310051  63.7311685  -0.3347233  53.0461120
  65.9640966  -0.3869460  57.5675656  65.5999173  -0.9138839  58.2788577
  66.8208082  -0.7770991  57.3942141  68.3621786   3.1037419  64.2302835
  68.0622509   4.0062458  64.1218642  68.0172846   2.8369602  65.0823987
  61.8134267  -0.4448784  60.2639539  60.8884764  -0.5772570  60.4717231
  62.0618681   0.3345435  60.7609481  59.1743079  -0.8015511  61.0983328
  59.3035460  -0.5481032  62.0122740  58.4940530  -0.2087803  60.7787983
  63.3442566   9.8681739  57.1973802  63.2666596  10.8189564  57.2762283
  62.7404209   9.5227612  57.8548729  64.0906168  -0.1504942  69.4153136
  64.8320852   0.3880102  69.1387960  63.3843153   0.4761347  69.5724688
  69.5661508   1.9924199  68.0125298  69.9744864   1.5506609  67.2679930
  68.8438769   1.4176826  68.2659491  69.8890322   2.5525389  61.7677587
  69.2599185   2.7171103  61.0653654  69.5015984   2.9666999  62.5388551
  73.7679554   3.4879827  59.1221950  73.0830592   3.8678728  58.5718984
  73.8523403   4.0975154  59.8553898  71.0230486   1.1339786  65.7217294
  71.2347381   1.7771546  65.0451675  70.9760234   0.3002103  65.2539224
  65.4418284   2.2899797  59.0327672  65.9056630   2.5687500  58.2432294
  65.1775082   1.3883242  58.8500762  62.3342365   1.8371279  61.9707435
  62.9043722   2.2658547  61.3324919  62.9250477   1.5553863  62.6691621
  58.1212504  -3.3293498  61.1434370  57.3311558  -3.0735969  60.6674481
  58.6123751  -2.5145160  61.2486411  72.1376314   4.0111741  63.8939651
  72.9593757   3.6091929  63.6122333  72.1338717   3.9079976  64.8455767
  60.0727249  -2.9648918  58.1017847  59.2758413  -2.8530224  58.6201343
  59.8452842  -2.6262266  57.2358738  65.9032917   3.5595785  66.0500362
  65.9677350   4.0216192  66.8858534  65.1943841   2.9293150  66.1782672
  56.4050207  -3.0763007  63.5749361  56.6558245  -2.1915997  63.8406937
  56.9409755  -3.2558406  62.8024453  65.6180935   5.2263892  55.9179342
  65.4826610   6.0715428  56.3464190  66.1590747   5.4283170  55.1545276
  59.0710332   2.7439330  56.4907267  59.5834853   3.5382581  56.6412832
  59.7233045   2.0465621  56.4240869  60.8805217   5.8605087  58.5730020
  61.0571845   6.7823051  58.3851004  61.6762050   5.5463506  59.0024400
  60.1657573  -2.0930282  68.4492184  60.0511089  -2.9945024  68.7499282
  59.3102091  -1.8466585  68.0977000  67.2449411   5.8487459  70.0479684
  66.8013265   5.0623837  69.7300589  67.9066625   6.0366609  69.3823575
  62.0036532   7.3783260  64.5740363  62.5543957   7.2500324  63.8017357
  61.1648008   7.6778149  64.2235255  69.3430649   6.1290259  68.0761085
  69.3249125   6.9499140  67.5841355  70.2650569   6.0044334  68.3011227
  65.8003703   3.6434388  68.9184594  66.3332040   2.8822676  68.6883902
  65.2717784   3.3508040  69.6608748  57.0359249   1.0727985  57.2666838
  57.8734471   1.4824993  57.0500545  57.2137517   0.1327427  57.2367032
  67.1656416   2.7720381  56.4303406  66.6377778   2.0373140  56.1176643
  66.6643919   3.5495057  56.1843374  72.1449262   0.9669401  61.5470452
  71.4872937   1.6568663  61.6350581  72.9489661   1.3565833  61.8904438
  65.3109016   0.5900591  49.4338379  64.4036078   0.3589844  49.6329528
  65.8080048  -0.2061790  49.6212360  68.2177095   9.2998098  52.3535065
  67.5438794   9.6029795  52.9620023  68.6042917  10.1027178  52.0040522
  66.4897250   0.6913186  53.9562369  65.5808469   0.4072219  54.0534839
  66.5192333   1.1112264  53.0965676  71.7216517   4.3019775  57.7253536
  71.2678844   3.4610685  57.7818727  71.0910484   4.9381174  58.0628317
  70.1649456   6.1396272  58.6603355  70.4572431   6.7001329  57.9415720
  70.6748077   6.4324833  59.4156514  57.0585420  -1.5881300  57.9377571
  56.8609820  -2.1811939  57.2128638  56.5032084  -1.8929090  58.6553510
  66.1873337   2.2321929  51.2950447  65.7492767   1.5157788  50.8356085
  66.9283778   2.4598044  50.7335539  65.1283082   6.9176623  59.7496808
  65.0859260   7.1437469  58.8205340  66.0445780   6.6839998  59.8982609
  74.3315832   2.5755653  62.3638038  74.7652339   2.4830943  63.2121092
  75.0447413   2.5513154  61.7258054  63.2448882   3.7939652  59.5458771
  64.0389481   3.2989972  59.3441345  62.5340575   3.2657515  59.1826476
  68.0643727   6.1757748  63.8971138  68.1180749   6.7448684  64.6648854
  67.1958508   6.3459633  63.5325175  59.5531646  -2.0617266  55.6218523
  58.6229234  -2.1232811  55.8388485  59.6489118  -2.5841313  54.8255164
  75.1931381   2.6179354  64.8970923  75.3867271   3.5225165  65.1430198
  75.0932000   2.1586773  65.7309508  70.2546490   2.7686097  70.4711804
  70.1031997   2.5396649  69.5541887  70.2451170   3.7256698  70.4843149
  67.0231827   0.3418010  65.4558070  67.9523887   0.4929169  65.2827037
  66.6022857   0.4302030  64.6006717  65.8220158   4.3668674  63.2256608
  65.6831244   3.9987458  64.0982546  65.0334755   4.8816313  63.0540565
  66.4168310   9.4677771  54.5682144  66.5920066   8.9965814  55.3827767
  65.7301098  10.0943537  54.7963405  67.3725373   3.7450277  60.6145445
  67.0375206   3.7051047  61.5103095  66.8729319   3.0794993  60.1415856
  61.3469617  -0.8482093  66.1398027  61.2089415  -1.5801854  66.7409566
  62.2574541  -0.9373193  65.8582214  70.3084565   1.0906311  50.8882505
  69.6913736   0.3653139  50.7915558  69.8401054   1.8515671  50.5449579
  63.9751918  -1.1362134  65.6281706  64.6851537  -1.7768942  65.5868325
  63.9321226  -0.8849239  66.5507887  71.9638697   5.8005219  68.5488285
  71.9051243   5.1164440  67.8818868  72.3658215   6.5424209  68.0968911
  60.9829396  12.6167133  61.3422004  61.2225994  13.2485657  62.0201023
  60.1398592  12.2655173  61.6287364  71.9656104   3.7644803  66.7802265
  71.0782883   3.4270725  66.9028664  72.5354655   3.0327835  67.0171030
  53.6185251   0.0968895  60.1045316  54.3056291  -0.2169375  59.5166332
  53.4633380   1.0010260  59.8312568  65.4957257   8.4246256  63.7463508
  65.4227429   9.2301227  64.2582813  65.0534651   8.6238222  62.9211530
  65.2847037   7.6618026  57.2566330  64.5014559   8.2039706  57.3504554
  65.9839782   8.1792005  57.6560571  67.9555941   8.3233090  65.9021667
  68.6683913   8.9580555  65.8297568  67.4645970   8.4196956  65.0861669
  69.6773468   2.2284342  57.4738959  68.7429747   2.3485805  57.3043663
  69.8550136   1.3256809  57.2098968  63.0067854   6.0727533  66.7227238
  63.7077314   6.7064016  66.8756632  62.5362969   6.4142265  65.9622877
  71.1322250   4.4145483  55.0075145  71.4082094   4.3002078  55.9169019
  70.2626749   4.0162968  54.9687318  67.7676314   8.6631834  58.6507958
  67.9498709   7.8453490  59.1135711  68.5909300   8.8799526  58.2132848
  68.1018480   7.5900019  55.9123007  68.6306246   7.0792474  55.2993169
  68.3646699   7.2742549  56.7768540  66.8556713  -0.6308048  71.0345825
  66.1797350  -0.7313919  71.7048200  67.6784347  -0.7868835  71.4981822
  58.6035573   5.6063888  63.6558340  59.1889009   4.8607576  63.7886245
  58.4060411   5.9167845  64.5395004  61.4574228   8.6415136  58.6720783
  60.7884603   9.1261263  58.1884823  61.3187097   8.8884356  59.5864161
  53.1953227  -1.8230512  62.3762784  53.2337327  -2.3566921  63.1699902
  52.6893520  -2.3495306  61.7573761  65.5979496  10.6758879  65.2703441
  66.1497804  10.8390501  66.0352526  65.9385690  11.2663317  64.5983466
  70.4490371   5.5020137  71.1252096  70.9930275   6.1150095  70.6307050
  69.8677215   6.0599715  71.6419109  56.8261805  -3.0966409  55.4516715
  57.1215246  -4.0055731  55.3983769  55.9249841  -3.1178670  55.1297717
  68.7347884   8.6240855  62.2567123  68.6099023   7.8230595  61.7478069
  69.3926975   9.1187048  61.7681093  70.7982792   6.4249875  63.8846673
  69.8513128   6.3055226  63.8125000  71.1465565   5.5372373  63.9672935
  67.8029225   6.2202591  60.0851026  67.6554188   5.2919298  60.2658596
  68.6282719   6.2422682  59.6008101  71.4063347   7.0431150  61.1715898
  72.3309895   6.8374011  61.0340350  71.2378651   6.7947551  62.0805240
  71.1958663   7.5616817  56.5277990  71.3695541   6.9963240  55.7751842
  71.6887555   8.3617712  56.3457480  57.0135623  -0.4268514  64.5941549
  56.4689091   0.3491294  64.7261823  57.8914973  -0.0797709  64.4360670
  72.1833836   6.8783582  53.6274888  72.8784740   7.4990274  53.8462203
  72.5256986   6.0278933  53.9027266  57.8001645  -1.2998617  67.4871706
  57.0583381  -1.1515982  68.0736336  57.4794389  -1.0390352  66.6238455
  74.0825259   4.3283287  55.1562219  74.6076583   4.6670560  54.4311539
  73.9947612   3.3930302  54.9725354  65.7445308   8.2417361  67.2852096
  66.0532434   7.9966508  68.1574795  66.5420790   8.4463999  66.7970966
  65.7665920  10.3955270  59.5157472  65.3270910   9.9031649  60.2090329
  66.5174037   9.8528238  59.2749547  58.2458259   6.5866811  59.5182100
  59.0716279   6.2870583  59.1380744  57.8952311   5.8174434  59.9671889
  63.2139792   5.9393279  61.5879774  62.5919801   5.2763985  61.2882002
  63.8844659   5.9654411  60.9053422  56.4466864   4.5053138  60.4771034
  55.6098772   4.0775312  60.2955035  56.4190509   4.6985581  61.4141825
  73.7719165   4.9616191  70.4613417  72.9814709   4.9440330  69.9217916
  73.5352520   5.5004484  71.2162453  62.7753299   4.4897203  55.0638234
  62.9241419   5.1732667  54.4104907  63.5819742   4.4702293  55.5787690
  75.3935237   4.2305599  68.0188167  75.1020045   4.5935579  68.8551628
  74.7807368   3.5172607  67.8401499  60.5305932   0.5162380  56.0699303
  60.2851974  -0.3875290  56.2679513  60.7001846   0.5179531  55.1278781
  66.2748704   6.9845333  52.5349982  65.7022671   7.6035520  52.0820454
  66.8481498   7.5344695  53.0689904  69.4945964   7.2682483  53.6658564
  70.4276637   7.2028045  53.8691440  69.4069177   8.1038750  53.2073097
  72.1233981   6.5848354  50.6262512  72.0447612   6.2508217  51.5198270
  72.9443648   7.0770122  50.6253984  66.5434195   2.3723892  71.3366691
  67.4637205   2.5502491  71.5306738  66.5083778   1.4279938  71.1846390
  55.7616360  -2.4337514  60.2619966  55.4419145  -3.2872206  59.9694340
  55.2149789  -2.2188936  61.0177933  59.5396268   0.2824927  63.9789472
  59.7582278   1.2142035  63.9977506  59.9522042  -0.0767099  64.7644276
  55.6304620   1.1865397  62.2313087  54.9368092   0.7719350  61.7183042
  56.3777611   1.2285934  61.6346506  64.2755403  -0.7144729  72.1857283
  63.7922485   0.0855632  72.3921172  64.3616342  -0.7036784  71.2324727
  57.5441363   1.1183651  60.1079102  57.5212051   1.2171338  59.1560985
  57.8541999   1.9648802  60.4296268  60.2028741   3.1759806  64.2225717
  61.1571994   3.1443748  64.1555648  60.0041264   2.7150430  65.0375943
  60.7928123   1.7460922  66.7896514  61.6121012   2.2405001  66.8131352
  61.0664931   0.8292890  66.7614082  58.5578970   8.7179426  61.2395915
  58.4233437   7.9579827  60.6733913  58.1411032   9.4420325  60.7724704
  69.6937933   3.9016349  50.2472490  70.3973783   4.1066352  50.8630146
  68.9700581   4.4693111  50.5121573  61.7148095   9.6148743  61.4514357
  61.5980480  10.5594175  61.3493048  60.8940542   9.3122304  61.8400156
  71.6024630   4.3398878  52.2970950  72.4370234   3.9080077  52.1148425
  71.4408973   4.1680892  53.2247844  71.2570522   0.8430992  53.6627289
  71.2019326   0.6775263  52.7215733  70.6316577   1.5507025  53.8189479
  56.0463037  -3.9200944  67.4888711  56.6921901  -4.4301990  67.9775937
  55.8380188  -3.1832262  68.0632137  68.5716429   3.1479904  72.9880852
  69.4407589   3.3220556  72.6267487  68.0923181   3.9674320  72.8656581
  62.7402610  10.2677005  64.6670286  63.6429856  10.3000615  64.9836781
  62.5139980   9.3377455  64.6816621  64.4956212   9.0207991  61.3280364
  63.5451843   9.0209853  61.2144737  64.7988698   8.2740726  60.8116399
  80.2308905  14.8568529  62.3926127  80.8687315  14.7375277  61.6889467
  80.1129748  15.8049373  62.4514079  77.0398611  14.8095958  62.3287651
  76.7017123  14.6937022  61.4408186  77.9088379  14.4087123  62.3088658
  72.8985427  16.6631434  58.3184542  72.3350292  16.5721371  57.5500830
  72.7837822  15.8431338  58.7987035  77.5218394  15.9630809  68.2873857
  77.5107035  15.5683608  67.4154361  77.6839034  15.2296882  68.8807628
  70.4449859  18.1582626  61.1568763  71.2371151  17.8173450  60.7415062
  70.6846509  18.2677601  62.0770916  78.4784986  20.3302402  53.6299007
  77.8272965  20.9156482  53.2433021  79.2729349  20.8608597  53.6894045
  72.4040613  17.4191539  54.0286142  73.1771489  16.8720526  53.8899017
  72.7566012  18.2835788  54.2400603  74.2425655  18.7467921  67.2353041
  73.9515521  19.6513552  67.1199707  74.8782640  18.7884449  67.9497110
  75.1681862  16.1244770  63.8254401  75.7645435  15.9000792  63.1111364
  75.2256834  15.3829515  64.4279848  74.7406891  13.5784205  51.6604592
  74.9932411  13.0565726  50.8988055  73.8031450  13.4150350  51.7631275
  79.7850174  12.5819983  59.4679335  80.5713263  12.1639406  59.1169752
  80.0488878  13.4866075  59.6360983  79.9560251  18.0192834  54.1667992
  79.3206084  18.0927460  54.8788896  79.6257657  18.6086432  53.4887071
  85.1858601  12.5195217  60.3712313  85.9183773  11.9494433  60.6050143
  84.4297956  12.1316817  60.8118819  74.4603179  15.4812311  53.8628966
  74.3439438  14.8057214  54.5310051  74.5705439  14.9944685  53.0461120
  76.8034720  14.9422458  57.5675656  76.4392928  14.4153079  58.2788577
  77.6601836  14.5520927  57.3942141  82.7084021   6.2316791  64.8306922
  82.3767346   7.1012202  64.6068137  82.1129634   5.9153075  65.5100952
  76.4440207   9.9712358  52.5637004  76.6114610  10.8392594  52.9307475
  76.2537376  10.1339639  51.6398293  79.2015541  18.4329337  64.2302835
  78.9016264  19.3354375  64.1218642  78.8566600  18.1661520  65.0823987
  72.6528022  14.8843133  60.2639539  71.7278518  14.7519348  60.4717231
  72.9012435  15.6637353  60.7609481  82.6012684  10.9511877  61.9100272
  81.6929562  10.8827285  61.6159033  82.5500280  11.4283822  62.7382097
  76.4229428  12.4270015  53.5483671  76.3029053  12.8727066  54.3869151
  75.7282017  12.7755333  52.9897209  70.0136833  14.5276407  61.0983328
  70.1429214  14.7810886  62.0122740  69.3334284  15.1204115  60.7787983
  74.1836320  25.1973657  57.1973802  74.1060350  26.1481482  57.2762283
  73.5797964  24.8519529  57.8548729  76.6753550  12.3701522  69.8535169
  75.8986884  12.9295443  69.8438034  77.3144113  12.8558305  70.3750039
  84.4674331   9.1528315  63.6878146  83.8248711   9.4460848  63.0417940
  83.9629259   9.0381236  64.4931343  82.1214494  12.8991488  54.3764005
  83.0332350  13.1318875  54.2011703  81.6124141  13.4828533  53.8139084
  74.9299922  15.1786976  69.4153136  75.6714607  15.7172020  69.1387960
  74.2236908  15.8053265  69.5724688  80.4055262  17.3216116  68.0125298
  80.8138618  16.8798527  67.2679930  79.6832524  16.7468744  68.2659491
  76.7586332  12.2588723  65.3858855  77.6047527  12.6828137  65.5293504
  76.6984970  11.6022347  66.0797418  80.7284077  17.8817307  61.7677587
  80.0992939  18.0463021  61.0653654  80.3409739  18.2958916  62.5388551
  84.6073309  18.8171745  59.1221950  83.9224347  19.1970646  58.5718984
  84.6917158  19.4267071  59.8553898  79.9085777   9.9193091  67.0440028
  79.6646709  10.6735152  66.5074304  80.1845708  10.2978439  67.8787275
  81.8624240  16.4631704  65.7217294  82.0741135  17.1063464  65.0451675
  81.8153988  15.6294020  65.2539224  79.4650469   9.0749524  62.6253866
  78.6034948   9.3730778  62.9170604  79.4912904   9.2919923  61.6934899
  76.2812039  17.6191715  59.0327672  76.7450384  17.8979418  58.2432294
  76.0168837  16.7175160  58.8500762  73.1736120  17.1663196  61.9707435
  73.7437477  17.5950465  61.3324919  73.7644231  16.8845781  62.6691621
  75.2180925  13.7414867  55.8417237  75.9204968  14.1935911  56.3091163
  74.8861553  13.0998686  56.4697130  73.6661286  12.3326624  70.2168446
  73.0359947  13.0142905  70.4503843  73.5597374  12.2209706  69.2721584
  68.9606259  11.9998420  61.1434370  68.1705313  12.2555948  60.6674481
  69.4517506  12.8146758  61.2486411  82.9770068  19.3403659  63.8939651
  83.7987512  18.9383846  63.6122333  82.9732471  19.2371893  64.8455767
  70.9121004  12.3642999  58.1017847  70.1152167  12.4761693  58.6201343
  70.6846596  12.7029651  57.2358738  76.7426672  18.8887702  66.0500362
  76.8071104  19.3508110  66.8858534  76.0337595  18.2585067  66.1782672
  67.2443962  12.2528910  63.5749361  67.4952000  13.1375920  63.8406937
  67.7803510  12.0733512  62.8024453  91.0676061  15.6842408  60.2424623
  90.3139770  15.1149806  60.0868627  91.2023602  15.6505072  61.1895257
  76.4574689  20.5555810  55.9179342  76.3220364  21.4007346  56.3464190
  76.9984502  20.7575088  55.1545276  72.9442029   6.6347390  72.5793697
  72.5508974   6.0813588  73.2541341  73.7608169   6.9457968  72.9700215
  69.9104087  18.0731248  56.4907267  70.4228607  18.8674498  56.6412832
  70.5626799  17.3757538  56.4240869  71.7198971  21.1897004  58.5730020
  71.8965600  22.1114969  58.3851004  72.5155805  20.8755423  59.0024400
  75.8609990   8.0505269  70.1713954  76.6019703   8.6512422  70.0918416
  76.0927913   7.3082907  69.6131996  71.0051328  13.2361636  68.4492184
  70.8904843  12.3346893  68.7499282  70.1495846  13.4825333  68.0977000
  78.0843166  21.1779376  70.0479684  77.6407020  20.3915755  69.7300589
  78.7460379  21.3658527  69.3823575  72.8430287  22.7075178  64.5740363
  73.3937712  22.5792241  63.8017357  72.0041763  23.0070067  64.2235255
  80.1824404  21.4582176  68.0761085  80.1642879  22.2791057  67.5841355
  81.1044324  21.3336252  68.3011227  76.6397458  18.9726306  68.9184594
  77.1725795  18.2114594  68.6883902  76.1111539  18.6799958  69.6608748
  79.8067153   4.0786372  64.4478236  79.4631422   4.9688013  64.3717346
  80.1746115   3.8888029  63.5847821  67.8753003  16.4019902  57.2666838
  68.7128225  16.8116911  57.0500545  68.0531271  15.4619344  57.2367032
  79.7717436  14.0694983  52.9550671  79.2564059  14.8399588  53.1939058
  79.4994744  13.3960119  53.5783732  77.3564547   8.9144684  58.0135909
  76.5006143   8.5251534  57.8341548  77.7691498   8.9936644  57.1535695
  78.8863693   6.4491027  62.4127469  78.3828489   6.4121162  61.5995274
  79.1794300   7.3583770  62.4724125  75.1306579   6.5329757  61.4193650
  75.9959576   6.3372565  61.0599540  75.1984088   6.3040108  62.3463007
  84.7451710  16.8227338  54.8903844  83.9681152  16.4838497  54.4459006
  85.4243191  16.8279961  54.2158809  79.5603739  11.9422075  54.7810452
  79.2553874  12.2568224  55.6320595  80.5134181  12.0203495  54.8237785
  78.0050171  18.1012298  56.4303406  77.4771532  17.3665058  56.1176643
  77.5037673  18.8786975  56.1843374  82.9843017  16.2961319  61.5470452
  82.3266691  16.9860580  61.6350581  83.7883416  16.6857751  61.8904438
  72.7368898   8.7631965  58.7910017  73.3112650   8.5407146  58.0583210
  73.3239881   8.8320659  59.5438619  81.7948475  14.6505691  59.5974394
  82.3080357  15.2835683  60.0996104  82.4449699  14.0506887  59.2317754
  73.0638485  10.7936426  52.8105903  72.2275798  11.1311112  53.1315177
  72.9243255  10.6585405  51.8733040  75.0391566   5.6373214  57.5185087
  74.3855978   5.3222231  56.8941701  74.9972040   5.0148954  58.2444910
  76.1502771  15.9192509  49.4338379  75.2429832  15.6881762  49.6329528
  76.6473803  15.1230128  49.6212360  79.0570850  24.6290016  52.3535065
  78.3832548  24.9321713  52.9620023  79.4436672  25.4319096  52.0040522
  78.2729306  12.1255147  61.8432734  77.3551868  12.3470094  61.6854422
  78.6889450  12.2001458  60.9844442  79.0564354  13.5246563  56.9735415
  79.8036173  14.0367960  56.6642537  79.3255944  13.2030615  57.8339808
  77.3291004  16.0205103  53.9562369  76.4202223  15.7364136  54.0534839
  77.3586088  16.4404182  53.0965676  82.5610272  19.6311693  57.7253536
  82.1072599  18.7902603  57.7818727  81.9304238  20.2673091  58.0628317
  81.5043191  10.5603679  58.9554204  80.7665948  10.0481065  59.2864446
  81.7569965  10.1204061  58.1437481  81.0043211  21.4688190  58.6603355
  81.2966185  22.0293247  57.9415720  81.5141831  21.7616751  59.4156514
  67.8979175  13.7410618  57.9377571  67.7003574  13.1479978  57.2128638
  67.3425839  13.4362828  58.6553510  75.8775898  13.6333724  60.0572164
  75.9324508  12.6807560  59.9814641  75.0667100  13.7893163  60.5413463
  77.0267092  17.5613847  51.2950447  76.5886522  16.8449706  50.8356085
  77.7677533  17.7889962  50.7335539  73.8168258  12.2510784  57.8162543
  73.0036124  12.5504954  58.2227735  74.3127252  11.8566473  58.5337025
  75.9676836  22.2468541  59.7496808  75.9253015  22.4729387  58.8205340
  76.8839535  22.0131915  59.8982609  79.4142470  12.7152608  66.6477437
  79.7691858  12.9424081  67.5071903  80.0614601  13.0470985  66.0254692
  85.1440207  15.8371044  57.3526766  85.0058105  16.0272640  56.4247955
  84.7876426  16.5990427  57.8094817  73.3082333   9.8229139  63.4323778
  73.9481712   9.6817898  62.7346741  72.4759863   9.5363653  63.0562380
  85.1709586  17.9047571  62.3638038  85.6046093  17.8122860  63.2121092
  85.8841167  17.8805072  61.7258054  74.0842637  19.1231570  59.5458771
  74.8783235  18.6281890  59.3441345  73.3734329  18.5949433  59.1826476
  78.9037481  21.5049665  63.8971138  78.9574504  22.0740602  64.6648854
  78.0352263  21.6751550  63.5325175  70.3925400  13.2674651  55.6218523
  69.4622988  13.2059107  55.8388485  70.4882872  12.7450604  54.8255164
  70.3110949   9.7929464  58.2096765  70.5717767  10.7074798  58.1005925
  71.1328122   9.3253907  58.3593378  71.7835875  11.2067221  65.3795589
  72.4558928  10.9984584  64.7308238  70.9565661  11.0089307  64.9400822
  86.0325136  17.9471272  64.8970923  86.2261026  18.8517082  65.1430198
  85.9325754  17.4878691  65.7309508  77.6861447   7.8329162  67.3961250
  77.0389362   8.5319112  67.3025727  78.4562462   8.2665306  67.7637498
  81.0940245  18.0978015  70.4711804  80.9425751  17.8688566  69.5541887
  81.0844924  19.0548616  70.4843149  77.8625581  15.6709927  65.4558070
  78.7917641  15.8221087  65.2827037  77.4416611  15.7593948  64.6006717
  76.6613913  19.6960592  63.2256608  76.5224998  19.3279376  64.0982546
  75.8728509  20.2108231  63.0540565  77.2562065  24.7969688  54.5682144
  77.4313820  24.3257731  55.3827767  76.5694853  25.4235454  54.7963405
  78.2119128  19.0742194  60.6145445  77.8768961  19.0342964  61.5103095
  77.7123074  18.4086910  60.1415856  72.1863372  14.4809824  66.1398027
  72.0483170  13.7490063  66.7409566  73.0968295  14.3918725  65.8582214
  81.1478320  16.4198229  50.8882505  80.5307490  15.6945057  50.7915558
  80.6794808  17.1807589  50.5449579  74.8145673  14.1929784  65.6281706
  75.5245291  13.5522976  65.5868325  74.7714981  14.4442679  66.5507887
  82.8032451  21.1297137  68.5488285  82.7444997  20.4456357  67.8818868
  83.2051970  21.8716127  68.0968911  73.5274607  11.1795002  67.4477346
  72.9911964  10.7285740  68.0998942  72.9391315  11.3140910  66.7047810
  71.8223150  27.9459051  61.3422004  72.0619748  28.5777575  62.0201023
  70.9792347  27.5947091  61.6287364  72.9376865  10.6383653  50.0103809
  72.0606332  10.5172454  49.6466056  73.4134619   9.8469731  49.7582698
  82.8049859  19.0936721  66.7802265  81.9176637  18.7562643  66.9028664
  83.3748410  18.3619752  67.0171030  64.4579006  15.4260813  60.1045316
  65.1450045  15.1122543  59.5166332  64.3027134  16.3302177  59.8312568
  69.2613728  10.3151009  64.5330340  69.1771916   9.7076679  63.7980750
  68.4396434  10.8060028  64.5339837  76.3351012  23.7538173  63.7463508
  76.2621183  24.5593145  64.2582813  75.8928405  23.9530139  62.9211530
  76.1240792  22.9909943  57.2566330  75.3408313  23.5331624  57.3504554
  76.8233537  23.5083923  57.6560571  79.4337442   8.8004573  59.9000535
  79.9306141   8.0474535  59.5801605  78.6624423   8.8368890  59.3343745
  87.2867199  14.5044938  61.5418827  87.2757075  15.3869654  61.1712760
  86.4184578  14.1516489  61.3473364  78.7949695  23.6525007  65.9021667
  79.5077668  24.2872472  65.8297568  78.3039724  23.7488873  65.0861669
  80.5167222  17.5576260  57.4738959  79.5823501  17.6777723  57.3043663
  80.6943891  16.6548727  57.2098968  76.0172410  10.9421956  59.6272220
  75.6470198  10.3892996  60.3153125  76.5131503  10.3380089  59.0747220
  83.9039774  13.3993579  58.0088993  84.3700226  14.2321571  57.9349295
  84.3547274  12.9338561  58.7134251  73.8461609  21.4019451  66.7227238
  74.5471068  22.0355934  66.8756632  73.3756724  21.7434182  65.9622877
  81.9716005  19.7437401  55.0075145  82.2475849  19.6293995  55.9169019
  81.1020504  19.3454886  54.9687318  81.8756436   5.7674166  62.0479894
  80.9619516   5.9978393  62.2162101  82.3049538   5.8512610  62.8993926
  81.6462895  13.9564058  64.5479788  80.9934345  14.2039966  63.8932241
  82.0243275  13.1428197  64.2142265  78.6070069  23.9923752  58.6507958
  78.7892463  23.1745407  59.1135711  79.4303055  24.2091444  58.2132848
  78.9412234  22.9191937  55.9123007  79.4700001  22.4084391  55.2993169
  79.2040454  22.6034467  56.7768540  77.6950468  14.6983869  71.0345825
  77.0191105  14.5977999  71.7048200  78.5178102  14.5423083  71.4981822
  69.4429327  20.9355806  63.6558340  70.0282764  20.1899494  63.7886245
  69.2454165  21.2459763  64.5395004  72.2967982  23.9707053  58.6720783
  71.6278357  24.4553181  58.1884823  72.1580852  24.2176274  59.5864161
  64.0346982  13.5061406  62.3762784  64.0731081  12.9724997  63.1699902
  63.5287275  12.9796612  61.7573761  76.4373251  26.0050797  65.2703441
  76.9891559  26.1682418  66.0352526  76.7779444  26.5955235  64.5983466
  71.4137744   8.3525947  65.8725326  71.4779071   9.2140778  65.4602724
  71.3504864   7.7399948  65.1397684  70.8890017  10.4249079  69.5198360
  71.5162055  10.0426157  70.1335884  70.0317935  10.2063281  69.8854053
  81.2884125  20.8312054  71.1252096  81.8324029  21.4442013  70.6307050
  80.7070970  21.3891633  71.6419109  67.6655559  12.2325508  55.4516715
  67.9609000  11.3236187  55.3983769  66.7643595  12.2113248  55.1297717
  79.5741638  23.9532772  62.2567123  79.4492778  23.1522512  61.7478069
  80.2320729  24.4478966  61.7681093  71.1949806  10.3081505  61.4344264
  70.4736392  10.9217473  61.2951737  71.9843062  10.8439270  61.3560910
  81.6376546  21.7541792  63.8846673  80.6906882  21.6347144  63.8125000
  81.9859320  20.8664291  63.9672935  73.9976120   7.6435931  67.7084915
  74.5210522   7.8898228  68.4711225  73.7788453   8.4755966  67.2888053
  69.3943401   9.9139606  55.5756040  69.0656107   9.0336985  55.3931146
  69.7482772   9.8587275  56.4632429  78.6422980  21.5494509  60.0851026
  78.4947942  20.6211216  60.2658596  79.4676473  21.5714599  59.6008101
  72.5085224  10.2012576  55.9431518  72.8481297  10.7298497  55.2210126
  72.9557345  10.5392982  56.7190084  82.2457102  22.3723067  61.1715898
  83.1703649  22.1665929  61.0340350  82.0772405  22.1239469  62.0805240
  75.2028665   8.5849626  65.3934586  74.8625485   7.7857440  65.7955266
  74.4967671   8.8851337  64.8211419  75.8545137   5.6698939  63.8461909
  76.6771206   5.1959417  63.7240799  76.0983200   6.4489423  64.3460595
  74.4953371   8.6987197  54.1424811  75.2161734   9.0768450  53.6388527
  73.8718675   9.4176074  54.2459789  78.6384494   9.4032346  55.0783143
  78.8548108  10.2856984  54.7771971  78.1578561   9.0118560  54.3488785
  73.3783715  12.3618060  61.6553888  73.2328296  12.6758363  62.5478169
  72.9008919  12.9802960  61.1024786  75.2380098   9.3520608  61.7034777
  75.2241667   8.4561701  61.3667075  75.9552526   9.3591271  62.3373063
  77.0906229   9.7857948  63.7487905  76.8324007  10.7075018  63.7472235
  76.5591269   9.3888382  64.4388369  82.0352418  22.8908735  56.5277990
  82.2089295  22.3255157  55.7751842  82.5281309  23.6909630  56.3457480
  67.8529378  14.9023404  64.5941549  67.3082846  15.6783212  64.7261823
  68.7308728  15.2494208  64.4360670  74.6416994   8.2334988  56.9722347
  74.7632905   7.3051634  57.1713235  74.3519037   8.2473674  56.0600663
  77.5108185   5.9189898  60.1089067  77.5329881   5.9829231  59.1541047
  77.9276244   5.0794407  60.3029573  87.8891809  15.6545158  58.1468290
  88.3322955  14.9052483  57.7487413  87.0118319  15.6455294  57.7642022
  83.0227590  22.2075499  53.6274888  83.7178495  22.8282192  53.8462203
  83.3650740  21.3570850  53.9027266  68.6395399  14.0293300  67.4871706
  67.8977136  14.1775936  68.0736336  68.3188144  14.2901566  66.6238455
  84.9219013  19.6575205  55.1562219  85.4470338  19.9962478  54.4311539
  84.8341366  18.7222220  54.9725354  76.5839062  23.5709278  67.2852096
  76.8926189  23.3258425  68.1574795  77.3814544  23.7755917  66.7970966
  76.6059674  25.7247188  59.5157472  76.1664664  25.2323567  60.2090329
  77.3567791  25.1820156  59.2749547  69.0852013  21.9158729  59.5182100
  69.9110033  21.6162501  59.1380744  68.7346065  21.1466351  59.9671889
  74.0533546  21.2685197  61.5879774  73.4313556  20.6055902  61.2882002
  74.7238413  21.2946329  60.9053422  67.2860618  19.8345055  60.4771034
  66.4492527  19.4067230  60.2955035  67.2584264  20.0277499  61.4141825
  74.1258074   9.7466985  71.1812280  74.1746229  10.6229108  70.7990049
  74.6680588   9.2044378  70.6083923  84.6112920  20.2908108  70.4613417
  83.8208463  20.2732247  69.9217916  84.3746274  20.8296402  71.2162453
  84.7310795  17.1400575  67.7746145  84.7808799  16.9750582  68.7161668
  84.6224718  16.2727834  67.3844026  73.6147053  19.8189121  55.0638234
  73.7635174  20.5024585  54.4104907  74.4213497  19.7994211  55.5787690
  82.0214557  13.1231503  69.0905452  82.9224420  12.9837968  68.7989450
  82.0962531  13.2885958  70.0303630  76.3557362  10.4998358  67.9358638
  75.4860672  10.7931924  67.6641227  76.5916843  11.0838803  68.6565902
  86.2328991  19.5597516  68.0188167  85.9413800  19.9227497  68.8551628
  85.6201123  18.8464525  67.8401499  87.4324674  17.1250396  60.5390737
  88.2671565  17.5640200  60.7028298  87.5683802  16.6489049  59.7198983
  84.4816180  14.6830131  66.4868225  84.9570301  14.8757777  65.6787076
  83.5581745  14.7389317  66.2411609  71.3699686  15.8454298  56.0699303
  71.1245728  14.9416628  56.2679513  71.5395601  15.8471449  55.1278781
  79.0596396   6.7177975  65.4524059  79.5778340   7.4539001  65.1270547
  78.7051529   7.0241968  66.2870818  70.6395334  11.5782656  53.5685465
  69.9464579  11.6527011  52.9125501  70.3947086  10.8142999  54.0906982
  77.1142459  22.3137251  52.5349982  76.5416426  22.9327438  52.0820454
  77.6875252  22.8636613  53.0689904  83.1817849  11.5595891  64.7196531
  84.1335272  11.6593989  64.7408755  83.0121299  10.7674160  65.2294615
  81.2032228   8.6451474  64.9055931  80.6082160   8.9256487  64.2102420
  80.9181925   9.1345375  65.6772673  80.3339719  22.5974401  53.6658564
  81.2670392  22.5319963  53.8691440  80.2462931  23.4330668  53.2073097
  82.9627735  21.9140271  50.6262512  82.8841367  21.5800135  51.5198270
  83.7837402  22.4062039  50.6253984  85.6605926  14.7802011  63.8338830
  85.6282247  13.8418011  64.0198514  86.2706550  14.8586047  63.1004655
  77.4989257  13.6498064  49.8766034  78.4448362  13.5204272  49.9454452
  77.1203502  12.9112726  50.3535462  85.8100415  11.5713054  63.8797113
  85.2939464  10.7871511  63.6927042  86.6940363  11.2431771  64.0443633
  83.4711142   5.3154070  59.8392926  83.2735963   5.0069158  60.7236258
  84.0810847   6.0415709  59.9690856  91.4782476  15.8418018  62.9744867
  92.2085865  15.5803306  63.5352570  90.8689422  15.1046740  63.0146935
  89.5597773  13.9825880  63.5719318  88.8330937  13.8481845  62.9635810
  89.1445060  14.2902709  64.3776036  77.3827950  17.7015810  71.3366691
  78.3030959  17.8794409  71.5306738  77.3477533  16.7571855  71.1846390
  75.6832174  11.5748040  49.8120919  74.7763630  11.2781153  49.8883633
  75.9608155  11.2777858  48.9455206  66.6010115  12.8954404  60.2619966
  66.2812899  12.0419712  59.9694340  66.0543543  13.1102982  61.0177933
  70.3790022  15.6116845  63.9789472  70.5976032  16.5433952  63.9977506
  70.7915796  15.2524819  64.7644276  77.2994240   6.1184930  55.9665161
  76.4894968   5.7732015  56.3420407  77.9878657   5.8092474  56.5552772
  79.2284788   5.1962977  57.5889457  79.7815827   5.6158430  58.2479481
  79.4654875   4.2698725  57.6312413  75.2517888  11.1850050  73.3692221
  75.1514615  12.1344407  73.3004312  75.0339430  10.8568289  72.4968291
  74.4530959   8.4334975  49.9532899  75.3150123   8.7589874  50.2128716
  74.6381303   7.6466471  49.4405964  66.4698375  16.5157315  62.2313087
  65.7761846  16.1011268  61.7183042  67.2171366  16.5577852  61.6346506
  82.6063596   7.3063502  57.0968122  82.0262265   7.9648306  56.7146174
  82.3399528   6.4840846  56.6855539  81.0567162   6.7068559  59.2989442
  81.5566940   6.8185094  58.4903761  81.7002770   6.4029612  59.9390250
  75.1149158  14.6147189  72.1857283  74.6316239  15.4147549  72.3921172
  75.2010097  14.6255134  71.2324727  68.3835117  16.4475569  60.1079102
  68.3605805  16.5463256  59.1560985  68.6935754  17.2940720  60.4296268
  71.0422495  18.5051724  64.2225717  71.9965749  18.4735666  64.1555648
  70.8435019  18.0442348  65.0375943  71.6321877  17.0752840  66.7896514
  72.4514766  17.5696919  66.8131352  71.9058685  16.1584808  66.7614082
  81.3888474   9.4663592  56.1524470  80.5014329   9.7513243  55.9344665
  81.8042463   9.3057356  55.3051747  84.7403010   9.4910113  59.8678809
  85.5163400   9.9806566  60.1403426  84.0151144   9.9168167  60.3250679
  87.1775568  10.2037732  60.9252750  87.7720059   9.9633468  60.2146058
  87.2502152   9.4844863  61.5526286  69.3972724  24.0471343  61.2395915
  69.2627192  23.2871744  60.6733913  68.9804786  24.7712243  60.7724704
  80.5331687  19.2308267  50.2472490  81.2367537  19.4358269  50.8630146
  79.8094336  19.7985029  50.5121573  81.3629497  14.9818128  56.3674760
  81.3064699  15.4386680  55.5282393  81.9157840  14.2208813  56.1897603
  85.1734303  10.7707860  57.1924880  84.9171237  10.3704496  58.0233087
  84.5487171  11.4851654  57.0675019  89.4846641  13.5103933  59.6996171
  88.9246199  13.5797123  60.4727733  88.8790144  13.3344918  58.9795667
  72.5541850  24.9440660  61.4514357  72.4374234  25.8886093  61.3493048
  71.7334296  24.6414222  61.8400156  82.4418384  19.6690796  52.2970950
  83.2763988  19.2371995  52.1148425  82.2802727  19.4972810  53.2247844
  82.0964277  16.1722909  53.6627289  82.0413080  16.0067181  52.7215733
  81.4710332  16.8798942  53.8189479  66.8856792  11.4090974  67.4888711
  67.5315655  10.8989928  67.9775937  66.6773943  12.1459655  68.0632137
  79.4110184  18.4771821  72.9880852  80.2801343  18.6512473  72.6267487
  78.9316935  19.2966238  72.8656581  75.4060402   5.6731018  53.2412608
  75.3939072   6.6172858  53.3980879  76.2983824   5.4901164  52.9472069
  73.5796364  25.5968922  64.6670286  74.4823611  25.6292532  64.9836781
  73.3533734  24.6669373  64.6816621  75.3349966  24.3499909  61.3280364
  74.3845597  24.3501770  61.2144737  75.6382452  23.6032643  60.8116399
  71.2254283   8.5558591  71.5863726  72.0885744   8.1995396  71.7967050
  70.6519693   8.2172486  72.2739130  91.0702660  30.1860447  62.3926127
  91.7081069  30.0667195  61.6889467  90.9523502  31.1341291  62.4514079
  87.8792366  30.1387875  62.3287651  87.5410877  30.0228940  61.4408186
  88.7482134  29.7379040  62.3088658  88.3612149  31.2922727  68.2873857
  88.3500790  30.8975525  67.4154361  88.5232788  30.5588800  68.8807628
  85.0819410  34.0759839  67.2353041  84.7909276  34.9805470  67.1199707
  85.7176394  34.1176366  67.9497110  86.0075617  31.4536687  63.8254401
  86.6039189  31.2292710  63.1111364  86.0650588  30.7121433  64.4279848
  96.0252355  27.8487134  60.3712313  96.7577527  27.2786351  60.6050143
  95.2691711  27.4608735  60.8118819  93.5477775  21.5608708  64.8306922
  93.2161100  22.4304119  64.6068137  92.9523389  21.2444992  65.5100952
  90.0409295  33.7621254  64.2302835  89.7410018  34.6646293  64.1218642
  89.6960355  33.4953438  65.0823987  93.4406439  26.2803794  61.9100272
  92.5323316  26.2119203  61.6159033  93.3894035  26.7575739  62.7382097
  80.8530588  29.8568325  61.0983328  80.9822969  30.1102804  62.0122740
  80.1728039  30.4496033  60.7787983  87.5147305  27.6993440  69.8535169
  86.7380639  28.2587360  69.8438034  88.1537868  28.1850223  70.3750039
  95.3068085  24.4820233  63.6878146  94.6642465  24.7752766  63.0417940
  94.8023014  24.3673153  64.4931343  85.7693677  30.5078893  69.4153136
  86.5108361  31.0463937  69.1387960  85.0630662  31.1345182  69.5724688
  91.2449017  32.6508034  68.0125298  91.6532373  32.2090444  67.2679930
  90.5226278  32.0760661  68.2659491  87.5980087  27.5880641  65.3858855
  88.4441282  28.0120054  65.5293504  87.5378724  26.9314265  66.0797418
  90.7479532  25.2485009  67.0440028  90.5040464  26.0027070  66.5074304
  91.0239462  25.6270357  67.8787275  92.7017995  31.7923621  65.7217294
  92.9134890  32.4355381  65.0451675  92.6547743  30.9585938  65.2539224
  90.3044224  24.4041442  62.6253866  89.4428703  24.7022696  62.9170604
  90.3306658  24.6211841  61.6934899  84.0129874  32.4955114  61.9707435
  84.5831231  32.9242383  61.3324919  84.6037986  32.2137699  62.6691621
  84.5055041  27.6618542  70.2168446  83.8753701  28.3434822  70.4503843
  84.3991129  27.5501623  69.2721584  79.8000013  27.3290338  61.1434370
  79.0099067  27.5847866  60.6674481  80.2911260  28.1438675  61.2486411
  93.8163823  34.6695577  63.8939651  94.6381266  34.2675764  63.6122333
  93.8126225  34.5663811  64.8455767  81.7514758  27.6934917  58.1017847
  80.9545922  27.8053611  58.6201343  81.5240351  28.0321569  57.2358738
  87.5820426  34.2179620  66.0500362  87.6464859  34.6800027  66.8858534
  86.8731350  33.5876985  66.1782672  78.0837716  27.5820828  63.5749361
  78.3345754  28.4667838  63.8406937  78.6197264  27.4025430  62.8024453
 101.9069816  31.0134325  60.2424623 101.1533524  30.4441723  60.0868627
 102.0417357  30.9796990  61.1895257  83.7835783  21.9639307  72.5793697
  83.3902729  21.4105506  73.2541341  84.6001924  22.2749886  72.9700215
  86.7003744  23.3797187  70.1713954  87.4413458  23.9804340  70.0918416
  86.9321667  22.6374824  69.6131996  81.8445082  28.5653554  68.4492184
  81.7298597  27.6638811  68.7499282  80.9889600  28.8117251  68.0977000
  88.9236920  36.5071294  70.0479684  88.4800774  35.7207673  69.7300589
  89.5854134  36.6950445  69.3823575  83.6824041  38.0367096  64.5740363
  84.2331466  37.9084159  63.8017357  82.8435517  38.3361985  64.2235255
  91.0218158  36.7874094  68.0761085  91.0036634  37.6082975  67.5841355
  91.9438078  36.6628169  68.3011227  87.4791212  34.3018224  68.9184594
  88.0119549  33.5406512  68.6883902  86.9505293  34.0091875  69.6608748
  90.6460907  19.4078289  64.4478236  90.3025177  20.2979931  64.3717346
  91.0139870  19.2179947  63.5847821  89.7257448  21.7782945  62.4127469
  89.2222243  21.7413080  61.5995274  90.0188055  22.6875687  62.4724125
  85.9700334  21.8621674  61.4193650  86.8353330  21.6664483  61.0599540
  86.0377842  21.6332026  62.3463007  83.5762653  24.0923882  58.7910017
  84.1506405  23.8699064  58.0583210  84.1633635  24.1612577  59.5438619
  85.8785320  20.9665131  57.5185087  85.2249733  20.6514148  56.8941701
  85.8365794  20.3440872  58.2444910  89.1123061  27.4547065  61.8432734
  88.1945622  27.6762012  61.6854422  89.5283204  27.5293375  60.9844442
  92.4448573  18.6671849  59.5495973  92.7507450  17.8069212  59.2621888
  93.1701178  19.2589469  59.3494967  78.7372929  29.0702535  57.9377571
  78.5397329  28.4771896  57.2128638  78.1819593  28.7654745  58.6553510
  90.2536224  28.0444526  66.6477437  90.6085612  28.2715999  67.5071903
  90.9008356  28.3762903  66.0254692  84.1476087  25.1521057  63.4323778
  84.7875467  25.0109816  62.7346741  83.3153618  24.8655570  63.0562380
  89.7431236  36.8341583  63.8971138  89.7968258  37.4032519  64.6648854
  88.8746017  37.0043468  63.5325175  81.1504704  25.1221382  58.2096765
  81.4111521  26.0366715  58.1005925  81.9721876  24.6545825  58.3593378
  82.6229629  26.5359139  65.3795589  83.2952683  26.3276501  64.7308238
  81.7959416  26.3381225  64.9400822  96.8718890  33.2763189  64.8970923
  97.0654780  34.1809000  65.1430198  96.7719509  32.8170609  65.7309508
  88.5255201  23.1621080  67.3961250  87.8783116  23.8611030  67.3025727
  89.2956217  23.5957224  67.7637498  91.9333999  33.4269932  70.4711804
  91.7819505  33.1980484  69.5541887  91.9238679  34.3840534  70.4843149
  88.7019335  31.0001845  65.4558070  89.6311395  31.1513005  65.2827037
  88.2810365  31.0885866  64.6006717  87.5007667  35.0252509  63.2256608
  87.3618753  34.6571294  64.0982546  86.7122263  35.5400149  63.0540565
  83.0257126  29.8101742  66.1398027  82.8876924  29.0781981  66.7409566
  83.9362050  29.7210642  65.8582214  85.6539427  29.5221701  65.6281706
  86.3639046  28.8814894  65.5868325  85.6108735  29.7734596  66.5507887
  93.6426206  36.4589055  68.5488285  93.5838752  35.7748275  67.8818868
  94.0445724  37.2008045  68.0968911  84.3668361  26.5086919  67.4477346
  83.8305718  26.0577658  68.0998942  83.7785069  26.6432828  66.7047810
  82.6616905  43.2750969  61.3422004  82.9013503  43.9069493  62.0201023
  81.8186101  42.9239009  61.6287364  93.6443613  34.4228639  66.7802265
  92.7570392  34.0854561  66.9028664  94.2142164  33.6911670  67.0171030
  75.2972760  30.7552730  60.1045316  75.9843800  30.4414461  59.5166332
  75.1420889  31.6594095  59.8312568  80.1007482  25.6442927  64.5330340
  80.0165671  25.0368597  63.7980750  79.2790189  26.1351945  64.5339837
  87.1744766  39.0830091  63.7463508  87.1014938  39.8885063  64.2582813
  86.7322159  39.2822057  62.9211530  90.2731196  24.1296491  59.9000535
  90.7699896  23.3766453  59.5801605  89.5018178  24.1660807  59.3343745
  98.1260954  29.8336856  61.5418827  98.1150830  30.7161572  61.1712760
  97.2578333  29.4808407  61.3473364  89.6343450  38.9816925  65.9021667
  90.3471422  39.6164390  65.8297568  89.1433479  39.0780791  65.0861669
  84.6855363  36.7311369  66.7227238  85.3864823  37.3647852  66.8756632
  84.2150478  37.0726100  65.9622877  92.7150191  21.0966084  62.0479894
  91.8013271  21.3270311  62.2162101  93.1443292  21.1804528  62.8993926
  92.4856649  29.2855976  64.5479788  91.8328100  29.5331883  63.8932241
  92.8637029  28.4720114  64.2142265  88.5344222  30.0275787  71.0345825
  87.8584859  29.9269916  71.7048200  89.3571856  29.8715001  71.4981822
  80.2823081  36.2647724  63.6558340  80.8676518  35.5191412  63.7886245
  80.0847920  36.5751680  64.5395004  74.8740736  28.8353324  62.3762784
  74.9124836  28.3016915  63.1699902  74.3681029  28.3088529  61.7573761
  87.2767005  41.3342715  65.2703441  87.8285313  41.4974336  66.0352526
  87.6173199  41.9247152  64.5983466  82.2531499  23.6817864  65.8725326
  82.3172825  24.5432695  65.4602724  82.1898619  23.0691866  65.1397684
  81.7283771  25.7540997  69.5198360  82.3555810  25.3718074  70.1335884
  80.8711690  25.5355199  69.8854053  92.1277880  36.1603972  71.1252096
  92.6717784  36.7733930  70.6307050  91.5464724  36.7183550  71.6419109
  78.5049314  27.5617426  55.4516715  78.8002755  26.6528104  55.3983769
  77.6037350  27.5405165  55.1297717  90.4135393  39.2824690  62.2567123
  90.2886532  38.4814430  61.7478069  91.0714484  39.7770883  61.7681093
  82.0343561  25.6373423  61.4344264  81.3130147  26.2509390  61.2951737
  82.8236817  26.1731187  61.3560910  92.4770301  37.0833710  63.8846673
  91.5300636  36.9639061  63.8125000  92.8253074  36.1956208  63.9672935
  84.8369874  22.9727849  67.7084915  85.3604276  23.2190146  68.4711225
  84.6182208  23.8047884  67.2888053  86.0422419  23.9141544  65.3934586
  85.7019240  23.1149357  65.7955266  85.3361426  24.2143255  64.8211419
  86.6938891  20.9990857  63.8461909  87.5164961  20.5251335  63.7240799
  86.9376955  21.7781340  64.3460595  84.2177470  27.6909977  61.6553888
  84.0722051  28.0050280  62.5478169  83.7402674  28.3094878  61.1024786
  86.0773853  24.6812525  61.7034777  86.0635422  23.7853619  61.3667075
  86.7946281  24.6883189  62.3373063  87.9299984  25.1149865  63.7487905
  87.6717761  26.0366936  63.7472235  87.3985024  24.7180300  64.4388369
  78.6923132  30.2315322  64.5941549  78.1476600  31.0075130  64.7261823
  79.5702482  30.5786126  64.4360670  85.4810749  23.5626906  56.9722347
  85.6026660  22.6343552  57.1713235  85.1912791  23.5765591  56.0600663
  88.3501939  21.2481816  60.1089067  88.3723636  21.3121149  59.1541047
  88.7669998  20.4086325  60.3029573  79.4789154  29.3585218  67.4871706
  78.7370890  29.5067853  68.0736336  79.1581898  29.6193484  66.6238455
  87.4232817  38.9001196  67.2852096  87.7319943  38.6550343  68.1574795
  88.2208299  39.1047835  66.7970966  78.1254373  35.1636973  60.4771034
  77.2886281  34.7359147  60.2955035  78.0978018  35.3569416  61.4141825
  84.9651828  25.0758903  71.1812280  85.0139984  25.9521026  70.7990049
  85.5074343  24.5336296  70.6083923  95.4506674  35.6200026  70.4613417
  94.6602218  35.6024165  69.9217916  95.2140029  36.1588320  71.2162453
  95.5704549  32.4692492  67.7746145  95.6202554  32.3042500  68.7161668
  95.4618472  31.6019752  67.3844026  92.8608311  28.4523421  69.0905452
  93.7618174  28.3129885  68.7989450  92.9356286  28.6177875  70.0303630
  87.1951117  25.8290275  67.9358638  86.3254426  26.1223841  67.6641227
  87.4310597  26.4130720  68.6565902  97.0722746  34.8889434  68.0188167
  96.7807554  35.2519415  68.8551628  96.4594877  34.1756442  67.8401499
  95.3209934  30.0122049  66.4868225  95.7964056  30.2049695  65.6787076
  94.3975499  30.0681234  66.2411609  89.8990151  22.0469892  65.4524059
  90.4172094  22.7830919  65.1270547  89.5445283  22.3533885  66.2870818
  90.1502745  18.4670175  60.9724955  90.4304499  17.7993364  61.5985382
  90.9353352  18.6599270  60.4599619  94.0211603  26.8887809  64.7196531
  94.9729026  26.9885906  64.7408755  93.8515054  26.0966077  65.2294615
  92.0425983  23.9743392  64.9055931  91.4475915  24.2548405  64.2102420
  91.7575679  24.4637293  65.6772673  96.4999681  30.1093928  63.8338830
  96.4676001  29.1709929  64.0198514  97.1100305  30.1877965  63.1004655
  96.6494169  26.9004972  63.8797113  96.1333218  26.1163428  63.6927042
  97.5334118  26.5723688  64.0443633  94.3104896  20.6445987  59.8392926
  94.1129717  20.3361076  60.7236258  94.9204602  21.3707626  59.9690856
 102.3176231  31.1709935  62.9744867 103.0479619  30.9095223  63.5352570
 101.7083176  30.4338657  63.0146935 100.3991528  29.3117798  63.5719318
  99.6724691  29.1773763  62.9635810  99.9838815  29.6194626  64.3776036
  88.2221704  33.0307728  71.3366691  89.1424714  33.2086327  71.5306738
  88.1871287  32.0863773  71.1846390  77.4403869  28.2246321  60.2619966
  77.1206654  27.3711629  59.9694340  76.8937297  28.4394899  61.0177933
  81.2183777  30.9408762  63.9789472  81.4369787  31.8725870  63.9977506
  81.6309551  30.5816737  64.7644276  88.1387995  21.4476847  55.9665161
  87.3288723  21.1023932  56.3420407  88.8272412  21.1384391  56.5552772
  90.0678543  20.5254894  57.5889457  90.6209582  20.9450348  58.2479481
  90.3048629  19.5990642  57.6312413  86.0911642  26.5141968  73.3692221
  85.9908369  27.4636325  73.3004312  85.8733184  26.1860207  72.4968291
  77.3092129  31.8449233  62.2313087  76.6155601  31.4303185  61.7183042
  78.0565120  31.8869769  61.6346506  93.4457350  22.6355419  57.0968122
  92.8656019  23.2940223  56.7146174  93.1793283  21.8132764  56.6855539
  91.8960916  22.0360477  59.2989442  92.3960695  22.1477012  58.4903761
  92.5396524  21.7321530  59.9390250  85.9542912  29.9439107  72.1857283
  85.4709994  30.7439467  72.3921172  86.0403851  29.9547052  71.2324727
  79.2228872  31.7767486  60.1079102  79.1999560  31.8755174  59.1560985
  79.5329508  32.6232637  60.4296268  81.8816250  33.8343641  64.2225717
  82.8359503  33.8027584  64.1555648  81.6828773  33.3734265  65.0375943
  82.4715632  32.4044758  66.7896514  83.2908521  32.8988836  66.8131352
  82.7452440  31.4876726  66.7614082  95.5796764  24.8202031  59.8678809
  96.3557154  25.3098483  60.1403426  94.8544898  25.2460085  60.3250679
  98.0169323  25.5329650  60.9252750  98.6113814  25.2925386  60.2146058
  98.0895906  24.8136781  61.5526286  80.2366478  39.3763261  61.2395915
  80.1020946  38.6163662  60.6733913  79.8198541  40.1004161  60.7724704
  96.0128058  26.0999778  57.1924880  95.7564992  25.6996413  58.0233087
  95.3880926  26.8143572  57.0675019 100.3240396  28.8395851  59.6996171
  99.7639954  28.9089040  60.4727733  99.7183899  28.6636836  58.9795667
  83.3935604  40.2732578  61.4514357  83.2767989  41.2178010  61.3493048
  82.5728051  39.9706140  61.8400156  77.7250546  26.7382891  67.4888711
  78.3709410  26.2281845  67.9775937  77.5167697  27.4751573  68.0632137
  90.2503938  33.8063739  72.9880852  91.1195098  33.9804391  72.6267487
  89.7710690  34.6258156  72.8656581  86.2454157  21.0022936  53.2412608
  86.2332826  21.9464776  53.3980879  87.1377578  20.8193081  52.9472069
  84.4190118  40.9260840  64.6670286  85.3217365  40.9584450  64.9836781
  84.1927489  39.9961291  64.6816621  90.0606276  17.5965713  57.4958544
  89.2938672  17.0424199  57.6415227  90.4716981  17.6687581  58.3572696
  82.0648037  23.8850508  71.5863726  82.9279499  23.5287313  71.7967050
  81.4913448  23.5464403  72.2739130 101.9096414  45.5152365  62.3926127
 102.5474824  45.3959112  61.6889467 101.7917257  46.4633209  62.4514079
  98.7186120  45.4679793  62.3287651  98.3804632  45.3520858  61.4408186
  99.5875888  45.0670958  62.3088658  94.5772936  47.3215269  58.3184542
  94.0137801  47.2305206  57.5500830  94.4625331  46.5015174  58.7987035
  99.2005903  46.6214645  68.2873857  99.1894544  46.2267443  67.4154361
  99.3626543  45.8880717  68.8807628  92.1237368  48.8166461  61.1568763
  92.9158660  48.4757286  60.7415062  92.3634018  48.9261436  62.0770916
 100.1572495  50.9886237  53.6299007  99.5060474  51.5740317  53.2433021
 100.9516857  51.5192432  53.6894045  94.0828122  48.0775374  54.0286142
  94.8558998  47.5304361  53.8899017  94.4353521  48.9419624  54.2400603
  95.9213164  49.4051756  67.2353041  95.6303030  50.3097387  67.1199707
  96.5570149  49.4468284  67.9497110  96.8469371  46.7828605  63.8254401
  97.4432944  46.5584627  63.1111364  96.9044343  46.0413350  64.4279848
  96.4194400  44.2368040  51.6604592  96.6719920  43.7149562  50.8988055
  95.4818959  44.0734186  51.7631275 101.4637682  43.2403819  59.4679335
 102.2500772  42.8223242  59.1169752 101.7276387  44.1449911  59.6360983
 101.6347760  48.6776669  54.1667992 100.9993593  48.7511295  54.8788896
 101.3045166  49.2670268  53.4887071 106.8646110  43.1779052  60.3712313
 107.5971282  42.6078269  60.6050143 106.1085465  42.7900652  60.8118819
  96.1390688  46.1396146  53.8628966  96.0226947  45.4641050  54.5310051
  96.2492948  45.6528520  53.0461120  98.4822229  45.6006293  57.5675656
  98.1180437  45.0736914  58.2788577  99.3389345  45.2104762  57.3942141
 104.3871530  36.8900626  64.8306922 104.0554855  37.7596037  64.6068137
 103.7917143  36.5736910  65.5100952 100.8803049  49.0913172  64.2302835
 100.5803773  49.9938211  64.1218642 100.5354109  48.8245355  65.0823987
  94.3315531  45.5426969  60.2639539  93.4066027  45.4103183  60.4717231
  94.5799944  46.3221188  60.7609481 104.2800193  41.6095712  61.9100272
 103.3717071  41.5411121  61.6159033 104.2287789  42.0867657  62.7382097
  98.1016937  43.0853851  53.5483671  97.9816562  43.5310901  54.3869151
  97.4069526  43.4339168  52.9897209  91.6924342  45.1860242  61.0983328
  91.8216723  45.4394721  62.0122740  91.0121793  45.7787950  60.7787983
  95.8623829  55.8557492  57.1973802  95.7847859  56.8065317  57.2762283
  95.2585473  55.5103365  57.8548729  98.3541059  43.0285358  69.8535169
  97.5774393  43.5879278  69.8438034  98.9931622  43.5142141  70.3750039
 106.1461840  39.8112151  63.6878146 105.5036220  40.1044684  63.0417940
 105.6416768  39.6965071  64.4931343 103.8002003  43.5575324  54.3764005
 104.7119859  43.7902710  54.2011703 103.2911650  44.1412368  53.8139084
  96.6087431  45.8370811  69.4153136  97.3502116  46.3755855  69.1387960
  95.9024417  46.4637100  69.5724688  98.4373841  42.9172558  65.3858855
  99.2835036  43.3411972  65.5293504  98.3772479  42.2606183  66.0797418
 102.4071586  48.5401142  61.7677587 101.7780448  48.7046856  61.0653654
 102.0197248  48.9542752  62.5388551 106.2860818  49.4755580  59.1221950
 105.6011856  49.8554481  58.5718984 106.3704667  50.0850907  59.8553898
 101.5873286  40.5776927  67.0440028 101.3434218  41.3318987  66.5074304
 101.8633217  40.9562274  67.8787275 103.5411749  47.1215539  65.7217294
 103.7528644  47.7647299  65.0451675 103.4941497  46.2877856  65.2539224
 101.1437978  39.7333360  62.6253866 100.2822457  40.0314613  62.9170604
 101.1700413  39.9503759  61.6934899  97.9599548  48.2775550  59.0327672
  98.4237893  48.5563253  58.2432294  97.6956346  47.3758995  58.8500762
  94.8523629  47.8247032  61.9707435  95.4224986  48.2534300  61.3324919
  95.4431740  47.5429617  62.6691621  95.3448795  42.9910459  70.2168446
  94.7147456  43.6726740  70.4503843  95.2384883  42.8793541  69.2721584
  90.6393768  42.6582255  61.1434370  89.8492822  42.9139784  60.6674481
  91.1305015  43.4730593  61.2486411 104.6557577  49.9987494  63.8939651
 105.4775021  49.5967682  63.6122333 104.6519980  49.8955729  64.8455767
  98.4214181  49.5471538  66.0500362  98.4858613  50.0091945  66.8858534
  97.7125104  48.9168903  66.1782672  88.9231471  42.9112746  63.5749361
  89.1739509  43.7959756  63.8406937  89.4591019  42.7317347  62.8024453
 112.7463570  46.3426243  60.2424623 111.9927279  45.7733641  60.0868627
 112.8811111  46.3088907  61.1895257  98.1362198  51.2139645  55.9179342
  98.0007873  52.0591181  56.3464190  98.6772011  51.4158923  55.1545276
  94.6229538  37.2931225  72.5793697  94.2296483  36.7397424  73.2541341
  95.4395678  37.6041804  72.9700215  91.5891596  48.7315083  56.4907267
  92.1016116  49.5258334  56.6412832  92.2414308  48.0341374  56.4240869
  93.3986480  51.8480840  58.5730020  93.5753109  52.7698804  58.3851004
  94.1943314  51.5339259  59.0024400  97.5397499  38.7089104  70.1713954
  98.2807212  39.3096257  70.0918416  97.7715422  37.9666742  69.6131996
  92.6838837  43.8945471  68.4492184  92.5692352  42.9930729  68.7499282
  91.8283355  44.1409168  68.0977000  99.7630675  51.8363212  70.0479684
  99.3194529  51.0499590  69.7300589 100.4247888  52.0242362  69.3823575
  94.5217796  53.3659013  64.5740363  95.0725221  53.2376077  63.8017357
  93.6829272  53.6653902  64.2235255 101.8611913  52.1166012  68.0761085
 101.8430388  52.9374893  67.5841355 102.7831833  51.9920087  68.3011227
  98.3184967  49.6310141  68.9184594  98.8513304  48.8698429  68.6883902
  97.7899048  49.3383793  69.6608748 101.4854662  34.7370207  64.4478236
 101.1418931  35.6271849  64.3717346 101.8533624  34.5471865  63.5847821
  89.5540512  47.0603738  57.2666838  90.3915734  47.4700746  57.0500545
  89.7318780  46.1203180  57.2367032 101.4504944  44.7278818  52.9550671
 100.9351568  45.4983423  53.1939058 101.1782253  44.0543954  53.5783732
 100.5651202  37.1074862  62.4127469 100.0615998  37.0704997  61.5995274
 100.8581809  38.0167605  62.4724125 106.4239219  47.4811173  54.8903844
 105.6468661  47.1422332  54.4459006 107.1030700  47.4863796  54.2158809
  99.6837680  48.7596134  56.4303406  99.1559041  48.0248893  56.1176643
  99.1825182  49.5370810  56.1843374 104.6630526  46.9545154  61.5470452
 104.0054200  47.6444416  61.6350581 105.4670925  47.3441586  61.8904438
 103.4735984  45.3089527  59.5974394 103.9867866  45.9419519  60.0996104
 104.1237208  44.7090722  59.2317754  97.8290280  46.5776344  49.4338379
  96.9217341  46.3465597  49.6329528  98.3261312  45.7813963  49.6212360
 100.7358359  55.2873851  52.3535065 100.0620057  55.5905548  52.9620023
 101.1224181  56.0902931  52.0040522  99.9516815  42.7838982  61.8432734
  99.0339377  43.0053929  61.6854422 100.3676959  42.8585293  60.9844442
 100.7351863  44.1830398  56.9735415 101.4823682  44.6951795  56.6642537
 101.0043453  43.8614451  57.8339808  99.0078513  46.6788939  53.9562369
  98.0989732  46.3947972  54.0534839  99.0373597  47.0988017  53.0965676
 104.2397781  50.2895528  57.7253536 103.7860108  49.4486438  57.7818727
 103.6091747  50.9256927  58.0628317 103.1830700  41.2187514  58.9554204
 102.4453457  40.7064901  59.2864446 103.4357474  40.7787896  58.1437481
 102.6830720  52.1272025  58.6603355 102.9753694  52.6877082  57.9415720
 103.1929340  52.4200586  59.4156514 103.2842327  33.9963766  59.5495973
 103.5901204  33.1361130  59.2621888 104.0094932  34.5881387  59.3494967
  97.5563407  44.2917559  60.0572164  97.6112017  43.3391396  59.9814641
  96.7454609  44.4476999  60.5413463  98.7054601  48.2197682  51.2950447
  98.2674031  47.5033541  50.8356085  99.4465042  48.4473797  50.7335539
  97.6464345  52.9052376  59.7496808  97.6040524  53.1313222  58.8205340
  98.5627044  52.6715751  59.8982609 101.0929979  43.3736444  66.6477437
 101.4479367  43.6007917  67.5071903 101.7402110  43.7054820  66.0254692
 106.8227716  46.4954880  57.3526766 106.6845614  46.6856475  56.4247955
 106.4663935  47.2574262  57.8094817  94.9869842  40.4812975  63.4323778
  95.6269221  40.3401734  62.7346741  94.1547372  40.1947488  63.0562380
 106.8497095  48.5631407  62.3638038 107.2833602  48.4706696  63.2121092
 107.5628676  48.5388907  61.7258054  95.7630146  49.7815405  59.5458771
  96.5570744  49.2865725  59.3441345  95.0521838  49.2533268  59.1826476
 100.5824990  52.1633501  63.8971138 100.6362013  52.7324437  64.6648854
  99.7139772  52.3335386  63.5325175  93.4623384  41.8651057  65.3795589
  94.1346437  41.6568419  64.7308238  92.6353170  41.6673143  64.9400822
 107.7112645  48.6055107  64.8970923 107.9048535  49.5100918  65.1430198
 107.6113263  48.1462526  65.7309508  99.3648956  38.4912998  67.3961250
  98.7176871  39.1902947  67.3025727 100.1349971  38.9249142  67.7637498
 102.7727754  48.7561850  70.4711804 102.6213260  48.5272402  69.5541887
 102.7632433  49.7132451  70.4843149  99.5413090  46.3293763  65.4558070
 100.4705150  46.4804922  65.2827037  99.1204120  46.4177783  64.6006717
  98.3401422  50.3544427  63.2256608  98.2012507  49.9863211  64.0982546
  97.5516018  50.8692067  63.0540565  98.9349574  55.4553524  54.5682144
  99.1101329  54.9841567  55.3827767  98.2482362  56.0819290  54.7963405
  99.8906637  49.7326030  60.6145445  99.5556470  49.6926800  61.5103095
  99.3910583  49.0670746  60.1415856  93.8650881  45.1393660  66.1398027
  93.7270679  44.4073899  66.7409566  94.7755804  45.0502560  65.8582214
 102.8265829  47.0782064  50.8882505 102.2094999  46.3528892  50.7915558
 102.3582317  47.8391424  50.5449579  96.4933182  44.8513619  65.6281706
  97.2032800  44.2106811  65.5868325  96.4502490  45.1026514  66.5507887
 104.4819960  51.7880972  68.5488285 104.4232506  51.1040193  67.8818868
 104.8839479  52.5299962  68.0968911  95.2062116  41.8378837  67.4477346
  94.6699473  41.3869575  68.0998942  94.6178824  41.9724746  66.7047810
 104.4837367  49.7520556  66.7802265 103.5964146  49.4146478  66.9028664
 105.0535919  49.0203588  67.0171030  86.1366515  46.0844648  60.1045316
  86.8237554  45.7706378  59.5166332  85.9814643  46.9886013  59.8312568
  90.9401237  40.9734845  64.5330340  90.8559425  40.3660514  63.7980750
  90.1183943  41.4643863  64.5339837  98.0138521  54.4122009  63.7463508
  97.9408692  55.2176980  64.2582813  97.5715914  54.6113975  62.9211530
  97.8028300  53.6493779  57.2566330  97.0195822  54.1915459  57.3504554
  98.5021046  54.1667758  57.6560571 108.9654708  45.1628774  61.5418827
 108.9544584  46.0453489  61.1712760 108.0972087  44.8100325  61.3473364
 100.4737204  54.3108843  65.9021667 101.1865177  54.9456308  65.8297568
  99.9827233  54.4072709  65.0861669 102.1954731  48.2160095  57.4738959
 101.2611010  48.3361558  57.3043663 102.3731400  47.3132562  57.2098968
 105.5827283  44.0577415  58.0088993 106.0487735  44.8905406  57.9349295
 106.0334783  43.5922396  58.7134251  95.5249118  52.0603286  66.7227238
  96.2258577  52.6939769  66.8756632  95.0544233  52.4018018  65.9622877
 103.6503514  50.4021236  55.0075145 103.9263358  50.2877831  55.9169019
 102.7808012  50.0038721  54.9687318 103.5543945  36.4258002  62.0479894
 102.6407025  36.6562229  62.2162101 103.9837047  36.5096446  62.8993926
 103.3250404  44.6147894  64.5479788 102.6721854  44.8623801  63.8932241
 103.7030784  43.8012032  64.2142265 100.2857578  54.6507587  58.6507958
 100.4679972  53.8329243  59.1135711 101.1090564  54.8675279  58.2132848
 100.6199743  53.5775772  55.9123007 101.1487510  53.0668227  55.2993169
 100.8827963  53.2618302  56.7768540  99.3737977  45.3567705  71.0345825
  98.6978614  45.2561834  71.7048200 100.1965611  45.2006918  71.4981822
  91.1216836  51.5939641  63.6558340  91.7070273  50.8483329  63.7886245
  90.9241674  51.9043598  64.5395004  93.9755491  54.6290889  58.6720783
  93.3065866  55.1137016  58.1884823  93.8368361  54.8760109  59.5864161
  85.7134491  44.1645242  62.3762784  85.7518590  43.6308832  63.1699902
  85.2074784  43.6380447  61.7573761  98.1160760  56.6634632  65.2703441
  98.6679068  56.8266254  66.0352526  98.4566953  57.2539070  64.5983466
  93.0925253  39.0109782  65.8725326  93.1566580  39.8724613  65.4602724
  93.0292373  38.3983784  65.1397684  92.5677526  41.0832915  69.5198360
  93.1949564  40.7009992  70.1335884  91.7105444  40.8647116  69.8854053
 102.9671634  51.4895890  71.1252096 103.5111538  52.1025848  70.6307050
 102.3858479  52.0475468  71.6419109 101.2529147  54.6116608  62.2567123
 101.1280287  53.8106348  61.7478069 101.9108238  55.1062801  61.7681093
  92.8737315  40.9665340  61.4344264  92.1523901  41.5801308  61.2951737
  93.6630571  41.5023105  61.3560910 103.3164055  52.4125628  63.8846673
 102.3694391  52.2930979  63.8125000 103.6646829  51.5248126  63.9672935
  95.6763629  38.3019767  67.7084915  96.1998031  38.5482063  68.4711225
  95.4575962  39.1339802  67.2888053 100.3210489  52.2078344  60.0851026
 100.1735451  51.2795051  60.2658596 101.1463982  52.2298435  59.6008101
 103.9244611  53.0306903  61.1715898 104.8491158  52.8249764  61.0340350
 103.7559914  52.7823304  62.0805240  96.8816174  39.2433462  65.3934586
  96.5412994  38.4441275  65.7955266  96.1755180  39.5435173  64.8211419
  97.5332646  36.3282774  63.8461909  98.3558715  35.8543252  63.7240799
  97.7770709  37.1073258  64.3460595  95.0571224  43.0201895  61.6553888
  94.9115805  43.3342198  62.5478169  94.5796428  43.6386795  61.1024786
  96.9167607  40.0104443  61.7034777  96.9029176  39.1145536  61.3667075
  97.6340035  40.0175107  62.3373063  98.7693738  40.4441783  63.7487905
  98.5111516  41.3658854  63.7472235  98.2378778  40.0472218  64.4388369
 103.7139927  53.5492570  56.5277990 103.8876804  52.9838993  55.7751842
 104.2068818  54.3493465  56.3457480  89.5316887  45.5607239  64.5941549
  88.9870355  46.3367047  64.7261823  90.4096236  45.9078044  64.4360670
 109.5679318  46.3128993  58.1468290 110.0110464  45.5636318  57.7487413
 108.6905828  46.3039130  57.7642022 104.7015099  52.8659335  53.6274888
 105.3966004  53.4866027  53.8462203 105.0438249  52.0154686  53.9027266
  90.3182908  44.6877136  67.4871706  89.5764645  44.8359771  68.0736336
  89.9975653  44.9485401  66.6238455 106.6006522  50.3159040  55.1562219
 107.1257847  50.6546313  54.4311539 106.5128875  49.3806055  54.9725354
  98.2626571  54.2293114  67.2852096  98.5713698  53.9842261  68.1574795
  99.0602053  54.4339752  66.7970966  98.2847183  56.3831023  59.5157472
  97.8452173  55.8907402  60.2090329  99.0355300  55.8403991  59.2749547
  90.7639522  52.5742564  59.5182100  91.5897542  52.2746336  59.1380744
  90.4133574  51.8050187  59.9671889  95.7321055  51.9269033  61.5879774
  95.1101065  51.2639738  61.2882002  96.4025922  51.9530164  60.9053422
  88.9648127  50.4928891  60.4771034  88.1280036  50.0651065  60.2955035
  88.9371773  50.6861334  61.4141825  95.8045583  40.4050821  71.1812280
  95.8533738  41.2812943  70.7990049  96.3468097  39.8628214  70.6083923
 106.2900428  50.9491944  70.4613417 105.4995972  50.9316083  69.9217916
 106.0533783  51.4880237  71.2162453  95.2934562  50.4772956  55.0638234
  95.4422683  51.1608420  54.4104907  96.1001006  50.4578046  55.5787690
 103.7002066  43.7815338  69.0905452 104.6011929  43.6421803  68.7989450
 103.7750040  43.9469793  70.0303630  98.0344871  41.1582193  67.9358638
  97.1648181  41.4515759  67.6641227  98.2704352  41.7422638  68.6565902
 107.9116500  50.2181352  68.0188167 107.6201309  50.5811332  68.8551628
 107.2988632  49.5048360  67.8401499 109.1112183  47.7834231  60.5390737
 109.9459074  48.2224036  60.7028298 109.2471311  47.3072885  59.7198983
 106.1603689  45.3413966  66.4868225 106.6357810  45.5341613  65.6787076
 105.2369254  45.3973152  66.2411609  93.0487195  46.5038133  56.0699303
  92.8033237  45.6000463  56.2679513  93.2183110  46.5055284  55.1278781
 100.7383905  37.3761810  65.4524059 101.2565849  38.1122837  65.1270547
 100.3839038  37.6825803  66.2870818 100.9896499  33.7962092  60.9724955
 101.2698253  33.1285281  61.5985382 101.7747106  33.9891188  60.4599619
  98.7929968  52.9721086  52.5349982  98.2203935  53.5911273  52.0820454
  99.3662761  53.5220448  53.0689904 104.8605358  42.2179726  64.7196531
 105.8122780  42.3177824  64.7408755 104.6908808  41.4257995  65.2294615
 102.8819737  39.3035310  64.9055931 102.2869669  39.5840322  64.2102420
 102.5969434  39.7929211  65.6772673 102.0127228  53.2558236  53.6658564
 102.9457901  53.1903798  53.8691440 101.9250440  54.0914503  53.2073097
 104.6415244  52.5724107  50.6262512 104.5628876  52.2383970  51.5198270
 105.4624911  53.0645875  50.6253984 107.3393435  45.4385846  63.8338830
 107.3069755  44.5001847  64.0198514 107.9494059  45.5169883  63.1004655
 107.4887924  42.2296890  63.8797113 106.9726973  41.4455346  63.6927042
 108.3727872  41.9015606  64.0443633 105.1498651  35.9737905  59.8392926
 104.9523472  35.6652993  60.7236258 105.7598356  36.6999544  59.9690856
 113.1569985  46.5001853  62.9744867 113.8873374  46.2387141  63.5352570
 112.5476931  45.7630575  63.0146935  88.2797624  43.5538239  60.2619966
  87.9600408  42.7003547  59.9694340  87.7331052  43.7686817  61.0177933
  92.0577531  46.2700680  63.9789472  92.2763541  47.2017788  63.9977506
  92.4703305  45.9108654  64.7644276 100.9072297  35.8546812  57.5889457
 101.4603336  36.2742265  58.2479481 101.1442384  34.9282560  57.6312413
  96.9305397  41.8433886  73.3692221  96.8302124  42.7928243  73.3004312
  96.7126939  41.5152125  72.4968291  88.1485884  47.1741150  62.2313087
  87.4549355  46.7595103  61.7183042  88.8958875  47.2161687  61.6346506
 104.2851104  37.9647337  57.0968122 103.7049774  38.6232141  56.7146174
 104.0187037  37.1424682  56.6855539 102.7354671  37.3652395  59.2989442
 103.2354449  37.4768929  58.4903761 103.3790279  37.0613448  59.9390250
  96.7936667  45.2731024  72.1857283  96.3103748  46.0731385  72.3921172
  96.8797606  45.2838969  71.2324727  90.0622626  47.1059404  60.1079102
  90.0393314  47.2047091  59.1560985  90.3723263  47.9524555  60.4296268
  92.7210004  49.1635559  64.2225717  93.6753258  49.1319501  64.1555648
  92.5222528  48.7026183  65.0375943  93.3109386  47.7336675  66.7896514
  94.1302275  48.2280754  66.8131352  93.5846194  46.8168643  66.7614082
 106.4190519  40.1493948  59.8678809 107.1950909  40.6390401  60.1403426
 105.6938653  40.5752003  60.3250679 108.8563077  40.8621568  60.9252750
 109.4507568  40.6217304  60.2146058 108.9289661  40.1428698  61.5526286
  91.0760233  54.7055179  61.2395915  90.9414701  53.9455580  60.6733913
  90.6592295  55.4296079  60.7724704 102.2119196  49.8892102  50.2472490
 102.9155046  50.0942105  50.8630146 101.4881845  50.4568864  50.5121573
 103.0417006  45.6401963  56.3674760 102.9852208  46.0970515  55.5282393
 103.5945349  44.8792648  56.1897603 106.8521812  41.4291695  57.1924880
 106.5958746  41.0288331  58.0233087 106.2274680  42.1435489  57.0675019
 111.1634150  44.1687769  59.6996171 110.6033708  44.2380958  60.4727733
 110.5577653  43.9928753  58.9795667  94.2329359  55.6024496  61.4514357
  94.1161743  56.5469928  61.3493048  93.4121805  55.2998057  61.8400156
 104.1205893  50.3274631  52.2970950 104.9551497  49.8955830  52.1148425
 103.9590236  50.1556645  53.2247844 103.7751786  46.8306745  53.6627289
 103.7200589  46.6651016  52.7215733 103.1497841  47.5382778  53.8189479
  88.5644301  42.0674809  67.4888711  89.2103164  41.5573763  67.9775937
  88.3561452  42.8043491  68.0632137 101.0897693  49.1355657  72.9880852
 101.9588852  49.3096309  72.6267487 100.6104444  49.9550073  72.8656581
  97.0137475  55.0083744  61.3280364  96.0633106  55.0085606  61.2144737
  97.3169961  54.2616479  60.8116399 100.9000030  32.9257630  57.4958544
 100.1332426  32.3716117  57.6415227 101.3110735  32.9979499  58.3572696
  92.9041792  39.2142426  71.5863726  93.7673253  38.8579231  71.7967050
  92.3307202  38.8756321  72.2739130 112.7490168  60.8444282  62.3926127
 113.3868578  60.7251030  61.6889467 112.6311011  61.7925126  62.4514079
 109.5579875  60.7971711  62.3287651 109.2198386  60.6812775  61.4408186
 110.4269643  60.3962876  62.3088658 105.4166690  62.6507187  58.3184542
 104.8531556  62.5597124  57.5500830 105.3019086  61.8307091  58.7987035
 110.0399658  61.9506562  68.2873857 110.0288299  61.5559361  67.4154361
 110.2020297  61.2172635  68.8807628 102.9631122  64.1458379  61.1568763
 103.7552414  63.8049203  60.7415062 103.2027773  64.2553354  62.0770916
 110.9966249  66.3178155  53.6299007 110.3454229  66.9032235  53.2433021
 111.7910612  66.8484350  53.6894045 104.9221876  63.4067292  54.0286142
 105.6952752  62.8596279  53.8899017 105.2747275  64.2711541  54.2400603
 106.7606919  64.7343674  67.2353041 106.4696785  65.6389305  67.1199707
 107.3963903  64.7760202  67.9497110 107.6863126  62.1120523  63.8254401
 108.2826698  61.8876545  63.1111364 107.7438097  61.3705268  64.4279848
 107.2588154  59.5659958  51.6604592 107.5113675  59.0441479  50.8988055
 106.3212713  59.4026103  51.7631275 112.3031437  58.5695736  59.4679335
 113.0894526  58.1515160  59.1169752 112.5670141  59.4741829  59.6360983
 112.4741514  64.0068587  54.1667992 111.8387347  64.0803213  54.8788896
 112.1438921  64.5962185  53.4887071 117.7039864  58.5070970  60.3712313
 118.4365036  57.9370186  60.6050143 116.9479220  58.1192570  60.8118819
 106.9784443  61.4688064  53.8628966 106.8620701  60.7932967  54.5310051
 107.0886703  60.9820438  53.0461120 109.3215984  60.9298211  57.5675656
 108.9574191  60.4028832  58.2788577 110.1783100  60.5396680  57.3942141
 115.2265284  52.2192544  64.8306922 114.8948609  53.0887955  64.6068137
 114.6310898  51.9028828  65.5100952 108.9621471  55.9588111  52.5637004
 109.1295873  56.8268347  52.9307475 108.7718640  56.1215392  51.6398293
 111.7196804  64.4205090  64.2302835 111.4197527  65.3230128  64.1218642
 111.3747864  64.1537273  65.0823987 105.1709285  60.8718886  60.2639539
 104.2459782  60.7395101  60.4717231 105.4193699  61.6513106  60.7609481
 115.1193948  56.9387630  61.9100272 114.2110825  56.8703038  61.6159033
 115.0681544  57.4159575  62.7382097 108.9410692  58.4145768  53.5483671
 108.8210317  58.8602819  54.3869151 108.2463280  58.7631086  52.9897209
 102.5318097  60.5152160  61.0983328 102.6610478  60.7686639  62.0122740
 101.8515548  61.1079868  60.7787983 106.7017584  71.1849410  57.1973802
 106.6241613  72.1357235  57.2762283 106.0979227  70.8395282  57.8548729
 109.1934814  58.3577275  69.8535169 108.4168148  58.9171196  69.8438034
 109.8325377  58.8434058  70.3750039 116.9855594  55.1404068  63.6878146
 116.3429974  55.4336601  63.0417940 116.4810523  55.0256989  64.4931343
 114.6395758  58.8867241  54.3764005 115.5513614  59.1194628  54.2011703
 114.1305405  59.4704286  53.8139084 107.4481186  61.1662729  69.4153136
 108.1895870  61.7047773  69.1387960 106.7418171  61.7929018  69.5724688
 112.9236526  63.3091869  68.0125298 113.3319882  62.8674280  67.2679930
 112.2013787  62.7344497  68.2659491 109.2767596  58.2464476  65.3858855
 110.1228791  58.6703890  65.5293504 109.2166233  57.5898100  66.0797418
 113.2465340  63.8693060  61.7677587 112.6174203  64.0338774  61.0653654
 112.8591002  64.2834669  62.5388551 117.1254572  64.8047498  59.1221950
 116.4405610  65.1846399  58.5718984 117.2098421  65.4142824  59.8553898
 112.4267041  55.9068844  67.0440028 112.1827973  56.6610905  66.5074304
 112.7026971  56.2854192  67.8787275 114.3805504  62.4507457  65.7217294
 114.5922399  63.0939217  65.0451675 114.3335252  61.6169773  65.2539224
 111.9831733  55.0625277  62.6253866 111.1216212  55.3606531  62.9170604
 112.0094167  55.2795676  61.6934899 108.7993302  63.6067468  59.0327672
 109.2631648  63.8855171  58.2432294 108.5350100  62.7050913  58.8500762
 105.6917383  63.1538949  61.9707435 106.2618740  63.5826218  61.3324919
 106.2825495  62.8721534  62.6691621 107.7362188  59.7290620  55.8417237
 108.4386231  60.1811664  56.3091163 107.4042817  59.0874439  56.4697130
 106.1842550  58.3202377  70.2168446 105.5541210  59.0018658  70.4503843
 106.0778637  58.2085459  69.2721584 101.4787522  57.9874173  61.1434370
 100.6886576  58.2431702  60.6674481 101.9698769  58.8022511  61.2486411
 115.4951332  65.3279412  63.8939651 116.3168775  64.9259599  63.6122333
 115.4913734  65.2247646  64.8455767 103.4302267  58.3518752  58.1017847
 102.6333431  58.4637446  58.6201343 103.2027860  58.6905404  57.2358738
 109.2607935  64.8763455  66.0500362 109.3252368  65.3383863  66.8858534
 108.5518859  64.2460820  66.1782672  99.7625225  58.2404663  63.5749361
 100.0133263  59.1251673  63.8406937 100.2984773  58.0609265  62.8024453
 108.9755953  66.5431563  55.9179342 108.8401627  67.3883099  56.3464190
 109.5165765  66.7450841  55.1545276 105.4623292  52.6223143  72.5793697
 105.0690238  52.0689341  73.2541341 106.2789433  52.9333721  72.9700215
 102.4285350  64.0607001  56.4907267 102.9409871  64.8550251  56.6412832
 103.0808063  63.3633291  56.4240869 104.2380235  67.1772757  58.5730020
 104.4146863  68.0990722  58.3851004 105.0337068  66.8631176  59.0024400
 108.3791253  54.0381022  70.1713954 109.1200967  54.6388175  70.0918416
 108.6109176  53.2958660  69.6131996 103.5232591  59.2237389  68.4492184
 103.4086106  58.3222646  68.7499282 102.6677109  59.4701086  68.0977000
 110.6024429  67.1655129  70.0479684 110.1588283  66.3791508  69.7300589
 111.2641643  67.3534280  69.3823575 105.3611550  68.6950931  64.5740363
 105.9118975  68.5667994  63.8017357 104.5223026  68.9945820  64.2235255
 112.7005667  67.4457929  68.0761085 112.6824142  68.2666810  67.5841355
 113.6225587  67.3212005  68.3011227 109.1578721  64.9602059  68.9184594
 109.6907058  64.1990347  68.6883902 108.6292802  64.6675711  69.6608748
 112.3248416  50.0662125  64.4478236 111.9812686  50.9563767  64.3717346
 112.6927379  49.8763782  63.5847821 100.3934267  62.3895655  57.2666838
 101.2309489  62.7992664  57.0500545 100.5712535  61.4495097  57.2367032
 112.2898699  60.0570736  52.9550671 111.7745322  60.8275341  53.1939058
 112.0176007  59.3835872  53.5783732 109.8745810  54.9020437  58.0135909
 109.0187406  54.5127287  57.8341548 110.2872762  54.9812398  57.1535695
 111.4044957  52.4366780  62.4127469 110.9009752  52.3996915  61.5995274
 111.6975564  53.3459523  62.4724125 107.6487843  52.5205510  61.4193650
 108.5140839  52.3248318  61.0599540 107.7165351  52.2915861  62.3463007
 117.2632973  62.8103091  54.8903844 116.4862416  62.4714250  54.4459006
 117.9424454  62.8155714  54.2158809 112.0785002  57.9297828  54.7810452
 111.7735138  58.2443977  55.6320595 113.0315444  58.0079248  54.8237785
 110.5231434  64.0888051  56.4303406 109.9952796  63.3540811  56.1176643
 110.0218937  64.8662728  56.1843374 115.5024280  62.2837072  61.5470452
 114.8447954  62.9736333  61.6350581 116.3064679  62.6733504  61.8904438
 105.2550162  54.7507718  58.7910017 105.8293914  54.5282899  58.0583210
 105.8421144  54.8196412  59.5438619 114.3129739  60.6381445  59.5974394
 114.8261621  61.2711436  60.0996104 114.9630963  60.0382640  59.2317754
 105.5819749  56.7812179  52.8105903 104.7457061  57.1186865  53.1315177
 105.4424518  56.6461158  51.8733040 107.5572829  51.6248967  57.5185087
 106.9037242  51.3097984  56.8941701 107.5153303  51.0024707  58.2444910
 108.6684034  61.9068262  49.4338379 107.7611096  61.6757515  49.6329528
 109.1655066  61.1105881  49.6212360 111.5752113  70.6165769  52.3535065
 110.9013812  70.9197466  52.9620023 111.9617935  71.4194849  52.0040522
 110.7910570  58.1130900  61.8432734 109.8733131  58.3345847  61.6854422
 111.2070713  58.1877211  60.9844442 111.5745617  59.5122316  56.9735415
 112.3217436  60.0243713  56.6642537 111.8437207  59.1906368  57.8339808
 109.8472268  62.0080856  53.9562369 108.9383487  61.7239889  54.0534839
 109.8767351  62.4279935  53.0965676 115.0791535  65.6187446  57.7253536
 114.6253862  64.7778356  57.7818727 114.4485502  66.2548844  58.0628317
 114.0224455  56.5479432  58.9554204 113.2847211  56.0356818  59.2864446
 114.2751228  56.1079814  58.1437481 113.5224474  67.4563943  58.6603355
 113.8147449  68.0169000  57.9415720 114.0323095  67.7492504  59.4156514
 114.1236082  49.3255684  59.5495973 114.4294959  48.4653047  59.2621888
 114.8488687  49.9173304  59.3494967 100.4160438  59.7286371  57.9377571
 100.2184838  59.1355731  57.2128638  99.8607102  59.4238581  58.6553510
 108.3957162  59.6209477  60.0572164 108.4505771  58.6683313  59.9814641
 107.5848364  59.7768916  60.5413463 109.5448355  63.5489600  51.2950447
 109.1067785  62.8325459  50.8356085 110.2858796  63.7765715  50.7335539
 106.3349522  58.2386537  57.8162543 105.5217387  58.5380707  58.2227735
 106.8308516  57.8442226  58.5337025 108.4858099  68.2344294  59.7496808
 108.4434278  68.4605140  58.8205340 109.4020798  68.0007668  59.8982609
 111.9323733  58.7028361  66.6477437 112.2873121  58.9299834  67.5071903
 112.5795864  59.0346738  66.0254692 117.6621470  61.8246797  57.3526766
 117.5239369  62.0148393  56.4247955 117.3057689  62.5866180  57.8094817
 105.8263596  55.8104892  63.4323778 106.4662976  55.6693651  62.7346741
 104.9941127  55.5239406  63.0562380 117.6890850  63.8923324  62.3638038
 118.1227356  63.7998613  63.2121092 118.4022431  63.8680825  61.7258054
 106.6023900  65.1107323  59.5458771 107.3964499  64.6157643  59.3441345
 105.8915593  64.5825186  59.1826476 111.4218745  67.4925418  63.8971138
 111.4755767  68.0616355  64.6648854 110.5533526  67.6627303  63.5325175
 102.9106664  59.2550405  55.6218523 101.9804252  59.1934860  55.8388485
 103.0064136  58.7326357  54.8255164 102.8292213  55.7805217  58.2096765
 103.0899030  56.6950551  58.1005925 103.6509385  55.3129660  58.3593378
 104.3017138  57.1942975  65.3795589 104.9740192  56.9860337  64.7308238
 103.4746925  56.9965061  64.9400822 118.5506399  63.9347025  64.8970923
 118.7442289  64.8392835  65.1430198 118.4507018  63.4754444  65.7309508
 110.2042710  53.8204915  67.3961250 109.5570625  54.5194865  67.3025727
 110.9743726  54.2541059  67.7637498 113.6121508  64.0853768  70.4711804
 113.4607014  63.8564319  69.5541887 113.6026188  65.0424369  70.4843149
 110.3806844  61.6585680  65.4558070 111.3098904  61.8096840  65.2827037
 109.9597874  61.7469701  64.6006717 109.1795176  65.6836345  63.2256608
 109.0406262  65.3155129  64.0982546 108.3909772  66.1983984  63.0540565
 109.7743328  70.7845441  54.5682144 109.9495084  70.3133484  55.3827767
 109.0876116  71.4111207  54.7963405 110.7300391  65.0617947  60.6145445
 110.3950224  65.0218717  61.5103095 110.2304337  64.3962663  60.1415856
 104.7044635  60.4685577  66.1398027 104.5664433  59.7365816  66.7409566
 105.6149559  60.3794478  65.8582214 113.6659583  62.4073982  50.8882505
 113.0488754  61.6820810  50.7915558 113.1976072  63.1683342  50.5449579
 107.3326936  60.1805537  65.6281706 108.0426555  59.5398729  65.5868325
 107.2896244  60.4318432  66.5507887 115.3213715  67.1172890  68.5488285
 115.2626261  66.4332110  67.8818868 115.7233233  67.8591880  68.0968911
 106.0455870  57.1670755  67.4477346 105.5093227  56.7161493  68.0998942
 105.4572578  57.3016664  66.7047810 104.3404413  73.9334804  61.3422004
 104.5801012  74.5653328  62.0201023 103.4973610  73.5822844  61.6287364
 105.4558129  56.6259406  50.0103809 104.5787595  56.5048207  49.6466056
 105.9315882  55.8345484  49.7582698 115.3231122  65.0812474  66.7802265
 114.4357901  64.7438396  66.9028664 115.8929673  64.3495505  67.0171030
  96.9760269  61.4136566  60.1045316  97.6631309  61.0998296  59.5166332
  96.8208398  62.3177930  59.8312568 101.7794991  56.3026762  64.5330340
 101.6953180  55.6952432  63.7980750 100.9577698  56.7935781  64.5339837
 108.8532275  69.7413926  63.7463508 108.7802447  70.5468898  64.2582813
 108.4109668  69.9405892  62.9211530 108.6422055  68.9785696  57.2566330
 107.8589577  69.5207377  57.3504554 109.3414800  69.4959676  57.6560571
 111.9518705  54.7880326  59.9000535 112.4487405  54.0350288  59.5801605
 111.1805687  54.8244643  59.3343745 119.8048463  60.4920691  61.5418827
 119.7938339  61.3745407  61.1712760 118.9365842  60.1392242  61.3473364
 111.3130959  69.6400760  65.9021667 112.0258931  70.2748225  65.8297568
 110.8220988  69.7364626  65.0861669 113.0348486  63.5452013  57.4738959
 112.1004765  63.6653476  57.3043663 113.2125154  62.6424480  57.2098968
 108.5353674  56.9297709  59.6272220 108.1651461  56.3768749  60.3153125
 109.0312766  56.3255842  59.0747220 116.4221037  59.3869332  58.0088993
 116.8881489  60.2197324  57.9349295 116.8728538  58.9214314  58.7134251
 106.3642872  67.3895204  66.7227238 107.0652332  68.0231687  66.8756632
 105.8937987  67.7309935  65.9622877 114.4897268  65.7313154  55.0075145
 114.7657112  65.6169748  55.9169019 113.6201767  65.3330639  54.9687318
 114.3937700  51.7549919  62.0479894 113.4800780  51.9854146  62.2162101
 114.8230801  51.8388363  62.8993926 114.1644158  59.9439811  64.5479788
 113.5115609  60.1915719  63.8932241 114.5424538  59.1303950  64.2142265
 111.1251332  69.9799505  58.6507958 111.3073727  69.1621160  59.1135711
 111.9484318  70.1967197  58.2132848 111.4593498  68.9067690  55.9123007
 111.9881264  68.3960144  55.2993169 111.7221717  68.5910220  56.7768540
 110.2131731  60.6859622  71.0345825 109.5372368  60.5853752  71.7048200
 111.0359365  60.5298836  71.4981822 101.9610590  66.9231559  63.6558340
 102.5464027  66.1775247  63.7886245 101.7635429  67.2335516  64.5395004
 104.8149246  69.9582806  58.6720783 104.1459621  70.4428934  58.1884823
 104.6762115  70.2052027  59.5864161  96.5528245  59.4937159  62.3762784
  96.5912345  58.9600750  63.1699902  96.0468538  58.9672365  61.7573761
 108.9554514  71.9926550  65.2703441 109.5072822  72.1558171  66.0352526
 109.2960708  72.5830988  64.5983466 103.9319008  54.3401700  65.8725326
 103.9960334  55.2016531  65.4602724 103.8686128  53.7275701  65.1397684
 103.4071280  56.4124832  69.5198360 104.0343319  56.0301910  70.1335884
 102.5499199  56.1939034  69.8854053 113.8065389  66.8187807  71.1252096
 114.3505293  67.4317766  70.6307050 113.2252233  67.3767386  71.6419109
 100.1836823  58.2201261  55.4516715 100.4790264  57.3111940  55.3983769
  99.2824859  58.1989001  55.1297717 112.0922902  69.9408525  62.2567123
 111.9674041  69.1398265  61.7478069 112.7501993  70.4354719  61.7681093
 103.7131070  56.2957258  61.4344264 102.9917656  56.9093226  61.2951737
 104.5024326  56.8315023  61.3560910 114.1557810  67.7417545  63.8846673
 113.2088145  67.6222897  63.8125000 114.5040583  66.8540044  63.9672935
 106.5157383  53.6311684  67.7084915 107.0391785  53.8773981  68.4711225
 106.2969717  54.4631719  67.2888053 101.9124664  55.9015359  55.5756040
 101.5837371  55.0212738  55.3931146 102.2664035  55.8463028  56.4632429
 111.1604243  67.5370262  60.0851026 111.0129206  66.6086969  60.2658596
 111.9857737  67.5590352  59.6008101 105.0266488  56.1888329  55.9431518
 105.3662560  56.7174250  55.2210126 105.4738608  56.5268735  56.7190084
 114.7638365  68.3598820  61.1715898 115.6884913  68.1541682  61.0340350
 114.5953668  68.1115222  62.0805240 107.7209928  54.5725380  65.3934586
 107.3806749  53.7733193  65.7955266 107.0148935  54.8727090  64.8211419
 108.3726400  51.6574692  63.8461909 109.1952470  51.1835170  63.7240799
 108.6164464  52.4365176  64.3460595 107.0134635  54.6862950  54.1424811
 107.7342997  55.0644203  53.6388527 106.3899939  55.4051827  54.2459789
 111.1565758  55.3908099  55.0783143 111.3729372  56.2732737  54.7771971
 110.6759825  54.9994313  54.3488785 105.8964979  58.3493813  61.6553888
 105.7509560  58.6634116  62.5478169 105.4190183  58.9678713  61.1024786
 107.7561362  55.3396361  61.7034777 107.7422931  54.4437454  61.3667075
 108.4733790  55.3467024  62.3373063 109.6087493  55.7733701  63.7487905
 109.3505270  56.6950771  63.7472235 109.0772533  55.3764135  64.4388369
 114.5533681  68.8784488  56.5277990 114.7270559  68.3130910  55.7751842
 115.0462573  69.6785383  56.3457480 100.3710641  60.8899157  64.5941549
  99.8264109  61.6658965  64.7261823 101.2489991  61.2369961  64.4360670
 107.1598258  54.2210741  56.9722347 107.2814169  53.2927387  57.1713235
 106.8700300  54.2349427  56.0600663 110.0289448  51.9065651  60.1089067
 110.0511145  51.9704984  59.1541047 110.4457507  51.0670160  60.3029573
 120.4073072  61.6420911  58.1468290 120.8504219  60.8928236  57.7487413
 119.5299583  61.6331047  57.7642022 115.5408854  68.1951252  53.6274888
 116.2359758  68.8157945  53.8462203 115.8832004  67.3446604  53.9027266
 101.1576663  60.0169053  67.4871706 100.4158399  60.1651689  68.0736336
 100.8369407  60.2777319  66.6238455 117.4400277  65.6450958  55.1562219
 117.9651601  65.9838231  54.4311539 117.3522629  64.7097973  54.9725354
 109.1020326  69.5585031  67.2852096 109.4107452  69.3134178  68.1574795
 109.8995808  69.7631670  66.7970966 109.1240938  71.7122941  59.5157472
 108.6845928  71.2199320  60.2090329 109.8749055  71.1695909  59.2749547
 101.6033277  67.9034482  59.5182100 102.4291297  67.6038254  59.1380744
 101.2527329  67.1342104  59.9671889 106.5714810  67.2560950  61.5879774
 105.9494819  66.5931655  61.2882002 107.2419677  67.2822082  60.9053422
  99.8041882  65.8220808  60.4771034  98.9673790  65.3942983  60.2955035
  99.7765527  66.0153252  61.4141825 106.6439337  55.7342738  71.1812280
 106.6927493  56.6104861  70.7990049 107.1861852  55.1920131  70.6083923
 117.1294183  66.2783861  70.4613417 116.3389727  66.2608000  69.9217916
 116.8927538  66.8172155  71.2162453 117.2492058  63.1276328  67.7746145
 117.2990063  62.9626335  68.7161668 117.1405981  62.2603587  67.3844026
 106.1328317  65.8064874  55.0638234 106.2816437  66.4900338  54.4104907
 106.9394760  65.7869964  55.5787690 114.5395820  59.1107256  69.0905452
 115.4405683  58.9713721  68.7989450 114.6143795  59.2761711  70.0303630
 108.8738626  56.4874111  67.9358638 108.0041935  56.7807677  67.6641227
 109.1098106  57.0714556  68.6565902 118.7510255  65.5473269  68.0188167
 118.4595063  65.9103250  68.8551628 118.1382386  64.8340278  67.8401499
 119.9505937  63.1126149  60.5390737 120.7852829  63.5515953  60.7028298
 120.0865066  62.6364802  59.7198983 116.9997443  60.6705884  66.4868225
 117.4751565  60.8633530  65.6787076 116.0763008  60.7265070  66.2411609
 103.8880950  61.8330051  56.0699303 103.6426992  60.9292381  56.2679513
 104.0576864  61.8347202  55.1278781 111.5777660  52.7053728  65.4524059
 112.0959603  53.4414754  65.1270547 111.2232792  53.0117721  66.2870818
 103.1576597  57.5658409  53.5685465 102.4645842  57.6402764  52.9125501
 102.9128349  56.8018752  54.0906982 111.8290254  49.1254010  60.9724955
 112.1092008  48.4577199  61.5985382 112.6140861  49.3183106  60.4599619
 109.6323722  68.3013004  52.5349982 109.0597689  68.9203191  52.0820454
 110.2056516  68.8512366  53.0689904 115.6999112  57.5471644  64.7196531
 116.6516535  57.6469742  64.7408755 115.5302563  56.7549913  65.2294615
 113.7213492  54.6327227  64.9055931 113.1263424  54.9132240  64.2102420
 113.4363188  55.1221128  65.6772673 112.8520982  68.5850154  53.6658564
 113.7851655  68.5195716  53.8691440 112.7644195  69.4206421  53.2073097
 115.4808999  67.9016024  50.6262512 115.4022630  67.5675888  51.5198270
 116.3018665  68.3937792  50.6253984 118.1787190  60.7677764  63.8338830
 118.1463510  59.8293764  64.0198514 118.7887814  60.8461800  63.1004655
 110.0170521  59.6373817  49.8766034 110.9629625  59.5080025  49.9454452
 109.6384766  58.8988479  50.3535462 118.3281678  57.5588807  63.8797113
 117.8120727  56.7747264  63.6927042 119.2121627  57.2307524  64.0443633
 115.9892405  51.3029823  59.8392926 115.7917226  50.9944911  60.7236258
 116.5992111  52.0291462  59.9690856 109.9009213  63.6891563  71.3366691
 110.8212223  63.8670162  71.5306738 109.8658796  62.7447608  71.1846390
 108.2013438  57.5623793  49.8120919 107.2944893  57.2656906  49.8883633
 108.4789419  57.2653611  48.9455206  99.1191378  58.8830157  60.2619966
  98.7994163  58.0295465  59.9694340  98.5724806  59.0978735  61.0177933
 102.8971286  61.5992598  63.9789472 103.1157296  62.5309705  63.9977506
 103.3097060  61.2400572  64.7644276 109.8175504  52.1060683  55.9665161
 109.0076232  51.7607768  56.3420407 110.5059921  51.7968227  56.5552772
 111.7466052  51.1838730  57.5889457 112.2997091  51.6034183  58.2479481
 111.9836138  50.2574478  57.6312413 107.7699151  57.1725803  73.3692221
 107.6695878  58.1220160  73.3004312 107.5520693  56.8444042  72.4968291
 106.9712223  54.4210728  49.9532899 107.8331387  54.7465627  50.2128716
 107.1562567  53.6342224  49.4405964  98.9879638  62.5033068  62.2313087
  98.2943110  62.0887021  61.7183042  99.7352629  62.5453605  61.6346506
 115.1244859  53.2939255  57.0968122 114.5443528  53.9524059  56.7146174
 114.8580792  52.4716599  56.6855539 113.5748425  52.6944313  59.2989442
 114.0748204  52.8060847  58.4903761 114.2184033  52.3905365  59.9390250
 107.6330421  60.6022942  72.1857283 107.1497503  61.4023302  72.3921172
 107.7191360  60.6130887  71.2324727 100.9016381  62.4351322  60.1079102
 100.8787069  62.5339009  59.1560985 101.2117017  63.2816473  60.4296268
 103.5603759  64.4927477  64.2225717 104.5147012  64.4611419  64.1555648
 103.3616282  64.0318101  65.0375943 104.1503141  63.0628593  66.7896514
 104.9696030  63.5572672  66.8131352 104.4239949  62.1460561  66.7614082
 113.9069737  55.4539345  56.1524470 113.0195592  55.7388996  55.9344665
 114.3223726  55.2933109  55.3051747 117.2584273  55.4785866  59.8678809
 118.0344663  55.9682319  60.1403426 116.5332407  55.9043920  60.3250679
 119.6956832  56.1913485  60.9252750 120.2901323  55.9509221  60.2146058
 119.7683415  55.4720616  61.5526286 101.9153987  70.0347096  61.2395915
 101.7808455  69.2747497  60.6733913 101.4986050  70.7587996  60.7724704
 113.0512950  65.2184020  50.2472490 113.7548801  65.4234022  50.8630146
 112.3275599  65.7860782  50.5121573 113.8810761  60.9693881  56.3674760
 113.8245962  61.4262433  55.5282393 114.4339103  60.2084566  56.1897603
 117.6915567  56.7583613  57.1924880 117.4352501  56.3580249  58.0233087
 117.0668435  57.4727407  57.0675019 105.0723113  70.9316413  61.4514357
 104.9555497  71.8761846  61.3493048 104.2515560  70.6289975  61.8400156
 114.9599648  65.6566549  52.2970950 115.7945252  65.2247748  52.1148425
 114.7983991  65.4848563  53.2247844 114.6145540  62.1598662  53.6627289
 114.5594344  61.9942934  52.7215733 113.9891595  62.8674695  53.8189479
  99.4038055  57.3966727  67.4888711 100.0496919  56.8865681  67.9775937
  99.1955206  58.1335408  68.0632137 111.9291447  64.4647574  72.9880852
 112.7982607  64.6388227  72.6267487 111.4498199  65.2841991  72.8656581
 107.9241666  51.6606771  53.2412608 107.9120335  52.6048611  53.3980879
 108.8165087  51.4776917  52.9472069 106.0977627  71.5844675  64.6670286
 107.0004874  71.6168286  64.9836781 105.8714998  70.6545126  64.6816621
 107.8531229  70.3375662  61.3280364 106.9026861  70.3377523  61.2144737
 108.1563716  69.5908396  60.8116399 111.7393785  48.2549548  57.4958544
 110.9726181  47.7008035  57.6415227 112.1504490  48.3271417  58.3572696
 103.7435546  54.5434344  71.5863726 104.6067008  54.1871149  71.7967050
 103.1700957  54.2048239  72.2739130 120.3973629  76.1263628  62.3287651
 120.0592141  76.0104693  61.4408186 121.2663397  75.7254793  62.3088658
 116.2560445  77.9799105  58.3184542 115.6925310  77.8889042  57.5500830
 116.1412840  77.1599009  58.7987035 120.8793412  77.2798480  68.2873857
 120.8682053  76.8851278  67.4154361 121.0414052  76.5464553  68.8807628
 113.8024877  79.4750296  61.1568763 114.5946169  79.1341121  60.7415062
 114.0421527  79.5845271  62.0770916 115.7615631  78.7359210  54.0286142
 116.5346507  78.1888197  53.8899017 116.1141030  79.6003459  54.2400603
 117.6000673  80.0635592  67.2353041 117.3090539  80.9681223  67.1199707
 118.2357658  80.1052119  67.9497110 118.5256880  77.4412440  63.8254401
 119.1220452  77.2168463  63.1111364 118.5831852  76.6997186  64.4279848
 118.0981909  74.8951876  51.6604592 118.3507429  74.3733397  50.8988055
 117.1606468  74.7318021  51.7631275 117.8178197  76.7979982  53.8628966
 117.7014455  76.1224885  54.5310051 117.9280457  76.3112356  53.0461120
 120.1609738  76.2590129  57.5675656 119.7967946  75.7320750  58.2788577
 121.0176854  75.8688598  57.3942141 119.8015225  71.2880028  52.5637004
 119.9689628  72.1560265  52.9307475 119.6112394  71.4507310  51.6398293
 116.0103040  76.2010804  60.2639539 115.0853536  76.0687018  60.4717231
 116.2587453  76.9805023  60.7609481 119.7804446  73.7437686  53.5483671
 119.6604071  74.1894737  54.3869151 119.0857035  74.0923004  52.9897209
 113.3711851  75.8444078  61.0983328 113.5004232  76.0978557  62.0122740
 112.6909302  76.4371786  60.7787983 117.5411338  86.5141328  57.1973802
 117.4635368  87.4649153  57.2762283 116.9372982  86.1687200  57.8548729
 120.0328568  73.6869193  69.8535169 119.2561902  74.2463113  69.8438034
 120.6719131  74.1725976  70.3750039 118.2874940  76.4954646  69.4153136
 119.0289625  77.0339690  69.1387960 117.5811926  77.1220935  69.5724688
 120.1161350  73.5756394  65.3858855 120.9622545  73.9995807  65.5293504
 120.0559988  72.9190018  66.0797418 119.6387057  78.9359386  59.0327672
 120.1025402  79.2147089  58.2432294 119.3743855  78.0342830  58.8500762
 116.5311138  78.4830867  61.9707435 117.1012495  78.9118136  61.3324919
 117.1219249  78.2013452  62.6691621 118.5755943  75.0582538  55.8417237
 119.2779986  75.5103582  56.3091163 118.2436571  74.4166357  56.4697130
 117.0236304  73.6494295  70.2168446 116.3934965  74.3310575  70.4503843
 116.9172392  73.5377376  69.2721584 112.3181277  73.3166091  61.1434370
 111.5280331  73.5723619  60.6674481 112.8092524  74.1314429  61.2486411
 114.2696022  73.6810670  58.1017847 113.4727185  73.7929364  58.6201343
 114.0421614  74.0197322  57.2358738 120.1001690  80.2055373  66.0500362
 120.1646122  80.6675780  66.8858534 119.3912613  79.5752738  66.1782672
 110.6018980  73.5696581  63.5749361 110.8527018  74.4543591  63.8406937
 111.1378528  73.3901183  62.8024453 119.8149707  81.8723481  55.9179342
 119.6795382  82.7175016  56.3464190 120.3559520  82.0742758  55.1545276
 116.3017047  67.9515060  72.5793697 115.9083992  67.3981259  73.2541341
 117.1183187  68.2625639  72.9700215 113.2679105  79.3898919  56.4907267
 113.7803625  80.1842169  56.6412832 113.9201817  78.6925209  56.4240869
 115.0773989  82.5064675  58.5730020 115.2540618  83.4282640  58.3851004
 115.8730823  82.1923094  59.0024400 119.2185008  69.3672940  70.1713954
 119.9594721  69.9680093  70.0918416 119.4502931  68.6250577  69.6131996
 114.3626346  74.5529307  68.4492184 114.2479861  73.6514564  68.7499282
 113.5070864  74.7993004  68.0977000 116.2005305  84.0242849  64.5740363
 116.7512730  83.8959912  63.8017357 115.3616781  84.3237738  64.2235255
 119.9972476  80.2893977  68.9184594 120.5300813  79.5282265  68.6883902
 119.4686557  79.9967628  69.6608748 111.2328021  77.7187573  57.2666838
 112.0703243  78.1284581  57.0500545 111.4106289  76.7787015  57.2367032
 120.7139565  70.2312354  58.0135909 119.8581161  69.8419205  57.8341548
 121.1266516  70.3104315  57.1535695 118.4881597  67.8497427  61.4193650
 119.3534594  67.6540236  61.0599540 118.5559106  67.6207779  62.3463007
 121.3625189  79.4179969  56.4303406 120.8346550  78.6832729  56.1176643
 120.8612691  80.1954645  56.1843374 116.0943916  70.0799635  58.7910017
 116.6687668  69.8574817  58.0583210 116.6814899  70.1488330  59.5438619
 116.4213503  72.1104096  52.8105903 115.5850815  72.4478783  53.1315177
 116.2818273  71.9753076  51.8733040 118.3966584  66.9540884  57.5185087
 117.7430996  66.6389901  56.8941701 118.3547058  66.3316625  58.2444910
 119.5077789  77.2360179  49.4338379 118.6004850  77.0049433  49.6329528
 120.0048821  76.4397799  49.6212360 120.6866022  77.3372774  53.9562369
 119.7777241  77.0531807  54.0534839 120.7161106  77.7571853  53.0965676
 111.2554192  75.0578288  57.9377571 111.0578592  74.4647649  57.2128638
 110.7000856  74.7530498  58.6553510 119.2350916  74.9501395  60.0572164
 119.2899526  73.9975231  59.9814641 118.4242118  75.1060834  60.5413463
 120.3842110  78.8781518  51.2950447 119.9461540  78.1617377  50.8356085
 121.1252551  79.1057633  50.7335539 117.1743276  73.5678455  57.8162543
 116.3611142  73.8672625  58.2227735 117.6702270  73.1734143  58.5337025
 119.3251854  83.5636211  59.7496808 119.2828033  83.7897058  58.8205340
 120.2414553  83.3299586  59.8982609 116.6657351  71.1396810  63.4323778
 117.3056730  70.9985569  62.7346741 115.8334881  70.8531323  63.0562380
 117.4417655  80.4399240  59.5458771 118.2358253  79.9449561  59.3441345
 116.7309347  79.9117104  59.1826476 113.7500418  74.5842322  55.6218523
 112.8198006  74.5226778  55.8388485 113.8457890  74.0618275  54.8255164
 113.6685967  71.1097135  58.2096765 113.9292785  72.0242468  58.1005925
 114.4903140  70.6421578  58.3593378 115.1410893  72.5234892  65.3795589
 115.8133946  72.3152254  64.7308238 114.3140679  72.3256978  64.9400822
 120.0188931  81.0128262  63.2256608 119.8800016  80.6447047  64.0982546
 119.2303527  81.5275902  63.0540565 120.6137083  86.1137359  54.5682144
 120.7888838  85.6425402  55.3827767 119.9269871  86.7403125  54.7963405
 121.5694146  80.3909865  60.6145445 121.2343978  80.3510635  61.5103095
 121.0698092  79.7254581  60.1415856 115.5438390  75.7977495  66.1398027
 115.4058188  75.0657734  66.7409566 116.4543313  75.7086395  65.8582214
 118.1720691  75.5097454  65.6281706 118.8820309  74.8690647  65.5868325
 118.1289999  75.7610349  66.5507887 116.8849624  72.4962672  67.4477346
 116.3486982  72.0453411  68.0998942 116.2966333  72.6308581  66.7047810
 115.1798168  89.2626722  61.3422004 115.4194766  89.8945246  62.0201023
 114.3367364  88.9114762  61.6287364 116.2951883  71.9551324  50.0103809
 115.4181350  71.8340125  49.6466056 116.7709637  71.1637402  49.7582698
 107.8154024  76.7428484  60.1045316 108.5025063  76.4290214  59.5166332
 107.6602152  77.6469848  59.8312568 112.6188746  71.6318680  64.5330340
 112.5346934  71.0244350  63.7980750 111.7971452  72.1227698  64.5339837
 119.6926030  85.0705844  63.7463508 119.6196201  85.8760816  64.2582813
 119.2503423  85.2697810  62.9211530 119.4815809  84.3077614  57.2566330
 118.6983331  84.8499294  57.3504554 120.1808555  84.8251594  57.6560571
 119.3747428  72.2589627  59.6272220 119.0045216  71.7060667  60.3153125
 119.8706521  71.6547760  59.0747220 117.2036627  82.7187122  66.7227238
 117.9046086  83.3523605  66.8756632 116.7331742  83.0601853  65.9622877
 112.8004345  82.2523477  63.6558340 113.3857782  81.5067165  63.7886245
 112.6029183  82.5627433  64.5395004 115.6543000  85.2874724  58.6720783
 114.9853375  85.7720852  58.1884823 115.5155870  85.5343944  59.5864161
 107.3922000  74.8229077  62.3762784 107.4306099  74.2892668  63.1699902
 106.8862293  74.2964282  61.7573761 119.7948269  87.3218468  65.2703441
 120.3466577  87.4850089  66.0352526 120.1354462  87.9122905  64.5983466
 114.7712762  69.6693617  65.8725326 114.8354088  70.5308448  65.4602724
 114.7079882  69.0567619  65.1397684 114.2465035  71.7416750  69.5198360
 114.8737073  71.3593827  70.1335884 113.3892953  71.5230952  69.8854053
 111.0230577  73.5493179  55.4516715 111.3184018  72.6403857  55.3983769
 110.1218613  73.5280918  55.1297717 114.5524824  71.6249176  61.4344264
 113.8311410  72.2385143  61.2951737 115.3418080  72.1606940  61.3560910
 117.3551138  68.9603602  67.7084915 117.8785540  69.2065899  68.4711225
 117.1363471  69.7923637  67.2888053 112.7518419  71.2307277  55.5756040
 112.4231125  70.3504656  55.3931146 113.1057790  71.1754945  56.4632429
 115.8660242  71.5180246  55.9431518 116.2056315  72.0466168  55.2210126
 116.3132363  71.8560653  56.7190084 118.5603683  69.9017297  65.3934586
 118.2200503  69.1025110  65.7955266 117.8542689  70.2019008  64.8211419
 119.2120155  66.9866610  63.8461909 120.0346224  66.5127088  63.7240799
 119.4558218  67.7657093  64.3460595 117.8528389  70.0154868  54.1424811
 118.5736752  70.3936121  53.6388527 117.2293693  70.7343745  54.2459789
 116.7358733  73.6785730  61.6553888 116.5903314  73.9926033  62.5478169
 116.2583937  74.2970631  61.1024786 118.5955116  70.6688278  61.7034777
 118.5816685  69.7729372  61.3667075 119.3127544  70.6758942  62.3373063
 120.4481247  71.1025618  63.7487905 120.1899025  72.0242689  63.7472235
 119.9166287  70.7056053  64.4388369 111.2104396  76.2191075  64.5941549
 110.6657864  76.9950883  64.7261823 112.0883745  76.5661879  64.4360670
 117.9992012  69.5502659  56.9722347 118.1207923  68.6219305  57.1713235
 117.7094055  69.5641344  56.0600663 120.8683203  67.2357569  60.1089067
 120.8904899  67.2996902  59.1541047 121.2851262  66.3962078  60.3029573
 111.9970417  75.3460971  67.4871706 111.2552153  75.4943606  68.0736336
 111.6763162  75.6069237  66.6238455 119.9414080  84.8876949  67.2852096
 120.2501207  84.6426096  68.1574795 120.7389562  85.0923588  66.7970966
 119.9634692  87.0414859  59.5157472 119.5239682  86.5491237  60.2090329
 120.7142809  86.4987826  59.2749547 112.4427031  83.2326400  59.5182100
 113.2685051  82.9330172  59.1380744 112.0921083  82.4634022  59.9671889
 117.4108564  82.5852868  61.5879774 116.7888574  81.9223573  61.2882002
 118.0813431  82.6114000  60.9053422 110.6435636  81.1512726  60.4771034
 109.8067544  80.7234900  60.2955035 110.6159282  81.3445169  61.4141825
 117.4833092  71.0634656  71.1812280 117.5321247  71.9396779  70.7990049
 118.0255606  70.5212049  70.6083923 116.9722071  81.1356791  55.0638234
 117.1210192  81.8192256  54.4104907 117.7788515  81.1161881  55.5787690
 119.7132380  71.8166028  67.9358638 118.8435690  72.1099594  67.6641227
 119.9491861  72.4006473  68.6565902 114.7274704  77.1621969  56.0699303
 114.4820746  76.2584299  56.2679513 114.8970619  77.1639119  55.1278781
 113.9970352  72.8950326  53.5685465 113.3039597  72.9694681  52.9125501
 113.7522104  72.1310670  54.0906982 120.4717477  83.6304922  52.5349982
 119.8991444  84.2495109  52.0820454 121.0450270  84.1804283  53.0689904
 119.0407192  72.8915711  49.8120919 118.1338648  72.5948824  49.8883633
 119.3183173  72.5945529  48.9455206 109.9585133  74.2122074  60.2619966
 109.6387917  73.3587382  59.9694340 109.4118561  74.4270652  61.0177933
 113.7365040  76.9284515  63.9789472 113.9551050  77.8601623  63.9977506
 114.1490814  76.5692490  64.7644276 120.6569258  67.4352601  55.9665161
 119.8469986  67.0899685  56.3420407 121.3453675  67.1260144  56.5552772
 118.6092906  72.5017721  73.3692221 118.5089633  73.4512078  73.3004312
 118.3914448  72.1735960  72.4968291 117.8105977  69.7502646  49.9532899
 118.6725141  70.0757544  50.2128716 117.9956321  68.9634142  49.4405964
 109.8273393  77.8324986  62.2313087 109.1336864  77.4178938  61.7183042
 110.5746384  77.8745522  61.6346506 118.4724176  75.9314860  72.1857283
 117.9891257  76.7315220  72.3921172 118.5585115  75.9422805  71.2324727
 111.7410135  77.7643239  60.1079102 111.7180823  77.8630927  59.1560985
 112.0510772  78.6108390  60.4296268 114.3997513  79.8219395  64.2225717
 115.3540767  79.7903337  64.1555648 114.2010037  79.3610018  65.0375943
 114.9896895  78.3920511  66.7896514 115.8089784  78.8864589  66.8131352
 115.2633703  77.4752479  66.7614082 112.7547742  85.3639014  61.2395915
 112.6202210  84.6039415  60.6733913 112.3379804  86.0879914  60.7724704
 115.9116868  86.2608331  61.4514357 115.7949252  87.2053764  61.3493048
 115.0909314  85.9581893  61.8400156 110.2431810  72.7258644  67.4888711
 110.8890673  72.2157598  67.9775937 110.0348961  73.4627326  68.0632137
 118.7635420  66.9898689  53.2412608 118.7514090  67.9340529  53.3980879
 119.6558842  66.8068834  52.9472069 116.9371382  86.9136593  64.6670286
 117.8398629  86.9460203  64.9836781 116.7108752  85.9837044  64.6816621
 118.6924984  85.6667579  61.3280364 117.7420615  85.6669441  61.2144737
 118.9957470  84.9200314  60.8116399 114.5829301  69.8726261  71.5863726
 115.4460762  69.5163066  71.7967050 114.0094711  69.5340156  72.2739130
 118.6547778  92.0720401  60.1045316 119.3418818  91.7582131  59.5166332
 118.4995907  92.9761766  59.8312568 118.2315754  90.1520995  62.3762784
 118.2699854  89.6184585  63.1699902 117.7256047  89.6256200  61.7573761
 121.4829391  96.4804644  60.4771034 120.6461299  96.0526818  60.2955035
 121.4553036  96.6737087  61.4141825 120.7978887  89.5413992  60.2619966
 120.4781672  88.6879300  59.9694340 120.2512315  89.7562570  61.0177933
 120.6667147  93.1616903  62.2313087 119.9730619  92.7470856  61.7183042
 121.4140138  93.2037440  61.6346506  74.1836322   2.2035780  43.9219109
  74.1060351   3.1543605  44.0007590  73.5797965   1.8581652  44.5794035
  71.8223151   4.9521174  48.0667311  72.0619750   5.5839698  48.7446330
  70.9792348   4.6009214  48.3532670  72.2967983   0.9769176  45.3966089
  71.6278359   1.4615304  44.9130130  72.1580853   1.2238396  46.3109468
  76.4373252   3.0112919  51.9948748  76.9891560   3.1744541  52.7597833
  76.7779446   3.6017357  51.3228773  69.3972725   1.0533466  47.9641221
  69.2627193   0.2933867  47.3979219  68.9804788   1.7774366  47.4970010
  72.5541851   1.9502783  48.1759664  72.4374235   2.8948215  48.0738354
  71.7334297   1.6476344  48.5645463  73.5796365   2.6031045  51.3915592
  74.4823612   2.6354655  51.7082087  73.3533735   1.6731496  51.4061928
  87.8792367   7.1449998  49.0532958  87.5410879   7.0291063  48.1653493
  88.7482135   6.7441163  49.0333964  83.7379183   8.9985474  45.0429849
  83.1744048   8.9075411  44.2746137  83.6231578   8.1785379  45.5232342
  88.3612150   8.2984850  55.0119164  88.3500791   7.9037648  54.1399667
  88.5232790   7.5650922  55.6052935  81.2843615  10.4936666  47.8814069
  82.0764907  10.1527490  47.4660369  81.5240265  10.6031641  48.8016223
  89.3178741  12.6656442  40.3544314  88.6666721  13.2510522  39.9678328
  90.1123104  13.1962637  40.4139351  83.2434369   9.7545579  40.7531448
  84.0165245   9.2074566  40.6144324  83.5959767  10.6189828  40.9645910
  85.0819411  11.0821961  53.9598348  84.7909277  11.9867592  53.8445014
  85.7176396  11.1238489  54.6742417  86.0075618   8.4598810  50.5499707
  86.6039190   8.2354832  49.8356670  86.0650590   7.7183555  51.1525155
  90.7954007  10.3546874  40.8913298  90.1599840  10.4281500  41.6034203
  90.4651413  10.9440473  40.2132377  85.2996935   7.8166351  40.5874273
  85.1833193   7.1411255  41.2555357  85.4099195   7.3298725  39.7706426
  87.6428476   7.2776498  44.2920962  87.2786683   6.7507119  45.0033884
  88.4995592   6.8874967  44.1187448  90.0409296  10.7683377  50.9548141
  89.7410019  11.6708416  50.8463948  89.6960356  10.5015560  51.8069294
  83.4921778   7.2197174  46.9884846  82.5672274   7.0873388  47.1962537
  83.7406191   7.9991393  47.4854788  80.8530589   6.8630447  47.8228635
  80.9822970   7.1164926  48.7368046  80.1728040   7.4558155  47.5033290
  85.0230076  17.5327697  43.9219109  84.9454106  18.4835522  44.0007590
  84.4191720  17.1873570  44.5794035  85.7693678   7.5141016  56.1398443
  86.5108363   8.0526060  55.8633266  85.0630664   8.1407305  56.2969995
  91.2449018   9.6570156  54.7370604  91.6532374   9.2152567  53.9925237
  90.5226279   9.0822784  54.9904797  91.5677832  10.2171347  48.4922893
  90.9386695  10.3817061  47.7898961  91.1803495  10.6312957  49.2633857
  95.4467064  11.1525785  45.8467257  94.7618102  11.5324686  45.2964290
  95.5310914  11.7621112  46.5799205  92.7017996   8.7985744  52.4462600
  92.9134891   9.4417504  51.7696982  92.6547744   7.9648061  51.9784531
  87.1205794   9.9545755  45.7572978  87.5844140  10.2333458  44.9677601
  86.8562592   9.0529200  45.5746069  84.0129875   9.5017237  48.6952742
  84.5831232   9.9304505  48.0570226  84.6037987   9.2199821  49.3936927
  79.8000014   4.3352460  47.8679677  79.0099068   4.5909989  47.3919788
  80.2911262   5.1500798  47.9731718  93.8163824  11.6757699  50.6184958
  94.6381268  11.2737887  50.3367639  93.8126227  11.5725934  51.5701074
  81.7514760   4.6997039  44.8263154  80.9545923   4.8115734  45.3446649
  81.5240352   5.0383692  43.9604044  87.5820427  11.2241743  52.7745668
  87.6464860  11.6862150  53.6103840  86.8731351  10.5939108  52.9027978
  78.0837717   4.5882951  50.2994668  78.3345756   5.4729961  50.5652244
  78.6197266   4.4087552  49.5269760  87.2968445  12.8909850  42.6424649
  87.1614120  13.7361386  43.0709496  87.8378257  13.0929128  41.8790582
  80.7497842  10.4085288  43.2152574  81.2622363  11.2028538  43.3658138
  81.4020555   9.7111579  43.1486175  82.5592727  13.5251045  45.2975327
  82.7359355  14.4469009  45.1096311  83.3549561  13.2109464  45.7269707
  81.8445084   5.5715676  55.1737490  81.7298599   4.6700934  55.4744589
  80.9889601   5.8179373  54.8222307  88.9236921  13.5133417  56.7724991
  88.4800776  12.7269795  56.4545895  89.5854135  13.7012567  56.1068882
  83.6824043  15.0429218  51.2985669  84.2331468  14.9146282  50.5262663
  82.8435518  15.3424107  50.9480562  91.0218159  13.7936217  54.8006392
  91.0036635  14.6145098  54.3086661  91.9438079  13.6690292  55.0256533
  87.4791214  11.3080346  55.6429900  88.0119550  10.5468634  55.4129208
  86.9505295  11.0153998  56.3854055  78.7146759   8.7373943  43.9912144
  79.5521981   9.1470951  43.7745852  78.8925027   7.7973385  43.9612338
  88.8443926  10.4366339  43.1548712  88.3165288   9.7019098  42.8421950
  88.3431429  11.2141015  42.9088681  93.8236772   8.6315359  48.2715759
  93.1660447   9.3214620  48.3595887  94.6277172   9.0211791  48.6149745
  86.9896526   8.2546549  36.1583685  86.0823588   8.0235802  36.3574834
  87.4867558   7.4584168  36.3457667  89.8964605  16.9644056  39.0780372
  89.2226304  17.2675753  39.6865329  90.2830427  17.7673136  38.7285829
  88.1684760   8.3559144  40.6807676  87.2595979   8.0718177  40.7780145
  88.1979844   8.7758222  39.8210982  93.4004027  11.9665733  44.4498843
  92.9466354  11.1256643  44.5064034  92.7697994  12.6027132  44.7873623
  91.8436967  13.8042230  45.3848661  92.1359941  14.3647287  44.6661027
  92.3535587  14.0970791  46.1401820  78.7372930   6.0764658  44.6622878
  78.5397330   5.4834019  43.9373944  78.1819594   5.7716868  45.3798817
  87.8660848   9.8967887  38.0195754  87.4280278   9.1803746  37.5601391
  88.6071289  10.1244002  37.4580845  86.8070592  14.5822581  46.4742114
  86.7646771  14.8083427  45.5450646  87.7233291  14.3485956  46.6227916
  96.0103342  10.2401611  49.0883344  96.4439849  10.1476901  49.9366398
  96.7234923  10.2159112  48.4503360  84.9236393  11.4585610  46.2704077
  85.7176991  10.9635930  46.0686652  84.2128085  10.9303473  45.9071783
  89.7431237  13.8403706  50.6216445  89.7968259  14.4094642  51.3894161
  88.8746018  14.0105591  50.2570482  81.2319156   5.6028692  42.3463830
  80.3016744   5.5413147  42.5633792  81.3276628   5.0804645  41.5500471
  96.8718892  10.2825312  51.6216230  97.0654782  11.1871123  51.8675505
  96.7719510   9.8232731  52.4554815  91.9334000  10.4332055  57.1957110
  91.7819507  10.2042607  56.2787194  91.9238680  11.3902656  57.2088455
  88.7019337   8.0063968  52.1803377  89.6311397   8.1575127  52.0072344
  88.2810367   8.0947988  51.3252023  87.5007669  12.0314632  49.9501914
  87.3618754  11.6633416  50.8227852  86.7122265  12.5462271  49.7785872
  88.0955820  17.1323728  41.2927451  88.2707576  16.6611772  42.1073073
  87.4088609  17.7589495  41.5208712  89.0512884  11.4096235  47.3390752
  88.7162716  11.3697005  48.2348402  88.5516829  10.7440951  46.8661162
  83.0257128   6.8163865  52.8643333  82.8876926   6.0844104  53.4654872
  83.9362051   6.7272765  52.5827521  91.9872075   8.7552269  37.6127812
  91.3701246   8.0299097  37.5160864  91.5188564   9.5161629  37.2694886
  85.6539428   6.5283824  52.3527013  86.3639047   5.8877016  52.3113631
  85.6108736   6.7796719  53.2753194  93.6426207  13.4651177  55.2733592
  93.5838753  12.7810398  54.6064175  94.0445725  14.2070167  54.8214218
  82.6616906  20.2813091  48.0667311  82.9013504  20.9131615  48.7446330
  81.8186102  19.9301131  48.3532670  93.6443614  11.4290761  53.5047572
  92.7570393  11.0916683  53.6273971  94.2142165  10.6973793  53.7416337
  75.2972761   7.7614853  46.8290623  75.9843801   7.4476583  46.2411638
  75.1420890   8.6656218  46.5557875  87.1744768  16.0892214  50.4708815
  87.1014939  16.8947185  50.9828119  86.7322161  16.2884179  49.6456836
  86.9634547  15.3263984  43.9811636  86.1802069  15.8685664  44.0749861
  87.6627292  15.8437963  44.3805878  89.6343451  15.9879048  52.6266974
  90.3471423  16.6226513  52.5542875  89.1433480  16.0842914  51.8106975
  91.3560978   9.8930300  44.1984265  90.4217257  10.0131763  44.0288970
  91.5337647   8.9902767  43.9344275  84.6855365  13.7373491  53.4472544
  85.3864824  14.3709974  53.6001939  84.2150480  14.0788223  52.6868184
  92.8109761  12.0791441  41.7320451  93.0869604  11.9648036  42.6414326
  91.9414259  11.6808926  41.6932625  89.4463825  16.3277792  45.3753265
  89.6286219  15.5099448  45.8381017  90.2696811  16.5445484  44.9378155
  89.7805990  15.2545977  42.6368314  90.3093756  14.7438432  42.0238476
  90.0434210  14.9388507  43.5013847  88.5344224   7.0337910  57.7591132
  87.8584861   6.9332039  58.4293507  89.3571858   6.8777123  58.2227129
  80.2823083  13.2709846  50.3803647  80.8676520  12.5253534  50.5131551
  80.0847921  13.5813803  51.2640311  83.1361738  16.3061094  45.3966089
  82.4672113  16.7907221  44.9130130  82.9974608  16.5530314  46.3109468
  74.8740737   5.8415446  49.1008090  74.9124837   5.3079037  49.8945208
  74.3681030   5.3150652  48.4819067  87.2767007  18.3404837  51.9948748
  87.8285315  18.5036459  52.7597833  87.6173200  18.9309275  51.3228773
  92.1277881  13.1666095  57.8497402  92.6717785  13.7796053  57.3552357
  91.5464726  13.7245673  58.3664415  78.5049315   4.5679549  42.1762022
  78.8002756   3.6590227  42.1229075  77.6037351   4.5467288  41.8543024
  90.4135394  16.2886813  48.9812430  90.2886533  15.4876553  48.4723375
  91.0714485  16.7833006  48.4926400  92.4770302  14.0895833  50.6091980
  91.5300638  13.9701184  50.5370307  92.8253075  13.2018331  50.6918242
  89.4816736  13.8848549  46.8096332  89.3341698  12.9565256  46.9903902
  90.3070229  13.9068640  46.3253408  93.0850857  14.7077108  47.8961205
  94.0097405  14.5019969  47.7585656  92.9166161  14.4593509  48.8050547
  92.8746174  15.2262775  43.2523297  93.0483051  14.6609198  42.4997149
  93.3675065  16.0263670  43.0702786  78.6923133   7.2377444  51.3186855
  78.1476601   8.0137252  51.4507130  79.5702483   7.5848249  51.1605977
  93.8621346  14.5429540  40.3520195  94.5572251  15.1636232  40.5707509
  94.2044496  13.6924891  40.6272573  79.4789155   6.3647340  54.2117012
  78.7370891   6.5129976  54.7981643  79.1581900   6.6255606  53.3483762
  95.7612769  11.9929245  41.8807526  96.2864093  12.3316518  41.1556846
  95.6735122  11.0576260  41.6970660  87.4232818  15.9063319  54.0097402
  87.7319944  15.6612465  54.8820102  88.2208300  16.1109957  53.5216272
  87.4453430  18.0601228  46.2402779  87.0058420  17.5677607  46.9335635
  88.1961547  17.5174196  45.9994854  79.9245769  14.2512769  46.2427407
  80.7503789  13.9516541  45.8626050  79.5739821  13.4820392  46.6917195
  84.8927302  13.6039237  48.3125080  84.2707311  12.9409942  48.0127308
  85.5632169  13.6300369  47.6298728  78.1254374  12.1699096  47.2016340
  77.2886282  11.7421270  47.0200342  78.0978019  12.3631539  48.1387132
  95.4506675  12.6262149  57.1858724  94.6602219  12.6086288  56.6463223
  95.2140030  13.1650442  57.9407760  84.4540809  12.1543161  41.7883541
  84.6028929  12.8378625  41.1350214  85.2607252  12.1348251  42.3032997
  97.0722747  11.8951557  54.7433474  96.7807555  12.2581537  55.5796935
  96.4594878  11.1818565  54.5646806  82.2093442   8.1808338  42.7944610
  81.9639484   7.2770668  42.9924820  82.3789357   8.1825489  41.8524088
  87.9536215  14.6491291  39.2595288  87.3810182  15.2681478  38.8065760
  88.5269008  15.1990653  39.7935210  91.1733474  14.9328441  40.3903871
  92.1064147  14.8674003  40.5936746  91.0856687  15.7684708  39.9318403
  93.8021491  14.2494312  37.3507818  93.7235123  13.9154175  38.2443576
  94.6231158  14.7416080  37.3499291  88.2221706  10.0369850  58.0611998
  89.1424715  10.2148449  58.2552044  88.1871289   9.0925895  57.9091697
  77.4403871   5.2308444  46.9865273  77.1206655   4.3773752  46.6939647
  76.8937299   5.4457022  47.7423240  81.2183778   7.9470885  50.7034779
  81.4369788   8.8787993  50.7222813  81.6309552   7.5878859  51.4889583
  77.3092131   8.8511355  48.9558394  76.6155602   8.4365308  48.4428349
  78.0565122   8.8931892  48.3591813  85.9542913   6.9501229  58.9102590
  85.4709995   7.7501589  59.1166479  86.0403853   6.9609174  57.9570034
  79.2228873   8.7829609  46.8324409  79.1999561   8.8817296  45.8806292
  79.5329510   9.6294760  47.1541575  81.8816251  10.8405764  50.9471023
  82.8359505  10.8089706  50.8800955  81.6828775  10.3796388  51.7621249
  82.4715633   9.4106880  53.5141821  83.2908522   9.9050959  53.5376658
  82.7452441   8.4938848  53.4859389  80.2366480  16.3825384  47.9641221
  80.1020948  15.6225784  47.3979219  79.8198542  17.1066283  47.4970010
  91.3725443  11.5662307  36.9717797  92.0761293  11.7712310  37.5875452
  90.6488092  12.1339069  37.2366880  83.3935606  17.2794701  48.1759664
  83.2767990  18.2240133  48.0738354  82.5728052  16.9768262  48.5645463
  93.2812140  12.0044836  39.0216257  94.1157744  11.5726035  38.8393731
  93.1196483  11.8326850  39.9493151  92.9358032   8.5076950  40.3872596
  92.8806836   8.3421221  39.4461040  92.3104088   9.2152983  40.5434786
  77.7250547   3.7445014  54.2134018  78.3709411   3.2343968  54.7021243
  77.5167698   4.4813696  54.7877443  90.2503940  10.8125861  59.7126159
  91.1195099  10.9866514  59.3512794  89.7710691  11.6320278  59.5901888
  84.4190120  17.9322962  51.3915592  85.3217366  17.9646573  51.7082087
  84.1927490  17.0023413  51.4061928  86.1743722  16.6853949  48.0525671
  85.2239353  16.6855811  47.9390043  86.4776208  15.9386684  47.5361706
 101.9096415  22.5214487  49.1171433 102.5474825  22.4021235  48.4134773
 101.7917258  23.4695331  49.1759386  98.7186122  22.4741916  49.0532958
  98.3804633  22.3582980  48.1653493  99.5875890  22.0733081  49.0333964
  99.2005905  23.6276767  55.0119164  99.1894545  23.2329566  54.1399667
  99.3626544  22.8942840  55.6052935  96.4194401  21.2430163  38.3849898
  96.6719922  20.7211684  37.6233361  95.4818960  21.0796308  38.4876582
 101.4637684  20.2465941  46.1924641 102.2500773  19.8285364  45.8415058
 101.7276388  21.1512033  46.3606290 101.6347761  25.6838792  40.8913298
 100.9993594  25.7573418  41.6034203 101.3045168  26.2732390  40.2132377
 106.8646111  20.1841174  47.0957620 107.5971283  19.6140391  47.3295449
 106.1085467  19.7962775  47.5364125  96.1390690  23.1458269  40.5874273
  96.0226948  22.4703172  41.2555357  96.2492950  22.6590643  39.7706426
  98.4822231  22.6068416  44.2920962  98.1180438  22.0799037  45.0033884
  99.3389347  22.2166885  44.1187448 104.3871531  13.8962749  51.5552229
 104.0554856  14.7658160  51.3313443 103.7917145  13.5799033  52.2346259
  98.1227718  17.6358316  39.2882311  98.2902120  18.5038552  39.6552782
  97.9324887  17.7985597  38.3643600 100.8803051  26.0975295  50.9548141
 100.5803774  27.0000333  50.8463948 100.5354110  25.8307478  51.8069294
  94.3315532  22.5489091  46.9884846  93.4066029  22.4165306  47.1962537
  94.5799945  23.3283311  47.4854788 104.2800195  18.6157835  48.6345579
 103.3717072  18.5473243  48.3404340 104.2287790  19.0929780  49.4627404
  98.1016938  20.0915973  40.2728978  97.9816564  20.5373024  41.1114458
  97.4069527  20.4401291  39.7142516  91.6924343  22.1922365  47.8228635
  91.8216724  22.4456844  48.7368046  91.0121795  22.7850073  47.5033290
  98.3541060  20.0347480  56.5780476  97.5774394  20.5941400  56.5683340
  98.9931623  20.5204263  57.0995346 106.1461841  16.8174273  50.4123452
 105.5036221  17.1106806  49.7663247 105.6416769  16.7027193  51.2176649
 103.8002005  20.5637446  41.1009312 104.7119861  20.7964833  40.9257009
 103.2911652  21.1474491  40.5384390  96.6087433  22.8432934  56.1398443
  97.3502117  23.3817978  55.8633266  95.9024418  23.4699222  56.2969995
 102.0842772  24.9862074  54.7370604 102.4926128  24.5444485  53.9925237
 101.3620034  24.4114702  54.9904797  98.4373842  19.9234681  52.1104161
  99.2835038  20.3474094  52.2538810  98.3772480  19.2668305  52.8042724
 102.4071587  25.5463265  48.4922893 101.7780449  25.7108979  47.7898961
 102.0197249  25.9604874  49.2633857 106.2860819  26.4817703  45.8467257
 105.6011857  26.8616604  45.2964290 106.3704668  27.0913029  46.5799205
 101.5873288  17.5839049  53.7685335 101.3434220  18.3381110  53.2319611
 101.8633218  17.9624397  54.6032582 103.5411750  24.1277662  52.4462600
 103.7528646  24.7709422  51.7696982 103.4941499  23.2939978  51.9784531
 101.1437979  16.7395482  49.3499173 100.2822458  17.0376736  49.6415910
 101.1700414  16.9565881  48.4180205  96.8968435  21.4060825  42.5662543
  97.5992478  21.8581869  43.0336470  96.5649063  20.7644644  43.1942437
  95.3448796  19.9972582  56.9413753  94.7147457  20.6788863  57.1749150
  95.2384884  19.8855663  55.9966891  90.6393769  19.6644378  47.8679677
  89.8492823  19.9201906  47.3919788  91.1305016  20.4792716  47.9731718
 104.6557578  27.0049617  50.6184958 105.4775022  26.6029804  50.3367639
 104.6519981  26.9017851  51.5701074  92.5908514  20.0288957  44.8263154
  91.7939677  20.1407651  45.3446649  92.3634106  20.3675609  43.9604044
  98.4214182  26.5533660  52.7745668  98.4858614  27.0154068  53.6103840
  97.7125106  25.9231025  52.9027978  88.9231472  19.9174868  50.2994668
  89.1739510  20.8021878  50.5652244  89.4591020  19.7379470  49.5269760
 112.7463571  23.3488366  46.9669929 111.9927280  22.7795764  46.8113934
 112.8811113  23.3151030  47.9140564  94.6229539  14.2993348  59.3039004
  94.2296485  13.7459546  59.9786648  95.4395679  14.6103926  59.6945521
  97.5397500  15.7151227  56.8959260  98.2807213  16.3158380  56.8163723
  97.7715423  14.9728865  56.3377303  92.6838838  20.9007594  55.1737490
  92.5692353  19.9992851  55.4744589  91.8283356  21.1471291  54.8222307
  99.7630676  28.8425334  56.7724991  99.3194530  28.0561713  56.4545895
 100.4247889  29.0304485  56.1068882 101.8611914  29.1228134  54.8006392
 101.8430389  29.9437015  54.3086661 102.7831834  28.9982210  55.0256533
  98.3184968  26.6372264  55.6429900  98.8513305  25.8760552  55.4129208
  97.7899049  26.3445916  56.3854055 101.4854663  11.7432330  51.1723542
 101.1418932  12.6333971  51.0962653 101.8533626  11.5533987  50.3093127
 101.4504946  21.7340941  39.6795977 100.9351569  22.5045545  39.9184365
 101.1782254  21.0606077  40.3029039  99.0352057  16.5790642  44.7381216
  98.1793653  16.1897492  44.5586854  99.4479009  16.6582602  43.8781001
 100.5651203  14.1136985  49.1372775 100.0615999  14.0767120  48.3240581
 100.8581810  15.0229728  49.1969432  96.8094089  14.1975715  48.1438957
  97.6747086  14.0018523  47.7844847  96.8771598  13.9686066  49.0708314
 106.4239220  24.4873296  41.6149151 105.6468663  24.1484455  41.1704313
 107.1030701  24.4925919  40.9404116 101.2391249  19.6068033  41.5055758
 100.9341385  19.9214182  42.3565902 102.1921691  19.6849453  41.5483091
 104.6630527  23.9607277  48.2715759 104.0054201  24.6506538  48.3595887
 105.4670926  24.3503709  48.6149745  94.4156408  16.4277923  45.5155324
  94.9900160  16.2053104  44.7828517  95.0027391  16.4966617  46.2683925
 103.4735986  22.3151649  46.3219700 103.9867867  22.9481641  46.8241410
 104.1237209  21.7152845  45.9563060  94.7425995  18.4582384  39.5351209
  93.9063308  18.7957070  39.8560484  94.6030765  18.3231363  38.5978346
  96.7179076  13.3019171  44.2430393  96.0643488  12.9868189  43.6187008
  96.6759550  12.6794912  44.9690216  97.8290281  23.5838467  36.1583685
  96.9217343  23.3527720  36.3574834  98.3261313  22.7876086  36.3457667
  99.9516816  19.7901105  48.5678041  99.0339378  20.0116052  48.4099729
 100.3676960  19.8647415  47.7089748 100.7351864  21.1892521  43.6980721
 101.4823683  21.7013918  43.3887843 101.0043454  20.8676573  44.5585115
  99.0078514  23.6851061  40.6807676  98.0989734  23.4010094  40.7780145
  99.0373598  24.1050140  39.8210982 104.2397782  27.2957651  44.4498843
 103.7860109  26.4548561  44.5064034 103.6091749  27.9319049  44.7873623
 103.1830701  18.2249637  45.6799511 102.4453458  17.7127023  46.0109753
 103.4357475  17.7850019  44.8682787  97.5563408  21.2979682  46.7817471
  97.6112018  20.3453518  46.7059947  96.7454610  21.4539121  47.2658769
  98.7054602  25.2259805  38.0195754  98.2674032  24.5095664  37.5601391
  99.4465043  25.4535920  37.4580845  95.4955768  19.9156742  44.5407850
  94.6823634  20.2150912  44.9473042  95.9914763  19.5212431  45.2582332
 101.0929980  20.3798566  53.3722744 101.4479368  20.6070039  54.2317209
 101.7402111  20.7116943  52.7499999 106.8227717  23.5017002  44.0772073
 106.6845616  23.6918598  43.1493262 106.4663936  24.2636385  44.5340124
  94.9869843  17.4875097  50.1569085  95.6269222  17.3463856  49.4592048
  94.1547374  17.2009611  49.7807687 106.8497097  25.5693529  49.0883344
 107.2833603  25.4768818  49.9366398 107.5628677  25.5451030  48.4503360
 100.5824991  29.1695623  50.6216445 100.6362014  29.7386560  51.3894161
  99.7139773  29.3397508  50.2570482  91.9898460  17.4575422  44.9342072
  92.2505277  18.3720756  44.8251232  92.8115632  16.9899865  45.0838684
  93.4623385  18.8713179  52.1040896  94.1346438  18.6630542  51.4553545
  92.6353171  18.6735265  51.6646128 107.7112646  25.6117230  51.6216230
 107.9048536  26.5163040  51.8675505 107.6113264  25.1524649  52.4554815
  99.3648957  15.4975120  54.1206557  98.7176872  16.1965070  54.0271033
 100.1349972  15.9311264  54.4882805 102.7727755  25.7623973  57.1957110
 102.6213261  25.5334524  56.2787194 102.7632434  26.7194574  57.2088455
  99.5413091  23.3355885  52.1803377 100.4705151  23.4867045  52.0072344
  99.1204121  23.4239906  51.3252023  98.3401423  27.3606550  49.9501914
  98.2012509  26.9925334  50.8227852  97.5516019  27.8754189  49.7785872
 102.8265830  24.0844187  37.6127812 102.2095000  23.3591015  37.5160864
 102.3582318  24.8453547  37.2694886  96.4933183  21.8575742  52.3527013
  97.2032801  21.2168934  52.3113631  96.4502491  22.1088637  53.2753194
 104.4819961  28.7943095  55.2733592 104.4232508  28.1102315  54.6064175
 104.8839480  29.5362085  54.8214218  95.2062117  18.8440960  54.1722652
  94.6699474  18.3931698  54.8244249  94.6178825  18.9786868  53.4293117
  94.6164376  18.3029611  36.7349116  93.7393842  18.1818412  36.3711363
  95.0922129  17.5115689  36.4828005 104.4837369  26.7582679  53.5047572
 103.5964147  26.4208601  53.6273971 105.0535920  26.0265710  53.7416337
  90.9401238  17.9796967  51.2575647  90.8559427  17.3722637  50.5226057
  90.1183944  18.4705986  51.2585143 101.1124952  16.4650531  46.6245842
 101.6093651  15.7120493  46.3046912 100.3411933  16.5014847  46.0589051
 108.9654709  22.1690896  48.2664133 108.9544586  23.0515612  47.8958066
 108.0972089  21.8162447  48.0718670 100.4737206  31.3170965  52.6266974
 101.1865178  31.9518430  52.5542875  99.9827234  31.4134831  51.8106975
 102.1954733  25.2222218  44.1984265 101.2611011  25.3423681  44.0288970
 102.3731401  24.3194685  43.9344275  97.6959921  18.6067914  46.3517526
  97.3257708  18.0538954  47.0398432  98.1919013  18.0026047  45.7992527
 105.5827284  21.0639537  44.7334299 106.0487736  21.8967529  44.6594602
 106.0334784  20.5984519  45.4379558 103.6503515  27.4083359  41.7320451
 103.9263359  27.2939953  42.6414326 102.7808014  27.0100843  41.6932625
 103.5543947  13.4320124  48.7725201 102.6407026  13.6624351  48.9407408
 103.9837048  13.5158568  49.6239233 103.3250405  21.6210016  51.2725095
 102.6721855  21.8685924  50.6177548 103.7030785  20.8074154  50.9387572
  99.3737978  22.3629827  57.7591132  98.6978615  22.2623957  58.4293507
 100.1965612  22.2069041  58.2227129  85.7134492  21.1707364  49.1008090
  85.7518591  20.6370955  49.8945208  85.2074785  20.6442570  48.4819067
  93.0925254  16.0171905  52.5970633  93.1566581  16.8786736  52.1848030
  93.0292375  15.4045906  51.8642991  92.5677527  18.0895037  56.2443667
  93.1949566  17.7072114  56.8581191  91.7105446  17.8709239  56.6099359
 102.9671635  28.4958012  57.8497402 103.5111539  29.1087971  57.3552357
 102.3858480  29.0537591  58.3664415  89.3443070  19.8971466  42.1762022
  89.6396511  18.9882145  42.1229075  88.4431105  19.8759206  41.8543024
 101.2529148  31.6178730  48.9812430 101.1280288  30.8168470  48.4723375
 101.9108239  32.1124924  48.4926400  92.8737317  17.9727463  48.1589570
  92.1523902  18.5863431  48.0197044  93.6630572  18.5085228  48.0806216
 103.3164057  29.4187750  50.6091980 102.3694392  29.2993102  50.5370307
 103.6646830  28.5310248  50.6918242  95.6763630  15.3081889  54.4330222
  96.1998032  15.5544186  55.1956531  95.4575963  16.1401924  54.0133359
  91.0730911  17.5785564  42.3001347  90.7443617  16.6982943  42.1176453
  91.4270282  17.5233233  43.1877736  94.1872734  17.8658534  42.6676824
  94.5268807  18.3944455  41.9455433  94.6344855  18.2038940  43.4435391
 103.9244612  30.0369025  47.8961205 104.8491159  29.8311887  47.7585656
 103.7559915  29.7885427  48.8050547  96.8816175  16.2495584  52.1179893
  96.5412995  15.4503398  52.5200572  96.1755181  16.5497295  51.5456726
  97.5332647  13.3344897  50.5707216  98.3558716  12.8605375  50.4486106
  97.7770710  14.1135381  51.0705902  96.1740881  16.3633155  40.8670117
  96.8949244  16.7414408  40.3633834  95.5506186  17.0822032  40.9705095
 100.3172004  17.0678304  41.8028450 100.5335619  17.9502942  41.5017278
  99.8366071  16.6764518  41.0734092  95.0571226  20.0264018  48.3799194
  94.9115806  20.3404321  49.2723476  94.5796429  20.6448918  47.8270093
  96.9167609  17.0166565  48.4280084  96.9029177  16.1207659  48.0912382
  97.6340037  17.0237229  49.0618370  98.7693739  17.4503906  50.4733211
  98.5111517  18.3720976  50.4717542  98.2378780  17.0534340  51.1633675
  96.3204505  15.8980946  43.6967654  96.4420416  14.9697592  43.8958541
  96.0306547  15.9119632  42.7845969  99.1895695  13.5835856  46.8334374
  99.2117392  13.6475189  45.8786353  99.6063754  12.7440365  47.0274880
 109.5679319  23.3191116  44.8713596 110.0110465  22.5698441  44.4732720
 108.6905830  23.3101252  44.4887328 104.7015101  29.8721457  40.3520195
 105.3966005  30.4928150  40.5707509 105.0438251  29.0216808  40.6272573
  90.3182910  21.6939258  54.2117012  89.5764646  21.8421894  54.7981643
  89.9975654  21.9547524  53.3483762 106.6006524  27.3221163  41.8807526
 107.1257848  27.6608436  41.1556846 106.5128876  26.3868178  41.6970660
  95.8045584  17.4112943  57.9057586  95.8533740  18.2875066  57.5235356
  96.3468098  16.8690336  57.3329230 106.2900430  27.9554066  57.1858724
 105.4995973  27.9378205  56.6463223 106.0533784  28.4942360  57.9407760
 106.4098305  24.8046533  54.4991452 106.4596310  24.6396540  55.4406975
 106.3012228  23.9373792  54.1089333 103.7002067  20.7877461  55.8150759
 104.6011930  20.6483926  55.5234757 103.7750042  20.9531916  56.7548936
  98.0344873  18.1644316  54.6603945  97.1648182  18.4577882  54.3886534
  98.2704353  18.7484761  55.3811209 107.9116502  27.2243474  54.7433474
 107.6201310  27.5873455  55.5796935 107.2988633  26.5110483  54.5646806
 109.1112184  24.7896354  47.2636044 109.9459075  25.2286158  47.4273604
 109.2471313  24.3135007  46.4444290 106.1603690  22.3476089  53.2113532
 106.6357811  22.5403735  52.4032383 105.2369255  22.4035275  52.9656915
 100.7383906  14.3823932  52.1769366 101.2565850  15.1184959  51.8515854
 100.3839039  14.6887926  53.0116125 104.8605359  19.2241849  51.4441837
 105.8122782  19.3239947  51.4654061 104.6908809  18.4320118  51.9539922
 102.8819738  16.3097432  51.6301238 102.2869670  16.5902445  50.9347727
 102.5969435  16.7991333  52.4017979 104.6415245  29.5786229  37.3507818
 104.5628877  29.2446093  38.2443576 105.4624912  30.0707997  37.3499291
 107.3393437  22.4447969  50.5584137 107.3069757  21.5063969  50.7443821
 107.9494060  22.5232005  49.8249962  99.1776768  21.3144022  36.6011341
 100.1235872  21.1850230  36.6699759  98.7991012  20.5758684  37.0780769
 107.4887925  19.2359012  50.6042420 106.9726974  18.4517469  50.4172349
 108.3727874  18.9077729  50.7688940 105.1498652  12.9800028  46.5638233
 104.9523473  12.6715116  47.4481565 105.7598358  13.7061667  46.6936163
 113.1569986  23.5063976  49.6990174 113.8873375  23.2449264  50.2597877
 112.5476932  22.7692697  49.7392242 111.2385284  21.6471838  50.2964625
 110.5118447  21.5127803  49.6881116 110.8232570  21.9548667  51.1021343
  99.0615460  25.3661768  58.0611998  99.9818470  25.5440367  58.2552044
  99.0265043  24.4217813  57.9091697  97.3619685  19.2393998  36.5366226
  96.4551140  18.9427111  36.6128940  97.6395666  18.9423816  35.6700512
  98.9781750  13.7830888  42.6910467  98.1682479  13.4377973  43.0665713
  99.6666167  13.4738431  43.2798079 100.9072299  12.8608935  44.3134764
 101.4603337  13.2804388  44.9724787 101.1442385  11.9344683  44.3557720
  96.9305398  18.8496008  60.0937528  96.8302125  19.7990365  60.0249619
  96.7126940  18.5214247  59.2213598  96.1318469  16.0980933  36.6778205
  96.9937633  16.4235832  36.9374023  96.3168813  15.3112429  36.1651271
 104.2851106  14.9709460  43.8213428 103.7049775  15.6294264  43.4391481
 104.0187038  14.1486804  43.4100846 102.7354672  14.3714517  46.0234749
 103.2354450  14.4831052  45.2149067 103.3790280  14.0675570  46.6635557
  96.7936668  22.2793147  58.9102590  96.3103750  23.0793507  59.1166479
  96.8797607  22.2901092  57.9570034 103.0675984  17.1309550  42.8769777
 102.1801839  17.4159201  42.6589971 103.4829973  16.9703313  42.0297053
 106.4190520  17.1556071  46.5924116 107.1950910  17.6452524  46.8648733
 105.6938654  17.5814125  47.0495985 108.8563079  17.8683690  47.6498056
 109.4507569  17.6279426  46.9391365 108.9289662  17.1490821  48.2771593
 102.2119197  26.8954225  36.9717797 102.9155047  27.1004227  37.5875452
 101.4881846  27.4630987  37.2366880 103.0417008  22.6464086  43.0920067
 102.9852209  23.1032637  42.2527699 103.5945350  21.8854771  42.9142909
 106.8521813  18.4353818  43.9170186 106.5958748  18.0350454  44.7478394
 106.2274681  19.1497612  43.7920325 111.1634151  21.1749891  46.4241478
 110.6033709  21.2443080  47.1973040 110.5577655  20.9990876  45.7040974
 104.1205895  27.3336754  39.0216257 104.9551499  26.9017952  38.8393731
 103.9590238  27.1618768  39.9493151 103.7751787  23.8368867  40.3872596
 103.7200591  23.6713139  39.4461040 103.1497842  24.5444900  40.5434786
  88.5644302  19.0736932  54.2134018  89.2103165  18.5635886  54.7021243
  88.3561453  19.8105613  54.7877443 101.0897694  26.1417779  59.7126159
 101.9588854  26.3158431  59.3512794 100.6104445  26.9612196  59.5901888
  97.0847912  13.3376976  39.9657914  97.0726582  14.2818816  40.1226185
  97.9771334  13.1547122  39.6717376  92.9041793  16.2204549  58.3109032
  93.7673254  15.8641354  58.5212357  92.3307203  15.8818444  58.9984437
 112.7490170  37.8506405  49.1171433 113.3868580  37.7313152  48.4134773
 112.6311013  38.7987249  49.1759386 109.5579876  37.8033833  49.0532958
 109.2198388  37.6874898  48.1653493 110.4269644  37.4024998  49.0333964
 105.4166692  39.6569310  45.0429849 104.8531557  39.5659247  44.2746137
 105.3019087  38.8369214  45.5232342 110.0399659  38.9568685  55.0119164
 110.0288300  38.5621483  54.1399667 110.2020298  38.2234758  55.6052935
 102.9631124  41.1520501  47.8814069 103.7552416  40.8111326  47.4660369
 103.2027774  41.2615476  48.8016223 110.9966250  43.3240277  40.3544314
 110.3454230  43.9094358  39.9678328 111.7910613  43.8546472  40.4139351
 104.9221878  40.4129414  40.7531448 105.6952754  39.8658402  40.6144324
 105.2747276  41.2773664  40.9645910 106.7606920  41.7405797  53.9598348
 106.4696786  42.6451428  53.8445014 107.3963905  41.7822324  54.6742417
 107.6863127  39.1182645  50.5499707 108.2826699  38.8938668  49.8356670
 107.7438099  38.3767391  51.1525155 107.2588155  36.5722081  38.3849898
 107.5113676  36.0503602  37.6233361 106.3212715  36.4088226  38.4876582
 112.3031438  35.5757859  46.1924641 113.0894527  35.1577282  45.8415058
 112.5670143  36.4803951  46.3606290 112.4741516  41.0130709  40.8913298
 111.8387349  41.0865336  41.6034203 112.1438922  41.6024308  40.2132377
 117.7039865  35.5133092  47.0957620 118.4365037  34.9432309  47.3295449
 116.9479221  35.1254693  47.5364125 106.9784444  38.4750187  40.5874273
 106.8620702  37.7995090  41.2555357 107.0886704  37.9882560  39.7706426
 109.3215985  37.9360334  44.2920962 108.9574192  37.4090955  45.0033884
 110.1783101  37.5458803  44.1187448 115.2265286  29.2254666  51.5552229
 114.8948610  30.0950077  51.3313443 114.6310899  28.9090950  52.2346259
 108.9621472  32.9650233  39.2882311 109.1295874  33.8330470  39.6552782
 108.7718641  33.1277515  38.3643600 111.7196805  41.4267212  50.9548141
 111.4197528  42.3292251  50.8463948 111.3747865  41.1599395  51.8069294
 105.1709287  37.8781009  46.9884846 104.2459783  37.7457223  47.1962537
 105.4193700  38.6575228  47.4854788 115.1193949  33.9449752  48.6345579
 114.2110826  33.8765161  48.3404340 115.0681545  34.4221697  49.4627404
 108.9410693  35.4207891  40.2728978 108.8210318  35.8664942  41.1114458
 108.2463281  35.7693209  39.7142516 102.5318098  37.5214283  47.8228635
 102.6610479  37.7748762  48.7368046 101.8515549  38.1141991  47.5033290
 106.7017585  48.1911533  43.9219109 106.6241615  49.1419358  44.0007590
 106.0979229  47.8457405  44.5794035 109.1934815  35.3639398  56.5780476
 108.4168149  35.9233318  56.5683340 109.8325378  35.8496181  57.0995346
 116.9855595  32.1466191  50.4123452 116.3429976  32.4398724  49.7663247
 116.4810524  32.0319111  51.2176649 114.6395759  35.8929364  41.1009312
 115.5513615  36.1256751  40.9257009 114.1305406  36.4766408  40.5384390
 107.4481187  38.1724851  56.1398443 108.1895871  38.7109895  55.8633266
 106.7418173  38.7991140  56.2969995 112.9236527  40.3153992  54.7370604
 113.3319883  39.8736402  53.9925237 112.2013788  39.7406619  54.9904797
 109.2767597  35.2526599  52.1104161 110.1228792  35.6766012  52.2538810
 109.2166234  34.5960223  52.8042724 113.2465341  40.8755182  48.4922893
 112.6174204  41.0400897  47.7898961 112.8591003  41.2896792  49.2633857
 117.1254573  41.8109620  45.8467257 116.4405611  42.1908522  45.2964290
 117.2098423  42.4204947  46.5799205 112.4267042  32.9130967  53.7685335
 112.1827974  33.6673028  53.2319611 112.7026973  33.2916315  54.6032582
 114.3805505  39.4569579  52.4462600 114.5922400  40.1001339  51.7696982
 114.3335253  38.6231896  51.9784531 111.9831734  32.0687400  49.3499173
 111.1216213  32.3668654  49.6415910 112.0094169  32.2857799  48.4180205
 108.7993303  40.6129591  45.7572978 109.2631649  40.8917294  44.9677601
 108.5350101  39.7113035  45.5746069 105.6917384  40.1601072  48.6952742
 106.2618741  40.5888340  48.0570226 106.2825496  39.8783657  49.3936927
 107.7362189  36.7352743  42.5662543 108.4386233  37.1873787  43.0336470
 107.4042818  36.0936562  43.1942437 106.1842551  35.3264500  56.9413753
 105.5541211  36.0080780  57.1749150 106.0778639  35.2147581  55.9966891
 115.4951333  42.3341535  50.6184958 116.3168777  41.9321722  50.3367639
 115.4913736  42.2309769  51.5701074 109.2607936  41.8825578  52.7745668
 109.3252369  42.3445985  53.6103840 108.5518860  41.2522943  52.9027978
 108.9755954  43.5493686  42.6424649 108.8401629  44.3945221  43.0709496
 109.5165766  43.7512963  41.8790582 105.4623294  29.6285265  59.3039004
 105.0690239  29.0751464  59.9786648 106.2789434  29.9395844  59.6945521
 104.2380236  44.1834880  45.2975327 104.4146864  45.1052845  45.1096311
 105.0337070  43.8693299  45.7269707 108.3791255  31.0443144  56.8959260
 109.1200968  31.6450298  56.8163723 108.6109177  30.3020782  56.3377303
 103.5232593  36.2299512  55.1737490 103.4086108  35.3284769  55.4744589
 102.6677110  36.4763209  54.8222307 110.6024430  44.1717252  56.7724991
 110.1588285  43.3853631  56.4545895 111.2641644  44.3596403  56.1068882
 105.3611552  45.7013054  51.2985669 105.9118977  45.5730117  50.5262663
 104.5223027  46.0007943  50.9480562 112.7005668  44.4520052  54.8006392
 112.6824144  45.2728933  54.3086661 113.6225588  44.3274127  55.0256533
 109.1578723  41.9664181  55.6429900 109.6907059  41.2052470  55.4129208
 108.6292804  41.6737833  56.3854055 112.3248418  27.0724247  51.1723542
 111.9812687  27.9625889  51.0962653 112.6927380  26.8825905  50.3093127
 112.2898700  37.0632859  39.6795977 111.7745324  37.8337463  39.9184365
 112.0176009  36.3897995  40.3029039 109.8745811  31.9082559  44.7381216
 109.0187408  31.5189410  44.5586854 110.2872763  31.9874520  43.8781001
 111.4044958  29.4428903  49.1372775 110.9009754  29.4059038  48.3240581
 111.6975565  30.3521645  49.1969432 107.6487844  29.5267632  48.1438957
 108.5140841  29.3310441  47.7844847 107.7165353  29.2977984  49.0708314
 117.2632974  39.8165213  41.6149151 116.4862417  39.4776373  41.1704313
 117.9424455  39.8217836  40.9404116 112.0785003  34.9359951  41.5055758
 111.7735139  35.2506100  42.3565902 113.0315446  35.0141371  41.5483091
 110.5231435  41.0950174  43.1548712 109.9952797  40.3602934  42.8421950
 110.0218938  41.8724850  42.9088681 115.5024281  39.2899194  48.2715759
 114.8447956  39.9798456  48.3595887 116.3064680  39.6795626  48.6149745
 105.2550163  31.7569840  45.5155324 105.8293915  31.5345022  44.7828517
 105.8421145  31.8258535  46.2683925 114.3129740  37.6443567  46.3219700
 114.8261622  38.2773559  46.8241410 114.9630964  37.0444763  45.9563060
 105.5819750  33.7874301  39.5351209 104.7457062  34.1248988  39.8560484
 105.4424520  33.6523281  38.5978346 107.5572831  28.6311089  44.2430393
 106.9037243  28.3160106  43.6187008 107.5153305  28.0086830  44.9690216
 108.6684035  38.9130384  36.1583685 107.7611097  38.6819638  36.3574834
 109.1655067  38.1168003  36.3457667 111.5752114  47.6227891  39.0780372
 110.9013813  47.9259588  39.6865329 111.9617936  48.4256972  38.7285829
 110.7910571  35.1193023  48.5678041 109.8733132  35.3407970  48.4099729
 111.2070715  35.1939333  47.7089748 111.5745619  36.5184438  43.6980721
 112.3217438  37.0305836  43.3887843 111.8437208  36.1968491  44.5585115
 109.8472269  39.0142979  40.6807676 108.9383488  38.7302012  40.7780145
 109.8767353  39.4342058  39.8210982 115.0791536  42.6249569  44.4498843
 114.6253863  41.7840478  44.5064034 114.4485503  43.2610967  44.7873623
 114.0224456  33.5541555  45.6799511 113.2847213  33.0418941  46.0109753
 114.2751229  33.1141936  44.8682787 113.5224476  44.4626065  45.3848661
 113.8147450  45.0231122  44.6661027 114.0323096  44.7554626  46.1401820
 114.1236083  26.3317807  46.2741280 114.4294960  25.4715170  45.9867195
 114.8488688  26.9235427  46.0740274 108.3957163  36.6271600  46.7817471
 108.4505773  35.6745436  46.7059947 107.5848365  36.7831039  47.2658769
 109.5448357  40.5551723  38.0195754 109.1067787  39.8387582  37.5601391
 110.2858798  40.7827838  37.4580845 106.3349523  35.2448659  44.5407850
 105.5217388  35.5442830  44.9473042 106.8308517  34.8504348  45.2582332
 108.4858101  45.2406416  46.4742114 108.4434280  45.4667263  45.5450646
 109.4020800  45.0069791  46.6227916 111.9323735  35.7090484  53.3722744
 112.2873122  35.9361957  54.2317209 112.5795866  36.0408861  52.7499999
 117.6621471  38.8308920  44.0772073 117.5239370  39.0210516  43.1493262
 117.3057690  39.5928303  44.5340124 105.8263598  32.8167015  50.1569085
 106.4662977  32.6755774  49.4592048 104.9941128  32.5301528  49.7807687
 117.6890851  40.8985447  49.0883344 118.1227358  40.8060736  49.9366398
 118.4022432  40.8742947  48.4503360 106.6023902  42.1169445  46.2704077
 107.3964500  41.6219766  46.0686652 105.8915594  41.5887309  45.9071783
 111.4218746  44.4987541  50.6216445 111.4755768  45.0678477  51.3894161
 110.5533527  44.6689426  50.2570482 104.3017139  34.2005097  52.1040896
 104.9740193  33.9922459  51.4553545 103.4746926  34.0027183  51.6646128
 118.5506401  40.9409147  51.6216230 118.7442291  41.8454958  51.8675505
 118.4507019  40.4816567  52.4554815 110.2042711  30.8267038  54.1206557
 109.5570626  31.5256988  54.0271033 110.9743727  31.2603182  54.4882805
 113.6121509  41.0915890  57.1957110 113.4607016  40.8626442  56.2787194
 113.6026189  42.0486492  57.2088455 110.3806846  38.6647803  52.1803377
 111.3098906  38.8158963  52.0072344 109.9597876  38.7531824  51.3252023
 109.1795178  42.6898467  49.9501914 109.0406263  42.3217252  50.8227852
 108.3909774  43.2046107  49.7785872 109.7743329  47.7907564  41.2927451
 109.9495085  47.3195607  42.1073073 109.0876118  48.4173330  41.5208712
 110.7300393  42.0680070  47.3390752 110.3950225  42.0280840  48.2348402
 110.2304338  41.4024786  46.8661162 104.7044637  37.4747700  52.8643333
 104.5664435  36.7427939  53.4654872 105.6149560  37.3856600  52.5827521
 113.6659584  39.4136104  37.6127812 113.0488755  38.6882933  37.5160864
 113.1976073  40.1745465  37.2694886 107.3326937  37.1867659  52.3527013
 108.0426556  36.5460852  52.3113631 107.2896245  37.4380554  53.2753194
 115.3213716  44.1235013  55.2733592 115.2626262  43.4394233  54.6064175
 115.7233234  44.8654003  54.8214218 106.0455871  34.1732877  54.1722652
 105.5093228  33.7223616  54.8244249 105.4572580  34.3078786  53.4293117
 104.3404415  50.9396927  48.0667311 104.5801013  51.5715451  48.7446330
 103.4973611  50.5884967  48.3532670 105.4558130  33.6321529  36.7349116
 104.5787597  33.5110329  36.3711363 105.9315883  32.8407607  36.4828005
 115.3231123  42.0874597  53.5047572 114.4357902  41.7500518  53.6273971
 115.8929674  41.3557628  53.7416337 101.7794992  33.3088885  51.2575647
 101.6953181  32.7014555  50.5226057 100.9577699  33.7997903  51.2585143
 108.8532277  46.7476049  50.4708815 108.7802448  47.5531021  50.9828119
 108.4109670  46.9468015  49.6456836 108.6422056  45.9847819  43.9811636
 107.8589578  46.5269499  44.0749861 109.3414801  46.5021799  44.3805878
 111.9518706  31.7942449  46.6245842 112.4487406  31.0412411  46.3046912
 111.1805688  31.8306765  46.0589051 119.8048464  37.4982814  48.2664133
 119.7938340  38.3807529  47.8958066 118.9365843  37.1454365  48.0718670
 111.3130960  46.6462883  52.6266974 112.0258932  47.2810348  52.5542875
 110.8220989  46.7426749  51.8106975 113.0348487  40.5514136  44.1984265
 112.1004766  40.6715598  44.0288970 113.2125156  39.6486603  43.9344275
 108.5353675  33.9359832  46.3517526 108.1651463  33.3830872  47.0398432
 109.0312768  33.3317965  45.7992527 116.4221038  36.3931455  44.7334299
 116.8881491  37.2259447  44.6594602 116.8728539  35.9276437  45.4379558
 106.3642874  44.3957327  53.4472544 107.0652333  45.0293809  53.6001939
 105.8937989  44.7372058  52.6868184 114.4897270  42.7375276  41.7320451
 114.7657113  42.6231871  42.6414326 113.6201768  42.3392761  41.6932625
 114.3937701  28.7612042  48.7725201 113.4800781  28.9916269  48.9407408
 114.8230803  28.8450486  49.6239233 114.1644160  36.9501934  51.2725095
 113.5115610  37.1977841  50.6177548 114.5424540  36.1366072  50.9387572
 111.1251334  46.9861627  45.3753265 111.3073728  46.1683283  45.8381017
 111.9484320  47.2029319  44.9378155 111.4593499  45.9129812  42.6368314
 111.9881265  45.4022267  42.0238476 111.7221719  45.5972342  43.5013847
 110.2131733  37.6921745  57.7591132 109.5372370  37.5915874  58.4293507
 111.0359367  37.5360959  58.2227129 101.9610592  43.9293682  50.3803647
 102.5464029  43.1837369  50.5131551 101.7635430  44.2397638  51.2640311
 104.8149247  46.9644929  45.3966089 104.1459622  47.4491057  44.9130130
 104.6762117  47.2114149  46.3109468 108.9554516  48.9988672  51.9948748
 109.5072824  49.1620294  52.7597833 109.2960709  49.5893110  51.3228773
 103.9319009  31.3463822  52.5970633 103.9960335  32.2078653  52.1848030
 103.8686129  30.7337824  51.8642991 103.4071281  33.4186955  56.2443667
 104.0343320  33.0364032  56.8581191 102.5499200  33.2001157  56.6099359
 113.8065390  43.8249930  57.8497402 114.3505294  44.4379888  57.3552357
 113.2252235  44.3829508  58.3664415 112.0922903  46.9470648  48.9812430
 111.9674042  46.1460388  48.4723375 112.7501994  47.4416841  48.4926400
 103.7131071  33.3019381  48.1589570 102.9917657  33.9155348  48.0197044
 104.5024327  33.8377145  48.0806216 114.1557811  44.7479668  50.6091980
 113.2088147  44.6285019  50.5370307 114.5040584  43.8602166  50.6918242
 106.5157385  30.6373807  54.4330222 107.0391786  30.8836104  55.1956531
 106.2969718  31.4693842  54.0133359 111.1604245  44.5432384  46.8096332
 111.0129207  43.6149092  46.9903902 111.9857738  44.5652475  46.3253408
 105.0266489  33.1950451  42.6676824 105.3662561  33.7236373  41.9455433
 105.4738609  33.5330858  43.4435391 114.7638366  45.3660943  47.8961205
 115.6884914  45.1603804  47.7585656 114.5953670  45.1177344  48.8050547
 107.7209930  31.5787502  52.1179893 107.3806750  30.7795315  52.5200572
 107.0148936  31.8789213  51.5456726 108.3726401  28.6636815  50.5707216
 109.1952471  28.1897293  50.4486106 108.6164465  29.4427298  51.0705902
 107.0134636  31.6925073  40.8670117 107.7342998  32.0706326  40.3633834
 106.3899940  32.4113950  40.9705095 111.1565759  32.3970222  41.8028450
 111.3729373  33.2794860  41.5017278 110.6759826  32.0056435  41.0734092
 105.8964980  35.3555935  48.3799194 105.7509561  35.6696238  49.2723476
 105.4190184  35.9740836  47.8270093 107.7561363  32.3458483  48.4280084
 107.7422932  31.4499576  48.0912382 108.4733791  32.3529147  49.0618370
 109.6087494  32.7795823  50.4733211 109.3505272  33.7012894  50.4717542
 109.0772534  32.3826258  51.1633675 114.5533683  45.8846610  43.2523297
 114.7270560  45.3193033  42.4997149 115.0462574  46.6847505  43.0702786
 107.1598259  31.2272863  43.6967654 107.2814170  30.2989510  43.8958541
 106.8700301  31.2411549  42.7845969 110.0289449  28.9127774  46.8334374
 110.0511146  28.9767107  45.8786353 110.4457508  28.0732283  47.0274880
 120.4073074  38.6483033  44.8713596 120.8504220  37.8990359  44.4732720
 119.5299584  38.6393170  44.4887328 115.5408855  45.2013375  40.3520195
 116.2359760  45.8220068  40.5707509 115.8832005  44.3508726  40.6272573
 101.1576664  37.0231176  54.2117012 100.4158400  37.1713811  54.7981643
 100.8369409  37.2839441  53.3483762 117.4400278  42.6513080  41.8807526
 117.9651602  42.9900353  41.1556846 117.3522631  41.7160096  41.6970660
 109.1020327  46.5647154  54.0097402 109.4107453  46.3196301  54.8820102
 109.8995809  46.7693793  53.5216272 109.1240939  48.7185064  46.2402779
 108.6845929  48.2261442  46.9335635 109.8749056  48.1758031  45.9994854
 101.6033278  44.9096605  46.2427407 102.4291298  44.6100376  45.8626050
 101.2527330  44.1404227  46.6917195 106.5714811  44.2623073  48.3125080
 105.9494820  43.5993778  48.0127308 107.2419678  44.2884205  47.6298728
 106.6439339  32.7404861  57.9057586 106.6927494  33.6166984  57.5235356
 107.1861853  32.1982254  57.3329230 117.1294184  43.2845984  57.1858724
 116.3389728  43.2670123  56.6463223 116.8927539  43.8234278  57.9407760
 117.2492059  40.1338450  54.4991452 117.2990064  39.9688458  55.4406975
 117.1405983  39.2665709  54.1089333 106.1328318  42.8126996  41.7883541
 106.2816438  43.4962461  41.1350214 106.9394761  42.7932086  42.3032997
 114.5395822  36.1169378  55.8150759 115.4405684  35.9775843  55.5234757
 114.6143796  36.2823833  56.7548936 108.8738627  33.4936233  54.6603945
 108.0041936  33.7869799  54.3886534 109.1098107  34.0776678  55.3811209
 118.7510256  42.5535392  54.7433474 118.4595064  42.9165373  55.5796935
 118.1382387  41.8402400  54.5646806 119.9505938  40.1188272  47.2636044
 120.7852830  40.5578076  47.4273604 120.0865067  39.6426925  46.4444290
 116.9997444  37.6768007  53.2113532 117.4751566  37.8695653  52.4032383
 116.0763010  37.7327192  52.9656915 111.5777661  29.7115850  52.1769366
 112.0959605  30.4476877  51.8515854 111.2232794  30.0179843  53.0116125
 111.8290255  26.1316133  47.6970262 112.1092009  25.4639322  48.3230689
 112.6140862  26.3245228  47.1844926 109.6323724  45.3075127  39.2595288
 109.0597691  45.9265314  38.8065760 110.2056517  45.8574488  39.7935210
 115.6999113  34.5533767  51.4441837 116.6516536  34.6531864  51.4654061
 115.5302564  33.7612035  51.9539922 113.7213493  31.6389350  51.6301238
 113.1263425  31.9194363  50.9347727 113.4363190  32.1283251  52.4017979
 112.8520983  45.5912277  40.3903871 113.7851656  45.5257838  40.5936746
 112.7644196  46.4268544  39.9318403 115.4809000  44.9078147  37.3507818
 115.4022631  44.5738011  38.2443576 116.3018667  45.3999915  37.3499291
 118.1787191  37.7739886  50.5584137 118.1463511  36.8355887  50.7443821
 118.7887815  37.8523923  49.8249962 110.0170522  36.6435939  36.6011341
 110.9629627  36.5142147  36.6699759 109.6384767  35.9050601  37.0780769
 118.3281680  34.5650930  50.6042420 117.8120728  33.7809386  50.4172349
 119.2121628  34.2369646  50.7688940 115.9892407  28.3091945  46.5638233
 115.7917228  28.0007034  47.4481565 116.5992112  29.0353584  46.6936163
 109.9009215  40.6953685  58.0611998 110.8212224  40.8732284  58.2552044
 109.8658798  39.7509731  57.9091697 108.2013439  34.5685916  36.5366226
 107.2944895  34.2719028  36.6128940 108.4789420  34.2715734  35.6700512
 102.8971287  38.6054720  50.7034779 103.1157297  39.5371828  50.7222813
 103.3097061  38.2462695  51.4889583 109.8175505  29.1122805  42.6910467
 109.0076233  28.7669890  43.0665713 110.5059922  28.8030349  43.2798079
 111.7466053  28.1900852  44.3134764 112.2997092  28.6096306  44.9724787
 111.9836140  27.2636600  44.3557720 107.7699152  34.1787926  60.0937528
 107.6695879  35.1282283  60.0249619 107.5520694  33.8506165  59.2213598
 106.9712224  31.4272851  36.6778205 107.8331388  31.7527749  36.9374023
 107.1562568  30.6404347  36.1651271 115.1244860  30.3001377  43.8213428
 114.5443529  30.9586181  43.4391481 114.8580793  29.4778722  43.4100846
 113.5748427  29.7006435  46.0234749 114.0748205  29.8122970  45.2149067
 114.2184035  29.3967488  46.6635557 107.6330422  37.6085065  58.9102590
 107.1497504  38.4085425  59.1166479 107.7191361  37.6193010  57.9570034
 103.5603760  41.4989599  50.9471023 104.5147013  41.4673542  50.8800955
 103.3616284  41.0380223  51.7621249 104.1503142  40.0690715  53.5141821
 104.9696031  40.5634794  53.5376658 104.4239950  39.1522684  53.4859389
 113.9069738  32.4601468  42.8769777 113.0195593  32.7451118  42.6589971
 114.3223727  32.2995231  42.0297053 117.2584274  32.4847989  46.5924116
 118.0344665  32.9744441  46.8648733 116.5332409  32.9106043  47.0495985
 119.6956833  33.1975608  47.6498056 120.2901324  32.9571344  46.9391365
 119.7683417  32.4782739  48.2771593 101.9153989  47.0409219  47.9641221
 101.7808457  46.2809620  47.3979219 101.4986051  47.7650119  47.4970010
 113.0512952  42.2246142  36.9717797 113.7548802  42.4296145  37.5875452
 112.3275601  42.7922904  37.2366880 113.8810762  37.9756004  43.0920067
 113.8245963  38.4324555  42.2527699 114.4339104  37.2146688  42.9142909
 117.6915568  33.7645736  43.9170186 117.4352502  33.3642371  44.7478394
 117.0668436  34.4789530  43.7920325 105.0723115  47.9378536  48.1759664
 104.9555499  48.8823968  48.0738354 104.2515561  47.6352097  48.5645463
 114.9599649  42.6628672  39.0216257 115.7945253  42.2309870  38.8393731
 114.7983992  42.4910685  39.9493151 114.6145541  39.1660785  40.3872596
 114.5594345  39.0005056  39.4461040 113.9891597  39.8736818  40.5434786
 107.9241667  28.6668894  39.9657914 107.9120337  29.6110734  40.1226185
 108.8165089  28.4839039  39.6717376 106.0977629  48.5906798  51.3915592
 107.0004875  48.6230408  51.7082087 105.8714999  47.6607249  51.4061928
 107.8531231  47.3437784  48.0525671 106.9026862  47.3439646  47.9390043
 108.1563717  46.5970519  47.5361706 111.7393786  25.2611671  44.2203851
 110.9726182  24.7070157  44.3660533 112.1504491  25.3333539  45.0818003
 103.7435547  31.5496466  58.3109032 104.6067009  31.1933271  58.5212357
 103.1700958  31.2110361  58.9984437 120.3973631  53.1325751  49.0532958
 120.0592142  53.0166816  48.1653493 121.2663399  52.7316916  49.0333964
 116.2560446  54.9861227  45.0429849 115.6925311  54.8951164  44.2746137
 116.1412841  54.1661132  45.5232342 120.8793414  54.2860603  55.0119164
 120.8682054  53.8913401  54.1399667 121.0414053  53.5526675  55.6052935
 113.8024878  56.4812419  47.8814069 114.5946170  56.1403244  47.4660369
 114.0421528  56.5907394  48.8016223 115.7615632  55.7421332  40.7531448
 116.5346508  55.1950319  40.6144324 116.1141031  56.6065581  40.9645910
 117.6000675  57.0697714  53.9598348 117.3090541  57.9743345  53.8445014
 118.2357659  57.1114242  54.6742417 118.5256882  54.4474563  50.5499707
 119.1220454  54.2230585  49.8356670 118.5831853  53.7059308  51.1525155
 118.0981910  51.9013998  38.3849898 118.3507431  51.3795520  37.6233361
 117.1606469  51.7380144  38.4876582 117.8178199  53.8042104  40.5874273
 117.7014457  53.1287008  41.2555357 117.9280459  53.3174478  39.7706426
 120.1609740  53.2652251  44.2920962 119.7967947  52.7382872  45.0033884
 121.0176855  52.8750720  44.1187448 119.8015227  48.2942151  39.2882311
 119.9689629  49.1622387  39.6552782 119.6112396  48.4569433  38.3643600
 116.0103041  53.2072927  46.9884846 115.0853538  53.0749141  47.1962537
 116.2587454  53.9867146  47.4854788 119.7804447  50.7499809  40.2728978
 119.6604073  51.1956859  41.1114458 119.0857036  51.0985126  39.7142516
 113.3711852  52.8506200  47.8228635 113.5004233  53.1040679  48.7368046
 112.6909304  53.4433908  47.5033290 117.5411340  63.5203450  43.9219109
 117.4635369  64.4711275  44.0007590 116.9372983  63.1749323  44.5794035
 120.0328569  50.6931316  56.5780476 119.2561903  51.2525236  56.5683340
 120.6719132  51.1788099  57.0995346 118.2874942  53.5016769  56.1398443
 119.0289626  54.0401813  55.8633266 117.5811927  54.1283058  56.2969995
 120.1161351  50.5818516  52.1104161 120.9622546  51.0057930  52.2538810
 120.0559989  49.9252141  52.8042724 119.6387058  55.9421508  45.7572978
 120.1025403  56.2209211  44.9677601 119.3743856  55.0404953  45.5746069
 116.5311139  55.4892990  48.6952742 117.1012496  55.9180258  48.0570226
 117.1219251  55.2075574  49.3936927 118.5755944  52.0644661  42.5662543
 119.2779987  52.5165704  43.0336470 118.2436572  51.4228479  43.1942437
 117.0236305  50.6556417  56.9413753 116.3934966  51.3372698  57.1749150
 116.9172393  50.5439499  55.9966891 112.3181278  50.3228213  47.8679677
 111.5280332  50.5785742  47.3919788 112.8092525  51.1376551  47.9731718
 114.2696023  50.6872793  44.8263154 113.4727186  50.7991487  45.3446649
 114.0421615  51.0259445  43.9604044 120.1001691  57.2117496  52.7745668
 120.1646123  57.6737903  53.6103840 119.3912615  56.5814861  52.9027978
 110.6018981  50.5758704  50.2994668 110.8527019  51.4605714  50.5652244
 111.1378529  50.3963305  49.5269760 119.8149708  58.8785603  42.6424649
 119.6795383  59.7237139  43.0709496 120.3559521  59.0804881  41.8790582
 116.3017048  44.9577183  59.3039004 115.9083994  44.4043382  59.9786648
 117.1183188  45.2687762  59.6945521 113.2679106  56.3961041  43.2152574
 113.7803626  57.1904292  43.3658138 113.9201819  55.6987332  43.1486175
 115.0773991  59.5126798  45.2975327 115.2540619  60.4344762  45.1096311
 115.8730824  59.1985217  45.7269707 119.2185009  46.3735062  56.8959260
 119.9594722  46.9742215  56.8163723 119.4502932  45.6312700  56.3377303
 114.3626347  51.5591429  55.1737490 114.2479862  50.6576687  55.4744589
 113.5070865  51.8055126  54.8222307 116.2005306  61.0304971  51.2985669
 116.7512731  60.9022035  50.5262663 115.3616782  61.3299860  50.9480562
 119.9972477  57.2956099  55.6429900 120.5300814  56.5344387  55.4129208
 119.4686558  57.0029751  56.3854055 111.2328023  54.7249696  43.9912144
 112.0703245  55.1346704  43.7745852 111.4106290  53.7849138  43.9612338
 120.7139566  47.2374477  44.7381216 119.8581162  46.8481327  44.5586854
 121.1266518  47.3166438  43.8781001 118.4881598  44.8559550  48.1438957
 119.3534595  44.6602359  47.7844847 118.5559107  44.6269902  49.0708314
 121.3625190  56.4242092  43.1548712 120.8346551  55.6894851  42.8421950
 120.8612692  57.2016768  42.9088681 116.0943917  47.0861758  45.5155324
 116.6687669  46.8636939  44.7828517 116.6814900  47.1550452  46.2683925
 116.4213504  49.1166219  39.5351209 115.5850817  49.4540905  39.8560484
 116.2818274  48.9815199  38.5978346 118.3966585  43.9603007  44.2430393
 117.7430997  43.6452024  43.6187008 118.3547059  43.3378747  44.9690216
 119.5077790  54.2422302  36.1583685 118.6004852  54.0111555  36.3574834
 120.0048822  53.4459921  36.3457667 120.6866023  54.3434897  40.6807676
 119.7777243  54.0593930  40.7780145 120.7161107  54.7633975  39.8210982
 111.2554194  52.0640411  44.6622878 111.0578594  51.4709772  43.9373944
 110.7000858  51.7592621  45.3798817 119.2350917  51.9563517  46.7817471
 119.2899527  51.0037354  46.7059947 118.4242119  52.1122956  47.2658769
 120.3842111  55.8843640  38.0195754 119.9461541  55.1679499  37.5601391
 121.1252552  56.1119755  37.4580845 117.1743277  50.5740577  44.5407850
 116.3611143  50.8734748  44.9473042 117.6702272  50.1796266  45.2582332
 119.3251855  60.5698334  46.4742114 119.2828034  60.7959180  45.5450646
 120.2414554  60.3361709  46.6227916 116.6657352  48.1458933  50.1569085
 117.3056731  48.0047692  49.4592048 115.8334883  47.8593446  49.7807687
 117.4417656  57.4461363  46.2704077 118.2358254  56.9511683  46.0686652
 116.7309348  56.9179226  45.9071783 113.7500419  51.5904445  42.3463830
 112.8198008  51.5288900  42.5633792 113.8457891  51.0680398  41.5500471
 113.6685969  48.1159258  44.9342072 113.9292786  49.0304591  44.8251232
 114.4903141  47.6483700  45.0838684 115.1410894  49.5297015  52.1040896
 115.8133947  49.3214377  51.4553545 114.3140680  49.3319101  51.6646128
 120.0188932  58.0190385  49.9501914 119.8800018  57.6509169  50.8227852
 119.2303528  58.5338024  49.7785872 120.6137084  63.1199481  41.2927451
 120.7888840  62.6487525  42.1073073 119.9269872  63.7465248  41.5208712
 121.5694147  57.3971988  47.3390752 121.2343980  57.3572758  48.2348402
 121.0698093  56.7316704  46.8661162 115.5438391  52.8039618  52.8643333
 115.4058189  52.0719857  53.4654872 116.4543315  52.7148518  52.5827521
 118.1720692  52.5159577  52.3527013 118.8820310  51.8752769  52.3113631
 118.1290000  52.7672472  53.2753194 116.8849626  49.5024795  54.1722652
 116.3486983  49.0515533  54.8244249 116.2966334  49.6370704  53.4293117
 115.1798169  66.2688844  48.0667311 115.4194767  66.9007368  48.7446330
 114.3367366  65.9176884  48.3532670 116.2951885  48.9613446  36.7349116
 115.4181351  48.8402247  36.3711363 116.7709638  48.1699525  36.4828005
 107.8154025  53.7490606  46.8290623 108.5025065  53.4352336  46.2411638
 107.6602154  54.6531971  46.5557875 112.6188747  48.6380803  51.2575647
 112.5346936  48.0306472  50.5226057 111.7971453  49.1289821  51.2585143
 119.6926031  62.0767967  50.4708815 119.6196203  62.8822938  50.9828119
 119.2503424  62.2759933  49.6456836 119.4815811  61.3139737  43.9811636
 118.6983333  61.8561417  44.0749861 120.1808556  61.8313716  44.3805878
 119.3747430  49.2651749  46.3517526 119.0045217  48.7122790  47.0398432
 119.8706522  48.6609883  45.7992527 117.2036628  59.7249244  53.4472544
 117.9046088  60.3585727  53.6001939 116.7331743  60.0663976  52.6868184
 112.8004346  59.2585599  50.3803647 113.3857783  58.5129287  50.5131551
 112.6029185  59.5689556  51.2640311 115.6543001  62.2936847  45.3966089
 114.9853377  62.7782974  44.9130130 115.5155871  62.5406067  46.3109468
 107.3922001  51.8291199  49.1008090 107.4306100  51.2954790  49.8945208
 106.8862294  51.3026405  48.4819067 119.7948270  64.3280590  51.9948748
 120.3466578  64.4912212  52.7597833 120.1354463  64.9185028  51.3228773
 114.7712763  46.6755740  52.5970633 114.8354090  47.5370571  52.1848030
 114.7079884  46.0629742  51.8642991 114.2465036  48.7478873  56.2443667
 114.8737075  48.3655950  56.8581191 113.3892955  48.5293074  56.6099359
 111.0230579  50.5555302  42.1762022 111.3184020  49.6465980  42.1229075
 110.1218614  50.5343041  41.8543024 114.5524826  48.6311298  48.1589570
 113.8311411  49.2447266  48.0197044 115.3418081  49.1669063  48.0806216
 117.3551139  45.9665725  54.4330222 117.8785541  46.2128021  55.1956531
 117.1363472  46.7985759  54.0133359 112.7518420  48.2369399  42.3001347
 112.4231126  47.3566778  42.1176453 113.1057791  48.1817068  43.1877736
 115.8660243  48.5242369  42.6676824 116.2056316  49.0528290  41.9455433
 116.3132364  48.8622775  43.4435391 118.5603684  46.9079420  52.1179893
 118.2200504  46.1087233  52.5200572 117.8542690  47.2081131  51.5456726
 119.2120156  43.9928732  50.5707216 120.0346225  43.5189210  50.4486106
 119.4558219  44.7719216  51.0705902 117.8528390  47.0216991  40.8670117
 118.5736753  47.3998243  40.3633834 117.2293695  47.7405867  40.9705095
 116.7358735  50.6847853  48.3799194 116.5903315  50.9988156  49.2723476
 116.2583938  51.3032753  47.8270093 118.5955118  47.6750401  48.4280084
 118.5816686  46.7791494  48.0912382 119.3127546  47.6821065  49.0618370
 120.4481248  48.1087741  50.4733211 120.1899026  49.0304812  50.4717542
 119.9166289  47.7118176  51.1633675 111.2104397  53.2253197  51.3186855
 110.6657865  54.0013005  51.4507130 112.0883747  53.5724002  51.1605977
 117.9992014  46.5564781  43.6967654 118.1207925  45.6281427  43.8958541
 117.7094056  46.5703467  42.7845969 120.8683204  44.2419692  46.8334374
 120.8904901  44.3059025  45.8786353 121.2851263  43.4024200  47.0274880
 111.9970419  52.3523094  54.2117012 111.2552155  52.5005729  54.7981643
 111.6763163  52.6131359  53.3483762 119.9414081  61.8939072  54.0097402
 120.2501208  61.6488219  54.8820102 120.7389563  62.0985710  53.5216272
 119.9634693  64.0476981  46.2402779 119.5239684  63.5553360  46.9335635
 120.7142810  63.5049949  45.9994854 112.4427032  60.2388522  46.2427407
 113.2685052  59.9392294  45.8626050 112.0921084  59.4696145  46.6917195
 117.4108566  59.5914990  48.3125080 116.7888575  58.9285695  48.0127308
 118.0813432  59.6176122  47.6298728 110.6435637  58.1574849  47.2016340
 109.8067546  57.7297023  47.0200342 110.6159283  58.3507292  48.1387132
 117.4833093  48.0696778  57.9057586 117.5321249  48.9458901  57.5235356
 118.0255607  47.5274172  57.3329230 116.9722072  58.1418914  41.7883541
 117.1210193  58.8254378  41.1350214 117.7788516  58.1224004  42.3032997
 119.7132381  48.8228151  54.6603945 118.8435691  49.1161717  54.3886534
 119.9491862  49.4068596  55.3811209 114.7274705  54.1684091  42.7944610
 114.4820747  53.2646421  42.9924820 114.8970620  54.1701242  41.8524088
 113.9970353  49.9012449  40.2930771 113.3039598  49.9756804  39.6370807
 113.7522105  49.1372793  40.8152288 120.4717478  60.6367044  39.2595288
 119.8991445  61.2557231  38.8065760 121.0450272  61.1866406  39.7935210
 119.0407194  49.8977833  36.5366226 118.1338649  49.6010946  36.6128940
 119.3183175  49.6007651  35.6700512 109.9585134  51.2184197  46.9865273
 109.6387918  50.3649505  46.6939647 109.4118562  51.4332775  47.7423240
 113.7365042  53.9346638  50.7034779 113.9551051  54.8663746  50.7222813
 114.1490815  53.5754612  51.4889583 120.6569259  44.4414723  42.6910467
 119.8469988  44.0961808  43.0665713 121.3453676  44.1322267  43.2798079
 118.6092907  49.5079844  60.0937528 118.5089634  50.4574201  60.0249619
 118.3914449  49.1798082  59.2213598 117.8105978  46.7564769  36.6778205
 118.6725142  47.0819667  36.9374023 117.9956322  45.9696265  36.1651271
 109.8273394  54.8387108  48.9558394 109.1336865  54.4241061  48.4428349
 110.5746385  54.8807645  48.3591813 118.4724177  52.9376982  58.9102590
 117.9891259  53.7377343  59.1166479 118.5585116  52.9484927  57.9570034
 111.7410137  54.7705362  46.8324409 111.7180825  54.8693049  45.8806292
 112.0510773  55.6170513  47.1541575 114.3997514  56.8281517  50.9471023
 115.3540768  56.7965459  50.8800955 114.2010038  56.3672141  51.7621249
 114.9896897  55.3982633  53.5141821 115.8089786  55.8926712  53.5376658
 115.2633704  54.4814601  53.4859389 112.7547743  62.3701137  47.9641221
 112.6202211  61.6101537  47.3979219 112.3379805  63.0942036  47.4970010
 115.9116869  63.2670454  48.1759664 115.7949253  64.2115886  48.0738354
 115.0909315  62.9644015  48.5645463 110.2431811  49.7320767  54.2134018
 110.8890674  49.2219721  54.7021243 110.0348962  50.4689449  54.7877443
 118.7635421  43.9960812  39.9657914 118.7514091  44.9402652  40.1226185
 119.6558843  43.8130957  39.6717376 116.9371383  63.9198716  51.3915592
 117.8398630  63.9522326  51.7082087 116.7108753  62.9899166  51.4061928
 118.6924985  62.6729702  48.0525671 117.7420616  62.6731564  47.9390043
 118.9957471  61.9262437  47.5361706 114.5829302  46.8788384  58.3109032
 115.4460763  46.5225189  58.5212357 114.0094712  46.5402279  58.9984437
 118.6547779  69.0782524  46.8290623 119.3418819  68.7644254  46.2411638
 118.4995908  69.9823888  46.5557875 118.2315755  67.1583117  49.1008090
 118.2699855  66.6246708  49.8945208 117.7256048  66.6318323  48.4819067
 121.4829392  73.4866766  47.2016340 120.6461300  73.0588941  47.0200342
 121.4553037  73.6799210  48.1387132 120.7978889  66.5476114  46.9865273
 120.4781673  65.6941423  46.6939647 120.2512317  66.7624693  47.7423240
 120.6667149  70.1679026  48.9558394 119.9730620  69.7532979  48.4428349
 121.4140140  70.2099562  48.3591813  95.8623832   9.8681738  30.6464416
  95.7847862  10.8189563  30.7252896  95.2585475   9.5227610  31.3039342
  93.5010662  12.6167132  34.7912618  93.7407260  13.2485656  35.4691636
  92.6579858  12.2655172  35.0777977  93.9755494   8.6415134  32.1211396
  93.3065869   9.1261262  31.6375436  93.8368363   8.8884354  33.0354775
  98.1160762  10.6758877  38.7194054  98.6679070  10.8390499  39.4843140
  98.4566956  11.2663315  38.0474079  91.0760235   8.7179424  34.6886528
  90.9414703   7.9579825  34.1224526  90.6592298   9.4420324  34.2215317
  94.2329361   9.6148741  34.9004971  94.1161746  10.5594173  34.7983661
  93.4121808   9.3122302  35.2890770  95.2583875  10.2677003  38.1160899
  96.1611122  10.3000613  38.4327394  95.0321246   9.3377454  38.1307235
 109.5579877  14.8095956  35.7778265 109.2198389  14.6937020  34.8898800
 110.4269645  14.4087121  35.7579271 105.4166693  16.6631432  31.7675156
 104.8531558  16.5721369  30.9991443 105.3019088  15.8431337  32.2477648
 110.0399660  15.9630808  41.7364470 110.0288301  15.5683606  40.8644974
 110.2020300  15.2296880  42.3298242 102.9631125  18.1582624  34.6059376
 103.7552417  17.8173448  34.1905675 103.2027775  18.2677599  35.5261529
 110.9966252  20.3302400  27.0789621 110.3454231  20.9156480  26.6923634
 111.7910615  20.8608595  27.1384658 104.9221879  17.4191537  27.4776755
 105.6952755  16.8720524  27.3389631 105.2747278  18.2835786  27.6891216
 106.7606921  18.7467919  40.6843654 106.4696787  19.6513550  40.5690321
 107.3963906  18.7884447  41.3987724 107.6863128  16.1244768  37.2745014
 108.2826701  15.9000790  36.5601977 107.7438100  15.3829513  37.8770462
 106.9784445  15.4812309  27.3119580 106.8620704  14.8057213  27.9800664
 107.0886705  14.9944683  26.4951733 109.3215986  14.9422456  31.0166269
 108.9574194  14.4153077  31.7279190 110.1783102  14.5520925  30.8432754
 111.7196806  18.4329335  37.6793448 111.4197530  19.3354374  37.5709255
 111.3747866  18.1661518  38.5314601 105.1709288  14.8843132  33.7130152
 104.2459784  14.7519346  33.9207844 105.4193701  15.6637351  34.2100095
 102.5318099  14.5276405  34.5473941 102.6610480  14.7810884  35.4613353
 101.8515550  15.1204113  34.2278596 106.7017586  25.1973655  30.6464416
 106.6241616  26.1481480  30.7252896 106.0979230  24.8519528  31.3039342
 107.4481188  15.1786974  42.8643749 108.1895873  15.7172018  42.5878573
 106.7418174  15.8053263  43.0215301 112.9236528  17.3216114  41.4615911
 113.3319884  16.8798525  40.7170543 112.2013790  16.7468742  41.7150104
 113.2465343  17.8817305  35.2168200 112.6174205  18.0463019  34.5144268
 112.8591005  18.2958915  35.9879164 117.1254575  18.8171743  32.5712564
 116.4405613  19.1970644  32.0209597 117.2098424  19.4267070  33.3044511
 114.3805506  16.4631702  39.1707907 114.5922401  17.1063462  38.4942288
 114.3335254  15.6294018  38.7029837 108.7993305  17.6191713  32.4818285
 109.2631650  17.8979416  31.6922907 108.5350103  16.7175158  32.2991376
 105.6917386  17.1663195  35.4198048 106.2618743  17.5950463  34.7815533
 106.2825497  16.8845779  36.1182234 101.4787525  11.9998418  34.5924984
 100.6886579  12.2555947  34.1165094 101.9698772  12.8146756  34.6977024
 115.4951334  19.3403657  37.3430264 116.3168778  18.9383845  37.0612946
 115.4913737  19.2371892  38.2946380 103.4302270  12.3642997  31.5508460
 102.6333433  12.4761692  32.0691956 103.2027862  12.7029650  30.6849351
 109.2607938  18.8887701  39.4990975 109.3252370  19.3508108  40.3349147
 108.5518861  18.2585066  39.6273285  99.7625228  12.2528909  37.0239974
 100.0133266  13.1375919  37.2897550 100.2984776  12.0733510  36.2515066
 108.9755955  20.5555808  29.3669955 108.8401630  21.4007344  29.7954803
 109.5165768  20.7575086  28.6035889 102.4285353  18.0731246  29.9397880
 102.9409873  18.8674496  30.0903445 103.0808065  17.3757537  29.8731482
 104.2380237  21.1897002  32.0220634 104.4146866  22.1114967  31.8341617
 105.0337071  20.8755422  32.4515013 103.5232594  13.2361634  41.8982797
 103.4086109  12.3346892  42.1989896 102.6677112  13.4825331  41.5467613
 110.6024432  21.1779375  43.4970297 110.1588286  20.3915753  43.1791202
 111.2641645  21.3658525  42.8314188 105.3611553  22.7075176  38.0230976
 105.9118978  22.5792240  37.2507970 104.5223029  23.0070065  37.6725869
 112.7005670  21.4582175  41.5251699 112.6824145  22.2791056  41.0331968
 113.6225590  21.3336250  41.7501840 109.1578724  18.9726304  42.3675207
 109.6907061  18.2114592  42.1374515 108.6292805  18.6799956  43.1099362
 100.3934269  16.4019900  30.7157451 101.2309491  16.8116909  30.4991159
 100.5712537  15.4619343  30.6857645 110.5231437  18.1012297  29.8794019
 109.9952798  17.3665056  29.5667256 110.0218939  18.8786973  29.6333987
 115.5024283  16.2961317  34.9961065 114.8447957  16.9860578  35.0841194
 116.3064682  16.6857749  35.3395052 111.5752116  24.6290014  25.8025678
 110.9013814  24.9321711  26.4110636 111.9617938  25.4319094  25.4531135
 115.0791538  19.6311691  31.1744150 114.6253865  18.7902601  31.2309340
 114.4485504  20.2673090  31.5118930 113.5224477  21.4688188  32.1093968
 113.8147451  22.0293245  31.3906334 114.0323097  21.7616749  32.8647127
 100.4160441  13.7410616  31.3868184 100.2184840  13.1479977  30.6619251
  99.8607105  13.4362826  32.1044123 108.4858102  22.2468539  33.1987421
 108.4434281  22.4729385  32.2695953 109.4020801  22.0131914  33.3473222
 117.6890852  17.9047569  35.8128651 118.1227359  17.8122858  36.6611705
 118.4022433  17.8805070  35.1748667 106.6023903  19.1231568  32.9949384
 107.3964501  18.6281888  32.7931959 105.8915595  18.5949431  32.6317089
 111.4218747  21.5049663  37.3461751 111.4755770  22.0740600  38.1139467
 110.5533529  21.6751549  36.9815789 102.9106666  13.2674650  29.0709136
 101.9804254  13.2059105  29.2879099 103.0064138  12.7450602  28.2745778
 118.5506402  17.9471270  38.3461536 118.7442292  18.8517081  38.5920811
 118.4507020  17.4878689  39.1800121 113.6121511  18.0978013  43.9202417
 113.4607017  17.8688564  43.0032501 113.6026190  19.0548614  43.9333762
 110.3806847  15.6709926  38.9048683 111.3098907  15.8221085  38.7317651
 109.9597877  15.7593946  38.0497330 109.1795179  19.6960590  36.6747221
 109.0406264  19.3279374  37.5473159 108.3909775  20.2108229  36.5031179
 109.7743331  24.7969686  28.0172757 109.9495086  24.3257730  28.8318380
 109.0876119  25.4235453  28.2454018 110.7300394  19.0742193  34.0636059
 110.3950227  19.0342963  34.9593709 110.2304340  18.4086909  33.5906469
 104.7044638  14.4809823  39.5888640 104.5664436  13.7490062  40.1900179
 105.6149561  14.3918723  39.3072828 107.3326939  14.1929782  39.0772319
 108.0426557  13.5522974  39.0358938 107.2896247  14.4442677  39.9998500
 115.3213717  21.1297135  41.9978899 115.2626263  20.4456355  41.3309482
 115.7233236  21.8716125  41.5459525 104.3404416  27.9459049  34.7912618
 104.5801014  28.5777573  35.4691636 103.4973612  27.5947089  35.0777977
 115.3231124  19.0936719  40.2292878 114.4357903  18.7562641  40.3519277
 115.8929676  18.3619751  40.4661644  96.9760272  15.4260811  33.5535930
  97.6631311  15.1122541  32.9656945  96.8208400  16.3302176  33.2803181
 108.8532278  23.7538172  37.1954122 108.7802449  24.5593143  37.7073426
 108.4109671  23.9530137  36.3702143 108.6422057  22.9909942  30.7056943
 107.8589579  23.5331622  30.7995168 109.3414803  23.5083921  31.1051184
 111.3130961  23.6525006  39.3512280 112.0258934  24.2872470  39.2788182
 110.8220990  23.7488872  38.5352282 113.0348488  17.5576258  30.9229572
 112.1004767  17.6777721  30.7534276 113.2125157  16.6548725  30.6589582
 106.3642875  21.4019449  40.1717851 107.0652334  22.0355932  40.3247245
 105.8937990  21.7434181  39.4113490 111.1251335  23.9923750  32.0998572
 111.3073729  23.1745406  32.5626324 111.9484321  24.2091442  31.6623462
 111.4593500  22.9191935  29.3613620 111.9881267  22.4084389  28.7483782
 111.7221720  22.6034465  30.2259153 110.2131734  14.6983868  44.4836439
 109.5372371  14.5977997  45.1538814 111.0359368  14.5423081  44.9472436
 101.9610593  20.9355804  37.1048954 102.5464030  20.1899492  37.2376858
 101.7635431  21.2459761  37.9885618 104.8149248  23.9707052  32.1211396
 104.1459623  24.4553179  31.6375436 104.6762118  24.2176272  33.0354775
  96.5528248  13.5061404  35.8253397  96.5912347  12.9724995  36.6190515
  96.0468541  12.9796610  35.2064374 108.9554517  26.0050795  38.7194054
 109.5072825  26.1682417  39.4843140 109.2960710  26.5955233  38.0474079
 113.8065391  20.8312053  44.5742709 114.3505295  21.4442011  44.0797664
 113.2252236  21.3891631  45.0909722 100.1836825  12.2325507  28.9007328
 100.4790266  11.3236185  28.8474382  99.2824861  12.2113246  28.5788331
 112.0922904  23.9532771  35.7057737 111.9674044  23.1522510  35.1968682
 112.7501995  24.4478964  35.2171707 114.1557812  21.7541791  37.3337287
 113.2088148  21.6347142  37.2615613 114.5040586  20.8664289  37.4163548
 111.1604246  21.5494507  33.5341639 111.0129208  20.6211214  33.7149209
 111.9857739  21.5714598  33.0498714 114.7638368  22.3723066  34.6206512
 115.6884915  22.1665927  34.4830963 114.5953671  22.1239467  35.5295853
 114.5533684  22.8908733  29.9768603 114.7270561  22.3255156  29.2242456
 115.0462575  23.6909628  29.7948093 100.3710644  14.9023402  38.0432162
  99.8264112  15.6783210  38.1752436 101.2489993  15.2494207  37.8851283
 101.1576665  14.0293298  40.9362319 100.4158402  14.1775934  41.5226949
 100.8369410  14.2901564  40.0729068 109.1020328  23.5709277  40.7342709
 109.4107455  23.3258423  41.6065408 109.8995810  23.7755915  40.2461579
 109.1240940  25.7247186  32.9648085 108.6845930  25.2323565  33.6580942
 109.8749057  25.1820154  32.7240161 101.6033279  21.9158727  32.9672713
 102.4291299  21.6162499  32.5871357 101.2527331  21.1466350  33.4162502
 106.5714812  21.2685195  35.0370387 105.9494822  20.6055900  34.7372615
 107.2419679  21.2946327  34.3544035  99.8041884  19.8345054  33.9261647
  98.9673793  19.4067228  33.7445648  99.7765530  20.0277497  34.8632438
 117.1294185  20.2908107  43.9104030 116.3389729  20.2732246  43.3708530
 116.8927540  20.8296400  44.6653067 106.1328319  19.8189119  28.5128848
 106.2816440  20.5024583  27.8595520 106.9394763  19.7994209  29.0278303
 118.7510257  19.5597515  41.4678780 118.4595066  19.9227495  42.3042241
 118.1382389  18.8464523  41.2892112 103.8880952  15.8454296  29.5189917
 103.6426994  14.9416626  29.7170127 104.0576867  15.8471447  28.5769395
 109.6323725  22.3137249  25.9840595 109.0597692  22.9327436  25.5311067
 110.2056518  22.8636611  26.5180517 109.9009216  17.7015808  44.7857305
 110.8212225  17.8794407  44.9797351 109.8658799  16.7571853  44.6337004
  99.1191381  12.8954402  33.7110579  98.7994165  12.0419710  33.4184953
  98.5724809  13.1102980  34.4668546 102.8971288  15.6116843  37.4280086
 103.1157298  16.5433951  37.4468119 103.3097062  15.2524817  38.2134890
  98.9879641  16.5157313  35.6803701  98.2943112  16.1011266  35.1673655
  99.7352632  16.5577850  35.0837120 107.6330424  14.6147187  45.6347896
 107.1497505  15.4147547  45.8411785 107.7191363  14.6255132  44.6815340
 100.9016383  16.4475567  33.5569716 100.8787071  16.5463254  32.6051599
 101.2117020  17.2940718  33.8786882 103.5603761  18.5051722  37.6716330
 104.5147015  18.4735664  37.6046262 103.3616285  18.0442346  38.4866556
 104.1503143  17.0752838  40.2387128 104.9696032  17.5696917  40.2621965
 104.4239951  16.1584806  40.2104695 101.9153990  24.0471342  34.6886528
 101.7808458  23.2871742  34.1224526 101.4986052  24.7712241  34.2215317
 105.0723116  24.9440659  34.9004971 104.9555500  25.8886091  34.7983661
 104.2515562  24.6414220  35.2890770  99.4038058  11.4090972  40.9379325
 100.0496921  10.8989926  41.4266550  99.1955209  12.1459654  41.5122750
 111.9291450  18.4771819  46.4371465 112.7982609  18.6512472  46.0758100
 111.4498201  19.2966236  46.3147195 106.0977630  25.5968920  38.1160899
 107.0004877  25.6292531  38.4327394 105.8715000  24.6669371  38.1307235
 107.8531232  24.3499907  34.7770978 106.9026863  24.3501769  34.6635350
 108.1563718  23.6032642  34.2607012 120.3973632  30.1387873  35.7778265
 120.0592143  30.0228938  34.8898800 121.2663400  29.7379039  35.7579271
 116.2560447  31.9923350  31.7675156 115.6925313  31.9013287  30.9991443
 116.1412843  31.1723254  32.2477648 120.8793415  31.2922725  41.7364470
 120.8682056  30.8975523  40.8644974 121.0414054  30.5588798  42.3298242
 113.8024879  33.4874541  34.6059376 114.5946171  33.1465366  34.1905675
 114.0421530  33.5969517  35.5261529 115.7615633  32.7483455  27.4776755
 116.5346509  32.2012442  27.3389631 116.1141032  33.6127704  27.6891216
 117.6000676  34.0759837  40.6843654 117.3090542  34.9805468  40.5690321
 118.2357660  34.1176365  41.3987724 118.5256883  31.4536686  37.2745014
 119.1220455  31.2292708  36.5601977 118.5831854  30.7121431  37.8770462
 117.8178200  30.8104227  27.3119580 117.7014458  30.1349130  27.9800664
 117.9280460  30.3236601  26.4951733 120.1609741  30.2714374  31.0166269
 119.7967948  29.7444995  31.7279190 121.0176857  29.8812843  30.8432754
 116.0103042  30.2135049  33.7130152 115.0853539  30.0811263  33.9207844
 116.2587456  30.9929269  34.2100095 113.3711854  29.8568323  34.5473941
 113.5004235  30.1102802  35.4613353 112.6909305  30.4496031  34.2278596
 117.5411341  40.5265573  30.6464416 117.4635370  41.4773398  30.7252896
 116.9372984  40.1811445  31.3039342 120.0328571  27.6993438  43.3025782
 119.2561905  28.2587358  43.2928647 120.6719134  28.1850221  43.8240653
 118.2874943  30.5078892  42.8643749 119.0289627  31.0463936  42.5878573
 117.5811928  31.1345180  43.0215301 120.1161353  27.5880639  38.8349468
 120.9622548  28.0120052  38.9784117 120.0559990  26.9314263  39.5288031
 119.6387059  32.9483631  32.4818285 120.1025405  33.2271334  31.6922907
 119.3743857  32.0467075  32.2991376 116.5311140  32.4955112  35.4198048
 117.1012497  32.9242381  34.7815533 117.1219252  32.2137697  36.1182234
 118.5755945  29.0706783  29.2907850 119.2779988  29.5227827  29.7581776
 118.2436574  28.4290602  29.9187743 117.0236307  27.6618540  43.6659059
 116.3934967  28.3434821  43.8994456 116.9172394  27.5501621  42.7212198
 112.3181279  27.3290336  34.5924984 111.5280333  27.5847864  34.1165094
 112.8092526  28.1438674  34.6977024 114.2696024  27.6934915  31.5508460
 113.4727188  27.8053609  32.0691956 114.0421617  28.0321567  30.6849351
 120.1001692  34.2179618  39.4990975 120.1646125  34.6800026  40.3349147
 119.3912616  33.5876983  39.6273285 110.6018982  27.5820826  37.0239974
 110.8527020  28.4667836  37.2897550 111.1378530  27.4025428  36.2515066
 119.8149710  35.8847726  29.3669955 119.6795384  36.7299262  29.7954803
 120.3559522  36.0867003  28.6035889 116.3017049  21.9639306  46.0284311
 115.9083995  21.4105504  46.7031955 117.1183190  22.2749884  46.4190828
 113.2679107  33.4023164  29.9397880 113.7803628  34.1966414  30.0903445
 113.9201820  32.7049454  29.8731482 115.0773992  36.5188920  32.0220634
 115.2540620  37.4406885  31.8341617 115.8730825  36.2047339  32.4515013
 119.2185010  23.3797185  43.6204567 119.9594724  23.9804338  43.5409030
 119.4502933  22.6374823  43.0622610 114.3626348  28.5653552  41.8982797
 114.2479863  27.6638809  42.1989896 113.5070866  28.8117249  41.5467613
 116.2005307  38.0367094  38.0230976 116.7512732  37.9084157  37.2507970
 115.3616783  38.3361983  37.6725869 119.9972478  34.3018222  42.3675207
 120.5300815  33.5406510  42.1374515 119.4686559  34.0091874  43.1099362
 111.2328024  31.7311818  30.7157451 112.0703246  32.1408827  30.4991159
 111.4106292  30.7911260  30.6857645 118.4881600  21.8621673  34.8684264
 119.3534596  21.6664481  34.5090153 118.5559108  21.6332024  35.7953621
 121.3625191  33.4304214  29.8794019 120.8346553  32.6956974  29.5667256
 120.8612694  34.2078891  29.6333987 116.0943919  24.0923881  32.2400631
 116.6687671  23.8699062  31.5073824 116.6814901  24.1612575  32.9929232
 111.2554195  29.0702533  31.3868184 111.0578595  28.4771894  30.6619251
 110.7000859  28.7654744  32.1044123 119.2350919  28.9625640  33.5062778
 119.2899528  28.0099476  33.4305254 118.4242121  29.1185079  33.9904076
 117.1743279  27.5802700  31.2653156 116.3611144  27.8796870  31.6718349
 117.6702273  27.1858388  31.9827639 119.3251856  37.5760457  33.1987421
 119.2828035  37.8021303  32.2695953 120.2414555  37.3423831  33.3473222
 116.6657353  25.1521055  36.8814391 117.3056733  25.0109814  36.1837355
 115.8334884  24.8655569  36.5052993 117.4417657  34.4523486  32.9949384
 118.2358256  33.9573806  32.7931959 116.7309350  33.9241349  32.6317089
 113.7500421  28.5966567  29.0709136 112.8198009  28.5351023  29.2879099
 113.8457893  28.0742520  28.2745778 113.6685970  25.1221380  31.6587378
 113.9292787  26.0366713  31.5496539 114.4903142  24.6545823  31.8083991
 115.1410895  26.5359137  38.8286203 115.8133949  26.3276500  38.1798852
 114.3140682  26.3381223  38.3891435 120.0188933  35.0252508  36.6747221
 119.8800019  34.6571292  37.5473159 119.2303529  35.5400147  36.5031179
 120.6137085  40.1261604  28.0172757 120.7888841  39.6549647  28.8318380
 119.9269873  40.7527370  28.2454018 121.5694148  34.4034110  34.0636059
 121.2343981  34.3634880  34.9593709 121.0698094  33.7378826  33.5906469
 115.5438392  29.8101740  39.5888640 115.4058190  29.0781979  40.1900179
 116.4543316  29.7210640  39.3072828 118.1720693  29.5221700  39.0772319
 118.8820312  28.8814892  39.0358938 118.1290001  29.7734595  39.9998500
 116.8849627  26.5086918  40.8967959 116.3486984  26.0577656  41.5489555
 116.2966335  26.6432826  40.1538423 115.1798171  43.2750967  34.7912618
 115.4194769  43.9069491  35.4691636 114.3367367  42.9239007  35.0777977
 107.8154026  30.7552729  33.5535930 108.5025066  30.4414459  32.9656945
 107.6602155  31.6594093  33.2803181 112.6188748  25.6442925  37.9820953
 112.5346937  25.0368595  37.2471363 111.7971455  26.1351944  37.9830450
 119.6926032  39.0830089  37.1954122 119.6196204  39.8885061  37.7073426
 119.2503425  39.2822055  36.3702143 119.4815812  38.3201859  30.7056943
 118.6983334  38.8623540  30.7995168 120.1808557  38.8375839  31.1051184
 119.3747431  26.2713872  33.0762833 119.0045218  25.7184912  33.7643739
 119.8706523  25.6672005  32.5237833 117.2036629  36.7311367  40.1717851
 117.9046089  37.3647850  40.3247245 116.7331744  37.0726098  39.4113490
 112.8004347  36.2647722  37.1048954 113.3857784  35.5191410  37.2376858
 112.6029186  36.5751679  37.9885618 115.6543003  39.2998969  32.1211396
 114.9853378  39.7845097  31.6375436 115.5155872  39.5468190  33.0354775
 107.3922002  28.8353322  35.8253397 107.4306102  28.3016913  36.6190515
 106.8862295  28.3088528  35.2064374 119.7948271  41.3342713  38.7194054
 120.3466579  41.4974334  39.4843140 120.1354465  41.9247151  38.0474079
 114.7712765  23.6817863  39.3215939 114.8354091  24.5432693  38.9093337
 114.7079885  23.0691864  38.5888298 114.2465037  25.7540995  42.9688973
 114.8737076  25.3718072  43.5826498 113.3892956  25.5355197  43.3344666
 111.0230580  27.5617424  28.9007328 111.3184021  26.6528103  28.8474382
 110.1218616  27.5405164  28.5788331 114.5524827  25.6373421  34.8834877
 113.8311413  26.2509388  34.7442350 115.3418083  26.1731186  34.8051523
 117.3551140  22.9727847  41.1575529 117.8785542  23.2190144  41.9201838
 117.1363474  23.8047882  40.7378666 112.7518421  25.2431522  29.0246653
 112.4231128  24.3628901  28.8421759 113.1057792  25.1879191  29.9123043
 115.8660245  25.5304492  29.3922131 116.2056317  26.0590413  28.6700739
 116.3132365  25.8684898  30.1680698 118.5603685  23.9141542  38.8425199
 118.2200506  23.1149355  39.2445879 117.8542692  24.2143253  38.2702032
 119.2120157  20.9990855  37.2952522 120.0346227  20.5251333  37.1731413
 119.4558221  21.7781339  37.7951208 116.7358736  27.6909975  35.1044501
 116.5903317  28.0050279  35.9968782 116.2583940  28.3094876  34.5515399
 118.5955119  24.6812523  35.1525390 118.5816688  23.7853617  34.8157688
 119.3127547  24.6883187  35.7863676 120.4481250  25.1149864  37.1978518
 120.1899027  26.0366934  37.1962848 119.9166290  24.7180298  37.8878982
 111.2104398  30.2315320  38.0432162 110.6657866  31.0075128  38.1752436
 112.0883748  30.5786124  37.8851283 111.9970420  29.3585216  40.9362319
 111.2552156  29.5067851  41.5226949 111.6763164  29.6193482  40.0729068
 119.9414083  38.9001194  40.7342709 120.2501209  38.6550341  41.6065408
 120.7389565  39.1047833  40.2461579 119.9634695  41.0539104  32.9648085
 119.5239685  40.5615483  33.6580942 120.7142812  40.5112072  32.7240161
 112.4427034  37.2450645  32.9672713 113.2685054  36.9454417  32.5871357
 112.0921086  36.4758267  33.4162502 117.4108567  36.5977113  35.0370387
 116.7888576  35.9347818  34.7372615 118.0813434  36.6238245  34.3544035
 110.6435639  35.1636971  33.9261647 109.8067547  34.7359146  33.7445648
 110.6159284  35.3569415  34.8632438 117.4833094  25.0758901  44.6302893
 117.5321250  25.9521024  44.2480663 118.0255609  24.5336294  44.0574536
 116.9722074  35.1481036  28.5128848 117.1210194  35.8316501  27.8595520
 117.7788517  35.1286126  29.0278303 119.7132383  25.8290273  41.3849252
 118.8435692  26.1223840  41.1131840 119.9491863  26.4130718  42.1056515
 114.7274707  31.1746214  29.5189917 114.4820749  30.2708544  29.7170127
 114.8970621  31.1763364  28.5769395 113.9970354  26.9074572  27.0176078
 113.3039599  26.9818927  26.3616114 113.7522106  26.1434915  27.5397595
 120.4717479  37.6429167  25.9840595 119.8991446  38.2619354  25.5311067
 121.0450273  38.1928529  26.5180517 109.9585135  28.2246319  33.7110579
 109.6387920  27.3711628  33.4184953 109.4118563  28.4394898  34.4668546
 113.7365043  30.9408760  37.4280086 113.9551053  31.8725868  37.4468119
 114.1490817  30.5816735  38.2134890 118.6092908  26.5141966  46.8182835
 118.5089635  27.4636323  46.7494926 118.3914450  26.1860205  45.9458905
 109.8273395  31.8449231  35.6803701 109.1336867  31.4303184  35.1673655
 110.5746386  31.8869767  35.0837120 118.4724178  29.9439105  45.6347896
 117.9891260  30.7439465  45.8411785 118.5585117  29.9547050  44.6815340
 111.7410138  31.7767485  33.5569716 111.7180826  31.8755172  32.6051599
 112.0510774  32.6232635  33.8786882 114.3997516  33.8343640  37.6716330
 115.3540769  33.8027582  37.6046262 114.2010039  33.3734263  38.4866556
 114.9896898  32.4044756  40.2387128 115.8089787  32.8988834  40.2621965
 115.2633706  31.4876724  40.2104695 112.7547744  39.3763259  34.6886528
 112.6202212  38.6163660  34.1224526 112.3379807  40.1004159  34.2215317
 115.9116870  40.2732576  34.9004971 115.7949254  41.2178009  34.7983661
 115.0909317  39.9706138  35.2890770 110.2431812  26.7382890  40.9379325
 110.8890676  26.2281844  41.4266550 110.0348963  27.4751571  41.5122750
 116.9371384  40.9260838  38.1160899 117.8398631  40.9584448  38.4327394
 116.7108755  39.9961289  38.1307235 118.6924986  39.6791825  34.7770978
 117.7420618  39.6793686  34.6635350 118.9957473  38.9324559  34.2607012
 114.5829303  23.8850507  45.0354339 115.4460765  23.5287312  45.2457664
 114.0094714  23.5464402  45.7229743 118.6547781  46.0844646  33.5535930
 119.3418820  45.7706376  32.9656945 118.4995909  46.9886011  33.2803181
 118.2315757  44.1645240  35.8253397 118.2699856  43.6308830  36.6190515
 117.7256050  43.6380445  35.2064374 121.4829393  50.4928889  33.9261647
 120.6461301  50.0651063  33.7445648 121.4553039  50.6861332  34.8632438
 120.7978890  43.5538237  33.7110579 120.4781674  42.7003545  33.4184953
 120.2512318  43.7686815  34.4668546 120.6667150  47.1741149  35.6803701
 119.9730621  46.7595101  35.1673655 121.4140141  47.2161685  35.0837120
   3.1814563  55.2873855 105.4553835   2.5076262  55.5905551 106.0638793
   3.5680385  56.0902935 105.1059292   7.1471304  52.8659338 106.7293659
   7.8422208  53.4866031 106.9480973   7.4894454  52.0154689 107.0046036
   1.2386172  52.9721090 105.6368752   0.6660139  53.5911277 105.1839224
   1.8118966  53.5220452 106.1708674   4.4583432  53.2558240 106.7677334
   5.3914105  53.1903802 106.9710210   4.3706645  54.0914507 106.3091867
   7.0871449  52.5724110 103.7281282   7.0085080  52.2383974 104.6217040
   7.9081116  53.0645878 103.7272754   4.6575401  49.8892106 103.3491260
   5.3611251  50.0942108 103.9648916   3.9338049  50.4568868 103.6140344
   6.5662098  50.3274635 105.3989720   7.4007702  49.8955833 105.2167195
   6.4046441  50.1556649 106.3266615  15.1946373  60.8444286 115.4944897
  15.8324783  60.7251033 114.7908237  15.0767216  61.7925130 115.5532849
   7.8622895  62.6507191 111.4203313   7.2987760  62.5597128 110.6519600
   7.7475290  61.8307095 111.9005805  13.4422454  66.3178158 106.7317778
  12.7910433  66.9032239 106.3451791  14.2366817  66.8484353 106.7912815
   7.3678081  63.4067295 107.1304912   8.1408957  62.8596283 106.9917788
   7.7203480  64.2711545 107.3419373   9.7044359  59.5659962 104.7623362
   9.9569879  59.0441483 104.0006825   8.7668918  59.4026107 104.8650046
  14.7487642  58.5695740 112.5698105  15.5350731  58.1515163 112.2188522
  15.0126346  59.4741832 112.7379754  14.9197719  64.0068590 107.2686762
  14.2843552  64.0803217 107.9807667  14.5895125  64.5962189 106.5905841
  20.1496069  58.5070973 113.4731084  20.8821241  57.9370190 113.7068913
  19.3935424  58.1192574 113.9137589   9.4240647  61.4688067 106.9647737
   9.3076906  60.7932971 107.6328821   9.5342907  60.9820441 106.1479890
  11.7672188  60.9298215 110.6694426  11.4030396  60.4028836 111.3807348
  12.6239304  60.5396684 110.4960912  11.4077675  55.9588114 105.6655775
  11.5752078  56.8268351 106.0326246  11.2174844  56.1215396 104.7417064
  11.3866896  58.4145772 106.6502441  11.2666521  58.8602823 107.4887922
  10.6919485  58.7631089 106.0915980   9.1473788  71.1849414 110.2992573
   9.0697818  72.1357239 110.3781053   8.5435432  70.8395286 110.9567499
  17.0851962  58.8867245 107.4782775  17.9969819  59.1194632 107.3030473
  16.5761609  59.4704289 106.9157854  15.6921545  63.8693063 114.8696357
  15.0630407  64.0338778 114.1672425  15.3047207  64.2834673 115.6407321
  19.5710777  64.8047501 112.2240721  18.8861815  65.1846403 111.6737754
  19.6554626  65.4142828 112.9572668  11.2449507  63.6067472 112.1346442
  11.7087852  63.8855175 111.3451065  10.9806305  62.7050916 111.9519533
  10.1818393  59.7290624 108.9436007  10.8842436  60.1811668 109.4109934
   9.8499021  59.0874443 109.5715900  17.9407536  65.3279416 116.9958422
  18.7624980  64.9259603 116.7141103  17.9369939  65.2247650 117.9474537
  26.0313529  61.6718164 113.3443393  25.2777238  61.1025562 113.1887397
  26.1661070  61.6380829 114.2914028  11.4212157  66.5431567 109.0198112
  11.2857832  67.3883102 109.4482960  11.9621970  66.7450844 108.2564046
   4.8741555  64.0607005 109.5926037   5.3866075  64.8550255 109.7431602
   5.5264267  63.3633295 109.5259639   6.6836439  67.1772761 111.6748791
   6.8603068  68.0990726 111.4869775   7.4793273  66.8631180 112.1043170
   2.8390471  62.3895659 110.3685608   3.6765693  62.7992667 110.1519316
   3.0168739  61.4495101 110.3385802  14.7354904  60.0570739 106.0569441
  14.2201527  60.8275344 106.2957828  14.4632212  59.3835876 106.6802502
  12.3202015  54.9020440 111.1154679  11.4643611  54.5127291 110.9360318
  12.7328966  54.9812401 110.2554465  19.7089178  62.8103094 107.9922614
  18.9318620  62.4714254 107.5477777  20.3880659  62.8155717 107.3177580
  14.5241207  57.9297832 107.8829222  14.2191342  58.2443981 108.7339365
  15.4771649  58.0079251 107.9256555  12.9687639  64.0888055 109.5322176
  12.4409000  63.3540814 109.2195414  12.4675141  64.8662731 109.2862144
  17.9480485  62.2837075 114.6489222  17.2904159  62.9736337 114.7369351
  18.7520884  62.6733507 114.9923209  16.7585943  60.6381448 112.6993164
  17.2717825  61.2711440 113.2014874  17.4087167  60.0382644 112.3336524
   8.0275953  56.7812182 105.9124673   7.1913266  57.1186869 106.2333948
   7.8880723  56.6461162 104.9751810  11.1140239  61.9068265 102.5357149
  10.2067300  61.6757519 102.7348298  11.6111271  61.1105884 102.7231131
  14.0208318  70.6165772 105.4553835  13.3470016  70.9197469 106.0638793
  14.4074140  71.4194853 105.1059292  14.0201822  59.5122319 110.0754185
  14.7673641  60.0243717 109.7661307  14.2893412  59.1906372 110.9358579
  12.2928472  62.0080860 107.0581139  11.3839691  61.7239893 107.1553609
  12.3223556  62.4279939 106.1984446  17.5247740  65.6187450 110.8272307
  17.0710067  64.7778359 110.8837497  16.8941706  66.2548848 111.1647087
  16.4680659  56.5479436 112.0572974  15.7303416  56.0356822 112.3883217
  16.7207433  56.1079817 111.2456251  15.9680679  67.4563946 111.7622125
  16.2603653  68.0169003 111.0434491  16.4779299  67.7492507 112.5175284
  10.8413366  59.6209481 113.1590935  10.8961976  58.6683317 113.0833411
  10.0304568  59.7768920 113.6432233  11.9904560  63.5489604 104.3969218
  11.5523990  62.8325463 103.9374855  12.7315001  63.7765719 103.8354309
   8.7805726  58.2386540 110.9181313   7.9673592  58.5380711 111.3246506
   9.2764720  57.8442229 111.6355796  10.9314304  68.2344297 112.8515578
  10.8890483  68.4605144 111.9224110  11.8477003  68.0007672 113.0001379
  20.1077675  61.8246801 110.4545536  19.9695573  62.0148397 109.5266726
  19.7513894  62.5866184 110.9113588  20.1347054  63.8923328 115.4656808
  20.5683561  63.7998617 116.3139862  20.8478635  63.8680828 114.8276824
   9.0480105  65.1107326 112.6477541   9.8420703  64.6157646 112.4460116
   8.3371797  64.5825189 112.2845246   5.3562868  59.2550408 108.7237294
   4.4260456  59.1934864 108.9407256   5.4520340  58.7326361 107.9273935
  20.9962604  63.9347028 117.9989693  21.1898494  64.8392839 118.2448968
  20.8963222  63.4754447 118.8328278  12.2199533  70.7845445 107.6700915
  12.3951288  70.3133488 108.4846537  11.5332321  71.4111211 107.8982175
  13.1756596  65.0617951 113.7164216  12.8406429  65.0218721 114.6121866
  12.6760542  64.3962667 113.2434626  16.1115788  62.4073985 103.9901275
  15.4944958  61.6820814 103.8934328  15.6432276  63.1683346 103.6468350
   7.9014334  56.6259410 103.1122580   7.0243800  56.5048210 102.7484826
   8.3772087  55.8345488 102.8601468  11.0878260  68.9785700 110.3585100
  10.3045781  69.5207380 110.4523325  11.7871005  69.4959680 110.7579341
  22.2504667  60.4920695 114.6437597  22.2394543  61.3745410 114.2731530
  21.3822046  60.1392246 114.4492134  15.4804690  63.5452017 110.5757729
  14.5460969  63.6653479 110.4062433  15.6581359  62.6424483 110.3117739
  18.8677242  59.3869336 111.1107763  19.3337694  60.2197328 111.0368066
  19.3184742  58.9214318 111.8153022  16.9353473  65.7313157 108.1093915
  17.2113317  65.6169752 109.0187789  16.0657972  65.3330642 108.0706088
  13.5707537  69.9799508 111.7526729  13.7529931  69.1621164 112.2154481
  14.3940523  70.1967200 111.3151619  13.9049702  68.9067693 109.0141777
  14.4337469  68.3960148 108.4011939  14.1677922  68.5910223 109.8787310
   2.6293027  58.2201265 108.5535485   2.9246468  57.3111943 108.5002539
   1.7281063  58.1989004 108.2316488  14.5379106  69.9408529 115.3585894
  14.4130246  69.1398269 114.8496839  15.1958197  70.4354722 114.8699864
  16.6014015  67.7417549 116.9865444  15.6544350  67.6222900 116.9143771
  16.9496788  66.8540047 117.0691705  13.6060448  67.5370265 113.1869796
  13.4585410  66.6086973 113.3677366  14.4313941  67.5590356 112.7026871
   7.4722692  56.1888332 109.0450288   7.8118765  56.7174254 108.3228897
   7.9194813  56.5268738 109.8208855  17.2094570  68.3598824 114.2734669
  18.1341117  68.1541685 114.1359120  17.0409873  68.1115225 115.1824010
   9.4590839  54.6862954 107.2443581  10.1799202  55.0644207 106.7407298
   8.8356143  55.4051831 107.3478559  13.6021962  55.3908103 108.1801913
  13.8185577  56.2732741 107.8790741  13.1216029  54.9994316 107.4507555
  16.9989886  68.8784491 109.6296760  17.1726763  68.3130914 108.8770613
  17.4918777  69.6785386 109.4476250  22.8529277  61.6420914 111.2487060
  23.2960423  60.8928240 110.8506183  21.9755787  61.6331051 110.8660792
  17.9865058  68.1951256 106.7293659  18.6815963  68.8157949 106.9480973
  18.3288208  67.3446607 107.0046036  19.8856481  65.6450961 108.2580989
  20.4107806  65.9838234 107.5330309  19.7978834  64.7097977 108.0744124
   8.5784521  65.8064877 108.1657005   8.7272642  66.4900341 107.5123677
   9.3850965  65.7869967 108.6806460  22.3962142  63.1126153 113.6409508
  23.2309033  63.5515957 113.8047068  22.5321271  62.6364806 112.8217753
   6.3337154  61.8330055 109.1718074   6.0883196  60.9292385 109.3698284
   6.5033069  61.8347205 108.2297552   5.6032802  57.5658412 106.6704235
   4.9102047  57.6402767 106.0144271   5.3584554  56.8018756 107.1925752
  12.0779927  68.3013008 105.6368752  11.5053894  68.9203195 105.1839224
  12.6512720  68.8512369 106.1708674  15.2977187  68.5850158 106.7677334
  16.2307860  68.5195719 106.9710210  15.2100399  69.4206425 106.3091867
  17.9265203  67.9016028 103.7281282  17.8478835  67.5675892 104.6217040
  18.7474870  68.3937796 103.7272754  20.6243394  60.7677767 116.9357601
  20.5919715  59.8293768 117.1217284  21.2344018  60.8461804 116.2023425
  12.4626725  59.6373820 102.9784805  13.4085830  59.5080028 103.0473223
  12.0840970  58.8988482 103.4554233  26.4419944  61.8293774 116.0763637
  27.1723333  61.5679062 116.6371341  25.8326890  61.0922496 116.1165705
  24.5235241  59.9701637 116.6738089  23.7968405  59.8357602 116.0654580
  24.1082528  60.2778465 117.4794807  10.6469642  57.5623797 102.9139690
   9.7401098  57.2656909 102.9902403  10.9245623  57.2653615 102.0473976
  12.2631708  52.1060686 109.0683931  11.4532436  51.7607771 109.4439177
  12.9516125  51.7968230 109.6571543   9.4168427  54.4210732 103.0551669
  10.2787591  54.7465630 103.3147486   9.6018771  53.6342228 102.5424735
  17.5701064  53.2939258 110.1986892  16.9899733  53.9524062 109.8164944
  17.3036996  52.4716603 109.7874310  16.3525942  55.4539349 109.2543240
  15.4651797  55.7388999 109.0363435  16.7679931  55.2933112 108.4070517
  19.7040478  55.4785870 112.9697580  20.4800868  55.9682322 113.2422196
  18.9788612  55.9043924 113.4269449  22.1413036  56.1913489 114.0271520
  22.7357527  55.9509225 113.3164828  22.2139620  55.4720620 114.6545056
  15.4969155  65.2184023 103.3491260  16.2005005  65.4234026 103.9648916
  14.7731804  65.7860785 103.6140344  16.3266965  60.9693885 109.4693530
  16.2702167  61.4262436 108.6301163  16.8795308  60.2084569 109.2916373
  20.1371771  56.7583617 110.2943650  19.8808705  56.3580252 111.1251858
  19.5124639  57.4727410 110.1693789  24.4484109  59.4979690 112.8014941
  23.8883667  59.5672879 113.5746503  23.8427612  59.3220674 112.0814438
  17.4055852  65.6566553 105.3989720  18.2401456  65.2247751 105.2167195
  17.2440195  65.4848566 106.3266615  17.0601745  62.1598666 106.7646060
  17.0050548  61.9942937 105.8234504  16.4347800  62.8674699 106.9208249
  10.3697870  51.6606775 106.3431378  10.3576540  52.6048615 106.4999649
  11.2621292  51.4776920 106.0490839  26.0340128  76.1736204 115.4944897
  26.6718537  76.0542951 114.7908237  25.9160970  77.1217048 115.5532849
  22.8429834  76.1263632 115.4306422  22.5048345  76.0104697 114.5426957
  23.7119602  75.7254797 115.4107428  18.7016650  77.9799108 111.4203313
  18.1381515  77.8889045 110.6519600  18.5869045  77.1599013 111.9005805
  24.2816208  81.6470076 106.7317778  23.6304188  82.2324156 106.3451791
  25.0760571  82.1776271 106.7912815  18.2071835  78.7359213 107.1304912
  18.9802711  78.1888200 106.9917788  18.5597234  79.6003462 107.3419373
  20.9713085  77.4412444 116.9273171  21.5676657  77.2168466 116.2130134
  21.0288056  76.6997189 117.5298619  20.5438113  74.8951879 104.7623362
  20.7963634  74.3733400 104.0006825  19.6062672  74.7318025 104.8650046
  25.5881396  73.8987658 112.5698105  26.3744485  73.4807081 112.2188522
  25.8520100  74.8033750 112.7379754  25.7591473  79.3360508 107.2686762
  25.1237306  79.4095134 107.9807667  25.4288880  79.9254107 106.5905841
  30.9889823  73.8362891 113.4731084  31.7214995  73.2662108 113.7068913
  30.2329179  73.4484491 113.9137589  20.2634402  76.7979985 106.9647737
  20.1470660  76.1224889 107.6328821  20.3736662  76.3112359 106.1479890
  22.6065943  76.2590132 110.6694426  22.2424150  75.7320753 111.3807348
  23.4633059  75.8688601 110.4960912  28.5115243  67.5484465 117.9325692
  28.1798568  68.4179876 117.7086907  27.9160857  67.2320749 118.6119723
  22.2471430  71.2880032 105.6655775  22.4145832  72.1560268 106.0326246
  22.0568599  71.4507314 104.7417064  25.0046763  79.7497011 117.3321605
  24.7047486  80.6522050 117.2237412  24.6597823  79.4829194 118.1842758
  18.4559245  76.2010808 113.3658309  17.5309741  76.0687022 113.5736001
  18.7043658  76.9805027 113.8628252  28.4043907  72.2679551 115.0119042
  27.4960784  72.1994959 114.7177803  28.3531503  72.7451496 115.8400868
  22.2260651  73.7437689 106.6502441  22.1060276  74.1894740 107.4887922
  21.5313239  74.0923007 106.0915980  19.9867543  86.5141331 110.2992573
  19.9091573  87.4649156 110.3781053  19.3829186  86.1687204 110.9567499
  30.2705553  70.4695989 116.7896916  29.6279933  70.7628523 116.1436711
  29.7660482  70.3548910 117.5950113  27.9245717  74.2159163 107.4782775
  28.8363573  74.4486549 107.3030473  27.4155364  74.7996207 106.9157854
  22.5617555  73.5756397 118.4877625  23.4078750  73.9995811 118.6312274
  22.5016192  72.9190022 119.1816188  26.5315299  79.1984981 114.8696357
  25.9024162  79.3630695 114.1672425  26.1440961  79.6126591 115.6407321
  30.4104531  80.1339419 112.2240721  29.7255569  80.5138320 111.6737754
  30.4948380  80.7434746 112.9572668  25.7117000  71.2360766 120.1458799
  25.4677932  71.9902826 119.6093074  25.9876930  71.6146113 120.9806046
  27.6655463  77.7799378 118.8236064  27.8772358  78.4231138 118.1470445
  27.6185211  76.9461695 118.3557994  25.2681692  70.3917199 115.7272636
  24.4066171  70.6898452 116.0189374  25.2944126  70.6087598 114.7953669
  22.0843261  78.9359389 112.1346442  22.5481607  79.2147092 111.3451065
  21.8200059  78.0342834 111.9519533  18.9767342  78.4830871 115.0726205
  19.5468699  78.9118139 114.4343690  19.5675454  78.2013455 115.7710391
  21.0212147  75.0582542 108.9436007  21.7236190  75.5103585 109.4109934
  20.6892776  74.4166360 109.5715900  14.7637481  73.3166094 114.2453141
  13.9736535  73.5723623 113.7693251  15.2548728  74.1314432 114.3505181
  28.7801291  80.6571333 116.9958422  29.6018734  80.2551521 116.7141103
  28.7763694  80.5539568 117.9474537  16.7152226  73.6810673 111.2036617
  15.9183390  73.7929368 111.7220113  16.4877819  74.0197326 110.3377508
  36.8707284  77.0010082 113.3443393  36.1170992  76.4317480 113.1887397
  37.0054825  76.9672746 114.2914028  22.2605912  81.8723484 109.0198112
  22.1251587  82.7175020 109.4482960  22.8015724  82.0742762 108.2564046
  15.7135309  79.3898922 109.5926037  16.2259830  80.1842172 109.7431602
  16.3658022  78.6925213 109.5259639  17.5230194  82.5064679 111.6748791
  17.6996822  83.4282643 111.4869775  18.3187027  82.1923098 112.1043170
  25.6098375  65.3954046 117.5497006  25.2662645  66.2855688 117.4736116
  25.9777338  65.2055704 116.6866591  13.6784226  77.7187577 110.3685608
  14.5159448  78.1284585 110.1519316  13.8562494  76.7787019 110.3385802
  25.5748658  75.3862657 106.0569441  25.0595281  76.1567262 106.2957828
  25.3025966  74.7127793 106.6802502  23.1595769  70.2312358 111.1154679
  22.3037365  69.8419208 110.9360318  23.5722721  70.3104319 110.2554465
  24.6894916  67.7658701 115.5146239  24.1859711  67.7288836 114.7014044
  24.9825523  68.6751444 115.5742896  20.9337802  67.8497431 114.5212421
  21.7990798  67.6540240 114.1618310  21.0015310  67.6207783 115.4481778
  30.5482932  78.1395012 107.9922614  29.7712375  77.8006171 107.5477777
  31.2274413  78.1447635 107.3177580  25.3634961  73.2589749 107.8829222
  25.0585097  73.5735898 108.7339365  26.3165403  73.3371169 107.9256555
  23.8081393  79.4179973 109.5322176  23.2802755  78.6832732 109.2195414
  23.3068896  80.1954649 109.2862144  28.7874239  77.6128993 114.6489222
  28.1297914  78.3028254 114.7369351  29.5914638  78.0025425 114.9923209
  18.5400121  70.0799639 111.8928788  19.1143873  69.8574820 111.1601981
  19.1271103  70.1488333 112.6457389  27.5979698  75.9673366 112.6993164
  28.1111580  76.6003358 113.2014874  28.2480922  75.3674561 112.3336524
  18.8669708  72.1104100 105.9124673  18.0307020  72.4478786 106.2333948
  18.7274477  71.9753080 104.9751810  20.8422788  66.9540888 110.6203857
  20.1887201  66.6389905 109.9960472  20.8003263  66.3316628 111.3463680
  21.9533993  77.2360183 102.5357149  21.0461055  77.0049436 102.7348298
  22.4505025  76.4397802 102.7231131  24.8602072  85.9457690 105.4553835
  24.1863771  86.2489387 106.0638793  25.2467894  86.7486770 105.1059292
  24.0760529  73.4422821 114.9451505  23.1583090  73.6637768 114.7873193
  24.4920672  73.5169132 114.0863212  24.8595576  74.8414237 110.0754185
  25.6067395  75.3535634 109.7661307  25.1287166  74.5198290 110.9358579
  23.1322227  77.3372778 107.0581139  22.2233446  77.0531811 107.1553609
  23.1617310  77.7571856 106.1984446  28.3641494  80.9479367 110.8272307
  27.9103821  80.1070277 110.8837497  27.7335461  81.5840766 111.1647087
  27.3074414  71.8771353 112.0572974  26.5697170  71.3648739 112.3883217
  27.5601187  71.4371735 111.2456251  26.8074433  82.7855864 111.7622125
  27.0997408  83.3460921 111.0434491  27.3173054  83.0784425 112.5175284
  27.4086041  64.6547605 112.6514744  27.7144918  63.7944969 112.3640659
  28.1338646  65.2465225 112.4513737  13.7010397  75.0578292 111.0396341
  13.5034797  74.4647653 110.3147408  13.1457061  74.7530502 111.7572280
  21.6807121  74.9501398 113.1590935  21.7355730  73.9975235 113.0833411
  20.8698323  75.1060837 113.6432233  22.8298314  78.8781521 104.3969218
  22.3917744  78.1617380 103.9374855  23.5708755  79.1057636 103.8354309
  19.6199481  73.5678458 110.9181313  18.8067346  73.8672629 111.3246506
  20.1158475  73.1734147 111.6355796  21.7708059  83.5636215 112.8515578
  21.7284237  83.7897061 111.9224110  22.6870757  83.3299590 113.0001379
  25.2173692  74.0320283 119.7496207  25.5723080  74.2591756 120.6090673
  25.8645824  74.3638659 119.1273463  30.9471429  77.1538718 110.4545536
  30.8089328  77.3440314 109.5266726  30.5907648  77.9158101 110.9113588
  19.1113555  71.1396814 116.5342548  19.7512935  70.9985573 115.8365512
  18.2791086  70.8531327 116.1581150  30.9740809  79.2215245 115.4656808
  31.4077316  79.1290535 116.3139862  31.6872390  79.1972746 114.8276824
  19.8873859  80.4399244 112.6477541  20.6814458  79.9449564 112.4460116
  19.1765552  79.9117107 112.2845246  16.1956623  74.5842326 108.7237294
  15.2654211  74.5226781 108.9407256  16.2914095  74.0618279 107.9273935
  16.1142172  71.1097139 111.3115535  16.3748989  72.0242472 111.2024696
  16.9359344  70.6421581 111.4612148  31.8356358  79.2638946 117.9989693
  32.0292249  80.1684757 118.2448968  31.7356977  78.8046365 118.8328278
  23.4892669  69.1496837 120.4980021  22.8420584  69.8486786 120.4044497
  24.2593685  69.5832981 120.8656269  23.6656804  76.9877602 118.5576840
  24.5948864  77.1388761 118.3845808  23.2447834  77.0761622 117.7025487
  23.0593287  86.1137362 107.6700915  23.2345043  85.6425406 108.4846537
  22.3726075  86.7403129 107.8982175  24.0150350  80.3909869 113.7164216
  23.6800183  80.3510639 114.6121866  23.5154296  79.7254585 113.2434626
  26.9509542  77.7365903 103.9901275  26.3338713  77.0112731 103.8934328
  26.4826031  78.4975263 103.6468350  18.7408088  71.9551327 103.1122580
  17.8637554  71.8340128 102.7484826  19.2165841  71.1637406 102.8601468
  28.6081081  80.4104395 119.8821035  27.7207860  80.0730317 120.0047434
  29.1779632  79.6787427 120.1189801  21.9272014  84.3077618 110.3585100
  21.1439536  84.8499298 110.4523325  22.6264759  84.8251597 110.7579341
  25.2368664  70.1172247 113.0019306  25.7337364  69.3642209 112.6820376
  24.4655646  70.1536564 112.4362515  33.0898422  75.8212613 114.6437597
  33.0788298  76.7037328 114.2731530  32.2215801  75.4684164 114.4492134
  26.3198445  78.8743934 110.5757729  25.3854724  78.9945397 110.4062433
  26.4975113  77.9716401 110.3117739  21.8203633  72.2589630 112.7290990
  21.4501420  71.7060671 113.4171896  22.3162725  71.6547764 112.1765990
  29.7070996  74.7161254 111.1107763  30.1731448  75.5489245 111.0368066
  30.1578497  74.2506235 111.8153022  27.7747227  81.0605075 108.1093915
  28.0507071  80.9461670 109.0187789  26.9051726  80.6622560 108.0706088
  27.6787659  67.0841841 115.1498664  26.7650739  67.3146067 115.3180871
  28.1080760  67.1680285 116.0012697  27.4494117  75.2731733 117.6498558
  26.7965568  75.5207640 116.9951011  27.8274497  74.4595871 117.3161036
  24.4101291  85.3091426 111.7526729  24.5923686  84.4913082 112.2154481
  25.2334277  85.5259118 111.3151619  24.7443457  84.2359611 109.0141777
  25.2731223  83.7252066 108.4011939  25.0071676  83.9202141 109.8787310
  17.2168967  69.6693621 118.9744096  17.2810293  70.5308452 118.5621494
  17.1536087  69.0567623 118.2416455  13.4686782  73.5493183 108.5535485
  13.7640223  72.6403861 108.5002539  12.5674818  73.5280922 108.2316488
  25.3772861  85.2700447 115.3585894  25.2524000  84.4690186 114.8496839
  26.0351952  85.7646640 114.8699864  16.9981029  71.6249179 114.5363034
  16.2767615  72.2385147 114.3970507  17.7874285  72.1606944 114.4579680
  27.4407769  83.0709467 116.9865444  26.4938105  82.9514818 116.9143771
  27.7890542  82.1831965 117.0691705  19.8007342  68.9603606 120.8103686
  20.3241744  69.2065902 121.5729995  19.5819676  69.7923640 120.3906823
  15.1974623  71.2307280 108.6774811  14.8687330  70.3504659 108.4949916
  15.5513994  71.1754949 109.5651200  24.4454202  82.8662183 113.1869796
  24.2979165  81.9378890 113.3677366  25.2707696  82.8882274 112.7026871
  18.3116447  71.5180250 109.0450288  18.6512519  72.0466171 108.3228897
  18.7588567  71.8560656 109.8208855  28.0488324  83.6890742 114.2734669
  28.9734872  83.4833603 114.1359120  27.8803628  83.4407143 115.1824010
  21.0059887  69.9017301 118.4953356  20.6656708  69.1025114 118.8974036
  20.2998894  70.2019012 117.9230189  21.6576359  66.9866613 116.9480679
  22.4802429  66.5127091 116.8259570  21.9014423  67.7657097 117.4479366
  20.2984594  70.0154872 107.2443581  21.0192956  70.3936124 106.7407298
  19.6749898  70.7343748 107.3478559  24.4415717  70.7200021 108.1801913
  24.6579331  71.6024658 107.8790741  23.9609784  70.3286234 107.4507555
  19.1814938  73.6785734 114.7572658  19.0359519  73.9926037 115.6496939
  18.7040142  74.2970634 114.2043557  21.0411321  70.6688282 114.8053547
  21.0272890  69.7729375 114.4685845  21.7583749  70.6758946 115.4391833
  22.8937452  71.1025622 116.8506675  22.6355229  72.0242693 116.8491005
  22.3622492  70.7056057 117.5407139  27.8383640  84.2076409 109.6296760
  28.0120518  83.6422832 108.8770613  28.3312532  85.0077304 109.4476250
  20.4448217  69.5502662 110.0741118  20.5664128  68.6219308 110.2732005
  20.1550259  69.5641348 109.1619433  23.3139407  67.2357573 113.2107837
  23.3361104  67.2996906 112.2559817  23.7307466  66.3962081 113.4048344
  33.6923032  76.9712832 111.2487060  34.1354178  76.2220157 110.8506183
  32.8149542  76.9622968 110.8660792  28.8258813  83.5243174 106.7293659
  29.5209717  84.1449866 106.9480973  29.1681963  82.6738525 107.0046036
  30.7250236  80.9742879 108.2580989  31.2501560  81.3130152 107.5330309
  30.6372589  80.0389894 108.0744124  30.5342017  78.4568249 120.8764916
  30.5840022  78.2918257 121.8180439  30.4255940  77.5895508 120.4862797
  19.4178276  81.1356795 108.1657005  19.5666396  81.8192259 107.5123677
  20.2244719  81.1161885 108.6806460  27.8245779  74.4399177 122.1924223
  28.7255642  74.3005642 121.9008220  27.8993754  74.6053632 123.1322400
  22.1588585  71.8166032 121.0377409  21.2891894  72.1099598 120.7659997
  22.3948065  72.4006477 121.7584672  32.0360214  80.8765191 121.1206937
  31.7445022  81.2395171 121.9570398  31.4232345  80.1632199 120.9420269
  33.2355896  78.4418070 113.6409508  34.0702788  78.8807874 113.8047068
  33.3715025  77.9656724 112.8217753  30.2847402  75.9997805 119.5886995
  30.7601524  76.1925452 118.7805847  29.3612968  76.0556991 119.3430379
  17.1730909  77.1621972 109.1718074  16.9276951  76.2584302 109.3698284
  17.3426823  77.1639123 108.2297552  24.8627619  68.0345649 118.5542829
  25.3809562  68.7706676 118.2289318  24.5082751  68.3409642 119.3889588
  16.4426556  72.8950330 106.6704235  15.7495801  72.9694685 106.0144271
  16.1978308  72.1310674 107.1925752  25.1140213  64.4545931 114.0743726
  25.3941967  63.7869120 114.7004152  25.8990820  64.6475027 113.5618390
  22.9173681  83.6304925 105.6368752  22.3447648  84.2495112 105.1839224
  23.4906475  84.1804287 106.1708674  28.9849071  72.8763565 117.8215301
  29.9366494  72.9761663 117.8427525  28.8152522  72.0841834 118.3313385
  27.0063451  69.9619149 118.0074702  26.4113383  70.2424161 117.3121190
  26.7213147  70.4513049 118.7791443  26.1370941  83.9142075 106.7677334
  27.0701614  83.8487637 106.9710210  26.0494154  84.7498342 106.3091867
  28.7658958  83.2307946 103.7281282  28.6872589  82.8967809 104.6217040
  29.5868625  83.7229714 103.7272754  31.4637149  76.0969685 116.9357601
  31.4313469  75.1585686 117.1217284  32.0737773  76.1753722 116.2023425
  23.3020480  74.9665738 102.9784805  24.2479585  74.8371946 103.0473223
  22.9234725  74.2280400 103.4554233  31.6131637  72.8880728 116.9815884
  31.0970686  72.1039185 116.7945813  32.4971586  72.5599445 117.1462403
  29.2742364  66.6321744 112.9411696  29.0767185  66.3236832 113.8255028
  29.8842070  67.3583383 113.0709626  37.2813699  77.1585692 116.0763637
  38.0117087  76.8970980 116.6371341  36.6720644  76.4214414 116.1165705
  35.3628996  75.2993554 116.6738089  34.6362159  75.1649519 116.0654580
  34.9476283  75.6070383 117.4794807  21.4863397  72.8915714 102.9139690
  20.5794852  72.5948827 102.9902403  21.7639378  72.5945532 102.0473976
  23.1025463  67.4352604 109.0683931  22.2926191  67.0899689 109.4439177
  23.7909880  67.1260148 109.6571543  25.0316011  66.5130651 110.6908228
  25.5847050  66.9326104 111.3498251  25.2686097  65.5866399 110.7331184
  20.2562182  69.7502650 103.0551669  21.1181346  70.0757548 103.3147486
  20.4412526  68.9634145 102.5424735  28.4094818  68.6231176 110.1986892
  27.8293487  69.2815980 109.8164944  28.1430751  67.8008521 109.7874310
  26.8598384  68.0236234 112.4008212  27.3598163  68.1352768 111.5922531
  27.5033992  67.7197287 113.0409021  27.1919696  70.7831266 109.2543240
  26.3045551  71.0680917 109.0363435  27.6073685  70.6225030 108.4070517
  30.5434232  70.8077787 112.9697580  31.3194622  71.2974240 113.2422196
  29.8182366  71.2335842 113.4269449  32.9806791  71.5205407 114.0271520
  33.5751282  71.2801143 113.3164828  33.0533375  70.8012537 114.6545056
  26.3362910  80.5475941 103.3491260  27.0398760  80.7525944 103.9648916
  25.6125558  81.1152703 103.6140344  27.1660720  76.2985802 109.4693530
  27.1095921  76.7554354 108.6301163  27.7189062  75.5376487 109.2916373
  30.9765526  72.0875534 110.2943650  30.7202460  71.6872170 111.1251858
  30.3518394  72.8019328 110.1693789  35.2877864  74.8271607 112.8014941
  34.7277422  74.8964797 113.5746503  34.6821367  74.6512592 112.0814438
  28.2449607  80.9858470 105.3989720  29.0795211  80.5539669 105.2167195
  28.0833950  80.8140484 106.3266615  27.8995499  77.4890584 106.7646060
  27.8444303  77.3234855 105.8234504  27.2741554  78.1966617 106.9208249
  21.2091625  66.9898693 106.3431378  21.1970294  67.9340533 106.4999649
  22.1015046  66.8068838 106.0490839  25.0243744  63.5841469 110.5977315
  24.2576140  63.0299956 110.7433997  25.4354449  63.6563338 111.4591466
  36.8733882  91.5028121 115.4944897  37.5112292  91.3834869 114.7908237
  36.7554725  92.4508965 115.5532849  33.6823588  91.4555550 115.4306422
  33.3442100  91.3396614 114.5426957  34.5513356  91.0546715 115.4107428
  29.5410404  93.3091026 111.4203313  28.9775269  93.2180963 110.6519600
  29.4262799  92.4890930 111.9005805  35.1209963  96.9761994 106.7317778
  34.4697942  97.5616074 106.3451791  35.9154326  97.5068189 106.7912815
  29.0465590  94.0651131 107.1304912  29.8196466  93.5180118 106.9917788
  29.3990989  94.9295380 107.3419373  31.8106839  92.7704362 116.9273171
  32.4070412  92.5460384 116.2130134  31.8681811  92.0289107 117.5298619
  31.3831868  90.2243797 104.7623362  31.6357388  89.7025318 104.0006825
  30.4456427  90.0609942 104.8650046  36.4275151  89.2279575 112.5698105
  37.2138240  88.8098998 112.2188522  36.6913855  90.1325667 112.7379754
  36.5985228  94.6652426 107.2686762  35.9631061  94.7387052 107.9807667
  36.2682634  95.2546024 106.5905841  41.8283578  89.1654808 113.4731084
  42.5608750  88.5954025 113.7068913  41.0722933  88.7776409 113.9137589
  31.1028156  92.1271903 106.9647737  30.9864415  91.4516806 107.6328821
  31.2130416  91.6404277 106.1479890  33.4459697  91.5882050 110.6694426
  33.0817905  91.0612671 111.3807348  34.3026813  91.1980519 110.4960912
  39.3508998  82.8776383 117.9325692  39.0192323  83.7471794 117.7086907
  38.7554611  82.5612667 118.6119723  33.0865184  86.6171950 105.6655775
  33.2539587  87.4852186 106.0326246  32.8962353  86.7799231 104.7417064
  35.8440518  95.0788929 117.3321605  35.5441241  95.9813967 117.2237412
  35.4991577  94.8121112 118.1842758  29.2952999  91.5302725 113.3658309
  28.3703495  91.3978940 113.5736001  29.5437412  92.3096945 113.8628252
  39.2437661  87.5971469 115.0119042  38.3354539  87.5286877 114.7177803
  39.1925257  88.0743414 115.8400868  33.0654405  89.0729607 106.6502441
  32.9454030  89.5186658 107.4887922  32.3706994  89.4214925 106.0915980
  30.8261297 101.8433249 110.2992573  30.7485327 102.7941074 110.3781053
  30.2222941 101.4979121 110.9567499  41.1099308  85.7987907 116.7896916
  40.4673688  86.0920440 116.1436711  40.6054236  85.6840827 117.5950113
  38.7639471  89.5451080 107.4782775  39.6757327  89.7778467 107.3030473
  38.2549118  90.1288125 106.9157854  33.4011309  88.9048315 118.4877625
  34.2472504  89.3287728 118.6312274  33.3409947  88.2481939 119.1816188
  37.3709054  94.5276899 114.8696357  36.7417916  94.6922613 114.1672425
  36.9834716  94.9418508 115.6407321  41.2498286  95.4631337 112.2240721
  40.5649324  95.8430238 111.6737754  41.3342135  96.0726663 112.9572668
  36.5510754  86.5652683 120.1458799  36.3071686  87.3194744 119.6093074
  36.8270685  86.9438031 120.9806046  38.5049217  93.1091296 118.8236064
  38.7166112  93.7523056 118.1470445  38.4578965  92.2753612 118.3557994
  36.1075446  85.7209116 115.7272636  35.2459925  86.0190370 116.0189374
  36.1337881  85.9379515 114.7953669  32.9237016  94.2651307 112.1346442
  33.3875361  94.5439010 111.3451065  32.6593814  93.3634751 111.9519533
  29.8161097  93.8122788 115.0726205  30.3862454  94.2410057 114.4343690
  30.4069208  93.5305373 115.7710391  31.8605902  90.3874459 108.9436007
  32.5629945  90.8395503 109.4109934  31.5286530  89.7458278 109.5715900
  25.6031236  88.6458012 114.2453141  24.8130290  88.9015540 113.7693251
  26.0942483  89.4606350 114.3505181  39.6195045  95.9863251 116.9958422
  40.4412489  95.5843438 116.7141103  39.6157448  95.8831485 117.9474537
  27.5545981  89.0102591 111.2036617  26.7577144  89.1221285 111.7220113
  27.3271573  89.3489243 110.3377508  47.7101038  92.3302000 113.3443393
  46.9564747  91.7609398 113.1887397  47.8448579  92.2964664 114.2914028
  33.0999666  97.2015402 109.0198112  32.9645341  98.0466938 109.4482960
  33.6409479  97.4034680 108.2564046  26.5529064  94.7190840 109.5926037
  27.0653584  95.5134090 109.7431602  27.2051776  94.0217130 109.5259639
  28.3623948  97.8356596 111.6748791  28.5390577  98.7574561 111.4869775
  29.1580782  97.5215015 112.1043170  36.4492130  80.7245964 117.5497006
  36.1056399  81.6147605 117.4736116  36.8171092  80.5347621 116.6866591
  24.5177980  93.0479494 110.3685608  25.3553202  93.4576503 110.1519316
  24.6956248  92.1078936 110.3385802  36.4142413  90.7154575 106.0569441
  35.8989036  91.4859179 106.2957828  36.1419721  90.0419711 106.6802502
  33.9989524  85.5604276 111.1154679  33.1431120  85.1711126 110.9360318
  34.4116475  85.6396236 110.2554465  35.5288670  83.0950619 115.5146239
  35.0253466  83.0580754 114.7014044  35.8219277  84.0043362 115.5742896
  31.7731556  83.1789349 114.5212421  32.6384553  82.9832157 114.1618310
  31.8409065  82.9499700 115.4481778  41.3876687  93.4686929 107.9922614
  40.6106129  93.1298089 107.5477777  42.0668168  93.4739553 107.3177580
  36.2028716  88.5881667 107.8829222  35.8978851  88.9027816 108.7339365
  37.1559158  88.6663087 107.9256555  34.6475148  94.7471890 109.5322176
  34.1196509  94.0124650 109.2195414  34.1462650  95.5246567 109.2862144
  39.6267994  92.9420911 114.6489222  38.9691668  93.6320172 114.7369351
  40.4308393  93.3317343 114.9923209  29.3793875  85.4091557 111.8928788
  29.9537627  85.1866738 111.1601981  29.9664858  85.4780251 112.6457389
  38.4373452  91.2965283 112.6993164  38.9505334  91.9295275 113.2014874
  39.0874676  90.6966479 112.3336524  29.7063462  87.4396018 105.9124673
  28.8700775  87.7770704 106.2333948  29.5668232  87.3044997 104.9751810
  31.6816543  82.2832805 110.6203857  31.0280955  81.9681823 109.9960472
  31.6397017  81.6608546 111.3463680  32.7927748  92.5652101 102.5357149
  31.8854809  92.3341354 102.7348298  33.2898780  91.7689720 102.7231131
  35.6995827 101.2749608 105.4553835  35.0257525 101.5781304 106.0638793
  36.0861649 102.0778688 105.1059292  34.9154283  88.7714739 114.9451505
  33.9976845  88.9929686 114.7873193  35.3314427  88.8461049 114.0863212
  35.6989331  90.1706155 110.0754185  36.4461150  90.6827552 109.7661307
  35.9680921  89.8490207 110.9358579  33.9715981  92.6664695 107.0581139
  33.0627200  92.3823728 107.1553609  34.0011065  93.0863774 106.1984446
  39.2035249  96.2771285 110.8272307  38.7497576  95.4362195 110.8837497
  38.5729215  96.9132683 111.1647087  38.1468168  87.2063271 112.0572974
  37.4090925  86.6940657 112.3883217  38.3994942  86.7663653 111.2456251
  37.6468188  98.1147782 111.7622125  37.9391162  98.6752839 111.0434491
  38.1566808  98.4076343 112.5175284  38.2479795  79.9839523 112.6514744
  38.5538672  79.1236886 112.3640659  38.9732400  80.5757143 112.4513737
  24.5404152  90.3870210 111.0396341  24.3428551  89.7939570 110.3147408
  23.9850816  90.0822420 111.7572280  32.5200875  90.2793316 113.1590935
  32.5749485  89.3267152 113.0833411  31.7092077  90.4352755 113.6432233
  33.6692069  94.2073439 104.3969218  33.2311499  93.4909298 103.9374855
  34.4102510  94.4349554 103.8354309  30.4593235  88.8970376 110.9181313
  29.6461101  89.1964546 111.3246506  30.9552229  88.5026065 111.6355796
  32.6101813  98.8928133 112.8515578  32.5677992  99.1188979 111.9224110
  33.5264512  98.6591507 113.0001379  36.0567447  89.3612200 119.7496207
  36.4116835  89.5883673 120.6090673  36.7039578  89.6930577 119.1273463
  41.7865184  92.4830636 110.4545536  41.6483082  92.6732232 109.5266726
  41.4301403  93.2450019 110.9113588  29.9507310  86.4688731 116.5342548
  30.5906689  86.3277490 115.8365512  29.1184840  86.1823245 116.1581150
  41.8134563  94.5507163 115.4656808  42.2471070  94.4582452 116.3139862
  42.5266144  94.5264664 114.8276824  30.7267614  95.7691162 112.6477541
  31.5208212  95.2741482 112.4460116  30.0159306  95.2409025 112.2845246
  27.0350377  89.9134243 108.7237294  26.1047965  89.8518699 108.9407256
  27.1307849  89.3910196 107.9273935  26.9535926  86.4389056 111.3115535
  27.2142744  87.3534389 111.2024696  27.7753099  85.9713499 111.4612148
  42.6750113  94.5930864 117.9989693  42.8686003  95.4976674 118.2448968
  42.5750731  94.1338283 118.8328278  34.3286424  84.4788754 120.4980021
  33.6814339  85.1778704 120.4044497  35.0987439  84.9124898 120.8656269
  34.5050558  92.3169519 118.5576840  35.4342618  92.4680679 118.3845808
  34.0841588  92.4053540 117.7025487  33.8987042 101.4429280 107.6700915
  34.0738797 100.9717323 108.4846537  33.2119830 102.0695046 107.8982175
  34.8544105  95.7201786 113.7164216  34.5193938  95.6802556 114.6121866
  34.3548051  95.0546502 113.2434626  37.7903297  93.0657821 103.9901275
  37.1732467  92.3404649 103.8934328  37.3219785  93.8267181 103.6468350
  29.5801842  87.2843245 103.1122580  28.7031309  87.1632046 102.7484826
  30.0559596  86.4929323 102.8601468  39.4474836  95.7396313 119.8821035
  38.5601614  95.4022235 120.0047434  40.0173387  95.0079344 120.1189801
  32.7665769  99.6369535 110.3585100  31.9833290 100.1791216 110.4523325
  33.4658514 100.1543515 110.7579341  36.0762419  85.4464165 113.0019306
  36.5731118  84.6934127 112.6820376  35.3049400  85.4828481 112.4362515
  43.9292176  91.1504530 114.6437597  43.9182052  92.0329246 114.2731530
  43.0609555  90.7976081 114.4492134  37.1592199  94.2035852 110.5757729
  36.2248478  94.3237315 110.4062433  37.3368868  93.3008319 110.3117739
  32.6597387  87.5881548 112.7290990  32.2895175  87.0352588 113.4171896
  33.1556480  86.9839681 112.1765990  40.5464751  90.0453171 111.1107763
  41.0125203  90.8781163 111.0368066  40.9972251  89.5798153 111.8153022
  38.6140982  96.3896993 108.1093915  38.8900826  96.2753587 109.0187789
  37.7445481  95.9914477 108.0706088  38.5181413  82.4133758 115.1498664
  37.6044493  82.6437985 115.3180871  38.9474515  82.4972202 116.0012697
  38.2887872  90.6023650 117.6498558  37.6359322  90.8499558 116.9951011
  38.6668252  89.7887788 117.3161036  35.2495046 100.6383343 111.7526729
  35.4317440  99.8204999 112.2154481  36.0728032 100.8551036 111.3151619
  35.5837211  99.5651529 109.0141777  36.1124978  99.0543983 108.4011939
  35.8465431  99.2494059 109.8787310  28.0562721  84.9985539 118.9744096
  28.1204048  85.8600370 118.5621494  27.9929841  84.3859540 118.2416455
  24.3080536  88.8785100 108.5535485  24.6033977  87.9695779 108.5002539
  23.4068572  88.8572840 108.2316488  36.2166615 100.5992364 115.3585894
  36.0917755  99.7982104 114.8496839  36.8745706 101.0938558 114.8699864
  27.8374783  86.9541097 114.5363034  27.1161369  87.5677065 114.3970507
  28.6268039  87.4898862 114.4579680  38.2801523  98.4001384 116.9865444
  37.3331859  98.2806736 116.9143771  38.6284297  97.5123882 117.0691705
  30.6401097  84.2895523 120.8103686  31.1635499  84.5357820 121.5729995
  30.4213430  85.1215558 120.3906823  26.0368378  86.5599198 108.6774811
  25.7081084  85.6796577 108.4949916  26.3907749  86.5046867 109.5651200
  35.2847957  98.1954101 113.1869796  35.1372919  97.2670808 113.3677366
  36.1101450  98.2174191 112.7026871  29.1510201  86.8472168 109.0450288
  29.4906274  87.3758089 108.3228897  29.5982322  87.1852574 109.8208855
  38.8882079  99.0182659 114.2734669  39.8128626  98.8125521 114.1359120
  38.7197382  98.7699061 115.1824010  31.8453642  85.2309218 118.4953356
  31.5050462  84.4317031 118.8974036  31.1392648  85.5310929 117.9230189
  32.4970114  82.3158531 116.9480679  33.3196183  81.8419009 116.8259570
  32.7408177  83.0949015 117.4479366  31.1378348  85.3446789 107.2443581
  31.8586711  85.7228042 106.7407298  30.5143652  86.0635666 107.3478559
  35.2809471  86.0491938 108.1801913  35.4973085  86.9316576 107.8790741
  34.8003538  85.6578152 107.4507555  30.0208692  89.0077651 114.7572658
  29.8753273  89.3217955 115.6496939  29.5433896  89.6262552 114.2043557
  31.8805075  85.9980199 114.8053547  31.8666644  85.1021293 114.4685845
  32.5977503  86.0050863 115.4391833  33.7331206  86.4317540 116.8506675
  33.4748984  87.3534610 116.8491005  33.2016246  86.0347974 117.5407139
  38.6777395  99.5368327 109.6296760  38.8514272  98.9714749 108.8770613
  39.1706286 100.3369222 109.4476250  31.2841971  84.8794580 110.0741118
  31.4057882  83.9511226 110.2732005  30.9944014  84.8933266 109.1619433
  34.1533162  82.5649490 113.2107837  34.1754859  82.6288823 112.2559817
  34.5701221  81.7253999 113.4048344  44.5316786  92.3004750 111.2487060
  44.9747932  91.5512075 110.8506183  43.6543296  92.2914886 110.8660792
  39.6652567  98.8535091 106.7293659  40.3603472  99.4741784 106.9480973
  40.0075717  98.0030442 107.0046036  41.5643990  96.3034797 108.2580989
  42.0895315  96.6422070 107.5330309  41.4766343  95.3681812 108.0744124
  41.3735772  93.7860167 120.8764916  41.4233776  93.6210174 121.8180439
  41.2649695  92.9187426 120.4862797  30.2572030  96.4648712 108.1657005
  30.4060151  97.1484177 107.5123677  31.0638474  96.4453803 108.6806460
  38.6639534  89.7691095 122.1924223  39.5649397  89.6297560 121.9008220
  38.7387508  89.9345550 123.1322400  32.9982339  87.1457950 121.0377409
  32.1285649  87.4391516 120.7659997  33.2341820  87.7298395 121.7584672
  42.8753968  96.2057108 121.1206937  42.5838777  96.5687089 121.9570398
  42.2626100  95.4924117 120.9420269  44.0749651  93.7709988 113.6409508
  44.9096542  94.2099792 113.8047068  44.2108780  93.2948641 112.8217753
  41.1241157  91.3289723 119.5886995  41.5995278  91.5217369 118.7805847
  40.2006722  91.3848909 119.3430379  28.0124663  92.4913890 109.1718074
  27.7670705  91.5876220 109.3698284  28.1820578  92.4931041 108.2297552
  35.7021373  83.3637566 118.5542829  36.2203317  84.0998593 118.2289318
  35.3476506  83.6701560 119.3889588  27.2820311  88.2242248 106.6704235
  26.5889556  88.2986603 106.0144271  27.0372063  87.4602591 107.1925752
  35.9533967  79.7837849 114.0743726  36.2335721  79.1161038 114.7004152
  36.7384574  79.9766945 113.5618390  33.7567436  98.9596843 105.6368752
  33.1841403  99.5787030 105.1839224  34.3300229  99.5096205 106.1708674
  39.8242826  88.2055483 117.8215301  40.7760249  88.3053581 117.8427525
  39.6546276  87.4133752 118.3313385  37.8457205  85.2911066 118.0074702
  37.2507137  85.5716079 117.3121190  37.5606902  85.7804967 118.7791443
  36.9764696  99.2433993 106.7677334  37.9095369  99.1779555 106.9710210
  36.8887908 100.0790260 106.3091867  39.6052712  98.5599863 103.7281282
  39.5266344  98.2259727 104.6217040  40.4262379  99.0521631 103.7272754
  42.3030903  91.4261603 116.9357601  42.2707224  90.4877603 117.1217284
  42.9131527  91.5045639 116.2023425  34.1414234  90.2957656 102.9784805
  35.0873339  90.1663864 103.0473223  33.7628479  89.5572318 103.4554233
  42.4525392  88.2172646 116.9815884  41.9364441  87.4331103 116.7945813
  43.3365340  87.8891363 117.1462403  40.1136119  81.9613662 112.9411696
  39.9160940  81.6528750 113.8255028  40.7235824  82.6875301 113.0709626
  48.1207453  92.4877610 116.0763637  48.8510842  92.2262898 116.6371341
  47.5114399  91.7506331 116.1165705  46.2022750  90.6285472 116.6738089
  45.4755914  90.4941437 116.0654580  45.7870037  90.9362301 117.4794807
  32.3257151  88.2207632 102.9139690  31.4188607  87.9240745 102.9902403
  32.6033132  87.9237450 102.0473976  33.9419217  82.7644522 109.0683931
  33.1319945  82.4191607 109.4439177  34.6303634  82.4552065 109.6571543
  35.8709765  81.8422569 110.6908228  36.4240804  82.2618022 111.3498251
  36.1079852  80.9158317 110.7331184  31.0955936  85.0794567 103.0551669
  31.9575100  85.4049466 103.3147486  31.2806280  84.2926063 102.5424735
  39.2488573  83.9523094 110.1986892  38.6687242  84.6107898 109.8164944
  38.9824505  83.1300438 109.7874310  37.6992139  83.3528151 112.4008212
  38.1991917  83.4644686 111.5922531  38.3427747  83.0489204 113.0409021
  38.0313451  86.1123184 109.2543240  37.1439306  86.3972835 109.0363435
  38.4467440  85.9516947 108.4070517  41.3827987  86.1369705 112.9697580
  42.1588377  86.6266158 113.2422196  40.6576121  86.5627759 113.4269449
  43.8200545  86.8497324 114.0271520  44.4145036  86.6093060 113.3164828
  43.8927129  86.1304455 114.6545056  37.1756664  95.8767859 103.3491260
  37.8792514  96.0817861 103.9648916  36.4519313  96.4444621 103.6140344
  38.0054474  91.6277720 109.4693530  37.9489676  92.0846271 108.6301163
  38.5582817  90.8668405 109.2916373  41.8159280  87.4167452 110.2943650
  41.5596214  87.0164088 111.1251858  41.1912148  88.1311246 110.1693789
  46.1271618  90.1563525 112.8014941  45.5671176  90.2256714 113.5746503
  45.5215121  89.9804510 112.0814438  39.0843361  96.3150388 105.3989720
  39.9188965  95.8831586 105.2167195  38.9227704  96.1432402 106.3266615
  38.7389254  92.8182501 106.7646060  38.6838057  92.6526773 105.8234504
  38.1135309  93.5258534 106.9208249  32.0485379  82.3190610 106.3431378
  32.0364049  83.2632450 106.4999649  32.9408801  82.1360756 106.0490839
  35.8637499  78.9133387 110.5977315  35.0969894  78.3591874 110.7433997
  36.2748203  78.9855256 111.4591466  40.3804158 108.6382944 111.4203313
  39.8169024 108.5472881 110.6519600  40.2656554 107.8182848 111.9005805
  45.9603717 112.3053911 106.7317778  45.3091697 112.8907992 106.3451791
  46.7548080 112.8360106 106.7912815  39.8859344 109.3943048 107.1304912
  40.6590220 108.8472036 106.9917788  40.2384743 110.2587298 107.3419373
  42.2225622 105.5535715 104.7623362  42.4751143 105.0317236 104.0006825
  41.2850181 105.3901860 104.8650046  47.2668905 104.5571493 112.5698105
  48.0531994 104.1390916 112.2188522  47.5307609 105.4617585 112.7379754
  47.4378982 109.9944343 107.2686762  46.8024815 110.0678970 107.9807667
  47.1076389 110.5837942 106.5905841  41.9421911 107.4563821 106.9647737
  41.8258169 106.7808724 107.6328821  42.0524171 106.9696194 106.1479890
  44.2853452 106.9173968 110.6694426  43.9211659 106.3904589 111.3807348
  45.1420568 106.5272437 110.4960912  43.9258939 101.9463867 105.6655775
  44.0933341 102.8144104 106.0326246  43.7356108 102.1091149 104.7417064
  40.1346753 106.8594643 113.3658309  39.2097250 106.7270857 113.5736001
  40.3831167 107.6388862 113.8628252  43.9048160 104.4021525 106.6502441
  43.7847785 104.8478576 107.4887922  43.2100748 104.7506843 106.0915980
  49.6033226 104.8742998 107.4782775  50.5151082 105.1070385 107.3030473
  49.0942873 105.4580042 106.9157854  46.9469201 101.0501034 115.7272636
  46.0853680 101.3482288 116.0189374  46.9731635 101.2671433 114.7953669
  43.7630770 109.5943225 112.1346442  44.2269116 109.8730928 111.3451065
  43.4987568 108.6926669 111.9519533  42.6999656 105.7166377 108.9436007
  43.4023699 106.1687421 109.4109934  42.3680285 105.0750196 109.5715900
  36.4424990 103.9749930 114.2453141  35.6524044 104.2307458 113.7693251
  36.9336237 104.7898267 114.3505181  38.3939735 104.3394509 111.2036617
  37.5970899 104.4513203 111.7220113  38.1665328 104.6781161 110.3377508
  43.9393421 112.5307320 109.0198112  43.8039096 113.3758855 109.4482960
  44.4803233 112.7326597 108.2564046  37.3922818 110.0482758 109.5926037
  37.9047339 110.8426008 109.7431602  38.0445531 109.3509048 109.5259639
  39.2017703 113.1648514 111.6748791  39.3784331 114.0866479 111.4869775
  39.9974536 112.8506933 112.1043170  47.2885884  96.0537881 117.5497006
  46.9450154  96.9439523 117.4736116  47.6564847  95.8639539 116.6866591
  35.3571735 108.3771412 110.3685608  36.1946957 108.7868420 110.1519316
  35.5350003 107.4370854 110.3385802  47.2536167 106.0446493 106.0569441
  46.7382790 106.8151097 106.2957828  46.9813475 105.3711629 106.6802502
  44.8383278 100.8896193 111.1154679  43.9824874 100.5003044 110.9360318
  45.2510230 100.9688154 110.2554465  46.3682425  98.4242537 115.5146239
  45.8647220  98.3872672 114.7014044  46.6613032  99.3335279 115.5742896
  42.6125311  98.5081266 114.5212421  43.4778307  98.3124075 114.1618310
  42.6802819  98.2791618 115.4481778  52.2270441 108.7978847 107.9922614
  51.4499884 108.4590007 107.5477777  52.9061922 108.8031470 107.3177580
  47.0422470 103.9173585 107.8829222  46.7372606 104.2319734 108.7339365
  47.9952912 103.9955005 107.9256555  45.4868902 110.0763808 109.5322176
  44.9590264 109.3416568 109.2195414  44.9856405 110.8538484 109.2862144
  40.2187630 100.7383474 111.8928788  40.7931382 100.5158656 111.1601981
  40.8058612 100.8072169 112.6457389  40.5457217 102.7687935 105.9124673
  39.7094529 103.1062622 106.2333948  40.4061986 102.6336915 104.9751810
  42.5210297  97.6124723 110.6203857  41.8674710  97.2973740 109.9960472
  42.4790771  96.9900464 111.3463680  43.6321502 107.8944018 102.5357149
  42.7248564 107.6633272 102.7348298  44.1292534 107.0981637 102.7231131
  46.5389581 116.6041525 105.4553835  45.8651280 116.9073222 106.0638793
  46.9255403 117.4070606 105.1059292  45.7548038 104.1006657 114.9451505
  44.8370599 104.3221604 114.7873193  46.1708181 104.1752967 114.0863212
  46.5383085 105.4998072 110.0754185  47.2854904 106.0119470 109.7661307
  46.8074675 105.1782125 110.9358579  44.8109736 107.9956613 107.0581139
  43.9020955 107.7115646 107.1553609  44.8404819 108.4155692 106.1984446
  48.9861923 102.5355189 112.0572974  48.2484679 102.0232575 112.3883217
  49.2388696 102.0955570 111.2456251  49.0873550  95.3131441 112.6514744
  49.3932427  94.4528804 112.3640659  49.8126155  95.9049061 112.4513737
  35.3797906 105.7162127 111.0396341  35.1822306 105.1231488 110.3147408
  34.8244570 105.4114337 111.7572280  43.3594630 105.6085234 113.1590935
  43.4143239 104.6559070 113.0833411  42.5485832 105.7644673 113.6432233
  44.5085823 109.5365357 104.3969218  44.0705253 108.8201216 103.9374855
  45.2496264 109.7641472 103.8354309  41.2986990 104.2262293 110.9181313
  40.4854855 104.5256464 111.3246506  41.7945984 103.8317982 111.6355796
  52.6258938 107.8122554 110.4545536  52.4876837 108.0024150 109.5266726
  52.2695157 108.5741937 110.9113588  40.7901064 101.7980649 116.5342548
  41.4300444 101.6569408 115.8365512  39.9578595 101.5115162 116.1581150
  41.5661368 111.0983079 112.6477541  42.3601967 110.6033399 112.4460116
  40.8553061 110.5700942 112.2845246  37.8744132 105.2426161 108.7237294
  36.9441720 105.1810617 108.9407256  37.9701604 104.7202114 107.9273935
  37.7929681 101.7680974 111.3115535  38.0536498 102.6826307 111.2024696
  38.6146853 101.3005416 111.4612148  44.7380796 116.7721198 107.6700915
  44.9132552 116.3009241 108.4846537  44.0513584 117.3986964 107.8982175
  48.6297051 108.3949738 103.9901275  48.0126222 107.6696567 103.8934328
  48.1613540 109.1559099 103.6468350  40.4195597 102.6135163 103.1122580
  39.5425063 102.4923963 102.7484826  40.8953350 101.8221241 102.8601468
  46.9156173 100.7756083 113.0019306  47.4124873 100.0226045 112.6820376
  46.1443155 100.8120399 112.4362515  47.9985954 109.5327770 110.5757729
  47.0642233 109.6529232 110.4062433  48.1762622 108.6300237 110.3117739
  43.4991142 102.9173466 112.7290990  43.1288929 102.3644506 113.4171896
  43.9950234 102.3131599 112.1765990  51.3858505 105.3745089 111.1107763
  51.8518957 106.2073081 111.0368066  51.8366006 104.9090071 111.8153022
  49.4534736 111.7188910 108.1093915  49.7294580 111.6045505 109.0187789
  48.5839235 111.3206395 108.0706088  49.3575168  97.7425676 115.1498664
  48.4438248  97.9729903 115.3180871  49.7868269  97.8264120 116.0012697
  46.4230966 114.8943446 109.0141777  46.9518732 114.3835901 108.4011939
  46.6859185 114.5785976 109.8787310  38.8956476 100.3277456 118.9744096
  38.9597802 101.1892287 118.5621494  38.8323596  99.7151458 118.2416455
  35.1474291 104.2077018 108.5535485  35.4427732 103.2987696 108.5002539
  34.2462327 104.1864757 108.2316488  38.6768538 102.2833014 114.5363034
  37.9555124 102.8968982 114.3970507  39.4661794 102.8190779 114.4579680
  36.8762132 101.8891116 108.6774811  36.5474839 101.0088495 108.4949916
  37.2301503 101.8338784 109.5651200  39.9903956 102.1764085 109.0450288
  40.3300028 102.7050007 108.3228897  40.4376076 102.5144492 109.8208855
  42.6847396 100.5601136 118.4953356  42.3444217  99.7608949 118.8974036
  41.9786403 100.8602847 117.9230189  43.3363868  97.6450449 116.9480679
  44.1589938  97.1710927 116.8259570  43.5801932  98.4240932 117.4479366
  41.9772103 100.6738707 107.2443581  42.6980465 101.0519960 106.7407298
  41.3537407 101.3927584 107.3478559  46.1203226 101.3783856 108.1801913
  46.3366840 102.2608494 107.8790741  45.6397293 100.9870069 107.4507555
  40.8602447 104.3369569 114.7572658  40.7147028 104.6509872 115.6496939
  40.3827651 104.9554470 114.2043557  42.7198830 101.3272117 114.8053547
  42.7060399 100.4313210 114.4685845  43.4371258 101.3342781 115.4391833
  44.5724961 101.7609457 116.8506675  44.3142738 102.6826528 116.8491005
  44.0410001 101.3639892 117.5407139  42.1235726 100.2086497 110.0741118
  42.2451637  99.2803144 110.2732005  41.8337768 100.2225183 109.1619433
  44.9926916  97.8941408 113.2107837  45.0148613  97.9580741 112.2559817
  45.4094975  97.0545917 113.4048344  50.5046322 114.1827009 106.7293659
  51.1997226 114.8033702 106.9480973  50.8469472 113.3322360 107.0046036
  52.4037745 111.6326714 108.2580989  52.9289069 111.9713987 107.5330309
  52.3160097 110.6973730 108.0744124  41.0965785 111.7940630 108.1657005
  41.2453905 112.4776095 107.5123677  41.9032228 111.7745720 108.6806460
  38.8518418 107.8205808 109.1718074  38.6064460 106.9168138 109.3698284
  39.0214332 107.8222958 108.2297552  38.1214065 103.5534165 106.6704235
  37.4283310 103.6278520 106.0144271  37.8765817 102.7894509 107.1925752
  46.7927722  95.1129767 114.0743726  47.0729476  94.4452956 114.7004152
  47.5778329  95.3058862 113.5618390  44.5961190 114.2888761 105.6368752
  44.0235157 114.9078948 105.1839224  45.1693984 114.8388122 106.1708674
  47.8158450 114.5725911 106.7677334  48.7489123 114.5071472 106.9710210
  47.7281663 115.4082178 106.3091867  50.4446467 113.8891781 103.7281282
  50.3660098 113.5551645 104.6217040  51.2656134 114.3813549 103.7272754
  44.9807989 105.6249573 102.9784805  45.9267093 105.4955781 103.0473223
  44.6022234 104.8864235 103.4554233  50.9529873  97.2905579 112.9411696
  50.7554694  96.9820668 113.8255028  51.5629579  98.0167218 113.0709626
  43.1650906 103.5499550 102.9139690  42.2582361 103.2532662 102.9902403
  43.4426887 103.2529368 102.0473976  44.7812972  98.0936439 109.0683931
  43.9713700  97.7483524 109.4439177  45.4697389  97.7843983 109.6571543
  46.7103520  97.1714486 110.6908228  47.2634559  97.5909940 111.3498251
  46.9473606  96.2450234 110.7331184  41.9349691 100.4086485 103.0551669
  42.7968855 100.7341383 103.3147486  42.1200035  99.6217981 102.5424735
  50.0882327  99.2815011 110.1986892  49.5080996  99.9399815 109.8164944
  49.8218260  98.4592356 109.7874310  48.5385893  98.6820069 112.4008212
  49.0385672  98.7936604 111.5922531  49.1821501  98.3781122 113.0409021
  48.8707205 101.4415102 109.2543240  47.9833060 101.7264752 109.0363435
  49.2861194 101.2808865 108.4070517  52.2221741 101.4661623 112.9697580
  52.9982131 101.9558075 113.2422196  51.4969875 101.8919677 113.4269449
  48.0150419 111.2059776 103.3491260  48.7186269 111.4109779 103.9648916
  47.2913067 111.7736538 103.6140344  48.8448229 106.9569638 109.4693530
  48.7883430 107.4138189 108.6301163  49.3976571 106.1960322 109.2916373
  52.6553035 102.7459370 110.2943650  52.3989969 102.3456005 111.1251858
  52.0305903 103.4603164 110.1693789  49.9237116 111.6442306 105.3989720
  50.7582720 111.2123504 105.2167195  49.7621459 111.4724319 106.3266615
  49.5783008 108.1474419 106.7646060  49.5231812 107.9818690 105.8234504
  48.9529063 108.8550452 106.9208249  42.8879134  97.6482528 106.3431378
  42.8757803  98.5924368 106.4999649  43.7802555  97.4652673 106.0490839
  46.7031253  94.2425305 110.5977315  45.9363649  93.6883791 110.7433997
  47.1141958  94.3147173 111.4591466  51.3850971 118.0979853 105.9124673
  50.5488284 118.4354539 106.2333948  51.2455741 117.9628833 104.9751810
  51.2589351 117.9427080 103.1122580  50.3818818 117.8215881 102.7484826
  51.7347105 117.1513159 102.8601468  48.9607820 118.8826083 106.6704235
  48.2677065 118.9570438 106.0144271  48.7159572 118.1186427 107.1925752
  54.0044660 118.8791467 102.9139690  53.0976116 118.5824580 102.9902403
  54.2820641 118.5821285 102.0473976  52.7743445 115.7378403 103.0551669
  53.6362609 116.0633301 103.3147486  52.9593789 114.9509899 102.5424735
  53.7272888 112.9774446 106.3431378  53.7151558 113.9216286 106.4999649
  54.6196310 112.7944591 106.0490839   3.1814564  32.2935977  92.1799142
   2.5076263  32.5967674  92.7884100   3.5680386  33.0965058  91.8304599
   7.1471305  29.8721461  93.4538965   7.8422210  30.4928153  93.6726280
   7.4894455  29.0216812  93.7291343   1.2386174  29.9783212  92.3614059
   0.6660141  30.5973400  91.9084531   1.8118967  30.5282574  92.8953981
   4.4583433  30.2620363  93.4922641   5.3914107  30.1965924  93.6955517
   4.3706646  31.0976629  93.0337174   7.0871450  29.5786233  90.4526589
   7.0085082  29.2446097  91.3462347   7.9081117  30.0708001  90.4518061
   4.6575402  26.8954228  90.0736567   5.3611252  27.1004231  90.6894223
   3.9338051  27.4630990  90.3385650   6.5662099  27.3336758  92.1235027
   7.4007703  26.9017956  91.9412502   6.4046442  27.1618771  93.0511921
  15.1946374  37.8506409 102.2190204  15.8324784  37.7313156 101.5153544
  15.0767217  38.7987253 102.2778156   7.8622896  39.6569313  98.1448619
   7.2987761  39.5659250  97.3764907   7.7475291  38.8369218  98.6251112
  13.4422455  43.3240281  93.4563084  12.7910435  43.9094361  93.0697098
  14.2366818  43.8546476  93.5158122   7.3678082  40.4129418  93.8550219
   8.1408958  39.8658405  93.7163094   7.7203481  41.2773667  94.0664680
   9.7044360  36.5722084  91.4868669   9.9569881  36.0503605  90.7252132
   8.7668919  36.4088230  91.5895352  14.7487643  35.5757862  99.2943412
  15.5350732  35.1577286  98.9433829  15.0126347  36.4803955  99.4625060
  14.9197720  41.0130713  93.9932069  14.2843553  41.0865339  94.7052973
  14.5895127  41.6024312  93.3151148  20.1496070  35.5133096 100.1976390
  20.8821242  34.9432313 100.4314220  19.3935426  35.1254696 100.6382896
   9.4240649  38.4750190  93.6893044   9.3076907  37.7995093  94.3574128
   9.5342909  37.9882564  92.8725197  11.7672190  37.9360337  97.3939733
  11.4030397  37.4090958  98.1052654  12.6239306  37.5458806  97.2206218
  11.4077677  32.9650237  92.3901081  11.5752079  33.8330473  92.7571552
  11.2174846  33.1277519  91.4662371  11.3866897  35.4207894  93.3747748
  11.2666523  35.8664945  94.2133228  10.6919486  35.7693212  92.8161286
   9.1473790  48.1911536  97.0237879   9.0697819  49.1419361  97.1026360
   8.5435433  47.8457409  97.6812806  17.0851964  35.8929368  94.2028082
  17.9969820  36.1256754  94.0275780  16.5761611  36.4766412  93.6403161
  15.6921546  40.8755186 101.5941664  15.0630408  41.0400900 100.8917731
  15.3047208  41.2896796 102.3652628  19.5710778  41.8109624  98.9486027
  18.8861816  42.1908525  98.3983061  19.6554627  42.4204951  99.6817975
  11.2449508  40.6129594  98.8591749  11.7087853  40.8917297  98.0696371
  10.9806306  39.7113039  98.6764839  10.1818394  36.7352746  95.6681314
  10.8842437  37.1873790  96.1355240   9.8499022  36.0936565  96.2961207
  17.9407537  42.3341538 103.7203728  18.7624981  41.9321726 103.4386410
  17.9369940  42.2309772 104.6719844  26.0313530  38.6780287 100.0688700
  25.2777239  38.1087685  99.9132704  26.1661072  38.6442951 101.0159334
  11.4212159  43.5493689  95.7443419  11.2857833  44.3945225  96.1728267
  11.9621971  43.7512967  94.9809353   4.8741556  41.0669127  96.3171344
   5.3866076  41.8612377  96.4676909   5.5264269  40.3695418  96.2504946
   6.6836441  44.1834883  98.3994097   6.8603069  45.1052848  98.2115081
   7.4793274  43.8693303  98.8288477   7.8067756  45.7013057 104.4004440
   8.3575181  45.5730121 103.6281434   6.9679232  46.0007946 104.0499332
   2.8390473  39.3957781  97.0930915   3.6765695  39.8054790  96.8764622
   3.0168740  38.4557224  97.0631109  14.7354905  37.0632862  92.7814748
  14.2201528  37.8337467  93.0203135  14.4632213  36.3897998  93.4047809
  12.3202016  31.9082563  97.8399986  11.4643612  31.5189413  97.6605625
  12.7328968  31.9874524  96.9799772  19.7089179  39.8165217  94.7167921
  18.9318622  39.4776376  94.2723083  20.3880660  39.8217840  94.0422886
  14.5241208  34.9359954  94.6074529  14.2191344  35.2506103  95.4584672
  15.4771650  35.0141374  94.6501862  12.9687640  41.0950178  96.2567483
  12.4409001  40.3602937  95.9440720  12.4675143  41.8724854  96.0107451
  17.9480486  39.2899198 101.3734529  17.2904160  39.9798459 101.4614658
  18.7520885  39.6795630 101.7168515  16.7585945  37.6443571  99.4238471
  17.2717826  38.2773563  99.9260181  17.4087169  37.0444766  99.0581831
   8.0275955  33.7874305  92.6369980   7.1913267  34.1248991  92.9579254
   7.8880724  33.6523285  91.6997117  11.1140240  38.9130388  89.2602456
  10.2067302  38.6819641  89.4593605  11.6111272  38.1168007  89.4476437
  14.0208319  47.6227895  92.1799142  13.3470018  47.9259592  92.7884100
  14.4074141  48.4256975  91.8304599  14.0201823  36.5184442  96.7999492
  14.7673642  37.0305839  96.4906614  14.2893413  36.1968495  97.6603885
  12.2928473  39.0142983  93.7826446  11.3839693  38.7302015  93.8798916
  12.3223557  39.4342061  92.9229753  17.5247741  42.6249572  97.5517613
  17.0710068  41.7840482  97.6082804  16.8941708  43.2610971  97.8892394
  16.4680660  33.5541558  98.7818281  15.7303417  33.0418944  99.1128523
  16.7207434  33.1141940  97.9701558  15.9680680  44.4626069  98.4867432
  16.2603654  45.0231126  97.7679797  16.4779301  44.7554630  99.2420591
  10.8413367  36.6271603  99.8836241  10.8961977  35.6745440  99.8078718
  10.0304570  36.7831042 100.3677540  11.9904561  40.5551726  91.1214524
  11.5523991  39.8387585  90.6620162  12.7315002  40.7827841  90.5599616
   8.7805727  35.2448663  97.6426620   7.9673593  35.5442834  98.0491812
   9.2764722  34.8504352  98.3601102  10.9314305  45.2406420  99.5760885
  10.8890484  45.4667266  98.6469417  11.8477004  45.0069794  99.7246686
  20.1077676  38.8308923  97.1790843  19.9695575  39.0210519  96.2512032
  19.7513895  39.5928306  97.6358894  20.1347056  40.8985450 102.1902115
  20.5683562  40.8060739 103.0385169  20.8478636  40.8742951 101.5522131
   9.0480106  42.1169449  99.3722848   9.8420705  41.6219769  99.1705422
   8.3371798  41.5887312  99.0090553  13.8674951  44.4987544 103.7235215
  13.9211973  45.0678481 104.4912931  12.9989732  44.6689429 103.3589252
   5.3562870  36.2612531  95.4482600   4.4260458  36.1996986  95.6652562
   5.4520342  35.7388483  94.6519241  20.9962605  40.9409151 104.7235000
  21.1898495  41.8454962 104.9694275  20.8963223  40.4816570 105.5573585
  11.6251382  42.6898471 103.0520685  11.4862468  42.3217255 103.9246623
  10.8365978  43.2046110 102.8804642  12.2199534  47.7907567  94.3946221
  12.3951290  47.3195611  95.2091844  11.5332322  48.4173334  94.6227482
  13.1756597  42.0680074 100.4409522  12.8406430  42.0280844 101.3367172
  12.6760543  41.4024790  99.9679933  16.1115789  39.4136108  90.7146582
  15.4944959  38.6882936  90.6179635  15.6432277  40.1745468  90.3713656
   6.7860619  50.9396930 101.1686081   7.0257218  51.5715454 101.8465100
   5.9429816  50.5884970 101.4551441   7.9014335  33.6321532  89.8367886
   7.0243801  33.5110333  89.4730133   8.3772088  32.8407611  89.5846775
  11.2988481  46.7476053 103.5727585  11.2258653  47.5531024 104.0846890
  10.8565874  46.9468018 102.7475607  11.0878261  45.9847823  97.0830407
  10.3045783  46.5269503  97.1768631  11.7871006  46.5021802  97.4824648
  22.2504668  37.4982818 101.3682904  22.2394545  38.3807533 100.9976837
  21.3822048  37.1454368 101.1737441  13.7587165  46.6462887 105.7285744
  14.4715137  47.2810351 105.6561645  13.2677193  46.7426753 104.9125746
  15.4804692  40.5514139  97.3003036  14.5460970  40.6715602  97.1307740
  15.6581360  39.6486606  97.0363045  18.8677243  36.3931459  97.8353070
  19.3337695  37.2259450  97.7613372  19.3184743  35.9276440  98.5398328
  16.9353474  42.7375280  94.8339222  17.2113318  42.6231874  95.7433096
  16.0657973  42.3392765  94.7951395  13.5707538  46.9861631  98.4772035
  13.7529933  46.1683287  98.9399788  14.3940524  47.2029323  98.0396925
  13.9049704  45.9129816  95.7387084  14.4337470  45.4022270  95.1257246
  14.1677923  45.5972346  96.6032617   7.2605452  46.9644933  98.4984860
   6.5915827  47.4491060  98.0148900   7.1218321  47.2114153  99.4128238
  11.4010720  48.9988676 105.0967518  11.9529028  49.1620298 105.8616603
  11.7416914  49.5893114 104.4247543   2.6293029  35.2263387  95.2780792
   2.9246470  34.3174066  95.2247846   1.7281064  35.2051127  94.9561794
  14.5379107  46.9470652 102.0831200  14.4130247  46.1460391 101.5742146
  15.1958198  47.4416845 101.5945170  16.6014016  44.7479672 103.7110750
  15.6544351  44.6285023 103.6389077  16.9496789  43.8602170 103.7937012
  13.6060449  44.5432388  99.9115103  13.4585411  43.6149095 100.0922673
  14.4313943  44.5652479  99.4272178   7.4722693  33.1950455  95.7695595
   7.8118766  33.7236376  95.0474203   7.9194814  33.5330861  96.5454161
  17.2094571  45.3660947 100.9979975  18.1341118  45.1603808 100.8604427
  17.0409874  45.1177348 101.9069317   9.4590840  31.6925077  93.9688888
  10.1799203  32.0706329  93.4652604   8.8356145  32.4113953  94.0723866
  13.6021963  32.3970226  94.9047220  13.8185578  33.2794863  94.6036048
  13.1216031  32.0056439  94.1752862  16.9989887  45.8846614  96.3542067
  17.1726765  45.3193037  95.6015919  17.4918778  46.6847509  96.1721557
  22.8529278  38.6483037  97.9732367  23.2960424  37.8990362  97.5751490
  21.9755789  38.6393173  97.5906099  17.9865060  45.2013378  93.4538965
  18.6815964  45.8220071  93.6726280  18.3288210  44.3508730  93.7291343
  19.8856483  42.6513084  94.9826296  20.4107807  42.9900357  94.2575616
  19.7978835  41.7160099  94.7989431  11.5697143  48.7185067  99.3421549
  11.1302134  48.2261446 100.0354406  12.3205260  48.1758035  99.1013624
   4.0489482  44.9096608  99.3446177   4.8747502  44.6100380  98.9644821
   3.6983534  44.1404231  99.7935966   9.0171016  44.2623076 101.4143851
   8.3951025  43.5993781 101.1146079   9.6875883  44.2884208 100.7317499
   8.5784523  42.8127000  94.8902311   8.7272643  43.4962464  94.2368984
   9.3850966  42.7932090  95.4051767  22.3962143  40.1188275 100.3654814
  23.2309034  40.5578079 100.5292375  22.5321272  39.6426929  99.5463060
   6.3337156  38.8392177  95.8963380   6.0883197  37.9354507  96.0943590
   6.5033070  38.8409328  94.9542858   5.6032803  34.5720535  93.3949542
   4.9102048  34.6464890  92.7389578   5.3584555  33.8080879  93.9171059
  12.0779928  45.3075130  92.3614059  11.5053895  45.9265317  91.9084531
  12.6512722  45.8574492  92.8953981  15.2977188  45.5912280  93.4922641
  16.2307861  45.5257842  93.6955517  15.2100401  46.4268547  93.0337174
  17.9265205  44.9078151  90.4526589  17.8478836  44.5738014  91.3462347
  18.7474871  45.3999919  90.4518061  20.6243396  37.7739890 103.6602907
  20.5919716  36.8355891 103.8462591  21.2344019  37.8523927 102.9268732
  12.4626727  36.6435943  89.7030111  13.4085831  36.5142151  89.7718529
  12.0840972  35.9050605  90.1799539  26.4419946  38.8355897 102.8008944
  27.1723334  38.5741185 103.3616647  25.8326891  38.0984619 102.8411012
  24.5235243  36.9763759 103.3983395  23.7968406  36.8419724 102.7899887
  24.1082530  37.2840588 104.2040113  10.6469644  34.5685919  89.6384996
   9.7401099  34.2719032  89.7147710  10.9245625  34.2715737  88.7719283
  12.2631709  29.1122809  95.7929238  11.4532438  28.7669894  96.1684484
  12.9516126  28.8030353  96.3816849   9.4168428  31.4272854  89.7796976
  10.2787592  31.7527753  90.0392793   9.6018772  30.6404350  89.2670041
  17.5701065  30.3001381  96.9232199  16.9899734  30.9586185  96.5410251
  17.3036997  29.4778726  96.5119616  16.3525943  32.4601471  95.9788547
  15.4651798  32.7451122  95.7608742  16.7679932  32.2995235  95.1315824
  19.7040479  32.4847992  99.6942886  20.4800869  32.9744445  99.9667503
  18.9788613  32.9106047 100.1514756  22.1413038  33.1975612 100.7516827
  22.7357528  32.9571347 100.0410135  22.2139621  32.4782742 101.3790363
   4.3610193  47.0409222 101.0659992   4.2264661  46.2809623 100.4997990
   3.9442256  47.7650122 100.5988781  15.4969156  42.2246146  90.0736567
  16.2005006  42.4296149  90.6894223  14.7731805  42.7922908  90.3385650
  16.3266967  37.9756007  96.1938837  16.2702168  38.4324559  95.3546470
  16.8795309  37.2146692  96.0161680  20.1371772  33.7645739  97.0188957
  19.8808707  33.3642375  97.8497164  19.5124641  34.4789533  96.8939096
  24.4484110  36.5041812  99.5260248  23.8883668  36.5735002 100.2991810
  23.8427614  36.3282797  98.8059744   7.5179319  47.9378540 101.2778434
   7.4011703  48.8823972 101.1757125   6.6971765  47.6352101 101.6664233
  17.4055854  42.6628675  92.1235027  18.2401458  42.2309874  91.9412502
  17.2440197  42.4910689  93.0511921  17.0601746  39.1660789  93.4891366
  17.0050550  39.0005060  92.5479810  16.4347801  39.8736821  93.6453556
  10.3697871  28.6668898  93.0676685  10.3576541  29.6110737  93.2244956
  11.2621293  28.4839043  92.7736146   8.5433833  48.5906801 104.4934363
   9.4461080  48.6230412 104.8100858   8.3171203  47.6607252 104.5080699
  10.2987435  47.3437788 101.1544441   9.3483066  47.3439650 101.0408814
  10.6019921  46.5970523 100.6380476  26.0340129  53.1798326 102.2190204
  26.6718539  53.0605074 101.5153544  25.9160972  54.1279170 102.2778156
  22.8429835  53.1325754 102.1551728  22.5048347  53.0166819 101.2672263
  23.7119603  52.7316920 102.1352735  18.7016651  54.9861231  98.1448619
  18.1381516  54.8951168  97.3764907  18.5869046  54.1661135  98.6251112
  23.3249618  54.2860606 108.1137934  23.3138259  53.8913404 107.2418438
  23.4870258  53.5526679 108.7071705  16.2481083  56.4812422 100.9832840
  17.0402375  56.1403247 100.5679139  16.4877733  56.5907397 101.9034993
  24.2816209  58.6532199  93.4563084  23.6304189  59.2386279  93.0697098
  25.0760572  59.1838393  93.5158122  18.2071837  55.7421336  93.8550219
  18.9802713  55.1950323  93.7163094  18.5597236  56.6065585  94.0664680
  20.0456879  57.0697718 107.0617118  19.7546745  57.9743349 106.9463784
  20.6813864  57.1114246 107.7761187  20.9713086  54.4474566 103.6518478
  21.5676658  54.2230589 102.9375441  21.0288058  53.7059312 104.2543925
  20.5438114  51.9014002  91.4868669  20.7963635  51.3795523  90.7252132
  19.6062674  51.7380147  91.5895352  25.5881397  50.9049780  99.2943412
  26.3744487  50.4869203  98.9433829  25.8520102  51.8095872  99.4625060
  25.7591475  56.3422630  93.9932069  25.1237308  56.4157257  94.7052973
  25.4288881  56.9316229  93.3151148  20.2634403  53.8042108  93.6893044
  20.1470661  53.1287011  94.3574128  20.3736663  53.3174482  92.8725197
  22.6065944  53.2652255  97.3939733  22.2424151  52.7382876  98.1052654
  23.4633060  52.8750724  97.2206218  28.5115245  44.5546587 104.6570999
  28.1798570  45.4241998 104.4332214  27.9160858  44.2382871 105.3365029
  22.2471431  48.2942155  92.3901081  22.4145833  49.1622391  92.7571552
  22.0568600  48.4569436  91.4662371  25.0046764  56.7559133 104.0566912
  24.7047487  57.6584172 103.9482719  24.6597824  56.4891317 104.9088065
  18.4559246  53.2072930 100.0903616  17.5309742  53.0749144 100.2981308
  18.7043659  53.9867150 100.5873558  28.4043908  49.2741674 101.7364349
  27.4960785  49.2057082 101.4423110  28.3531504  49.7513619 102.5646174
  22.2260652  50.7499812  93.3747748  22.1060277  51.1956863  94.2133228
  21.5313240  51.0985130  92.8161286  15.8168057  52.8506204 100.9247405
  15.9460438  53.1040683 101.8386817  15.1365508  53.4433912 100.6052060
  19.9867544  63.5203454  97.0237879  19.9091574  64.4711279  97.1026360
  19.3829188  63.1749326  97.6812806  22.4784774  50.6931319 109.6799246
  21.7018108  51.2525239 109.6702111  23.1175337  51.1788102 110.2014116
  30.2705554  47.4758112 103.5142223  29.6279935  47.7690645 102.8682017
  29.7660483  47.3611032 104.3195420  27.9245718  51.2221285  94.2028082
  28.8363574  51.4548672  94.0275780  27.4155365  51.8058329  93.6403161
  20.7331146  53.5016773 109.2417213  21.4745831  54.0401817 108.9652037
  20.0268132  54.1283061 109.3988765  26.2086486  55.6445913 107.8389375
  26.6169842  55.2028324 107.0944007  25.4863747  55.0698541 108.0923568
  22.5617556  50.5818520 105.2122932  23.4078751  51.0057933 105.3557581
  22.5016194  49.9252144 105.9061495  26.5315300  56.2047104 101.5941664
  25.9024163  56.3692818 100.8917731  26.1440963  56.6188713 102.3652628
  30.4104532  57.1401542  98.9486027  29.7255571  57.5200443  98.3983061
  30.4948382  57.7496868  99.6817975  25.7117001  48.2422888 106.8704105
  25.4677933  48.9964949 106.3338381  25.9876932  48.6208236 107.7051352
  27.6655464  54.7861501 105.5481371  27.8772359  55.4293260 104.8715752
  27.6185212  53.9523817 105.0803301  25.2681693  47.3979321 102.4517943
  24.4066172  47.6960575 102.7434681  25.2944128  47.6149720 101.5198976
  22.0843262  55.9421512  98.8591749  22.5481608  56.2209215  98.0696371
  21.8200060  55.0404956  98.6764839  18.9767343  55.4892993 101.7971512
  19.5468700  55.9180262 101.1588996  19.5675455  55.2075578 102.4955698
  21.0212148  52.0644664  95.6681314  21.7236192  52.5165708  96.1355240
  20.6892777  51.4228483  96.2961207  19.4692510  50.6556421 110.0432523
  18.8391170  51.3372702 110.2767920  19.3628598  50.5439502 109.0985661
  14.7637482  50.3228217 100.9698447  13.9736536  50.5785745 100.4938558
  15.2548730  51.1376555 101.0750488  28.7801292  57.6633456 103.7203728
  29.6018736  57.2613643 103.4386410  28.7763695  57.5601690 104.6719844
  16.7152228  50.6872796  97.9281924  15.9183391  50.7991490  98.4465420
  16.4877820  51.0259448  97.0622815  22.5457895  57.2117499 105.8764439
  22.6102328  57.6737907 106.7122611  21.8368819  56.5814864 106.0046749
  13.0475185  50.5758707 103.4013438  13.2983224  51.4605717 103.6671014
  13.5834734  50.3963309 102.6288530  22.2605913  58.8785607  95.7443419
  22.1251588  59.7237143  96.1728267  22.8015726  59.0804884  94.9809353
  15.7135310  56.3961045  96.3171344  16.2259831  57.1904295  96.4676909
  16.3658023  55.6987335  96.2504946  17.5230195  59.5126801  98.3994097
  17.6996823  60.4344766  98.2115081  18.3187029  59.1985220  98.8288477
  21.6641214  46.3735066 109.9978031  22.4050927  46.9742219 109.9182493
  21.8959136  45.6312704 109.4396073  16.8082552  51.5591433 108.2756261
  16.6936067  50.6576690 108.5763359  15.9527069  51.8055130 107.9241077
  23.8874389  59.5009173 109.8743761  23.4438244  58.7145552 109.5564666
  24.5491603  59.6888324 109.2087652  18.6461511  61.0304975 104.4004440
  19.1968936  60.9022038 103.6281434  17.8072986  61.3299864 104.0499332
  25.9855627  59.7811973 107.9025162  25.9674103  60.6020854 107.4105432
  26.9075548  59.6566048 108.1275304  22.4428682  57.2956103 108.7448671
  22.9757018  56.5344391 108.5147979  21.9142763  57.0029755 109.4872825
  25.6098377  42.4016169 104.2742313  25.2662646  43.2917810 104.1981423
  25.9777339  42.2117826 103.4111898  13.6784227  54.7249699  97.0930915
  14.5159449  55.1346707  96.8764622  13.8562495  53.7849141  97.0631109
  25.5748659  52.3924780  92.7814748  25.0595283  53.1629384  93.0203135
  25.3025968  51.7189916  93.4047809  23.1595770  47.2374481  97.8399986
  22.3037367  46.8481331  97.6605625  23.5722722  47.3166441  96.9799772
  24.6894917  44.7720824 102.2391546  24.1859713  44.7350959 101.4259351
  24.9825524  45.6813567 102.2988202  20.9337803  44.8559554 101.2457727
  21.7990800  44.6602362 100.8863617  21.0015312  44.6269905 102.1727084
  25.3634962  50.2651872  94.6074529  25.0585098  50.5798021  95.4584672
  26.3165405  50.3433292  94.6501862  23.8081394  56.4242095  96.2567483
  23.2802756  55.6894855  95.9440720  23.3068897  57.2016772  96.0107451
  28.7874240  54.6191116 101.3734529  28.1297915  55.3090377 101.4614658
  29.5914640  55.0087548 101.7168515  18.5400122  47.0861761  98.6174094
  19.1143874  46.8636943  97.8847287  19.1271104  47.1550456  99.3702696
  27.5979699  52.9735488  99.4238471  28.1111581  53.6065480  99.9260181
  28.2480923  52.3736684  99.0581831  18.8669709  49.1166222  92.6369980
  18.0307021  49.4540909  92.9579254  18.7274479  48.9815202  91.6997117
  20.8422790  43.9603010  97.3449164  20.1887202  43.6452028  96.7205779
  20.8003264  43.3378751  98.0708987  21.9533994  54.2422305  89.2602456
  21.0461056  54.0111559  89.4593605  22.4505026  53.4459925  89.4476437
  24.8602073  62.9519813  92.1799142  24.1863772  63.2551509  92.7884100
  25.2467895  63.7548893  91.8304599  24.0760530  50.4484944 101.6696811
  23.1583091  50.6699891 101.5118499  24.4920674  50.5231254 100.8108519
  24.8595578  51.8476360  96.7999492  25.6067397  52.3597757  96.4906614
  25.1287167  51.5260412  97.6603885  23.1322228  54.3434900  93.7826446
  22.2233447  54.0593933  93.8798916  23.1617312  54.7633979  92.9229753
  28.3641495  57.9541490  97.5517613  27.9103822  57.1132400  97.6082804
  27.7335462  58.5902888  97.8892394  27.3074415  48.8833476  98.7818281
  26.5697172  48.3710862  99.1128523  27.5601188  48.4433857  97.9701558
  26.8074435  59.7917987  98.4867432  27.0997409  60.3523044  97.7679797
  27.3173055  60.0846547  99.2420591  27.4086042  41.6609728  99.3760050
  27.7144919  40.8007091  99.0885965  28.1338647  42.2527348  99.1759044
  13.7010398  52.0640414  97.7641648  13.5034798  51.4709775  97.0392715
  13.1457062  51.7592625  98.4817587  21.6807122  51.9563521  99.8836241
  21.7355732  51.0037357  99.8078718  20.8698324  52.1122960 100.3677540
  22.8298316  55.8843644  91.1214524  22.3917746  55.1679503  90.6620162
  23.5708757  56.1119759  90.5599616  19.6199482  50.5740581  97.6426620
  18.8067347  50.8734751  98.0491812  20.1158476  50.1796269  98.3601102
  21.7708060  60.5698338  99.5760885  21.7284239  60.7959184  98.6469417
  22.6870759  60.3361712  99.7246686  25.2173694  51.0382405 106.4741514
  25.5723081  51.2653878 107.3335980  25.8645825  51.3700782 105.8518769
  19.1113557  48.1458936 103.2587855  19.7512936  48.0047695 102.5610818
  18.2791087  47.8593450 102.8826457  30.9740810  56.2277368 102.1902115
  31.4077317  56.1352657 103.0385169  31.6872391  56.2034868 101.5522131
  19.8873861  57.4461367  99.3722848  20.6814459  56.9511687  99.1705422
  19.1765553  56.9179230  99.0090553  24.7068705  59.8279462 103.7235215
  24.7605727  60.3970398 104.4912931  23.8383486  59.9981347 103.3589252
  16.1956624  51.5904448  95.4482600  15.2654212  51.5288904  95.6652562
  16.2914096  51.0680401  94.6519241  16.1142173  48.1159261  98.0360842
  16.3748990  49.0304594  97.9270002  16.9359345  47.6483704  98.1857455
  17.5867098  49.5297018 105.2059666  18.2590152  49.3214380 104.5572315
  16.7596885  49.3319104 104.7664899  31.8356360  56.2701069 104.7235000
  32.0292250  57.1746879 104.9694275  31.7356978  55.8108488 105.5573585
  23.4892670  46.1558959 107.2225327  22.8420585  46.8548909 107.1289804
  24.2593686  46.5895103 107.5901575  26.8971468  56.4207811 110.2975881
  26.7456975  56.1918363 109.3805964  26.8876148  57.3778413 110.3107226
  23.6656805  53.9939724 105.2822147  24.5948865  54.1450884 105.1091114
  23.2447835  54.0823745 104.4270794  22.4645137  58.0190389 103.0520685
  22.3256222  57.6509173 103.9246623  21.6759733  58.5338028 102.8804642
  23.0593289  63.1199485  94.3946221  23.2345044  62.6487528  95.2091844
  22.3726077  63.7465251  94.6227482  24.0150352  57.3971991 100.4409522
  23.6800184  57.3572761 101.3367172  23.5154297  56.7316707  99.9679933
  17.9894596  52.8039621 105.9662104  17.8514394  52.0719860 106.5673643
  18.8999519  52.7148521 105.6846291  20.6176896  52.5159581 105.4545783
  21.3276515  51.8752773 105.4132402  20.5746204  52.7672475 106.3771964
  28.6063675  59.4526934 108.3752362  28.5476221  58.7686154 107.7082945
  29.0083193  60.1945924 107.9232988  19.3305830  49.5024799 107.2741423
  18.7943187  49.0515537 107.9263019  18.7422539  49.6370707 106.5311887
  17.6254374  66.2688848 101.1686081  17.8650972  66.9007372 101.8465100
  16.7823570  65.9176888 101.4551441  18.7408089  48.9613450  89.8367886
  17.8637556  48.8402251  89.4730133  19.2165842  48.1699528  89.5846775
  28.6081082  57.4166518 106.6066342  27.7207861  57.0792440 106.7292741
  29.1779633  56.6849549 106.8435107  10.2610229  53.7490610  99.9309393
  10.9481269  53.4352340  99.3430409  10.1058358  54.6531974  99.6576645
  15.0644952  48.6380806 104.3594417  14.9803140  48.0306476 103.6244827
  14.2427658  49.1289825 104.3603914  22.1382236  62.0767970 103.5727585
  22.0652407  62.8822942 104.0846890  21.6959629  62.2759936 102.7475607
  21.9272015  61.3139740  97.0830407  21.1439537  61.8561420  97.1768631
  22.6264760  61.8313720  97.4824648  25.2368665  47.1234370  99.7264612
  25.7337365  46.3704332  99.4065682  24.4655647  47.1598686  99.1607822
  24.5980919  61.9754804 105.7285744  25.3108891  62.6102269 105.6561645
  24.1070948  62.0718670 104.9125746  26.3198446  55.8806057  97.3003036
  25.3854725  56.0007519  97.1307740  26.4975115  54.9778524  97.0363045
  21.8203634  49.2651753  99.4536297  21.4501422  48.7122793 100.1417202
  22.3162727  48.6609886  98.9011297  19.6492833  59.7249248 106.5491315
  20.3502292  60.3585731 106.7020709  19.1787948  60.0663979 105.7886954
  27.6787660  44.0903963 101.8743971  26.7650740  44.3208190 102.0426178
  28.1080762  44.1742407 102.7258003  27.4494119  52.2793855 104.3743865
  26.7965569  52.5269763 103.7196318  27.8274499  51.4657993 104.0406342
  24.4101293  62.3153548  98.4772035  24.5923687  61.4975204  98.9399788
  25.2334279  62.5321241  98.0396925  24.7443458  61.2421734  95.7387084
  25.2731224  60.7314188  95.1257246  25.0071678  60.9264264  96.6032617
  23.4981692  53.0213666 110.8609902  22.8222329  52.9207796 111.5312277
  24.3209326  52.8652880 111.3245899  15.2460551  59.2585603 103.4822417
  15.8313988  58.5129291 103.6150322  15.0485389  59.5689560 104.3659081
  18.0999206  62.2936850  98.4984860  17.4309581  62.7782978  98.0148900
  17.9612076  62.5406071  99.4128238   9.8378206  51.8291203 102.2026861
   9.8762305  51.2954794 102.9963979   9.3318498  51.3026409 101.5837838
  22.2404475  64.3280594 105.0967518  22.7922783  64.4912215 105.8616603
  22.5810668  64.9185032 104.4247543  17.2168968  46.6755744 105.6989403
  17.2810294  47.5370574 105.2866801  17.1536088  46.0629745 104.9661761
  27.0915349  59.1541851 110.9516173  27.6355253  59.7671810 110.4571127
  26.5102194  59.7121430 111.4683186  13.4686783  50.5555305  95.2780792
  13.7640224  49.6465984  95.2247846  12.5674819  50.5343045  94.9561794
  25.3772862  62.2762569 102.0831200  25.2524001  61.4752309 101.5742146
  26.0351953  62.7708763 101.5945170  16.9981030  48.6311302 101.2608341
  16.2767616  49.2447269 101.1215814  17.7874286  49.1669067 101.1824987
  19.8007344  45.9665728 107.5348992  20.3241745  46.2128025 108.2975302
  19.5819677  46.7985763 107.1152130  15.1974625  48.2369403  95.4020117
  14.8687331  47.3566782  95.2195223  15.5513995  48.1817072  96.2896506
  24.4454204  59.8724306  99.9115103  24.2979166  58.9441013 100.0922673
  25.2707697  59.8944396  99.4272178  18.3116448  48.5242373  95.7695595
  18.6512520  49.0528294  95.0474203  18.7588568  48.8622779  96.5454161
  28.0488325  60.6952864 100.9979975  28.9734873  60.4895726 100.8604427
  27.8803629  60.4469265 101.9069317  21.0059889  46.9079423 105.2198663
  20.6656709  46.1087236 105.6219343  20.2998895  47.2081134 104.6475496
  21.6576360  43.9928736 103.6725986  22.4802430  43.5189214 103.5504876
  21.9014424  44.7719220 104.1724672  20.2984595  47.0216994  93.9688888
  21.0192957  47.3998247  93.4652604  19.6749899  47.7405871  94.0723866
  24.4415718  47.7262143  94.9047220  24.6579332  48.6086781  94.6036048
  23.9609785  47.3348357  94.1752862  19.1814939  50.6847856 101.4817965
  19.0359520  50.9988159 102.3742246  18.7040143  51.3032757 100.9288863
  21.0411322  47.6750404 101.5298854  21.0272891  46.7791498 101.1931152
  21.7583750  47.6821068 102.1637140  22.8937453  48.1087745 103.5751982
  22.6355231  49.0304815 103.5736312  22.3622493  47.7118179 104.2652446
  27.8383642  61.2138532  96.3542067  28.0120519  60.6484954  95.6015919
  28.3312533  62.0139427  96.1721557  13.6560601  53.2253201 104.4205626
  13.1114069  54.0013009 104.5525900  14.5339951  53.5724005 104.2624747
  20.4448218  46.5564785  96.7986424  20.5664129  45.6281431  96.9977312
  20.1550260  46.5703471  95.8864740  23.3139408  44.2419695  99.9353144
  23.3361105  44.3059028  98.9805124  23.7307467  43.4024204 100.1293650
  14.4426623  52.3523097 107.3135783  13.7008359  52.5005732 107.9000413
  14.1219368  52.6131363 106.4502532  22.3870286  61.8939075 107.1116173
  22.6957412  61.6488222 107.9838872  23.1845768  62.0985714 106.6235043
  22.4090898  64.0476985  99.3421549  21.9695888  63.5553364 100.0354406
  23.1599015  63.5049953  99.1013624  14.8883237  60.2388526  99.3446177
  15.7141257  59.9392298  98.9644821  14.5377289  59.4696148  99.7935966
  19.8564770  59.5914994 101.4143851  19.2344779  58.9285699 101.1146079
  20.5269637  59.6176126 100.7317499  13.0891842  58.1574852 100.3035111
  12.2523750  57.7297027 100.1219112  13.0615487  58.3507296 101.2405902
  30.4144143  58.6137905 110.2877494  29.6239687  58.5962044 109.7481993
  30.1777498  59.1526199 111.0426530  30.5342018  55.4630372 107.6010222
  30.5840023  55.2980379 108.5425745  30.4255942  54.5957631 107.2108103
  19.4178277  58.1418917  94.8902311  19.5666397  58.8254382  94.2368984
  20.2244720  58.1224007  95.4051767  27.8245781  51.4461300 108.9169529
  28.7255643  51.3067765 108.6253527  27.8993755  51.6115755 109.8567707
  22.1588586  48.8228154 107.7622715  21.2891895  49.1161721 107.4905304
  22.3948066  49.4068599 108.4829979  32.0360215  57.8827313 107.8452244
  31.7445023  58.2457294 108.6815705  31.4232346  57.1694321 107.6665576
  30.2847403  53.0059928 106.3132302  30.7601525  53.1987574 105.5051153
  29.3612969  53.0619114 106.0675686  17.1730910  54.1684095  95.8963380
  16.9276952  53.2646425  96.0943590  17.3426825  54.1701245  94.9542858
  24.8627620  45.0407771 105.2788136  25.3809564  45.7768798 104.9534624
  24.5082753  45.3471765 106.1134895  16.4426558  49.9012453  93.3949542
  15.7495802  49.9756808  92.7389578  16.1978309  49.1372796  93.9171059
  25.1140214  41.4608054 100.7989032  25.3941968  40.7931243 101.4249459
  25.8990821  41.6537150 100.2863696  22.9173683  60.6367048  92.3614059
  22.3447650  61.2557235  91.9084531  23.4906476  61.1866410  92.8953981
  28.9849072  49.8825688 104.5460608  29.9366495  49.9823786 104.5672832
  28.8152523  49.0903956 105.0558692  27.0063452  46.9681271 104.7320008
  26.4113384  47.2486284 104.0366497  26.7213149  47.4575172 105.5036750
  26.1370942  60.9204198  93.4922641  27.0701615  60.8549760  93.6955517
  26.0494155  61.7560465  93.0337174  28.7658959  60.2370068  90.4526589
  28.6872591  59.9029932  91.3462347  29.5868626  60.7291836  90.4518061
  31.4637150  53.1031808 103.6602907  31.4313470  52.1647808 103.8462591
  32.0737774  53.1815844 102.9268732  23.3020481  51.9727861  89.7030111
  24.2479586  51.8434069  89.7718529  22.9234726  51.2342522  90.1799539
  31.6131639  49.8942851 103.7061190  31.0970687  49.1101308 103.5191119
  32.4971587  49.5661568 103.8707710  29.2742366  43.6383867  99.6657003
  29.0767187  43.3298955 100.5500335  29.8842071  44.3645506  99.7954933
  35.3628997  52.3055677 103.3983395  34.6362161  52.1711642 102.7899887
  34.9476284  52.6132506 104.2040113  23.1859174  56.0245607 111.1630768
  24.1062183  56.2024206 111.3570815  23.1508757  55.0801652 111.0110468
  21.4863398  49.8977837  89.6384996  20.5794854  49.6010950  89.7147710
  21.7639379  49.6007655  88.7719283  12.4041339  51.2184200 100.0884043
  12.0844123  50.3649509  99.7958417  11.8574767  51.4332779 100.8442010
  16.1821246  53.9346641 103.8053549  16.4007256  54.8663749 103.8241583
  16.5947020  53.5754616 104.5908353  23.1025464  44.4414727  95.7929238
  22.2926192  44.0961812  96.1684484  23.7909881  44.1322270  96.3816849
  25.0316012  43.5192773  97.4153534  25.5847051  43.9388227  98.0743558
  25.2686099  42.5928522  97.4576490  20.2562183  46.7564772  89.7796976
  21.1181347  47.0819670  90.0392793  20.4412527  45.9696268  89.2670041
  12.2729599  54.8387112 102.0577164  11.5793070  54.4241065 101.5447119
  13.0202590  54.8807648 101.4610583  28.4094819  45.6293299  96.9232199
  27.8293488  46.2878103  96.5410251  28.1430752  44.8070643  96.5119616
  26.8598386  45.0298356  99.1253519  27.3598164  45.1414891  98.3167838
  27.5033994  44.7259409  99.7654327  20.9180382  52.9376986 112.0121360
  20.4347463  53.7377346 112.2185249  21.0041321  52.9484931 111.0588804
  14.1866341  54.7705366  99.9343179  14.1637029  54.8693053  98.9825062
  14.4966978  55.6170516 100.2560345  16.8453719  56.8281521 104.0489794
  17.7996973  56.7965463 103.9819725  16.6466243  56.3672144 104.8640020
  17.4353101  55.3982637 106.6160591  18.2545990  55.8926715 106.6395429
  17.7089909  54.4814605 106.5878159  27.1919697  47.7893389  95.9788547
  26.3045552  48.0743040  95.7608742  27.6073686  47.6287152  95.1315824
  15.2003948  62.3701140 101.0659992  15.0658416  61.6101541 100.4997990
  14.7836010  63.0942040 100.5988781  27.1660721  53.3047925  96.1938837
  27.1095922  53.7616476  95.3546470  27.7189064  52.5438610  96.0161680
  18.3573074  63.2670457 101.2778434  18.2405458  64.2115890 101.1757125
  17.5365520  62.9644019 101.6664233  27.8995500  54.4952706  93.4891366
  27.8444304  54.3296978  92.5479810  27.2741556  55.2028739  93.6453556
  12.6888015  49.7320771 107.3152788  13.3346879  49.2219725 107.8040014
  12.4805166  50.4689452 107.8896214  25.2141408  56.8001618 112.8144929
  26.0832567  56.9742270 112.4531564  24.7348159  57.6196035 112.6920658
  21.2091626  43.9960815  93.0676685  21.1970296  44.9402655  93.2244956
  22.1015048  43.8130961  92.7736146  19.3827588  63.9198719 104.4934363
  20.2854834  63.9522329 104.8100858  19.1564958  62.9899170 104.5080699
  21.1381190  62.6729706 101.1544441  20.1876821  62.6731567 101.0408814
  21.4413676  61.9262440 100.6380476  25.0243745  40.5903592  97.3222621
  24.2576141  40.0362079  97.4679304  25.4354450  40.6625461  98.1836773
  27.0874837  71.8104340 100.9832840  27.8796129  71.4695165 100.5679139
  27.3271487  71.9199315 101.9034993  26.6561811  68.1798122 100.9247405
  26.7854192  68.4332600 101.8386817  25.9759263  68.7725830 100.6052060
  33.3178528  66.0223237 109.6799246  32.5411862  66.5817157 109.6702111
  33.9569091  66.5080020 110.2014116  31.5724901  68.8308690 109.2417213
  32.3139585  69.3693734 108.9652037  30.8661886  69.4574979 109.3988765
  36.5510756  63.5714806 106.8704105  36.3071688  64.3256866 106.3338381
  36.8270686  63.9500153 107.7051352  30.3086264  65.9848338 110.0432523
  29.6784925  66.6664619 110.2767920  30.2022352  65.8731420 109.0985661
  25.6031237  65.6520134 100.9698447  24.8130291  65.9077663 100.4938558
  26.0942484  66.4668472 101.0750488  23.8868940  65.9050625 103.4013438
  24.1376978  66.7897635 103.6671014  24.4228488  65.7255226 102.6288530
  29.5867007  60.2869104 112.4057774  29.1933953  59.7335303 113.0805419
  30.4033147  60.5979683 112.7964292  28.3623950  74.8418719  98.3994097
  28.5390578  75.7636683  98.2115081  29.1580783  74.5277138  98.8288477
  32.5034968  61.7026983 109.9978031  33.2444681  62.3034137 109.9182493
  32.7352891  60.9604621 109.4396073  27.6476306  66.8883351 108.2756261
  27.5329821  65.9868608 108.5763359  26.7920824  67.1347047 107.9241077
  33.2822436  72.6248020 108.7448671  33.8150773  71.8636309 108.5147979
  32.7536517  72.3321672 109.4872825  24.5177982  70.0541617  97.0930915
  25.3553204  70.4638625  96.8764622  24.6956249  69.1141059  97.0631109
  24.5404153  67.3932332  97.7641648  24.3428553  66.8001693  97.0392715
  23.9850817  67.0884542  98.4817587  27.0350379  66.9196366  95.4482600
  26.1047967  66.8580822  95.6652562  27.1307850  66.3972319  94.6519241
  26.9535928  63.4451179  98.0360842  27.2142745  64.3596512  97.9270002
  27.7753100  62.9775621  98.1857455  28.4260853  64.8588936 105.2059666
  29.0983906  64.6506298 104.5572315  27.5990639  64.6611022 104.7664899
  34.3286425  61.4850877 107.2225327  33.6814340  62.1840827 107.1289804
  35.0987440  61.9187021 107.5901575  28.8288350  68.1331539 105.9662104
  28.6908148  67.4011778 106.5673643  29.7393274  68.0440439 105.6846291
  30.1699585  64.8316716 107.2741423  29.6336942  64.3807455 107.9263019
  29.5816293  64.9662625 106.5311887  28.4648128  81.5980765 101.1686081
  28.7044727  82.2299290 101.8465100  27.6217325  81.2468806 101.4551441
  29.5801844  64.2905368  89.8367886  28.7031310  64.1694168  89.4730133
  30.0559597  63.4991446  89.5846775  21.1003984  69.0782527  99.9309393
  21.7875024  68.7644257  99.3430409  20.9452113  69.9823892  99.6576645
  25.9038706  63.9672724 104.3594417  25.8196895  63.3598393 103.6244827
  25.0821412  64.4581742 104.3603914  34.3375446  68.3505584 110.8609902
  33.6616083  68.2499713 111.5312277  35.1603080  68.1944798 111.3245899
  26.0854305  74.5877520 103.4822417  26.6707742  73.8421208 103.6150322
  25.8879144  74.8981477 104.3659081  20.6771960  67.1583121 102.2026861
  20.7156060  66.6246711 102.9963979  20.1712253  66.6318326 101.5837838
  27.5314995  64.0770794 109.3462437  28.1587034  63.6947871 109.9599961
  26.6742914  63.8584996 109.7118130  24.3080538  65.8847223  95.2780792
  24.6033979  64.9757901  95.2247846  23.4068573  65.8634962  94.9561794
  30.6401098  61.2957646 107.5348992  31.1635500  61.5419942 108.2975302
  30.4213431  62.1277681 107.1152130  26.0368379  63.5661321  95.4020117
  25.7081085  62.6858699  95.2195223  26.3907750  63.5108989  96.2896506
  24.4954356  68.5545118 104.4205626  23.9507824  69.3304926 104.5525900
  25.3733706  68.9015923 104.2624747  25.2820378  67.6815015 107.3135783
  24.5402114  67.8297650 107.9000413  24.9613122  67.9423280 106.4502532
  25.7276991  75.5680443  99.3446177  26.5535011  75.2684215  98.9644821
  25.3771043  74.7988066  99.7935966  23.9285596  73.4866770 100.3035111
  23.0917505  73.0588944 100.1219112  23.9009242  73.6799213 101.2405902
  30.7683052  63.3988700 111.0076357  30.8171208  64.2750823 110.6254126
  31.3105566  62.8566093 110.4348000  32.9982341  64.1520072 107.7622715
  32.1285650  64.4453638 107.4905304  33.2341821  64.7360517 108.4829979
  35.7021374  60.3699689 105.2788136  36.2203318  61.1060716 104.9534624
  35.3476507  60.6763682 106.1134895  27.2820312  65.2304370  93.3949542
  26.5889557  65.3048725  92.7389578  27.0372064  64.4664714  93.9171059
  34.0252928  71.3537524 111.1630768  34.9455938  71.5316123 111.3570815
  33.9902511  70.4093570 111.0110468  23.2435093  66.5476118 100.0884043
  22.9237877  65.6941426  99.7958417  22.6968521  66.7624696 100.8442010
  27.0215001  69.2638559 103.8053549  27.2401010  70.1955667 103.8241583
  27.4340774  68.9046533 104.5908353  31.8942866  64.8371765 113.1956298
  31.7939593  65.7866122 113.1268389  31.6764408  64.5090004 112.3232368
  31.0955937  62.0856690  89.7796976  31.9575101  62.4111588  90.0392793
  31.2806281  61.2988186  89.2670041  23.1123353  70.1679030 102.0577164
  22.4186825  69.7532982 101.5447119  23.8596344  70.2099566 101.4610583
  31.7574136  68.2668904 112.0121360  31.2741218  69.0669264 112.2185249
  31.8435075  68.2776849 111.0588804  25.0260096  70.0997283  99.9343179
  25.0030784  70.1984971  98.9825062  25.3360732  70.9462434 100.2560345
  27.6847473  72.1573438 104.0489794  28.6390727  72.1257381 103.9819725
  27.4859997  71.6964062 104.8640020  28.2746856  70.7274554 106.6160591
  29.0939745  71.2218633 106.6395429  28.5483663  69.8106523 106.5878159
  26.0397702  77.6993058 101.0659992  25.9052170  76.9393459 100.4997990
  25.6229765  78.4233958 100.5988781  29.1966828  78.5962375 101.2778434
  29.0799212  79.5407807 101.1757125  28.3759274  78.2935936 101.6664233
  23.5281770  65.0612688 107.3152788  24.1740633  64.5511642 107.8040014
  23.3198921  65.7981370 107.8896214  36.0535162  72.1293536 112.8144929
  36.9226322  72.3034188 112.4531564  35.5741914  72.9487953 112.6920658
  30.2221342  79.2490637 104.4934363  31.1248589  79.2814247 104.8100858
  29.9958712  78.3191088 104.5080699  27.8679261  62.2080305 111.4127803
  28.7310722  61.8517110 111.6231127  27.2944672  61.8694200 112.1003207
  47.7127638  83.8382162 102.2190204  48.3506048  83.7188909 101.5153544
  47.5948481  84.7863006 102.2778156  44.5217344  83.7909590 102.1551728
  44.1835856  83.6750654 101.2672263  45.3907112  83.3900755 102.1352735
  40.3804160  85.6445066  98.1448619  39.8169025  85.5535003  97.3764907
  40.2656555  84.8244971  98.6251112  45.0037127  84.9444442 108.1137934
  44.9925768  84.5497240 107.2418438  45.1657767  84.2110514 108.7071705
  37.9268592  87.1396258 100.9832840  38.7189884  86.7987082 100.5679139
  38.1665242  87.2491233 101.9034993  45.9603718  89.3116034  93.4563084
  45.3091698  89.8970114  93.0697098  46.7548081  89.8422229  93.5158122
  39.8859346  86.4005171  93.8550219  40.6590222  85.8534158  93.7163094
  40.2384744  87.2649420  94.0664680  41.7244388  87.7281553 107.0617118
  41.4334254  88.6327184 106.9463784  42.3601373  87.7698081 107.7761187
  42.6500595  85.1058402 103.6518478  43.2464167  84.8814424 102.9375441
  42.7075567  84.3643147 104.2543925  42.2225623  82.5597837  91.4868669
  42.4751144  82.0379358  90.7252132  41.2850183  82.3963983  91.5895352
  47.2668906  81.5633616  99.2943412  48.0531995  81.1453039  98.9433829
  47.5307611  82.4679708  99.4625060  47.4378984  87.0006466  93.9932069
  46.8024817  87.0741092  94.7052973  47.1076390  87.5900065  93.3151148
  52.6677333  81.5008849 100.1976390  53.4002505  80.9308066 100.4314220
  51.9116689  81.1130449 100.6382896  41.9421912  84.4625943  93.6893044
  41.8258170  83.7870847  94.3574128  42.0524172  83.9758317  92.8725197
  44.2853453  83.9236090  97.3939733  43.9211660  83.3966711  98.1052654
  45.1420569  83.5334559  97.2206218  50.1902754  75.2130423 104.6570999
  49.8586079  76.0825834 104.4332214  49.5948367  74.8966707 105.3365029
  43.9258940  78.9525990  92.3901081  44.0933342  79.8206226  92.7571552
  43.7356109  79.1153272  91.4662371  46.6834273  87.4142969 104.0566912
  46.3834996  88.3168008 103.9482719  46.3385333  87.1475152 104.9088065
  40.1346755  83.8656766 100.0903616  39.2097251  83.7332980 100.2981308
  40.3831168  84.6450985 100.5873558  50.0831417  79.9325509 101.7364349
  49.1748294  79.8640917 101.4423110  50.0319013  80.4097454 102.5646174
  43.9048161  81.4083647  93.3747748  43.7847786  81.8540698  94.2133228
  43.2100749  81.7568965  92.8161286  37.4955566  83.5090039 100.9247405
  37.6247947  83.7624518 101.8386817  36.8153017  84.1017747 100.6052060
  41.6655053  94.1787289  97.0237879  41.5879083  95.1295114  97.1026360
  41.0616697  93.8333162  97.6812806  44.1572283  81.3515155 109.6799246
  43.3805617  81.9109075 109.6702111  44.7962846  81.8371938 110.2014116
  51.9493063  78.1341947 103.5142223  51.3067444  78.4274481 102.8682017
  51.4447992  78.0194868 104.3195420  49.6033227  81.8805121  94.2028082
  50.5151083  82.1132507  94.0275780  49.0942874  82.4642165  93.6403161
  42.4118655  84.1600608 109.2417213  43.1533340  84.6985652 108.9652037
  41.7055641  84.7866897 109.3988765  47.8873995  86.3029748 107.8389375
  48.2957351  85.8612159 107.0944007  47.1651256  85.7282376 108.0923568
  44.2405065  81.2402355 105.2122932  45.0866260  81.6641769 105.3557581
  44.1803703  80.5835980 105.9061495  48.2102809  86.8630939 101.5941664
  47.5811672  87.0276653 100.8917731  47.8228472  87.2772549 102.3652628
  52.0892041  87.7985377  98.9486027  51.4043079  88.1784278  98.3983061
  52.1735891  88.4080704  99.6817975  47.3904510  78.9006724 106.8704105
  47.1465442  79.6548784 106.3338381  47.6664441  79.2792071 107.7051352
  49.3442973  85.4445336 105.5481371  49.5559868  86.0877096 104.8715752
  49.2972721  84.6107652 105.0803301  43.7630771  86.6005347  98.8591749
  44.2269117  86.8793050  98.0696371  43.4987569  85.6988792  98.6764839
  40.6554852  86.1476829 101.7971512  41.2256209  86.5764097 101.1588996
  41.2462964  85.8659413 102.4955698  42.6999657  82.7228500  95.6681314
  43.4023701  83.1749543  96.1355240  42.3680286  82.0812318  96.2961207
  41.1480019  81.3140256 110.0432523  40.5178679  81.9956537 110.2767920
  41.0416107  81.2023338 109.0985661  50.4588801  88.3217291 103.7203728
  51.2806245  87.9197479 103.4386410  50.4551204  88.2185526 104.6719844
  38.3939737  81.3456631  97.9281924  37.5970900  81.4575326  98.4465420
  38.1665329  81.6843284  97.0622815  44.2245404  87.8701335 105.8764439
  44.2889837  88.3321742 106.7122611  43.5156328  87.2398700 106.0046749
  58.5494794  84.6656040 100.0688700  57.7958502  84.0963438  99.9132704
  58.6842335  84.6318704 101.0159334  43.9393422  89.5369442  95.7443419
  43.8039097  90.3820978  96.1728267  44.4803234  89.7388720  94.9809353
  37.3922819  87.0544880  96.3171344  37.9047340  87.8488130  96.4676909
  38.0445532  86.3571171  96.2504946  39.2017704  90.1710636  98.3994097
  39.3784332  91.0928601  98.2115081  39.9974538  89.8569056  98.8288477
  43.3428723  77.0318901 109.9978031  44.0838436  77.6326054 109.9182493
  43.5746645  76.2896539 109.4396073  38.4870061  82.2175268 108.2756261
  38.3723576  81.3160526 108.5763359  37.6314578  82.4638965 107.9241077
  45.5661898  90.1593009 109.8743761  45.1225753  89.3729387 109.5564666
  46.2279112  90.3472159 109.2087652  40.3249020  91.6888810 104.4004440
  40.8756445  91.5605874 103.6281434  39.4860495  91.9883699 104.0499332
  47.6643136  90.4395809 107.9025162  47.6461612  91.2604690 107.4105432
  48.5863056  90.3149884 108.1275304  44.1216191  87.9539938 108.7448671
  44.6544527  87.1928226 108.5147979  43.5930272  87.6613590 109.4872825
  35.3571736  85.3833534  97.0930915  36.1946958  85.7930543  96.8764622
  35.5350004  84.4432977  97.0631109  47.2536168  83.0508615  92.7814748
  46.7382792  83.8213220  93.0203135  46.9813477  82.3773751  93.4047809
  52.2270442  85.8040970  94.7167921  51.4499885  85.4652129  94.2723083
  52.9061923  85.8093593  94.0422886  47.0422471  80.9235707  94.6074529
  46.7372607  81.2381856  95.4584672  47.9952914  81.0017127  94.6501862
  45.4868903  87.0825931  96.2567483  44.9590265  86.3478690  95.9440720
  44.9856406  87.8600607  96.0107451  50.4661749  85.2774951 101.3734529
  49.8085424  85.9674212 101.4614658  51.2702149  85.6671383 101.7168515
  49.2767208  83.6319324  99.4238471  49.7899090  84.2649316  99.9260181
  49.9268432  83.0320519  99.0581831  40.5457218  79.7750058  92.6369980
  39.7094530  80.1124744  92.9579254  40.4061988  79.6399038  91.6997117
  43.6321503  84.9006141  89.2602456  42.7248565  84.6695394  89.4593605
  44.1292535  84.1043760  89.4476437  46.5389582  93.6103648  92.1799142
  45.8651281  93.9135345  92.7884100  46.9255404  94.4132728  91.8304599
  46.5383087  82.5060195  96.7999492  47.2854906  83.0181592  96.4906614
  46.8074676  82.1844248  97.6603885  44.8109737  85.0018736  93.7826446
  43.9020956  84.7177768  93.8798916  44.8404821  85.4217814  92.9229753
  50.0429004  88.6125325  97.5517613  49.5891331  87.7716235  97.6082804
  49.4122971  89.2486724  97.8892394  48.9861924  79.5417311  98.7818281
  48.2484681  79.0294697  99.1128523  49.2388697  79.1017693  97.9701558
  48.4861944  90.4501822  98.4867432  48.7784918  91.0106879  97.7679797
  48.9960564  90.7430383  99.2420591  44.5085825  86.5427479  91.1214524
  44.0705255  85.8263338  90.6620162  45.2496266  86.7703594  90.5599616
  41.2986991  81.2324416  97.6426620  40.4854856  81.5318587  98.0491812
  41.7945985  80.8380105  98.3601102  43.4495569  91.2282173  99.5760885
  43.4071748  91.4543019  98.6469417  44.3658268  90.9945548  99.7246686
  46.8961203  81.6966240 106.4741514  47.2510590  81.9237714 107.3335980
  47.5433334  82.0284617 105.8518769  52.6258939  84.8184676  97.1790843
  52.4876838  85.0086272  96.2512032  52.2695158  85.5804059  97.6358894
  52.6528319  86.8861203 102.1902115  53.0864826  86.7936492 103.0385169
  53.3659900  86.8618704 101.5522131  41.5661370  88.1045202  99.3722848
  42.3601968  87.6095522  99.1705422  40.8553062  87.5763065  99.0090553
  46.3856214  90.4863297 103.7235215  46.4393236  91.0554234 104.4912931
  45.5170995  90.6565183 103.3589252  37.8744133  82.2488284  95.4482600
  36.9441721  82.1872739  95.6652562  37.9701605  81.7264236  94.6519241
  53.5143869  86.9284904 104.7235000  53.7079759  87.8330715 104.9694275
  53.4144487  86.4692323 105.5573585  48.5758977  87.0791647 110.2975881
  48.4244484  86.8502198 109.3805964  48.5663657  88.0362248 110.3107226
  45.3444314  84.6523560 105.2822147  46.2736374  84.8034719 105.1091114
  44.9235344  84.7407580 104.4270794  44.1432646  88.6774224 103.0520685
  44.0043731  88.3093008 103.9246623  43.3547242  89.1921863 102.8804642
  44.7380797  93.7783320  94.3946221  44.9132553  93.3071364  95.2091844
  44.0513586  94.4049087  94.6227482  45.6937861  88.0555827 100.4409522
  45.3587693  88.0156597 101.3367172  45.1941806  87.3900543  99.9679933
  39.6682105  83.4623457 105.9662104  39.5301903  82.7303695 106.5673643
  40.5787028  83.3732357 105.6846291  48.6297052  85.4011861  90.7146582
  48.0126223  84.6758689  90.6179635  48.1613541  86.1621221  90.3713656
  42.2964405  83.1743416 105.4545783  43.0064024  82.5336608 105.4132402
  42.2533713  83.4256311 106.3771964  50.2851184  90.1110769 108.3752362
  50.2263730  89.4269989 107.7082945  50.6870702  90.8529759 107.9232988
  41.0093339  80.1608634 107.2741423  40.4730696  79.7099372 107.9263019
  40.4210048  80.2954543 106.5311887  39.3041883  96.9272683 101.1686081
  39.5438481  97.5591207 101.8465100  38.4611079  96.5760723 101.4551441
  40.4195598  79.6197285  89.8367886  39.5425065  79.4986086  89.4730133
  40.8953351  78.8283364  89.5846775  50.2868591  88.0750353 106.6066342
  49.3995370  87.7376275 106.7292741  50.8567142  87.3433384 106.8435107
  31.9397738  84.4074445  99.9309393  32.6268778  84.0936175  99.3430409
  31.7845867  85.3115810  99.6576645  43.8169745  92.7351806 103.5727585
  43.7439916  93.5406777 104.0846890  43.3747138  92.9343771 102.7475607
  43.6059524  91.9723576  97.0830407  42.8227046  92.5145256  97.1768631
  44.3052269  92.4897555  97.4824648  54.7685932  83.4858571 101.3682904
  54.7575808  84.3683286 100.9976837  53.9003311  83.1330121 101.1737441
  46.2768428  92.6338640 105.7285744  46.9896400  93.2686104 105.6561645
  45.7858457  92.7302506 104.9125746  47.9985955  86.5389892  97.3003036
  47.0642234  86.6591355  97.1307740  48.1762624  85.6362359  97.0363045
  51.3858506  82.3807212  97.8353070  51.8518959  83.2135203  97.7613372
  51.8366007  81.9152193  98.5398328  41.3280342  90.3833083 106.5491315
  42.0289801  91.0169566 106.7020709  40.8575457  90.7247815 105.7886954
  49.4534738  88.7251033  94.8339222  49.7294581  88.6107627  95.7433096
  48.5839236  88.3268518  94.7951395  49.1281628  82.9377691 104.3743865
  48.4753078  83.1853598 103.7196318  49.5062008  82.1241829 104.0406342
  46.0888802  92.9737384  98.4772035  46.2711196  92.1559040  98.9399788
  46.9121788  93.1905076  98.0396925  46.4230967  91.9005569  95.7387084
  46.9518733  91.3898023  95.1257246  46.6859187  91.5848099  96.6032617
  45.1769201  83.6797502 110.8609902  44.5009838  83.5791631 111.5312277
  45.9996835  83.5236715 111.3245899  36.9248060  89.9169438 103.4822417
  37.5101497  89.1713126 103.6150322  36.7272898  90.2273395 104.3659081
  39.7786715  92.9520686  98.4984860  39.1097090  93.4366813  98.0148900
  39.6399585  93.1989906  99.4128238  31.5165715  82.4875038 102.2026861
  31.5549814  81.9538629 102.9963979  31.0106007  81.9610244 101.5837838
  43.9191984  94.9864429 105.0967518  44.4710292  95.1496051 105.8616603
  44.2598177  95.5768867 104.4247543  38.3708749  79.4062711 109.3462437
  38.9980788  79.0239789 109.9599961  37.5136668  79.1876913 109.7118130
  48.7702858  89.8125687 110.9516173  49.3142762  90.4255645 110.4571127
  48.1889703  90.3705265 111.4683186  47.0560371  92.9346405 102.0831200
  46.9311510  92.1336144 101.5742146  47.7139462  93.4292598 101.5945170
  49.1195279  90.7355425 103.7110750  48.1725615  90.6160776 103.6389077
  49.4678052  89.8477923 103.7937012  46.1241713  90.5308141  99.9115103
  45.9766675  89.6024848 100.0922673  46.9495206  90.5528232  99.4272178
  39.9903957  79.1826208  95.7695595  40.3300029  79.7112129  95.0474203
  40.4376077  79.5206614  96.5454161  49.7275834  91.3536700 100.9979975
  50.6522382  91.1479561 100.8604427  49.5591138  91.1053101 101.9069317
  46.1203227  78.3845979  94.9047220  46.3366841  79.2670616  94.6036048
  45.6397294  77.9932192  94.1752862  49.5171151  91.8722367  96.3542067
  49.6908028  91.3068790  95.6015919  50.0100042  92.6723262  96.1721557
  35.3348110  83.8837036 104.4205626  34.7901578  84.6596844 104.5525900
  36.2127460  84.2307841 104.2624747  55.3710542  84.6358790  97.9732367
  55.8141688  83.8866115  97.5751490  54.4937052  84.6268926  97.5906099
  50.5046323  91.1889131  93.4538965  51.1997228  91.8095824  93.6726280
  50.8469473  90.3384483  93.7291343  36.1214132  83.0106932 107.3135783
  35.3795868  83.1589568 107.9000413  35.8006877  83.2715198 106.4502532
  52.4037746  88.6388837  94.9826296  52.9289070  88.9776110  94.2575616
  52.3160099  87.7035852  94.7989431  44.0657795  92.5522911 107.1116173
  44.3744921  92.3072057 107.9838872  44.8633277  92.7569549 106.6235043
  44.0878407  94.7060820  99.3421549  43.6483397  94.2137199 100.0354406
  44.8386524  94.1633788  99.1013624  36.5670746  90.8972361  99.3446177
  37.3928766  90.5976133  98.9644821  36.2164798  90.1279984  99.7935966
  41.5352279  90.2498829 101.4143851  40.9132288  89.5869534 101.1146079
  42.2057146  90.2759961 100.7317499  34.7679351  88.8158688 100.3035111
  33.9311259  88.3880862 100.1219112  34.7402996  89.0091131 101.2405902
  41.6076807  78.7280617 111.0076357  41.6564962  79.6042740 110.6254126
  42.1499321  78.1858010 110.4348000  52.0931652  89.2721741 110.2877494
  51.3027196  89.2545880 109.7481993  51.8565007  89.8110034 111.0426530
  52.2129527  86.1214207 107.6010222  52.2627532  85.9564214 108.5425745
  52.1043451  85.2541466 107.2108103  41.0965786  88.8002753  94.8902311
  41.2453906  89.4838217  94.2368984  41.9032229  88.7807843  95.4051767
  49.5033290  82.1045135 108.9169529  50.4043152  81.9651600 108.6253527
  49.5781264  82.2699590 109.8567707  43.8376095  79.4811990 107.7622715
  42.9679404  79.7745556 107.4905304  44.0735575  80.0652435 108.4829979
  53.7147724  88.5411149 107.8452244  53.4232532  88.9041129 108.6815705
  53.1019855  87.8278157 107.6665576  54.9143406  86.1064028 100.3654814
  55.7490298  86.5453832 100.5292375  55.0502535  85.6302682  99.5463060
  51.9634912  83.6643763 106.3132302  52.4389034  83.8571409 105.5051153
  51.0400478  83.7202949 106.0675686  38.8518419  84.8267930  95.8963380
  38.6064461  83.9230260  96.0943590  39.0214334  84.8285081  94.9542858
  44.5961192  91.2950883  92.3614059  44.0235159  91.9141070  91.9084531
  45.1693985  91.8450245  92.8953981  50.6636581  80.5409523 104.5460608
  51.6154004  80.6407621 104.5672832  50.4940032  79.7487792 105.0558692
  48.6850961  77.6265106 104.7320008  48.0900893  77.9070119 104.0366497
  48.4000658  78.1159007 105.5036750  47.8158451  91.5788033  93.4922641
  48.7489124  91.5133595  93.6955517  47.7281664  92.4144300  93.0337174
  50.4446468  90.8953904  90.4526589  50.3660100  90.5613767  91.3462347
  51.2656135  91.3875672  90.4518061  53.1424659  83.7615643 103.6602907
  53.1100979  82.8231644 103.8462591  53.7525283  83.8399680 102.9268732
  44.9807990  82.6311696  89.7030111  45.9267095  82.5017904  89.7718529
  44.6022235  81.8926358  90.1799539  53.2919148  80.5526686 103.7061190
  52.7758196  79.7685143 103.5191119  54.1759096  80.2245403 103.8707710
  58.9601209  84.8231650 102.8008944  59.6904597  84.5616938 103.3616647
  58.3508154  84.0860372 102.8411012  57.0416506  82.9639512 103.3983395
  56.3149670  82.8295477 102.7899887  56.6263793  83.2716341 104.2040113
  44.8646683  86.6829442 111.1630768  45.7849692  86.8608041 111.3570815
  44.8296266  85.7385487 111.0110468  43.1650907  80.5561672  89.6384996
  42.2582363  80.2594785  89.7147710  43.4426888  80.2591490  88.7719283
  37.8608755  84.5930477 103.8053549  38.0794765  85.5247585 103.8241583
  38.2734529  84.2338451 104.5908353  42.7336620  80.1663682 113.1956298
  42.6333347  81.1158039 113.1268389  42.5158162  79.8381921 112.3232368
  41.9349692  77.4148608  89.7796976  42.7968856  77.7403506  90.0392793
  42.1200036  76.6280103  89.2670041  33.9517108  85.4970947 102.0577164
  33.2580579  85.0824900 101.5447119  34.6990099  85.5391484 101.4610583
  42.5967890  83.5960821 112.0121360  42.1134972  84.3961181 112.2185249
  42.6828830  83.6068766 111.0588804  35.8653850  85.4289201  99.9343179
  35.8424538  85.5276888  98.9825062  36.1754487  86.2754352 100.2560345
  38.5241228  87.4865356 104.0489794  39.4784482  87.4549298 103.9819725
  38.3253752  87.0255980 104.8640020  39.1140610  86.0566472 106.6160591
  39.9333499  86.5510551 106.6395429  39.3877418  85.1398440 106.5878159
  52.2221742  78.4723745  99.6942886  52.9982133  78.9620198  99.9667503
  51.4969877  78.8981800 100.1514756  54.6594301  79.1851365 100.7516827
  55.2538792  78.9447101 100.0410135  54.7320885  78.4658495 101.3790363
  36.8791457  93.0284976 101.0659992  36.7445925  92.2685376 100.4997990
  36.4623519  93.7525875 100.5988781  48.0150420  88.2121899  90.0736567
  48.7186270  88.4171902  90.6894223  47.2913069  88.7798661  90.3385650
  48.8448230  83.9631760  96.1938837  48.7883431  84.4200312  95.3546470
  49.3976573  83.2022445  96.0161680  52.6553036  79.7521492  97.0188957
  52.3989970  79.3518128  97.8497164  52.0305904  80.4665286  96.8939096
  56.9665374  82.4917565  99.5260248  56.4064932  82.5610755 100.2991810
  56.3608877  82.3158550  98.8059744  40.0360583  93.9254293 101.2778434
  39.9192967  94.8699725 101.1757125  39.2153029  93.6227854 101.6664233
  49.9237117  88.6504428  92.1235027  50.7582721  88.2185627  91.9412502
  49.7621460  88.4786442  93.0511921  49.5783009  85.1536542  93.4891366
  49.5231813  84.9880813  92.5479810  48.9529065  85.8612574  93.6453556
  34.3675524  80.3904606 107.3152788  35.0134388  79.8803560 107.8040014
  34.1592675  81.1273288 107.8896214  46.8928917  87.4585453 112.8144929
  47.7620076  87.6326106 112.4531564  46.4135668  88.2779870 112.6920658
  41.0615097  94.5782554 104.4934363  41.9642343  94.6106165 104.8100858
  40.8352467  93.6483005 104.5080699  42.8168699  93.3313541 101.1544441
  41.8664330  93.3315403 101.0408814  43.1201185  92.5846276 100.6380476
  58.5521392  99.1674079 102.2190204  59.1899802  99.0480827 101.5153544
  58.4342235 100.1154923 102.2778156  55.3611099  99.1201507 102.1551728
  55.0229610  99.0042572 101.2672263  56.2300867  98.7192673 102.1352735
  51.2197914 100.9736984  98.1448619  50.6562779 100.8826921  97.3764907
  51.1050309 100.1536888  98.6251112  55.8430882 100.2736359 108.1137934
  55.8319522  99.8789157 107.2418438  56.0051521  99.5402432 108.7071705
  48.7662346 102.4688175 100.9832840  49.5583638 102.1279000 100.5679139
  49.0058996 102.5783151 101.9034993  56.7997473 104.6407952  93.4563084
  56.1485453 105.2262032  93.0697098  57.5941836 105.1714146  93.5158122
  50.7253100 101.7297089  93.8550219  51.4983976 101.1826076  93.7163094
  51.0778499 102.5941338  94.0664680  52.5638143 103.0573471 107.0617118
  52.2728009 103.9619102 106.9463784  53.1995127 103.0989999 107.7761187
  53.4894350 100.4350320 103.6518478  54.0857922 100.2106342 102.9375441
  53.5469321  99.6935065 104.2543925  53.0619378  97.8889755  91.4868669
  53.3144899  97.3671276  90.7252132  52.1243937  97.7255900  91.5895352
  58.1062661  96.8925533  99.2943412  58.8925750  96.4744956  98.9433829
  58.3701365  97.7971625  99.4625060  58.2772738 102.3298384  93.9932069
  57.6418571 102.4033010  94.7052973  57.9470145 102.9191982  93.3151148
  63.5071088  96.8300766 100.1976390  64.2396260  96.2599983 100.4314220
  62.7510444  96.4422367 100.6382896  52.7815667  99.7917861  93.6893044
  52.6651925  99.1162764  94.3574128  52.8917927  99.3050235  92.8725197
  55.1247208  99.2528008  97.3939733  54.7605415  98.7258629  98.1052654
  55.9814324  98.8626477  97.2206218  61.0296508  90.5422341 104.6570999
  60.6979833  91.4117751 104.4332214  60.4342122  90.2258625 105.3365029
  54.7652695  94.2817908  92.3901081  54.9327097  95.1498144  92.7571552
  54.5749864  94.4445189  91.4662371  57.5228028 102.7434887 104.0566912
  57.2228751 103.6459925 103.9482719  57.1779087 102.4767070 104.9088065
  50.9740509  99.1948683 100.0903616  50.0491006  99.0624897 100.2981308
  51.2224922  99.9742903 100.5873558  60.9225172  95.2617427 101.7364349
  60.0142049  95.1932835 101.4423110  60.8712767  95.7389372 102.5646174
  54.7441915  96.7375565  93.3747748  54.6241541  97.1832616  94.2133228
  54.0494504  97.0860883  92.8161286  48.3349320  98.8381957 100.9247405
  48.4641701  99.0916436 101.8386817  47.6546772  99.4309665 100.6052060
  52.5048808 109.5079207  97.0237879  52.4272837 110.4587032  97.1026360
  51.9010451 109.1625079  97.6812806  54.9966037  96.6807072 109.6799246
  54.2199371  97.2400992 109.6702111  55.6356600  97.1663855 110.2014116
  62.7886818  93.4633865 103.5142223  62.1461198  93.7566398 102.8682017
  62.2841746  93.3486785 104.3195420  60.4426982  97.2097038  94.2028082
  61.3544838  97.4424425  94.0275780  59.9336629  97.7934082  93.6403161
  53.2512410  99.4892526 109.2417213  53.9927094 100.0277570 108.9652037
  52.5449395 100.1158814 109.3988765  58.7267749 101.6321666 107.8389375
  59.1351105 101.1904077 107.0944007  58.0045011 101.0574294 108.0923568
  55.0798819  96.5694273 105.2122932  55.9260015  96.9933686 105.3557581
  55.0197457  95.9127897 105.9061495  59.0496564 102.1922857 101.5941664
  58.4205426 102.3568571 100.8917731  58.6622226 102.6064466 102.3652628
  62.9285796 103.1277295  98.9486027  62.2436834 103.5076196  98.3983061
  63.0129645 103.7372621  99.6817975  58.2298265  94.2298641 106.8704105
  57.9859197  94.9840702 106.3338381  58.5058195  94.6083989 107.7051352
  60.1836727 100.7737254 105.5481371  60.3953623 101.4169013 104.8715752
  60.1366476  99.9399570 105.0803301  57.7862956  93.3855074 102.4517943
  56.9247435  93.6836328 102.7434681  57.8125391  93.6025473 101.5198976
  54.6024526 101.9297265  98.8591749  55.0662871 102.2084968  98.0696371
  54.3381324 101.0280709  98.6764839  51.4948607 101.4768746 101.7971512
  52.0649964 101.9056015 101.1588996  52.0856719 101.1951331 102.4955698
  53.5393412  98.0520417  95.6681314  54.2417455  98.5041461  96.1355240
  53.2074040  97.4104236  96.2961207  51.9873773  96.6432174 110.0432523
  51.3572434  97.3248455 110.2767920  51.8809861  96.5315255 109.0985661
  47.2818746  96.3103970 100.9698447  46.4917800  96.5661498 100.4938558
  47.7729993  97.1252308 101.0750488  61.2982555 103.6509209 103.7203728
  62.1199999 103.2489396 103.4386410  61.2944958 103.5477443 104.6719844
  49.2333491  96.6748549  97.9281924  48.4364654  96.7867243  98.4465420
  49.0059083  97.0135201  97.0622815  55.0639159 103.1993252 105.8764439
  55.1283591 103.6613660 106.7122611  54.3550083 102.5690617 106.0046749
  45.5656449  96.5634460 103.4013438  45.8164487  97.4481470 103.6671014
  46.1015997  96.3839062 102.6288530  69.3888548  99.9947958 100.0688700
  68.6352257  99.4255356  99.9132704  69.5236090  99.9610622 101.0159334
  54.7787176 104.8661360  95.7443419  54.6432851 105.7112896  96.1728267
  55.3196989 105.0680637  94.9809353  51.2654516  90.9452940 112.4057774
  50.8721462  90.3919138 113.0805419  52.0820656  91.2563518 112.7964292
  48.2316574 102.3836798  96.3171344  48.7441094 103.1780048  96.4676909
  48.8839287 101.6863088  96.2504946  50.0411459 105.5002554  98.3994097
  50.2178087 106.4220519  98.2115081  50.8368292 105.1860973  98.8288477
  54.1822477  92.3610819 109.9978031  54.9232190  92.9617972 109.9182493
  54.4140400  91.6188457 109.4396073  49.3263815  97.5467186 108.2756261
  49.2117330  96.6452443 108.5763359  48.4708333  97.7930883 107.9241077
  56.4055653 105.4884926 109.8743761  55.9619507 104.7021305 109.5564666
  57.0672866 105.6764077 109.2087652  51.1642774 107.0180728 104.4004440
  51.7150199 106.8897791 103.6281434  50.3254250 107.3175617 104.0499332
  58.5036891 105.7687726 107.9025162  58.4855366 106.5896607 107.4105432
  59.4256811 105.6441801 108.1275304  54.9609945 103.2831856 108.7448671
  55.4938282 102.5220144 108.5147979  54.4324026 102.9905508 109.4872825
  58.1279640  88.3891922 104.2742313  57.7843909  89.2793563 104.1981423
  58.4958603  88.1993579 103.4111898  46.1965491 100.7125452  97.0930915
  47.0340713 101.1222461  96.8764622  46.3743758  99.7724894  97.0631109
  58.0929923  98.3800533  92.7814748  57.5776546  99.1505137  93.0203135
  57.8207231  97.7065669  93.4047809  55.6777034  93.2250234  97.8399986
  54.8218630  92.8357084  97.6605625  56.0903986  93.3042194  96.9799772
  57.2076180  90.7596577 102.2391546  56.7040976  90.7226712 101.4259351
  57.5006787  91.6689320 102.2988202  53.4519066  90.8435307 101.2457727
  54.3172063  90.6478115 100.8863617  53.5196575  90.6145658 102.1727084
  63.0664197 101.1332887  94.7167921  62.2893640 100.7944047  94.2723083
  63.7455678 101.1385511  94.0422886  57.8816226  96.2527625  94.6074529
  57.5766362  96.5673774  95.4584672  58.8346668  96.3309045  94.6501862
  56.3262658 102.4117848  96.2567483  55.7984019 101.6770608  95.9440720
  55.8250161 103.1892525  96.0107451  61.3055504 100.6066869 101.3734529
  60.6479178 101.2966130 101.4614658  62.1095903 100.9963301 101.7168515
  51.0581385  93.0737514  98.6174094  51.6325137  92.8512696  97.8847287
  51.6452368  93.1426209  99.3702696  60.1160963  98.9611241  99.4238471
  60.6292844  99.5941233  99.9260181  60.7662186  98.3612437  99.0581831
  51.3850972  95.1041976  92.6369980  50.5488285  95.4416662  92.9579254
  51.2455742  94.9690955  91.6997117  53.3604053  89.9478763  97.3449164
  52.7068465  89.6327781  96.7205779  53.3184527  89.3254504  98.0708987
  54.4715258 100.2298058  89.2602456  53.5642320  99.9987312  89.4593605
  54.9686290  99.4335678  89.4476437  57.3783337 108.9395566  92.1799142
  56.7045036 109.2427262  92.7884100  57.7649159 109.7424646  91.8304599
  56.5941793  96.4360697 101.6696811  55.6764355  96.6575644 101.5118499
  57.0101937  96.5107007 100.8108519  57.3776841  97.8352113  96.7999492
  58.1248660  98.3473510  96.4906614  57.6468431  97.5136165  97.6603885
  55.6503491 100.3310653  93.7826446  54.7414711 100.0469686  93.8798916
  55.6798575 100.7509732  92.9229753  60.8822759 103.9417243  97.5517613
  60.4285086 103.1008153  97.6082804  60.2516726 104.5778641  97.8892394
  59.8255678  94.8709229  98.7818281  59.0878435  94.3586615  99.1128523
  60.0782452  94.4309610  97.9701558  59.3255698 105.7793740  98.4867432
  59.6178672 106.3398797  97.7679797  59.8354319 106.0722301  99.2420591
  59.9267306  87.6485481  99.3760050  60.2326183  86.7882844  99.0885965
  60.6519911  88.2403101  99.1759044  46.2191662  98.0516167  97.7641648
  46.0216062  97.4585528  97.0392715  45.6638326  97.7468378  98.4817587
  54.1988385  97.9439274  99.8836241  54.2536995  96.9913110  99.8078718
  53.3879587  98.0998713 100.3677540  55.3479579 101.8719397  91.1214524
  54.9099009 101.1555256  90.6620162  56.0890020 102.0995512  90.5599616
  52.1380745  96.5616334  97.6426620  51.3248611  96.8610504  98.0491812
  52.6339740  96.1672022  98.3601102  54.2889323 106.5574091  99.5760885
  54.2465502 106.7834937  98.6469417  55.2052022 106.3237465  99.7246686
  57.7354957  97.0258158 106.4741514  58.0904345  97.2529631 107.3335980
  58.3827088  97.3576535 105.8518769  63.4652694 100.1476594  97.1790843
  63.3270593 100.3378190  96.2512032  63.1088913 100.9095977  97.6358894
  51.6294820  94.1334689 103.2587855  52.2694199  93.9923448 102.5610818
  50.7972351  93.8469203 102.8826457  63.4922074 102.2153121 102.1902115
  63.9258580 102.1228410 103.0385169  64.2053654 102.1910622 101.5522131
  52.4055124 103.4337120  99.3722848  53.1995723 102.9387440  99.1705422
  51.6946816 102.9054983  99.0090553  57.2249968 105.8155215 103.7235215
  57.2786991 106.3846151 104.4912931  56.3564750 105.9857100 103.3589252
  48.7137887  97.5780201  95.4482600  47.7835476  97.5164657  95.6652562
  48.8095359  97.0556154  94.6519241  48.6323437  94.1035014  98.0360842
  48.8930254  95.0180347  97.9270002  49.4540609  93.6359457  98.1857455
  50.1048362  95.5172771 105.2059666  50.7771415  95.3090133 104.5572315
  49.2778148  95.3194857 104.7664899  64.3537623 102.2576822 104.7235000
  64.5473513 103.1622632 104.9694275  64.2538241 101.7984241 105.5573585
  56.0073934  92.1434712 107.2225327  55.3601849  92.8424662 107.1289804
  56.7774949  92.5770856 107.5901575  59.4152732 102.4083564 110.2975881
  59.2638238 102.1794116 109.3805964  59.4057411 103.3654166 110.3107226
  56.1838068  99.9815477 105.2822147  57.1130128 100.1326637 105.1091114
  55.7629098 100.0699498 104.4270794  54.9826400 104.0066142 103.0520685
  54.8437486 103.6384926 103.9246623  54.1940996 104.5213781 102.8804642
  55.5774552 109.1075238  94.3946221  55.7526308 108.6363281  95.2091844
  54.8907340 109.7341004  94.6227482  56.5331615 103.3847744 100.4409522
  56.1981448 103.3448514 101.3367172  56.0335561 102.7192460  99.9679933
  50.5075859  98.7915374 105.9662104  50.3695657  98.0595613 106.5673643
  51.4180783  98.7024274 105.6846291  59.4690807 100.7303779  90.7146582
  58.8519977 100.0050607  90.6179635  59.0007295 101.4913139  90.3713656
  53.1358160  98.5035334 105.4545783  53.8457778  97.8628526 105.4132402
  53.0927468  98.7548229 106.3771964  61.1244938 105.4402687 108.3752362
  61.0657485 104.7561907 107.7082945  61.5264457 106.1821677 107.9232988
  51.8487094  95.4900552 107.2741423  51.3124451  95.0391290 107.9263019
  51.2603802  95.6246460 106.5311887  50.1435637 112.2564601 101.1686081
  50.3832236 112.8883125 101.8465100  49.3004834 111.9052641 101.4551441
  51.2589353  94.9489203  89.8367886  50.3818819  94.8278004  89.4730133
  51.7347106  94.1575281  89.5846775  61.1262346 103.4042271 106.6066342
  60.2389125 103.0668193 106.7292741  61.6960897 102.6725302 106.8435107
  42.7791493  99.7366363  99.9309393  43.4662533  99.4228093  99.3430409
  42.6239622 100.6407727  99.6576645  47.5826215  94.6256559 104.3594417
  47.4984404  94.0182229 103.6244827  46.7608921  95.1165578 104.3603914
  54.6563499 108.0643723 103.5727585  54.5833671 108.8698695 104.0846890
  54.2140892 108.2635689 102.7475607  54.4453279 107.3015493  97.0830407
  53.6620801 107.8437174  97.1768631  55.1446024 107.8189473  97.4824648
  57.7549929  93.1110123  99.7264612  58.2518628  92.3580085  99.4065682
  56.9836910  93.1474439  99.1607822  65.6079686  98.8150488 101.3682904
  65.5969563  99.6975204 100.9976837  64.7397066  98.4622039 101.1737441
  57.1162183 107.9630557 105.7285744  57.8290155 108.5978022 105.6561645
  56.6252211 108.0594423 104.9125746  58.8379710 101.8681810  97.3003036
  57.9035988 101.9883272  97.1307740  59.0156378 100.9654277  97.0363045
  54.3384898  95.2527506  99.4536297  53.9682685  94.6998546 100.1417202
  54.8343990  94.6485639  98.9011297  62.2252261  97.7099129  97.8353070
  62.6912713  98.5427121  97.7613372  62.6759761  97.2444111  98.5398328
  52.1674096 105.7125001 106.5491315  52.8683556 106.3461484 106.7020709
  51.6969211 106.0539732 105.7886954  60.2928492 104.0542951  94.8339222
  60.5688336 103.9399545  95.7433096  59.4232991 103.6560435  94.7951395
  60.1968924  90.0779716 101.8743971  59.2832003  90.3083943 102.0426178
  60.6262025  90.1618160 102.7258003  59.9675382  98.2669608 104.3743865
  59.3146832  98.5145516 103.7196318  60.3455762  97.4533746 104.0406342
  56.9282556 108.3029301  98.4772035  57.1104951 107.4850957  98.9399788
  57.7515542 108.5196994  98.0396925  57.2624722 107.2297487  95.7387084
  57.7912488 106.7189941  95.1257246  57.5252941 106.9140017  96.6032617
  56.0162955  99.0089419 110.8609902  55.3403592  98.9083549 111.5312277
  56.8390589  98.8528633 111.3245899  47.7641814 105.2461356 103.4822417
  48.3495251 104.5005044 103.6150322  47.5666653 105.5565313 104.3659081
  50.6180469 108.2812603  98.4984860  49.9490845 108.7658731  98.0148900
  50.4793339 108.5281824  99.4128238  42.3559469  97.8166956 102.2026861
  42.3943569  97.2830547 102.9963979  41.8499762  97.2902162 101.5837838
  54.7585738 110.3156347 105.0967518  55.3104046 110.4787968 105.8616603
  55.0991932 110.9060785 104.4247543  49.7350231  92.6631497 105.6989403
  49.7991558  93.5246327 105.2866801  49.6717352  92.0505498 104.9661761
  49.2102504  94.7354629 109.3462437  49.8374543  94.3531706 109.9599961
  48.3530423  94.5168831 109.7118130  45.9868047  96.5431058  95.2780792
  46.2821488  95.6341737  95.2247846  45.0856082  96.5218798  94.9561794
  57.8954125 108.2638322 102.0831200  57.7705265 107.4628062 101.5742146
  58.5533216 108.7584516 101.5945170  49.5162294  94.6187055 101.2608341
  48.7948879  95.2323022 101.1215814  50.3055549  95.1544820 101.1824987
  59.9589034 106.0647342 103.7110750  59.0119369 105.9452694 103.6389077
  60.3071807 105.1769840 103.7937012  52.3188607  91.9541481 107.5348992
  52.8423009  92.2003778 108.2975302  52.1000940  92.7861516 107.1152130
  47.7155888  94.2245156  95.4020117  47.3868594  93.3442535  95.2195223
  48.0695259  94.1692825  96.2896506  56.9635467 105.8600059  99.9115103
  56.8160429 104.9316766 100.0922673  57.7888961 105.8820149  99.4272178
  50.8297711  94.5118126  95.7695595  51.1693784  95.0404047  95.0474203
  51.2769832  94.8498532  96.5454161  60.5669589 106.6828617 100.9979975
  61.4916136 106.4771479 100.8604427  60.3984892 106.4345018 101.9069317
  53.5241152  92.8955176 105.2198663  53.1837972  92.0962989 105.6219343
  52.8180158  93.1956887 104.6475496  54.1757624  89.9804489 103.6725986
  54.9983693  89.5064967 103.5504876  54.4195687  90.7594973 104.1724672
  52.8165858  93.0092747  93.9688888  53.5374221  93.3874000  93.4652604
  52.1931163  93.7281624  94.0723866  56.9596981  93.7137896  94.9047220
  57.1760596  94.5962534  94.6036048  56.4791048  93.3224110  94.1752862
  51.6996203  96.6723609 101.4817965  51.5540783  96.9863913 102.3742246
  51.2221406  97.2908510 100.9288863  53.5592586  93.6626157 101.5298854
  53.5454154  92.7667251 101.1931152  54.2765014  93.6696821 102.1637140
  55.4118716  94.0963498 103.5751982  55.1536494  95.0180568 103.5736312
  54.8803757  93.6993932 104.2652446  60.3564905 107.2014285  96.3542067
  60.5301783 106.6360707  95.6015919  60.8493796 108.0015180  96.1721557
  46.1741865  99.2128954 104.4205626  45.6295333  99.9888762 104.5525900
  47.0521215  99.5599758 104.2624747  52.9629482  92.5440538  96.7986424
  53.0845393  91.6157184  96.9977312  52.6731524  92.5579224  95.8864740
  55.8320672  90.2295448  99.9353144  55.8542369  90.2934781  98.9805124
  56.2488731  89.3899957 100.1293650  66.2104296  99.9650708  97.9732367
  66.6535442  99.2158033  97.5751490  65.3330807  99.9560844  97.5906099
  61.3440078 106.5181049  93.4538965  62.0390982 107.1387742  93.6726280
  61.6863228 105.6676400  93.7291343  46.9607887  98.3398850 107.3135783
  46.2189623  98.4881485 107.9000413  46.6400631  98.6007116 106.4502532
  63.2431501 103.9680755  94.9826296  63.7682825 104.3068027  94.2575616
  63.1553853 103.0327770  94.7989431  54.9051549 107.8814828 107.1116173
  55.2138676 107.6363975 107.9838872  55.7027031 108.0861467 106.6235043
  54.9272161 110.0352738  99.3421549  54.4877152 109.5429117 100.0354406
  55.6780278 109.4925706  99.1013624  47.4064500 106.2264279  99.3446177
  48.2322520 105.9268051  98.9644821  47.0558552 105.4571901  99.7935966
  52.3746034 105.5790747 101.4143851  51.7526043 104.9161452 101.1146079
  53.0450900 105.6051879 100.7317499  45.6073105 104.1450605 100.3035111
  44.7705014 103.7172780 100.1219112  45.5796751 104.3383049 101.2405902
  52.4470561  94.0572535 111.0076357  52.4958717  94.9334658 110.6254126
  52.9893075  93.5149928 110.4348000  63.0523282 101.4506125 107.6010222
  63.1021287 101.2856132 108.5425745  62.9437205 100.5833384 107.2108103
  51.9359540 104.1294670  94.8902311  52.0847661 104.8130135  94.2368984
  52.7425984 104.1099760  95.4051767  60.3427044  97.4337053 108.9169529
  61.2436907  97.2943518 108.6253527  60.4175019  97.5991508 109.8567707
  54.6769850  94.8103907 107.7622715  53.8073159  95.1037474 107.4905304
  54.9129330  95.3944352 108.4829979  64.5541479 103.8703066 107.8452244
  64.2626287 104.2333047 108.6815705  63.9413610 103.1570075 107.6665576
  65.7537161 101.4355946 100.3654814  66.5884052 101.8745750 100.5292375
  65.8896290 100.9594599  99.5463060  62.8028667  98.9935681 106.3132302
  63.2782788  99.1863327 105.5051153  61.8794232  99.0494867 106.0675686
  49.6912173 100.1559848  95.8963380  49.4458215  99.2522178  96.0943590
  49.8608088 100.1576998  94.9542858  57.3808883  91.0283524 105.2788136
  57.8990827  91.7644551 104.9534624  57.0264016  91.3347518 106.1134895
  48.9607821  95.8888206  93.3949542  48.2677066  95.9632561  92.7389578
  48.7159573  95.1248549  93.9171059  57.6321478  87.4483807 100.7989032
  57.9123231  86.7806996 101.4249459  58.4172084  87.6412903 100.2863696
  55.4354946 106.6242801  92.3614059  54.8628913 107.2432988  91.9084531
  56.0087740 107.1742163  92.8953981  61.5030336  95.8701441 104.5460608
  62.4547759  95.9699539 104.5672832  61.3333786  95.0779709 105.0558692
  59.5244715  92.9557024 104.7320008  58.9294647  93.2362037 104.0366497
  59.2394412  93.4450925 105.5036750  58.6552206 106.9079951  93.4922641
  59.5882879 106.8425513  93.6955517  58.5675419 107.7436218  93.0337174
  61.2840222 106.2245821  90.4526589  61.2053854 105.8905685  91.3462347
  62.1049889 106.7167589  90.4518061  63.9818414  99.0907561 103.6602907
  63.9494734  98.1523561 103.8462591  64.5919037  99.1691597 102.9268732
  55.8201745  97.9603614  89.7030111  56.7660849  97.8309822  89.7718529
  55.4415989  97.2218276  90.1799539  64.1312902  95.8818604 103.7061190
  63.6151951  95.0977061 103.5191119  65.0152851  95.5537321 103.8707710
  61.7923629  89.6259620  99.6657003  61.5948450  89.3174708 100.5500335
  62.4023335  90.3521259  99.7954933  69.7994964 100.1523567 102.8008944
  70.5298352  99.8908856 103.3616647  69.1901909  99.4152289 102.8411012
  67.8810261  98.2931430 103.3983395  67.1543424  98.1587395 102.7899887
  67.4657548  98.6008259 104.2040113  55.7040437 102.0121360 111.1630768
  56.6243447 102.1899959 111.3570815  55.6690020 101.0677405 111.0110468
  54.0044662  95.8853590  89.6384996  53.0976117  95.5886703  89.7147710
  54.2820643  95.5883408  88.7719283  44.9222602  97.2059953 100.0884043
  44.6025386  96.3525262  99.7958417  44.3756030  97.4208532 100.8442010
  48.7002510  99.9222394 103.8053549  48.9188519 100.8539502 103.8241583
  49.1128283  99.5630369 104.5908353  55.6206727  90.4290480  95.7929238
  54.8107456  90.0837565  96.1684484  56.3091144  90.1198023  96.3816849
  57.5497276  89.5068527  97.4153534  58.1028314  89.9263980  98.0743558
  57.7867362  88.5804275  97.4576490  53.5730375  95.4955600 113.1956298
  53.4727102  96.4449957 113.1268389  53.3551917  95.1673839 112.3232368
  52.7743446  92.7440525  89.7796976  53.6362610  93.0695424  90.0392793
  52.9593790  91.9572021  89.2670041  44.7910862 100.8262865 102.0577164
  44.0974333 100.4116818 101.5447119  45.5383853 100.8683401 101.4610583
  60.9276083  91.6169052  96.9232199  60.3474752  92.2753856  96.5410251
  60.6612015  90.7946396  96.5119616  59.3779649  91.0174109  99.1253519
  59.8779427  91.1290644  98.3167838  60.0215257  90.7135162  99.7654327
  53.4361645  98.9252739 112.0121360  52.9528727  99.7253099 112.2185249
  53.5222584  98.9360684 111.0588804  46.7047605 100.7581119  99.9343179
  46.6818293 100.8568806  98.9825062  47.0148241 101.6046269 100.2560345
  49.3634982 102.8157274 104.0489794  50.3178236 102.7841216 103.9819725
  49.1647506 102.3547897 104.8640020  49.9534365 101.3858390 106.6160591
  50.7727254 101.8802468 106.6395429  50.2271172 100.4690358 106.5878159
  59.7100961  93.7769142  95.9788547  58.8226816  94.0618793  95.7608742
  60.1254950  93.6162905  95.1315824  63.0615497  93.8015663  99.6942886
  63.8375887  94.2912115  99.9667503  62.3363631  94.2273717 100.1514756
  65.4988056  94.5143282 100.7516827  66.0932546  94.2739018 100.0410135
  65.5714639  93.7950413 101.3790363  47.7185211 108.3576893 101.0659992
  47.5839679 107.5977294 100.4997990  47.3017274 109.0817793 100.5988781
  58.8544174 103.5413817  90.0736567  59.5580024 103.7463819  90.6894223
  58.1306823 104.1090579  90.3385650  59.6841985  99.2923678  96.1938837
  59.6277186  99.7492229  95.3546470  60.2370327  98.5314363  96.0161680
  63.4946790  95.0813410  97.0188957  63.2383725  94.6810046  97.8497164
  62.8699658  95.7957204  96.8939096  67.8059128  97.8209483  99.5260248
  67.2458686  97.8902672 100.2991810  67.2002632  97.6450468  98.8059744
  50.8754337 109.2546210 101.2778434  50.7586721 110.1991643 101.1757125
  50.0546783 108.9519772 101.6664233  60.7630872 103.9796346  92.1235027
  61.5976476 103.5477544  91.9412502  60.6015215 103.8078360  93.0511921
  60.4176764 100.4828459  93.4891366  60.3625568 100.3172731  92.5479810
  59.7922819 101.1904492  93.6453556  45.2069279  95.7196524 107.3152788
  45.8528142  95.2095478 107.8040014  44.9986430  96.4565205 107.8896214
  53.7272889  89.9836568  93.0676685  53.7151559  90.9278408  93.2244956
  54.6196311  89.8006714  92.7736146  51.9008851 109.9074472 104.4934363
  52.8036098 109.9398082 104.8100858  51.6746221 108.9774923 104.5080699
  53.6562453 108.6605459 101.1544441  52.7058084 108.6607320 101.0408814
  53.9594939 107.9138193 100.6380476  57.5425009  86.5779345  97.3222621
  56.7757405  86.0237832  97.4679304  57.9535714  86.6501214  98.1836773
  49.5466770  92.8664141 111.4127803  50.4098231  92.5100946 111.6231127
  48.9732180  92.5278036 112.1003207  62.0591669 116.3028902  98.1448619
  61.4956534 116.2118838  97.3764907  61.9444064 115.4828806  98.6251112
  59.6056101 117.7980093 100.9832840  60.3977393 117.4570918 100.5679139
  59.8452751 117.9075068 101.9034993  67.6391227 119.9699869  93.4563084
  66.9879207 120.5553950  93.0697098  68.4335590 120.5006064  93.5158122
  61.5646855 117.0589006  93.8550219  62.3377731 116.5117993  93.7163094
  61.9172253 117.9233256  94.0664680  63.9013132 113.2181673  91.4868669
  64.1538653 112.6963194  90.7252132  62.9637692 113.0547818  91.5895352
  68.9456415 112.2217451  99.2943412  69.7319504 111.8036874  98.9433829
  69.2095120 113.1263543  99.4625060  69.1166493 117.6590301  93.9932069
  68.4812326 117.7324928  94.7052973  68.7863899 118.2483900  93.3151148
  63.6209421 115.1209778  93.6893044  63.5045679 114.4454682  94.3574128
  63.7311681 114.6342152  92.8725197  65.9640962 114.5819926  97.3939733
  65.5999169 114.0550547  98.1052654  66.8208078 114.1918395  97.2206218
  65.6046449 109.6109825  92.3901081  65.7720851 110.4790062  92.7571552
  65.4143618 109.7737107  91.4662371  61.8134264 114.5240601 100.0903616
  60.8884760 114.3916815 100.2981308  62.0618677 115.3034820 100.5873558
  65.5835670 112.0667483  93.3747748  65.4635295 112.5124534  94.2133228
  64.8888258 112.4152800  92.8161286  59.1743075 114.1673875 100.9247405
  59.3035456 114.4208354 101.8386817  58.4940526 114.7601583 100.6052060
  71.2820736 112.5388956  94.2028082  72.1938592 112.7716343  94.0275780
  70.7730383 113.1226000  93.6403161  68.6256711 108.7146992 102.4517943
  67.7641190 109.0128245 102.7434681  68.6519146 108.9317391 101.5198976
  65.4418280 117.2589182  98.8591749  65.9056626 117.5376885  98.0696371
  65.1775078 116.3572627  98.6764839  64.3787166 113.3812335  95.6681314
  65.0811210 113.8333379  96.1355240  64.0467795 112.7396154  96.2961207
  58.1212500 111.6395888 100.9698447  57.3311554 111.8953416 100.4938558
  58.6123748 112.4544225 101.0750488  60.0727246 112.0040467  97.9281924
  59.2758409 112.1159161  98.4465420  59.8452838 112.3427119  97.0622815
  56.4050203 111.8926378 103.4013438  56.6558242 112.7773388 103.6671014
  56.9409752 111.7130980 102.6288530  65.6180931 120.1953277  95.7443419
  65.4826606 121.0404813  96.1728267  66.1590743 120.3972555  94.9809353
  59.0710328 117.7128716  96.3171344  59.5834849 118.5071966  96.4676909
  59.7233041 117.0155006  96.2504946  60.8805213 120.8294472  98.3994097
  61.0571841 121.7512436  98.2115081  61.6762047 120.5152891  98.8288477
  68.9673395 103.7183839 104.2742313  68.6237664 104.6085481 104.1981423
  69.3352357 103.5285497 103.4111898  57.0359245 116.0417370  97.0930915
  57.8734467 116.4514378  96.8764622  57.2137513 115.1016812  97.0631109
  68.9323677 113.7092450  92.7814748  68.4170301 114.4797055  93.0203135
  68.6600986 113.0357587  93.4047809  66.5170788 108.5542151  97.8399986
  65.6612385 108.1649002  97.6605625  66.9297740 108.6334112  96.9799772
  68.0469935 106.0888495 102.2391546  67.5434731 106.0518630 101.4259351
  68.3400542 106.9981237 102.2988202  64.2912821 106.1727224 101.2457727
  65.1565818 105.9770033 100.8863617  64.3590330 105.9437576 102.1727084
  73.9057951 116.4624805  94.7167921  73.1287394 116.1235965  94.2723083
  74.5849432 116.4677428  94.0422886  68.7209980 111.5819543  94.6074529
  68.4160116 111.8965692  95.4584672  69.6740423 111.6600962  94.6501862
  67.1656412 117.7409766  96.2567483  66.6377774 117.0062525  95.9440720
  66.6643915 118.5184442  96.0107451  61.8975140 108.4029432  98.6174094
  62.4718892 108.1804614  97.8847287  62.4846122 108.4718127  99.3702696
  62.2244727 110.4333893  92.6369980  61.3882039 110.7708580  92.9579254
  62.0849497 110.2982873  91.6997117  64.1997808 105.2770681  97.3449164
  63.5462220 104.9619698  96.7205779  64.1578282 104.6546422  98.0708987
  65.3109012 115.5589976  89.2602456  64.4036074 115.3279230  89.4593605
  65.8080044 114.7627595  89.4476437  68.2177091 124.2687483  92.1799142
  67.5438790 124.5719180  92.7884100  68.6042913 125.0716564  91.8304599
  67.4335548 111.7652615 101.6696811  66.5158109 111.9867562 101.5118499
  67.8495692 111.8398925 100.8108519  68.2170596 113.1644030  96.7999492
  68.9642415 113.6765428  96.4906614  68.4862185 112.8428083  97.6603885
  66.4897246 115.6602571  93.7826446  65.5808465 115.3761604  93.8798916
  66.5192330 116.0801650  92.9229753  70.6649433 110.2001147  98.7818281
  69.9272190 109.6878533  99.1128523  70.9176206 109.7601528  97.9701558
  70.7661060 102.9777399  99.3760050  71.0719937 102.1174762  99.0885965
  71.4913665 103.5695019  99.1759044  57.0585416 113.3808085  97.7641648
  56.8609816 112.7877446  97.0392715  56.5032080 113.0760295  98.4817587
  65.0382140 113.2731192  99.8836241  65.0930750 112.3205028  99.8078718
  64.2273342 113.4290631 100.3677540  66.1873334 117.2011315  91.1214524
  65.7492764 116.4847174  90.6620162  66.9283775 117.4287430  90.5599616
  62.9774500 111.8908251  97.6426620  62.1642365 112.1902422  98.0491812
  63.4733494 111.4963940  98.3601102  74.3046448 115.4768512  97.1790843
  74.1664347 115.6670108  96.2512032  73.9482667 116.2387895  97.6358894
  62.4688575 109.4626607 103.2587855  63.1087954 109.3215366 102.5610818
  61.6366105 109.1761120 102.8826457  63.2448879 118.7629037  99.3722848
  64.0389477 118.2679357  99.1705422  62.5340571 118.2346900  99.0090553
  59.5531642 112.9072119  95.4482600  58.6229230 112.8456575  95.6652562
  59.6489114 112.3848072  94.6519241  59.4717191 109.4326932  98.0360842
  59.7324008 110.3472265  97.9270002  60.2934363 108.9651374  98.1857455
  60.9442116 110.8464689 105.2059666  61.6165170 110.6382051 104.5572315
  60.1171903 110.6486775 104.7664899  66.4168306 124.4367156  94.3946221
  66.5920062 123.9655199  95.2091844  65.7301095 125.0632922  94.6227482
  70.3084561 116.0595696  90.7146582  69.6913732 115.3342524  90.6179635
  69.8401050 116.8205057  90.3713656  62.0983107 110.2781121  89.8367886
  61.2212574 110.1569921  89.4730133  62.5740860 109.4867199  89.5846775
  53.6185247 115.0658280  99.9309393  54.3056287 114.7520010  99.3430409
  53.4633376 115.9699645  99.6576645  58.4219969 109.9548477 104.3594417
  58.3378158 109.3474146 103.6244827  57.6002676 110.4457495 104.3603914
  68.5943683 108.4402040  99.7264612  69.0912383 107.6872003  99.4065682
  67.8230665 108.4766357  99.1607822  69.6773464 117.1973728  97.3003036
  68.7429743 117.3175190  97.1307740  69.8550133 116.2946194  97.0363045
  65.1778652 110.5819423  99.4536297  64.8076440 110.0290464 100.1417202
  65.6737745 109.9777557  98.9011297  73.0646015 113.0391047  97.8353070
  73.5306468 113.8719039  97.7613372  73.5153516 112.5736029  98.5398328
  71.1322247 119.3834868  94.8339222  71.4082090 119.2691463  95.7433096
  70.2626745 118.9852353  94.7951395  71.0362678 105.4071634 101.8743971
  70.1225758 105.6375861 102.0426178  71.4655780 105.4910078 102.7258003
  68.1018476 122.5589404  95.7387084  68.6306242 122.0481859  95.1257246
  68.3646696 122.2431934  96.6032617  53.1953223 113.1458874 102.2026861
  53.2337323 112.6122464 102.9963979  52.6893516 112.6194079 101.5837838
  60.5743986 107.9923414 105.6989403  60.6385312 108.8538245 105.2866801
  60.5111106 107.3797416 104.9661761  56.8261801 111.8722976  95.2780792
  57.1215242 110.9633654  95.2247846  55.9249837 111.8510715  94.9561794
  60.3556048 109.9478972 101.2608341  59.6342634 110.5614940 101.1215814
  61.1449304 110.4836737 101.1824987  58.5549643 109.5537074  95.4020117
  58.2262349 108.6734452  95.2195223  58.9089013 109.4984742  96.2896506
  61.6691466 109.8410043  95.7695595  62.0087538 110.3695965  95.0474203
  62.1163586 110.1790449  96.5454161  64.3634907 108.2247094 105.2198663
  64.0231727 107.4254907 105.6219343  63.6573913 108.5248805 104.6475496
  65.0151378 105.3096406 103.6725986  65.8377448 104.8356885 103.5504876
  65.2589442 106.0886890 104.1724672  63.6559613 108.3384665  93.9688888
  64.3767975 108.7165918  93.4652604  63.0324917 109.0573542  94.0723866
  67.7990736 109.0429814  94.9047220  68.0154350 109.9254452  94.6036048
  67.3184803 108.6516027  94.1752862  62.5389957 112.0015527 101.4817965
  62.3934538 112.3155830 102.3742246  62.0615161 112.6200427 100.9288863
  64.3986340 108.9918075 101.5298854  64.3847909 108.0959168 101.1931152
  65.1158768 108.9988739 102.1637140  66.2512471 109.4255415 103.5751982
  65.9930249 110.3472486 103.5736312  65.7197511 109.0285850 104.2652446
  57.0135619 114.5420872 104.4205626  56.4689087 115.3180679 104.5525900
  57.8914969 114.8891676 104.2624747  63.8023236 107.8732455  96.7986424
  63.9239147 106.9449102  96.9977312  63.5125278 107.8871141  95.8864740
  66.6714426 105.5587366  99.9353144  66.6936123 105.6226699  98.9805124
  67.0882485 104.7191874 100.1293650  72.1833832 121.8472967  93.4538965
  72.8784737 122.4679660  93.6726280  72.5256982 120.9968318  93.7291343
  74.0825255 119.2972672  94.9826296  74.6076579 119.6359945  94.2575616
  73.9947608 118.3619688  94.7989431  58.2458255 121.5556196  99.3446177
  59.0716275 121.2559968  98.9644821  57.8952307 120.7863819  99.7935966
  56.4466860 119.4742523 100.3035111  55.6098768 119.0464697 100.1219112
  56.4190505 119.6674966 101.2405902  62.7753295 119.4586588  94.8902311
  62.9241415 120.1422052  94.2368984  63.5819738 119.4391678  95.4051767
  60.5305928 115.4851766  95.8963380  60.2851970 114.5814096  96.0943590
  60.7001843 115.4868916  94.9542858  59.8001575 111.2180123  93.3949542
  59.1070820 111.2924478  92.7389578  59.5553327 110.4540467  93.9171059
  68.4715232 102.7775725 100.7989032  68.7516986 102.1098914 101.4249459
  69.2565839 102.9704820 100.2863696  66.2748701 121.9534719  92.3614059
  65.7022668 122.5724906  91.9084531  66.8481494 122.5034080  92.8953981
  69.4945960 122.2371869  93.4922641  70.4276633 122.1717430  93.6955517
  69.4069173 123.0728136  93.0337174  72.1233977 121.5537739  90.4526589
  72.0447608 121.2197603  91.3462347  72.9443644 122.0459507  90.4518061
  66.6595499 113.2895531  89.7030111  67.6054604 113.1601739  89.7718529
  66.2809744 112.5510193  90.1799539  72.6317384 104.9551537  99.6657003
  72.4342205 104.6466625 100.5500335  73.2417089 105.6813176  99.7954933
  64.8438416 111.2145508  89.6384996  63.9369872 110.9178620  89.7147710
  65.1214397 110.9175326  88.7719283  55.7616357 112.5351871 100.0884043
  55.4419141 111.6817179  99.7958417  55.2149785 112.7500449 100.8442010
  66.4600482 105.7582397  95.7929238  65.6501210 105.4129482  96.1684484
  67.1484899 105.4489941  96.3816849  68.3891030 104.8360444  97.4153534
  68.9422069 105.2555898  98.0743558  68.6261117 103.9096192  97.4576490
  63.6137201 108.0732443  89.7796976  64.4756365 108.3987341  90.0392793
  63.7987545 107.2863939  89.2670041  55.6304617 116.1554783 102.0577164
  54.9368088 115.7408735 101.5447119  56.3777608 116.1975319 101.4610583
  71.7669837 106.9460969  96.9232199  71.1868506 107.6045773  96.5410251
  71.5005770 106.1238314  96.5119616  70.2173404 106.3466027  99.1253519
  70.7173182 106.4582562  98.3167838  70.8609012 106.0427080  99.7654327
  57.5441359 116.0873036  99.9343179  57.5212047 116.1860724  98.9825062
  57.8541996 116.9338187 100.2560345  70.5494715 109.1061060  95.9788547
  69.6620570 109.3910710  95.7608742  70.9648704 108.9454823  95.1315824
  73.9009251 109.1307581  99.6942886  74.6769642 109.6204033  99.9667503
  73.1757386 109.5565635 100.1514756  69.6937929 118.8705734  90.0736567
  70.3973779 119.0755737  90.6894223  68.9700578 119.4382496  90.3385650
  70.5235739 114.6215596  96.1938837  70.4670940 115.0784147  95.3546470
  71.0764081 113.8606280  96.0161680  74.3340545 110.4105328  97.0188957
  74.0777479 110.0101963  97.8497164  73.7093413 111.1249121  96.8939096
  71.6024626 119.3088264  92.1235027  72.4370230 118.8769462  91.9412502
  71.4408969 119.1370277  93.0511921  71.2570518 115.8120377  93.4891366
  71.2019322 115.6464648  92.5479810  70.6316574 116.5196410  93.6453556
  56.0463033 111.0488441 107.3152788  56.6921897 110.5387395 107.8040014
  55.8380184 111.7857123 107.8896214  64.5666644 105.3128486  93.0676685
  64.5545314 106.2570326  93.2244956  65.4590066 105.1298631  92.7736146
  68.3818763 101.9071263  97.3222621  67.6151159 101.3529749  97.4679304
  68.7929468 101.9793131  98.1836773  73.0638481 125.7625811  92.6369980
  72.2275794 126.1000497  92.9579254  72.9243251 125.6274791  91.6997117
  72.9376862 125.6073038  89.8367886  72.0606328 125.4861839  89.4730133
  73.4134615 124.8159117  89.5846775  70.6395330 126.5472041  93.3949542
  69.9464575 126.6216396  92.7389578  70.3947082 125.7832385  93.9171059
  75.6832171 126.5437425  89.6384996  74.7763626 126.2470538  89.7147710
  75.9608152 126.2467243  88.7719283  74.4530955 123.4024361  89.7796976
  75.3150119 123.7279259  90.0392793  74.6381299 122.6155856  89.2670041
  75.4060398 120.6420404  93.0676685  75.3939068 121.5862244  93.2244956
  76.2983820 120.4590549  92.7736146  15.1946376  14.8568531  88.9435510
  15.8324786  14.7375279  88.2398850  15.0767218  15.8049375  89.0023463
   7.8622898  16.6631436  84.8693926   7.2987763  16.5721373  84.1010214
   7.7475293  15.8431340  85.3496419  13.4422456  20.3302403  80.1808391
  12.7910436  20.9156484  79.7942405  14.2366819  20.8608598  80.2403428
   7.3678083  17.4191541  80.5795525   8.1408959  16.8720528  80.4408401
   7.7203482  18.2835790  80.7909987   9.7044361  13.5784207  78.2113975
   9.9569882  13.0565728  77.4497438   8.7668920  13.4150352  78.3140659
  14.7487644  12.5819985  86.0188718  15.5350733  12.1639408  85.6679135
  15.0126348  13.4866077  86.1870367  14.9197721  18.0192835  80.7177375
  14.2843554  18.0927462  81.4298280  14.5895128  18.6086434  80.0396454
  20.1496071  12.5195218  86.9221697  20.8821243  11.9494435  87.1559526
  19.3935427  12.1316819  87.3628202   9.4240650  15.4812313  80.4138350
   9.3076908  14.8057216  81.0819434   9.5342910  14.9944687  79.5970503
  11.7672191  14.9422460  84.1185039  11.4030398  14.4153081  84.8297961
  12.6239307  14.5520929  83.9451525  11.3866899  12.4270017  80.0993055
  11.2666524  12.8727068  80.9378535  10.6919487  12.7755335  79.5406593
   9.1473791  25.1973659  83.7483186   9.0697821  26.1481484  83.8271667
   8.5435434  24.8519531  84.4058112  17.0851965  12.8991490  80.9273389
  17.9969821  13.1318877  80.7521086  16.5761612  13.4828534  80.3648467
  15.6921547  17.8817309  88.3186970  15.0630410  18.0463023  87.6163038
  15.3047209  18.2958918  89.0897934  19.5710779  18.8171746  85.6731334
  18.8861817  19.1970648  85.1228367  19.6554628  19.4267073  86.4063282
  11.2449509  17.6191717  85.5837055  11.7087855  17.8979420  84.7941678
  10.9806307  16.7175161  85.4010146  10.1818395  13.7414869  82.3926620
  10.8842438  14.1935913  82.8600547   9.8499024  13.0998688  83.0206514
  17.9407539  19.3403661  90.4449035  18.7624982  18.9383848  90.1631716
  17.9369942  19.2371895  91.3965151  26.0313532  15.6842409  86.7934006
  25.2777240  15.1149807  86.6378011  26.1661073  15.6505074  87.7404641
  11.4212160  20.5555812  82.4688726  11.2857835  21.4007347  82.8973573
  11.9621972  20.7575089  81.7054659   4.8741557  18.0731250  83.0416651
   5.3866078  18.8674500  83.1922215   5.5264270  17.3757540  82.9750252
   6.6836442  21.1897006  85.1239404   6.8603070  22.1114971  84.9360388
   7.4793275  20.8755425  85.5533784   7.8067757  22.7075180  91.1249746
   8.3575182  22.5792243  90.3526740   6.9679233  23.0070069  90.7744639
  14.7354906  14.0694985  79.5060054  14.2201529  14.8399589  79.7448442
  14.4632215  13.3960121  80.1293116  19.7089180  16.8227339  81.4413228
  18.9318623  16.4838499  80.9968390  20.3880661  16.8279962  80.7668193
  14.5241209  11.9422077  81.3319835  14.2191345  12.2568226  82.1829979
  15.4771651  12.0203497  81.3747168  12.9687641  18.1012300  82.9812789
  12.4409003  17.3665060  82.6686027  12.4675144  18.8786976  82.7352758
  17.9480487  16.2961321  88.0979836  17.2904162  16.9860582  88.1859964
  18.7520886  16.6857753  88.4413822  16.7585946  14.6505693  86.1483777
  17.2717828  15.2835685  86.6505487  17.4087170  14.0506889  85.7827137
  11.1140241  15.9192510  75.9847762  10.2067303  15.6881764  76.1838911
  11.6111273  15.1230130  76.1721744  14.0208320  24.6290018  78.9044449
  13.3470019  24.9321714  79.5129406  14.4074142  25.4319098  78.5549906
  14.0201825  13.5246565  83.5244798  14.7673643  14.0367962  83.2151920
  14.2893414  13.2030617  84.3849192  12.2928475  16.0205105  80.5071753
  11.3839694  15.7364138  80.6044222  12.3223559  16.4404184  79.6475059
  17.5247742  19.6311695  84.2762920  17.0710069  18.7902605  84.3328111
  16.8941709  20.2673093  84.6137700  16.4680662  10.5603681  85.5063588
  15.7303418  10.0481067  85.8373830  16.7207435  10.1204062  84.6946864
  15.9680681  21.4688191  85.2112738  16.2603656  22.0293249  84.4925104
  16.4779302  21.7616752  85.9665897  10.8413369  13.6333726  86.6081548
  10.8961979  12.6807562  86.5324024  10.0304571  13.7893165  87.0922846
  11.9904563  17.5613849  77.8459831  11.5523992  16.8449708  77.3865468
  12.7315003  17.7889964  77.2844923  10.9314307  22.2468543  86.3006191
  10.8890485  22.4729389  85.3714723  11.8477005  22.0131917  86.4491993
  20.1077677  15.8371046  83.9036150  19.9695576  16.0272642  82.9757339
  19.7513896  16.5990429  84.3604201  20.1347057  17.9047573  88.9147421
  20.5683564  17.8122862  89.7630475  20.8478638  17.8805073  88.2767437
   9.0480107  19.1231572  86.0968154   9.8420706  18.6281892  85.8950729
   8.3371800  18.5949435  85.7335860  13.8674952  21.5049667  90.4480522
  13.9211974  22.0740603  91.2158238  12.9989733  21.6751552  90.0834559
  20.9962606  17.9471274  91.4480307  21.1898497  18.8517084  91.6939582
  20.8963225  17.4878693  92.2818892  11.6251383  19.6960594  89.7765991
  11.4862469  19.3279378  90.6491929  10.8365980  20.2108233  89.6049949
  12.2199535  24.7969690  81.1191528  12.3951291  24.3257733  81.9337150
  11.5332323  25.4235456  81.3472789  13.1756598  19.0742196  87.1654829
  12.8406431  19.0342966  88.0612479  12.6760544  18.4086912  86.6925239
  16.1115790  16.4198231  77.4391889  15.4944961  15.6945059  77.3424941
  15.6432279  17.1807591  77.0958963   6.7860621  27.9459053  87.8931388
   7.0257219  28.5777577  88.5710407   5.9429817  27.5947093  88.1796747
  11.2988482  23.7538175  90.2972892  11.2258654  24.5593147  90.8092196
  10.8565876  23.9530141  89.4720913  11.0878262  22.9909945  83.8075713
  10.3045784  23.5331625  83.9013938  11.7871007  23.5083925  84.2069955
  22.2504670  14.5044940  88.0928210  22.2394546  15.3869656  87.7222143
  21.3822049  14.1516491  87.8982747  13.7587166  23.6525009  92.4531051
  14.4715138  24.2872474  92.3806952  13.2677195  23.7488875  91.6371052
  15.4804693  17.5576262  84.0248342  14.5460972  17.6777724  83.8553047
  15.6581361  16.6548729  83.7608352  18.8677244  13.3993581  84.5598376
  19.3337696  14.2321573  84.4858679  19.3184745  12.9338563  85.2643635
  16.9353475  19.7437402  81.5584528  17.2113319  19.6293997  82.4678403
  16.0657974  19.3454887  81.5196702  13.5707539  23.9923753  85.2017342
  13.7529934  23.1745409  85.6645094  14.3940525  24.2091446  84.7642232
  13.9049705  22.9191938  82.4632391  14.4337471  22.4084393  81.8502553
  14.1677924  22.6034469  83.3277924   7.2605453  23.9707055  85.2230166
   6.5915828  24.4553183  84.7394207   7.1218322  24.2176276  86.1373545
  11.4010721  26.0050799  91.8212825  11.9529029  26.1682420  92.5861910
  11.7416915  26.5955236  91.1492850  14.5379109  23.9532774  88.8076507
  14.4130248  23.1522514  88.2987453  15.1958200  24.4478968  88.3190477
  16.6014017  21.7541794  90.4356057  15.6544353  21.6347145  90.3634384
  16.9496790  20.8664292  90.5182319  13.6060450  21.5494510  86.6360409
  13.4585413  20.6211218  86.8167979  14.4313944  21.5714601  86.1517485
  17.2094572  22.3723069  87.7225282  18.1341120  22.1665931  87.5849733
  17.0409876  22.1239470  88.6314624  16.9989888  22.8908737  83.0787374
  17.1726766  22.3255159  82.3261226  17.4918780  23.6909632  82.8966863
  22.8529280  15.6545160  84.6977673  23.2960426  14.9052485  84.2996797
  21.9755790  15.6455296  84.3151405  17.9865061  22.2075501  80.1784272
  18.6815965  22.8282194  80.3971586  18.3288211  21.3570852  80.4536650
  19.8856484  19.6575207  81.7071603  20.4107808  19.9962479  80.9820923
  19.7978837  18.7222222  81.5234737  11.5697145  25.7247190  86.0666856
  11.1302135  25.2323569  86.7599712  12.3205262  25.1820158  85.8258931
   4.0489484  21.9158731  86.0691484   4.8747504  21.6162503  85.6890127
   3.6983536  21.1466353  86.5181273   9.0171017  21.2685199  88.1389157
   8.3951026  20.6055904  87.8391385   9.6875884  21.2946331  87.4562805
   8.5784524  19.8189122  81.6147618   8.7272644  20.5024587  80.9614291
   9.3850967  19.7994212  82.1297074  22.3962144  17.1250398  87.0900121
  23.2309036  17.5640202  87.2537681  22.5321273  16.6489051  86.2708367
   6.3337157  15.8454300  82.6208687   6.0883199  14.9416630  82.8188897
   6.5033071  15.8471450  81.6788165  12.0779929  22.3137253  79.0859365
  11.5053896  22.9327440  78.6329837  12.6512723  22.8636614  79.6199287
  15.2977189  22.5974403  80.2167948  16.2307862  22.5319965  80.4200823
  15.2100402  23.4330670  79.7582480  17.9265206  21.9140273  77.1771895
  17.8478837  21.5800137  78.0707653  18.7474873  22.4062041  77.1763368
  20.6243397  14.7802013  90.3848214  20.5919717  13.8418013  90.5707898
  21.2344021  14.8586049  89.6514039  12.4626728  13.6498065  76.4275418
  13.4085833  13.5204274  76.4963836  12.0840973  12.9112727  76.9044846
  26.4419947  15.8418019  89.5254251  27.1723335  15.5803307  90.0861954
  25.8326892  15.1046741  89.5656319  24.5235244  13.9825882  90.1228702
  23.7968408  13.8481847  89.5145193  24.1082531  14.2902711  90.9285420
  17.5701066   7.3063504  83.6477505  16.9899735   7.9648308  83.2655558
  17.3036999   6.4840848  83.2364923  16.3525944   9.4663594  82.7033854
  15.4651799   9.7513245  82.4854048  16.7679933   9.3057357  81.8561130
  19.7040480   9.4910115  86.4188193  20.4800870   9.9806567  86.6912810
  18.9788614   9.9168169  86.8760062  22.1413039  10.2037734  87.4762133
  22.7357530   9.9633470  86.7655442  22.2139623   9.4844865  88.1035670
   4.3610195  24.0471345  87.7905298   4.2264662  23.2871746  87.2243296
   3.9442257  24.7712245  87.3234087  15.4969158  19.2308269  76.7981874
  16.2005008  19.4358271  77.4139529  14.7731806  19.7985031  77.0630957
  16.3266968  14.9818130  82.9184144  16.2702169  15.4386681  82.0791776
  16.8795310  14.2208814  82.7406986  20.1371774  10.7707862  83.7434263
  19.8808708  10.3704497  84.5742471  19.5124642  11.4851656  83.6184402
  24.4484112  13.5103935  86.2505555  23.8883670  13.5797124  87.0237117
  23.8427615  13.3344920  85.5305051   7.5179320  24.9440662  88.0023741
   7.4011705  25.8886095  87.9002431   6.6971767  24.6414224  88.3909540
  17.4055855  19.6690798  78.8480334  18.2401459  19.2371996  78.6657808
  17.2440198  19.4972811  79.7757228  17.0601747  16.1722911  80.2136673
  17.0050551  16.0067183  79.2725117  16.4347802  16.8798944  80.3698863
   8.5433835  25.5968924  91.2179669   9.4461081  25.6292534  91.5346164
   8.3171205  24.6669375  91.2326005  10.2987437  24.3499911  87.8789748
   9.3483068  24.3501772  87.7654120  10.6019923  23.6032645  87.3625783
  26.0340130  30.1860449  88.9435510  26.6718540  30.0667196  88.2398850
  25.9160973  31.1341293  89.0023463  22.8429836  30.1387877  88.8797035
  22.5048348  30.0228942  87.9917570  23.7119605  29.7379042  88.8598041
  18.7016652  31.9923353  84.8693926  18.1381517  31.9013290  84.1010214
  18.5869047  31.1723258  85.3496419  23.3249619  31.2922729  94.8383241
  23.3138260  30.8975527  93.9663744  23.4870259  30.5588801  95.4317012
  16.2481084  33.4874545  87.7078146  17.0402376  33.1465370  87.2924446
  16.4877734  33.5969520  88.6280300  24.2816211  35.6594321  80.1808391
  23.6304191  36.2448402  79.7942405  25.0760574  36.1900516  80.2403428
  18.2071838  32.7483458  80.5795525  18.9802714  32.2012445  80.4408401
  18.5597237  33.6127708  80.7909987  20.0456880  34.0759841  93.7862425
  19.7546746  34.9805471  93.6709091  20.6813865  34.1176368  94.5006494
  20.9713087  31.4536689  90.3763784  21.5676660  31.2292711  89.6620747
  21.0288059  30.7121435  90.9789232  20.5438116  28.9076124  78.2113975
  20.7963636  28.3857646  77.4497438  19.6062675  28.7442270  78.3140659
  25.5881399  27.9111903  86.0188718  26.3744488  27.4931326  85.6679135
  25.8520103  28.8157995  86.1870367  25.7591476  33.3484753  80.7177375
  25.1237309  33.4219380  81.4298280  25.4288882  33.9378352  80.0396454
  30.9889826  27.8487136  86.9221697  31.7214998  27.2786353  87.1559526
  30.2329181  27.4608736  87.3628202  20.2634404  30.8104230  80.4138350
  20.1470663  30.1349134  81.0819434  20.3736664  30.3236604  79.5970503
  22.6065945  30.2714377  84.1185039  22.2424153  29.7444998  84.8297961
  23.4633061  29.8812847  83.9451525  28.5115246  21.5608710  91.3816306
  28.1798571  22.4304121  91.1577521  27.9160859  21.2444994  92.0610336
  22.2471432  25.3004277  79.1146388  22.4145835  26.1684514  79.4816859
  22.0568601  25.4631559  78.1907677  25.0046766  33.7621256  90.7812218
  24.7047489  34.6646295  90.6728025  24.6597825  33.4953439  91.6333371
  18.4559247  30.2135053  86.8148923  17.5309744  30.0811267  87.0226614
  18.7043660  30.9929272  87.3118865  28.4043909  26.2803796  88.4609656
  27.4960787  26.2119205  88.1668417  28.3531505  26.7575741  89.2891481
  22.2260653  27.7561935  80.0993055  22.1060278  28.2018985  80.9378535
  21.5313242  28.1047252  79.5406593  15.8168058  29.8568326  87.6492712
  15.9460439  30.1102805  88.5632123  15.1365509  30.4496034  87.3297367
  19.9867545  40.5265576  83.7483186  19.9091575  41.4773402  83.8271667
  19.3829189  40.1811449  84.4058112  22.4784775  27.6993442  96.4044553
  21.7018109  28.2587362  96.3947417  23.1175338  28.1850225  96.9259423
  30.2705556  24.4820235  90.2387529  29.6279936  24.7752768  89.5927324
  29.7660484  24.3673155  91.0440726  27.9245719  28.2283408  80.9273389
  28.8363576  28.4610795  80.7521086  27.4155366  28.8120452  80.3648467
  20.7331147  30.5078895  95.9662520  21.4745832  31.0463939  95.6897343
  20.0268133  31.1345184  96.1234072  26.2086487  32.6508036  94.5634681
  26.6169843  32.2090446  93.8189314  25.4863749  32.0760663  94.8168874
  22.5617557  27.5880642  91.9368238  23.4078752  28.0120056  92.0802887
  22.5016195  26.9314267  92.6306801  26.5315302  33.2109226  88.3186970
  25.9024164  33.3754940  87.6163038  26.1440964  33.6250836  89.0897934
  30.4104534  34.1463664  85.6731334  29.7255572  34.5262566  85.1228367
  30.4948383  34.7558991  86.4063282  25.7117002  25.2485011  93.5949412
  25.4677934  26.0027071  93.0583688  25.9876933  25.6270358  94.4296659
  27.6655465  31.7923623  92.2726678  27.8772360  32.4355383  91.5961059
  27.6185213  30.9585940  91.8048608  25.2681694  24.4041444  89.1763250
  24.4066173  24.7022697  89.4679987  25.2944129  24.6211843  88.2444282
  22.0843264  32.9483634  85.5837055  22.5481609  33.2271337  84.7941678
  21.8200062  32.0467079  85.4010146  18.9767345  32.4955116  88.5216819
  19.5468702  32.9242384  87.8834303  19.5675456  32.2137701  89.2201004
  21.0212150  29.0706787  82.3926620  21.7236193  29.5227830  82.8600547
  20.6892778  28.4290606  83.0206514  19.4692511  27.6618543  96.7677830
  18.8391172  28.3434824  97.0013227  19.3628599  27.5501625  95.8230968
  14.7637484  27.3290339  87.6943754  13.9736538  27.5847868  87.2183865
  15.2548731  28.1438677  87.7995795  28.7801293  34.6695579  90.4449035
  29.6018737  34.2675766  90.1631716  28.7763696  34.5663813  91.3965151
  16.7152229  27.6934919  84.6527231  15.9183392  27.8053613  85.1710726
  16.4877821  28.0321571  83.7868121  22.5457897  34.2179622  92.6009745
  22.6102329  34.6800029  93.4367917  21.8368820  33.5876987  92.7292055
  13.0475187  27.5820830  90.1258745  13.2983225  28.4667840  90.3916321
  13.5834735  27.4025431  89.3533837  36.8707286  31.0134327  86.7934006
  36.1170995  30.4441725  86.6378011  37.0054827  30.9796992  87.7404641
  22.2605914  35.8847729  82.4688726  22.1251589  36.7299265  82.8973573
  22.8015727  36.0867007  81.7054659  15.7135312  33.4023167  83.0416651
  16.2259832  34.1966418  83.1922215  16.3658024  32.7049458  82.9750252
  17.5230196  36.5188924  85.1239404  17.6996825  37.4406888  84.9360388
  18.3187030  36.2047343  85.5533784  21.6641215  23.3797188  96.7223337
  22.4050928  23.9804341  96.6427800  21.8959138  22.6374826  96.1641380
  16.8082553  28.5653556  95.0001567  16.6936068  27.6638813  95.3008666
  15.9527071  28.8117252  94.6486384  23.8874391  36.5071296  96.5989068
  23.4438245  35.7207674  96.2809972  24.5491604  36.6950446  95.9332959
  18.6461512  38.0367097  91.1249746  19.1968937  37.9084161  90.3526740
  17.8072988  38.3361986  90.7744639  25.9855629  36.7874096  94.6270469
  25.9674104  37.6082977  94.1350738  26.9075549  36.6628171  94.8520610
  22.4428683  34.3018225  95.4693977  22.9757020  33.5406513  95.2393285
  21.9142764  34.0091877  96.2118132  25.6098378  19.4078291  90.9987619
  25.2662647  20.2979933  90.9226730  25.9777340  19.2179949  90.1357204
  13.6784228  31.7311822  83.8176221  14.5159450  32.1408830  83.6009929
  13.8562496  30.7911264  83.7876415  25.5748661  29.3986902  79.5060054
  25.0595284  30.1691507  79.7448442  25.3025969  28.7252039  80.1293116
  23.1595772  24.2436603  84.5645293  22.3037368  23.8543454  84.3850931
  23.5722723  24.3228564  83.7045078  24.6894918  21.7782946  88.9636852
  24.1859714  21.7413082  88.1504658  24.9825525  22.6875689  89.0233509
  20.9337804  21.8621676  87.9703034  21.7990801  21.6664485  87.6108924
  21.0015313  21.6332028  88.8972391  30.5482935  32.1519257  81.4413228
  29.7712377  31.8130417  80.9968390  31.2274416  32.1571880  80.7668193
  25.3634964  27.2713994  81.3319835  25.0585099  27.5860144  82.1829979
  26.3165406  27.3495414  81.3747168  23.8081396  33.4304218  82.9812789
  23.2802757  32.6956977  82.6686027  23.3068898  34.2078894  82.7352758
  28.7874242  31.6253238  88.0979836  28.1297916  32.3152500  88.1859964
  29.5914641  32.0149670  88.4413822  18.5400123  24.0923884  85.3419401
  19.1143875  23.8699066  84.6092594  19.1271106  24.1612579  86.0948002
  27.5979700  29.9797611  86.1483777  28.1111582  30.6127603  86.6505487
  28.2480924  29.3798806  85.7827137  18.8669710  26.1228345  79.3615286
  18.0307023  26.4603032  79.6824561  18.7274480  25.9877325  78.4242423
  20.8422791  20.9665133  84.0694470  20.1887203  20.6514150  83.4451085
  20.8003265  20.3440873  84.7954293  21.9533996  31.2484428  75.9847762
  21.0461057  31.0173681  76.1838911  22.4505028  30.4522047  76.1721744
  24.8602075  39.9581935  78.9044449  24.1863773  40.2613632  79.5129406
  25.2467897  40.7611016  78.5549906  24.0760531  27.4547067  88.3942118
  23.1583093  27.6762014  88.2363806  24.4920675  27.5293377  87.5353825
  24.8595579  28.8538482  83.5244798  25.6067398  29.3659879  83.2151920
  25.1287169  28.5322535  84.3849192  23.1322229  31.3497023  80.5071753
  22.2233448  31.0656056  80.6044222  23.1617313  31.7696101  79.6475059
  28.3641497  34.9603612  84.2762920  27.9103824  34.1194522  84.3328111
  27.7335463  35.5965011  84.6137700  27.3074416  25.8895598  85.5063588
  26.5697173  25.3772985  85.8373830  27.5601190  25.4495980  84.6946864
  26.8074436  36.7980109  85.2112738  27.0997410  37.3585166  84.4925104
  27.3173056  37.0908670  85.9665897  27.4086043  18.6671850  86.1005357
  27.7144920  17.8069214  85.8131272  28.1338648  19.2589471  85.9004351
  13.7010400  29.0702537  84.4886955  13.5034799  28.4771898  83.7638021
  13.1457064  28.7654747  85.2062894  21.6807123  28.9625644  86.6081548
  21.7355733  28.0099480  86.5324024  20.8698325  29.1185083  87.0922846
  22.8298317  32.8905767  77.8459831  22.3917747  32.1741626  77.3865468
  23.5708758  33.1181881  77.2844923  19.6199483  27.5802703  84.3671927
  18.8067349  27.8796874  84.7737119  20.1158477  27.1858392  85.0846409
  21.7708061  37.5760460  86.3006191  21.7284240  37.8021306  85.3714723
  22.6870760  37.3423835  86.4491993  25.2173695  28.0444528  93.1986821
  25.5723083  28.2716001  94.0581286  25.8645826  28.3762905  92.5764076
  30.9471432  31.1662964  83.9036150  30.8089330  31.3564560  82.9757339
  30.5907651  31.9282346  84.3604201  19.1113558  25.1521059  89.9833162
  19.7512937  25.0109818  89.2856125  18.2791088  24.8655572  89.6071764
  30.9740811  33.2339491  88.9147421  31.4077318  33.1414780  89.7630475
  31.6872392  33.2096991  88.2767437  19.8873862  34.4523489  86.0968154
  20.6814460  33.9573809  85.8950729  19.1765554  33.9241352  85.7335860
  24.7068706  36.8341585  90.4480522  24.7605729  37.4032521  91.2158238
  23.8383488  37.0043470  90.0834559  16.1956625  28.5966571  82.1727907
  15.2654213  28.5351026  82.3897869  16.2914097  28.0742524  81.3764548
  16.1142174  25.1221384  84.7606149  16.3748992  26.0366717  84.6515309
  16.9359347  24.6545826  84.9102761  17.5867100  26.5359141  91.9304973
  18.2590153  26.3276503  91.2817622  16.7596886  26.3381227  91.4910205
  31.8356361  33.2763191  91.4480307  32.0292251  34.1809002  91.6939582
  31.7356979  32.8170610  92.2818892  23.4892672  23.1621082  93.9470634
  22.8420587  23.8611032  93.8535110  24.2593687  23.5957226  94.3146882
  26.8971470  33.4269934  97.0221187  26.7456976  33.1980486  96.1051271
  26.8876149  34.3840535  97.0352532  23.6656806  31.0001847  92.0067454
  24.5948866  31.1513006  91.8336421  23.2447836  31.0885868  91.1516100
  22.4645138  35.0252511  89.7765991  22.3256224  34.6571296  90.6491929
  21.6759734  35.5400151  89.6049949  23.0593290  40.1261608  81.1191528
  23.2345045  39.6549651  81.9337150  22.3726078  40.7527374  81.3472789
  24.0150353  34.4034114  87.1654829  23.6800186  34.3634884  88.0612479
  23.5154299  33.7378830  86.6925239  17.9894597  29.8101744  92.6907410
  17.8514395  29.0781983  93.2918949  18.8999520  29.7210644  92.4091598
  26.9509545  31.7490148  77.4391889  26.3338715  31.0236976  77.3424941
  26.4826033  32.5099508  77.0958963  20.6176898  29.5221703  92.1791090
  21.3276516  28.8814895  92.1377708  20.5746206  29.7734598  93.1017271
  28.6063676  36.4589057  95.0997669  28.5476222  35.7748277  94.4328252
  29.0083195  37.2008047  94.6478295  19.3305832  26.5086921  93.9986729
  18.7943189  26.0577660  94.6508326  18.7422540  26.6432830  93.2557194
  17.6254375  43.2750970  87.8931388  17.8650973  43.9069495  88.5710407
  16.7823572  42.9239010  88.1796747  18.7408091  25.9675573  76.5613193
  17.8637557  25.8464373  76.1975440  19.2165844  25.1761651  76.3092082
  28.6081084  34.4228641  93.3311649  27.7207862  34.0854562  93.4538048
  29.1779635  33.6911672  93.5680414  10.2610231  30.7552732  86.6554700
  10.9481270  30.4414462  86.0675715  10.1058359  31.6594097  86.3821952
  15.0644953  25.6442929  91.0839724  14.9803142  25.0368598  90.3490134
  14.2427659  26.1351947  91.0849220  22.1382237  39.0830093  90.2972892
  22.0652408  39.8885064  90.8092196  21.6959630  39.2822059  89.4720913
  21.9272017  38.3201863  83.8075713  21.1439538  38.8623543  83.9013938
  22.6264762  38.8375843  84.2069955  25.2368667  24.1296492  86.4509919
  25.7337366  23.3766455  86.1310989  24.4655648  24.1660809  85.8853128
  33.0898424  29.8336858  88.0928210  33.0788300  30.7161573  87.7222143
  32.2215804  29.4808409  87.8982747  24.5980920  38.9816927  92.4531051
  25.3108893  39.6164392  92.3806952  24.1070949  39.0780793  91.6371052
  26.3198447  32.8868180  84.0248342  25.3854726  33.0069642  83.8553047
  26.4975116  31.9840646  83.7608352  21.8203635  26.2713875  86.1781603
  21.4501423  25.7184916  86.8662509  22.3162728  25.6672009  85.6256604
  29.7070999  28.7285499  84.5598376  30.1731451  29.5613490  84.4858679
  30.1578499  28.2630480  85.2643635  19.6492834  36.7311370  93.2736621
  20.3502293  37.3647853  93.4266016  19.1787949  37.0726102  92.5132261
  27.7747230  35.0729320  81.5584528  28.0507074  34.9585915  82.4678403
  26.9051729  34.6746805  81.5196702  27.6787661  21.0966086  88.5989278
  26.7650741  21.3270313  88.7671485  28.1080763  21.1804530  89.4503310
  27.4494120  29.2855978  91.0989172  26.7965570  29.5331885  90.4441625
  27.8274500  28.4720116  90.7651649  24.4101294  39.3215671  85.2017342
  24.5923688  38.5037327  85.6645094  25.2334280  39.5383363  84.7642232
  24.7443459  38.2483856  82.4632391  25.2731226  37.7376311  81.8502553
  25.0071679  37.9326386  83.3277924  23.4981693  30.0275789  97.5855209
  22.8222330  29.9269918  98.2557584  24.3209327  29.8715003  98.0491206
  15.2460552  36.2647725  90.2067724  15.8313989  35.5191413  90.3395628
  15.0485390  36.5751682  91.0904388  18.0999207  39.2998973  85.2230166
  17.4309583  39.7845100  84.7394207  17.9612077  39.5468193  86.1373545
   9.8378207  28.8353326  88.9272167   9.8762306  28.3016916  89.7209285
   9.3318500  28.3088531  88.3083144  22.2404476  41.3342716  91.8212825
  22.7922784  41.4974338  92.5861910  22.5810669  41.9247154  91.1492850
  17.2168969  23.6817866  92.4234710  17.2810296  24.5432697  92.0112107
  17.1536089  23.0691868  91.6907068  27.0915350  36.1603974  97.6761479
  27.6355254  36.7733932  97.1816434  26.5102195  36.7183552  98.1928492
  13.4686784  27.5617428  82.0026099  13.7640225  26.6528106  81.9493152
  12.5674820  27.5405167  81.6807101  25.3772863  39.2824692  88.8076507
  25.2524003  38.4814432  88.2987453  26.0351954  39.7770885  88.3190477
  16.9981031  25.6373424  87.9853647  16.2767617  26.2509392  87.8461121
  17.7874287  26.1731189  87.9070293  27.4407772  37.0833712  90.4356057
  26.4938107  36.9639063  90.3634384  27.7890545  36.1956210  90.5182319
  19.8007345  22.9727851  94.2594299  20.3241747  23.2190147  95.0220608
  19.5819678  23.8047886  93.8397436  15.1974626  25.2431525  82.1265424
  14.8687332  24.3628904  81.9440530  15.5513997  25.1879194  83.0141813
  24.4454205  36.8786428  86.6360409  24.2979167  35.9503136  86.8167979
  25.2707698  36.9006519  86.1517485  18.3116449  25.5304495  82.4940901
  18.6512522  26.0590416  81.7719510  18.7588570  25.8684901  83.2699468
  28.0488327  37.7014987  87.7225282  28.9734874  37.4957848  87.5849733
  27.8803630  37.4531388  88.6314624  21.0059890  23.9141546  91.9443970
  20.6656710  23.1149359  92.3464649  20.2998896  24.2143257  91.3720803
  21.6576362  20.9990858  90.3971293  22.4802431  20.5251337  90.2750183
  21.9014425  21.7781342  90.8969979  20.2984596  24.0279117  80.6934194
  21.0192959  24.4060370  80.1897911  19.6749900  24.7467994  80.7969172
  24.4415719  24.7324266  81.6292527  24.6579334  25.6148904  81.3281355
  23.9609786  24.3410479  80.8998169  19.1814941  27.6909979  88.2063271
  19.0359521  28.0050282  89.0987553  18.7040144  28.3094879  87.6534170
  21.0411323  24.6812527  88.2544161  21.0272892  23.7853620  87.9176459
  21.7583752  24.6883191  88.8882447  22.8937454  25.1149867  90.2997288
  22.6355232  26.0366938  90.2981619  22.3622494  24.7180302  90.9897752
  27.8383643  38.2200654  83.0787374  28.0120520  37.6547077  82.3261226
  28.3312534  39.0201549  82.8966863  13.6560603  30.2315323  91.1450932
  13.1114071  31.0075131  91.2771207  14.5339953  30.5786128  90.9870054
  20.4448219  23.5626907  83.5231731  20.5664131  22.6343553  83.7222618
  20.1550262  23.5765593  82.6110046  23.3139410  21.2481818  86.6598451
  23.3361107  21.3121151  85.7050430  23.7307469  20.4086326  86.8538957
  33.6923034  30.9837077  84.6977673  34.1354180  30.2344402  84.2996797
  32.8149544  30.9747214  84.3151405  28.8258815  37.5367419  80.1784272
  29.5209720  38.1574111  80.3971586  29.1681965  36.6862770  80.4536650
  14.4426625  29.3585220  94.0381089  13.7008361  29.5067855  94.6245720
  14.1219369  29.6193485  93.1747839  30.7250238  34.9867124  81.7071603
  31.2501563  35.3254397  80.9820923  30.6372591  34.0514140  81.5234737
  22.3870287  38.9001198  93.8361479  22.6957414  38.6550345  94.7084179
  23.1845769  39.1047836  93.3480349  22.4090899  41.0539108  86.0666856
  21.9695890  40.5615486  86.7599712  23.1599016  40.5112075  85.8258931
  14.8883238  37.2450648  86.0691484  15.7141258  36.9454420  85.6890127
  14.5377290  36.4758271  86.5181273  19.8564771  36.5977117  88.1389157
  19.2344781  35.9347822  87.8391385  20.5269638  36.6238249  87.4562805
  13.0891843  35.1636975  87.0280417  12.2523752  34.7359149  86.8464419
  13.0615489  35.3569418  87.9651209  30.4144145  35.6200028  97.0122801
  29.6239688  35.6024167  96.4727300  30.1777499  36.1588322  97.7671837
  30.5342020  32.4692494  94.3255529  30.5840025  32.3042502  95.2671052
  30.4255943  31.6019753  93.9353410  19.4178278  35.1481040  81.6147618
  19.5666399  35.8316504  80.9614291  20.2244722  35.1286130  82.1297074
  27.8245782  28.4523422  95.6414836  28.7255645  28.3129887  95.3498834
  27.8993756  28.6177877  96.5813013  22.1588587  25.8290277  94.4868022
  21.2891897  26.1223843  94.2150611  22.3948068  26.4130722  95.2075286
  32.0360216  34.8889436  94.5697551  31.7445025  35.2519416  95.4061012
  31.4232348  34.1756444  94.3910883  33.2355899  32.4542316  87.0900121
  34.0702790  32.8932120  87.2537681  33.3715028  31.9780969  86.2708367
  30.2847405  30.0122050  93.0377609  30.7601526  30.2049697  92.2296460
  29.3612970  30.0681236  92.7920992  17.1730911  31.1746218  82.6208687
  16.9276953  30.2708548  82.8188897  17.3426826  31.1763368  81.6788165
  24.8627621  22.0469894  92.0033443  25.3809565  22.7830921  91.6779931
  24.5082754  22.3533887  92.8380202  16.4426559  26.9074575  80.1194848
  15.7495804  26.9818930  79.4634884  16.1978311  26.1434919  80.6416365
  25.1140215  18.4670177  87.5234339  25.3941969  17.7993366  88.1494766
  25.8990822  18.6599272  87.0109003  22.9173684  37.6429170  79.0859365
  22.3447651  38.2619358  78.6329837  23.4906477  38.1928532  79.6199287
  28.9849074  26.8887810  91.2705914  29.9366497  26.9885908  91.2918138
  28.8152524  26.0966079  91.7803999  27.0063453  23.9743394  91.4565315
  26.4113385  24.2548406  90.7611804  26.7213150  24.4637295  92.2282056
  26.1370944  37.9266321  80.2167948  27.0701617  37.8611882  80.4200823
  26.0494156  38.7622587  79.7582480  28.7658960  37.2432191  77.1771895
  28.6872592  36.9092054  78.0707653  29.5868627  37.7353959  77.1763368
  31.4637151  30.1093930  90.3848214  31.4313472  29.1709931  90.5707898
  32.0737775  30.1877967  89.6514039  23.3020482  28.9789983  76.4275418
  24.2479587  28.8496191  76.4963836  22.9234727  28.2404645  76.9044846
  31.6131640  26.9004974  90.4306497  31.0970689  26.1163430  90.2436426
  32.4971588  26.5723690  90.5953017  29.2742367  20.6445989  86.3902310
  29.0767188  20.3361077  87.2745642  29.8842072  21.3707628  86.5200240
  37.2813701  31.1709937  89.5254251  38.0117090  30.9095225  90.0861954
  36.6720647  30.4338659  89.5656319  35.3628998  29.3117800  90.1228702
  34.6362162  29.1773765  89.5145193  34.9476285  29.6194628  90.9285420
  23.1859175  33.0307729  97.8876075  24.1062184  33.2086328  98.0816121
  23.1508758  32.0863775  97.7355774  21.4863399  26.9039960  76.3630303
  20.5794855  26.6073072  76.4393017  21.7639380  26.6069778  75.4964589
  12.4041340  28.2246323  86.8129350  12.0844124  27.3711631  86.5203724
  11.8574768  28.4394901  87.5687317  16.1821247  30.9408764  90.5298856
  16.4007257  31.8725872  90.5486890  16.5947021  30.5816738  91.3153660
  23.1025465  21.4476849  82.5174544  22.2926194  21.1023934  82.8929791
  23.7909882  21.1384393  83.1062156  25.0316013  20.5254896  84.1398841
  25.5847052  20.9450349  84.7988864  25.2686100  19.5990644  84.1821797
  20.2562184  23.7626895  76.5042282  21.1181348  24.0881793  76.7638100
  20.4412528  22.9758391  75.9915348  12.2729600  31.8449234  88.7822471
  11.5793071  31.4303187  88.2692426  13.0202591  31.8869771  88.1855890
  28.4094821  22.6355421  83.6477505  27.8293490  23.2940225  83.2655558
  28.1430753  21.8132766  83.2364923  26.8598387  22.0360479  85.8498826
  27.3598165  22.1477013  85.0413144  27.5033995  21.7321532  86.4899634
  20.9180383  29.9439109  98.7366667  20.4347464  30.7439469  98.9430556
  21.0041322  29.9547053  97.7834111  14.1866342  31.7767488  86.6588486
  14.1637030  31.8755176  85.7070369  14.4966979  32.6232639  86.9805652
  16.8453720  33.8343643  90.7735100  17.7996974  33.8027586  90.7065032
  16.6466244  33.3734267  91.5885326  17.4353102  32.4044759  93.3405898
  18.2545991  32.8988838  93.3640735  17.7089910  31.4876727  93.3123466
  27.1919699  24.7955512  82.7033854  26.3045554  25.0805162  82.4854048
  27.6073688  24.6349275  81.8561130  30.5434235  24.8202033  86.4188193
  31.3194625  25.3098485  86.6912810  29.8182369  25.2460087  86.8760062
  32.9806793  25.5329652  87.4762133  33.5751284  25.2925388  86.7655442
  33.0533377  24.8136782  88.1035670  15.2003949  39.3763263  87.7905298
  15.0658417  38.6163664  87.2243296  14.7836011  40.1004163  87.3234087
  26.3362912  34.5600186  76.7981874  27.0398762  34.7650189  77.4139529
  25.6125561  35.1276948  77.0630957  27.1660722  30.3110048  82.9184144
  27.1095924  30.7678599  82.0791776  27.7189065  29.5500732  82.7406986
  30.9765528  26.0999779  83.7434263  30.7202462  25.6996415  84.5742471
  30.3518396  26.8143573  83.6184402  35.2877866  28.8395853  86.2505555
  34.7277424  28.9089042  87.0237117  34.6821369  28.6636837  85.5305051
  18.3573075  40.2732580  88.0023741  18.2405459  41.2178012  87.9002431
  17.5365521  39.9706141  88.3909540  28.2449609  34.9982715  78.8480334
  29.0795213  34.5663914  78.6657808  28.0833952  34.8264729  79.7757228
  27.8995502  31.5014829  80.2136673  27.8444305  31.3359100  79.2725117
  27.2741557  32.2090862  80.3698863  12.6888017  26.7382893  94.0398095
  13.3346880  26.2281847  94.5285320  12.4805168  27.4751575  94.6141520
  25.2141409  33.8063741  99.5390236  26.0832568  33.9804393  99.1776871
  24.7348160  34.6258157  99.4165965  21.2091627  21.0022938  79.7921991
  21.1970297  21.9464778  79.9490262  22.1015049  20.8193083  79.4981453
  19.3827589  40.9260842  91.2179669  20.2854836  40.9584452  91.5346164
  19.1564959  39.9961293  91.2326005  21.1381191  39.6791828  87.8789748
  20.1876822  39.6793690  87.7654120  21.4413677  38.9324563  87.3625783
  25.0243747  17.5965714  84.0467928  24.2576142  17.0424201  84.1924610
  25.4354452  17.6687583  84.9082080  36.8733885  45.5152367  88.9435510
  37.5112294  45.3959114  88.2398850  36.7554727  46.4633211  89.0023463
  33.6823591  45.4679795  88.8797035  33.3442102  45.3520859  87.9917570
  34.5513359  45.0670960  88.8598041  29.5410407  47.3215271  84.8693926
  28.9775272  47.2305208  84.1010214  29.4262802  46.5015176  85.3496419
  34.1643374  46.6214646  94.8383241  34.1532015  46.2267445  93.9663744
  34.3264013  45.8880719  95.4317012  27.0874838  48.8166463  87.7078146
  27.8796130  48.4757287  87.2924446  27.3271489  48.9261438  88.6280300
  35.1209965  50.9886239  80.1808391  34.4697945  51.5740319  79.7942405
  35.9154328  51.5192434  80.2403428  29.0465592  48.0775376  80.5795525
  29.8196468  47.5304363  80.4408401  29.3990991  48.9419625  80.7909987
  31.8106842  46.7828607  90.3763784  32.4070414  46.5584629  89.6620747
  31.8681813  46.0413352  90.9789232  31.3831870  44.2368042  78.2113975
  31.6357391  43.7149563  77.4497438  30.4456429  44.0734188  78.3140659
  36.4275153  43.2403820  86.0188718  37.2138242  42.8223244  85.6679135
  36.6913857  44.1449913  86.1870367  36.5985230  48.6776671  80.7177375
  35.9631063  48.7511297  81.4298280  36.2682637  49.2670270  80.0396454
  41.8283580  43.1779054  86.9221697  42.5608752  42.6078270  87.1559526
  41.0722936  42.7900654  87.3628202  31.1028159  46.1396148  80.4138350
  30.9864417  45.4641051  81.0819434  31.2130419  45.6528522  79.5970503
  33.4459700  45.6006295  84.1185039  33.0817907  45.0736916  84.8297961
  34.3026816  45.2104764  83.9451525  39.3509000  36.8900628  91.3816306
  39.0192325  37.7596039  91.1577521  38.7554614  36.5736912  92.0610336
  33.0865187  40.6296195  79.1146388  33.2539589  41.4976431  79.4816859
  32.8962356  40.7923477  78.1907677  29.2953002  45.5426971  86.8148923
  28.3703498  45.4103185  87.0226614  29.5437415  46.3221190  87.3118865
  39.2437664  41.6095714  88.4609656  38.3354541  41.5411122  88.1668417
  39.1925260  42.0867659  89.2891481  33.0654408  43.0853852  80.0993055
  32.9454033  43.5310903  80.9378535  32.3706996  43.4339170  79.5406593
  26.6561813  45.1860244  87.6492712  26.7854194  45.4394723  88.5632123
  25.9759264  45.7787952  87.3297367  30.8261300  55.8557494  83.7483186
  30.7485330  56.8065319  83.8271667  30.2222943  55.5103367  84.4058112
  33.3178530  43.0285360  96.4044553  32.5411864  43.5879280  96.3947417
  33.9569093  43.5142142  96.9259423  41.1099310  39.8112152  90.2387529
  40.4673690  40.1044685  89.5927324  40.6054239  39.6965073  91.0440726
  38.7639474  43.5575326  80.9273389  39.6757330  43.7902712  80.7521086
  38.2549121  44.1412370  80.3648467  31.5724902  45.8370813  95.9662520
  32.3139586  46.3755857  95.6897343  30.8661887  46.4637102  96.1234072
  33.4011312  42.9172560  91.9368238  34.2472507  43.3411974  92.0802887
  33.3409949  42.2606184  92.6306801  41.2498288  49.4755582  85.6731334
  40.5649326  49.8554483  85.1228367  41.3342137  50.0850908  86.4063282
  36.5510757  40.5776928  93.5949412  36.3071689  41.3318989  93.0583688
  36.8270687  40.9562276  94.4296659  36.1075449  39.7333361  89.1763250
  35.2459928  40.0314615  89.4679987  36.1337883  39.9503760  88.2444282
  32.9237018  48.2775552  85.5837055  33.3875364  48.5563255  84.7941678
  32.6593816  47.3758997  85.4010146  29.8161099  47.8247034  88.5216819
  30.3862456  48.2534302  87.8834303  30.4069211  47.5429618  89.2201004
  31.8605904  44.3998704  82.3926620  32.5629947  44.8519748  82.8600547
  31.5286533  43.7582523  83.0206514  30.3086266  42.9910461  96.7677830
  29.6784926  43.6726742  97.0013227  30.2022354  42.8793543  95.8230968
  25.6031238  42.6582257  87.6943754  24.8130292  42.9139786  87.2183865
  26.0942485  43.4730595  87.7995795  27.5545983  43.0226836  84.6527231
  26.7577147  43.1345531  85.1710726  27.3271576  43.3613489  83.7868121
  23.8868941  42.9112748  90.1258745  24.1376979  43.7959757  90.3916321
  24.4228489  42.7317349  89.3533837  33.0999669  51.2139647  82.4688726
  32.9645344  52.0591183  82.8973573  33.6409481  51.4158925  81.7054659
  29.5867008  37.2931227  99.1303081  29.1933954  36.7397425  99.8050725
  30.4033149  37.6041805  99.5209598  26.5529066  48.7315085  83.0416651
  27.0653587  49.5258335  83.1922215  27.2051779  48.0341376  82.9750252
  28.3623951  51.8480841  85.1239404  28.5390579  52.7698806  84.9360388
  29.1580784  51.5339261  85.5533784  32.5034969  38.7089106  96.7223337
  33.2444683  39.3096259  96.6427800  32.7352892  37.9666744  96.1641380
  27.6476307  43.8945473  95.0001567  27.5329823  42.9930730  95.3008666
  26.7920825  44.1409170  94.6486384  36.4492132  34.7370209  90.9987619
  36.1056402  35.6271851  90.9226730  36.8171095  34.5471867  90.1357204
  24.5177983  47.0603739  83.8176221  25.3553205  47.4700748  83.6009929
  24.6956251  46.1203182  83.7876415  36.4142415  44.7278820  79.5060054
  35.8989038  45.4983425  79.7448442  36.1419723  44.0543956  80.1293116
  33.9989526  39.5728521  84.5645293  33.1431122  39.1835371  84.3850931
  34.4116478  39.6520482  83.7045078  35.5288673  37.1074864  88.9636852
  35.0253468  37.0704999  88.1504658  35.8219280  38.0167607  89.0233509
  31.7731559  37.1913594  87.9703034  32.6384555  36.9956402  87.6108924
  31.8409068  36.9623946  88.8972391  36.2028718  42.6005912  81.3319835
  35.8978854  42.9152061  82.1829979  37.1559160  42.6787332  81.3747168
  34.6475150  48.7596135  82.9812789  34.1196512  48.0248895  82.6686027
  34.1462653  49.5370812  82.7352758  29.3793878  39.4215802  85.3419401
  29.9537630  39.1990983  84.6092594  29.9664860  39.4904496  86.0948002
  38.4373455  45.3089529  86.1483777  38.9505337  45.9419520  86.6505487
  39.0874679  44.7090724  85.7827137  29.7063465  41.4520263  79.3615286
  28.8700777  41.7894949  79.6824561  29.5668234  41.3169243  78.4242423
  31.6816545  36.2957051  84.0694470  31.0280958  35.9806068  83.4451085
  31.6397020  35.6732791  84.7954293  32.7927750  46.5776346  75.9847762
  31.8854812  46.3465599  76.1838911  33.2898782  45.7813965  76.1721744
  34.9154286  42.7838984  88.3942118  33.9976847  43.0053931  88.2363806
  35.3314429  42.8585295  87.5353825  35.6989334  44.1830400  83.5244798
  36.4461152  44.6951797  83.2151920  35.9680923  43.8614453  84.3849192
  33.9715984  46.6788941  80.5071753  33.0627203  46.3947973  80.6044222
  34.0011067  47.0988019  79.6475059  39.2035251  50.2895530  84.2762920
  38.7497578  49.4486440  84.3328111  38.5729218  50.9256928  84.6137700
  38.1468171  41.2187516  85.5063588  37.4090927  40.7064902  85.8373830
  38.3994944  40.7787898  84.6946864  37.6468190  52.1272027  85.2112738
  37.9391165  52.6877084  84.4925104  38.1566811  52.4200588  85.9665897
  38.2479798  33.9963768  86.1005357  38.5538675  33.1361132  85.8131272
  38.9732403  34.5881388  85.9004351  24.5404154  44.3994455  84.4886955
  24.3428554  43.8063815  83.7638021  23.9850818  44.0946665  85.2062894
  32.5200878  44.2917561  86.6081548  32.5749488  43.3391398  86.5324024
  31.7092080  44.4477000  87.0922846  33.6692071  48.2197684  77.8459831
  33.2311501  47.5033543  77.3865468  34.4102512  48.4473799  77.2844923
  30.4593238  42.9094621  84.3671927  29.6461103  43.2088791  84.7737119
  30.9552232  42.5150310  85.0846409  36.0567449  43.3736445  93.1986821
  36.4116837  43.6007919  94.0581286  36.7039581  43.7054822  92.5764076
  41.7865186  46.4954881  83.9036150  41.6483085  46.6856477  82.9757339
  41.4301405  47.2574264  84.3604201  29.9507312  40.4812976  89.9833162
  30.5906692  40.3401736  89.2856125  29.1184843  40.1947490  89.6071764
  30.7267616  49.7815407  86.0968154  31.5208215  49.2865727  85.8950729
  30.0159309  49.2533270  85.7335860  27.0350380  43.9258489  82.1727907
  26.1047968  43.8642944  82.3897869  27.1307852  43.4034441  81.3764548
  26.9535929  40.4513301  84.7606149  27.2142746  41.3658635  84.6515309
  27.7753101  39.9837744  84.9102761  28.4260854  41.8651059  91.9304973
  29.0983908  41.6568421  91.2817622  27.5990641  41.6673145  91.4910205
  34.3286426  38.4913000  93.9470634  33.6814341  39.1902949  93.8535110
  35.0987442  38.9249143  94.3146882  37.7365224  48.7561852  97.0221187
  37.5850731  48.5272403  96.1051271  37.7269904  49.7132453  97.0352532
  34.5050561  46.3293764  92.0067454  35.4342621  46.4804924  91.8336421
  34.0841591  46.4177785  91.1516100  28.8288351  45.1393662  92.6907410
  28.6908149  44.4073900  93.2918949  29.7393275  45.0502562  92.4091598
  37.7903299  47.0782066  77.4391889  37.1732470  46.3528894  77.3424941
  37.3219788  47.8391426  77.0958963  31.4570652  44.8513621  92.1791090
  32.1670271  44.2106813  92.1377708  31.4139960  45.1026516  93.1017271
  30.1699586  41.8378839  93.9986729  29.6336943  41.3869577  94.6508326
  29.5816295  41.9724748  93.2557194  28.4648130  58.6042888  87.8931388
  28.7044728  59.2361412  88.5710407  27.6217326  58.2530928  88.1796747
  29.5801845  41.2967490  76.5613193  28.7031311  41.1756291  76.1975440
  30.0559598  40.5053569  76.3092082  21.1003985  46.0844650  86.6554700
  21.7875025  45.7706380  86.0675715  20.9452114  46.9886015  86.3821952
  25.9038707  40.9734846  91.0839724  25.8196896  40.3660516  90.3490134
  25.0821414  41.4643865  91.0849220  32.7665771  53.6493781  83.8075713
  31.9833293  54.1915461  83.9013938  33.4658516  54.1667760  84.2069955
  36.0762421  39.4588410  86.4509919  36.5731121  38.7058372  86.1310989
  35.3049403  39.4952727  85.8853128  37.1592202  48.2160097  84.0248342
  36.2248481  48.3361560  83.8553047  37.3368870  47.3132564  83.7608352
  32.6597390  41.6005793  86.1781603  32.2895177  41.0476833  86.8662509
  33.1556482  40.9963926  85.6256604  40.5464753  44.0577417  84.5598376
  41.0125205  44.8905408  84.4858679  40.9972254  43.5922398  85.2643635
  38.5181416  36.4258004  88.5989278  37.6044496  36.6562230  88.7671485
  38.9474517  36.5096448  89.4503310  38.2887874  44.6147895  91.0989172
  37.6359325  44.8623803  90.4441625  38.6668254  43.8012034  90.7651649
  34.3375447  45.3567707  97.5855209  33.6616084  45.2561836  98.2557584
  35.1603081  45.2006920  98.0491206  26.0854307  51.5939643  90.2067724
  26.6707743  50.8483331  90.3395628  25.8879145  51.9043600  91.0904388
  28.9392962  54.6290890  85.2230166  28.2703337  55.1137018  84.7394207
  28.8005831  54.8760111  86.1373545  20.6771961  44.1645243  88.9272167
  20.7156061  43.6308834  89.7209285  20.1712254  43.6380449  88.3083144
  28.0562724  39.0109784  92.4234710  28.1204050  39.8724615  92.0112107
  27.9929844  38.3983785  91.6907068  27.5314996  41.0832916  96.0707744
  28.1587035  40.7009994  96.6845268  26.6742915  40.8647118  96.4363436
  24.3080539  42.8909345  82.0026099  24.6033980  41.9820024  81.9493152
  23.4068575  42.8697085  81.6807101  27.8374786  40.9665342  87.9853647
  27.1161372  41.5801310  87.8461121  28.6268042  41.5023107  87.9070293
  30.6401099  38.3019769  94.2594299  31.1635501  38.5482065  95.0220608
  30.4213433  39.1339803  93.8397436  26.0368380  40.5723443  82.1265424
  25.7081087  39.6920822  81.9440530  26.3907751  40.5171112  83.0141813
  29.1510204  40.8596413  82.4940901  29.4906276  41.3882334  81.7719510
  29.5982324  41.1976819  83.2699468  31.8453644  39.2433464  91.9443970
  31.5050465  38.4441277  92.3464649  31.1392651  39.5435174  91.3720803
  32.4970116  36.3282776  90.3971293  33.3196186  35.8543254  90.2750183
  32.7408180  37.1073260  90.8969979  31.1378351  39.3571034  80.6934194
  31.8586713  39.7352287  80.1897911  30.5143655  40.0759911  80.7969172
  35.2809474  40.0616183  81.6292527  35.4973088  40.9440821  81.3281355
  34.8003541  39.6702397  80.8998169  30.0208695  43.0201897  88.2063271
  29.8753276  43.3342200  89.0987553  29.5433899  43.6386797  87.6534170
  31.8805078  40.0104445  88.2544161  31.8666647  39.1145538  87.9176459
  32.5977506  40.0175108  88.8882447  33.7331209  40.4441785  90.2997288
  33.4748986  41.3658856  90.2981619  33.2016249  40.0472219  90.9897752
  24.4954357  45.5607241  91.1450932  23.9507825  46.3367049  91.2771207
  25.3733707  45.9078046  90.9870054  31.2841974  38.8918825  83.5231731
  31.4057885  37.9635471  83.7222618  30.9944016  38.9057511  82.6110046
  34.1533164  36.5773735  86.6598451  34.1754861  36.6413068  85.7050430
  34.5701223  35.7378244  86.8538957  44.5316789  46.3128995  84.6977673
  44.9747935  45.5636320  84.2996797  43.6543299  46.3039131  84.3151405
  25.2820379  44.6877137  94.0381089  24.5402115  44.8359773  94.6245720
  24.9613123  44.9485403  93.1747839  25.7276993  52.5742566  86.0691484
  26.5535013  52.2746338  85.6890127  25.3771045  51.8050189  86.5181273
  23.9285598  50.4928893  87.0280417  23.0917506  50.0651067  86.8464419
  23.9009243  50.6861336  87.9651209  30.7683053  40.4050822  97.7321663
  30.8171209  41.2812945  97.3499433  31.3105568  39.8628215  97.1593307
  30.2572033  50.4772958  81.6147618  30.4060153  51.1608422  80.9614291
  31.0638476  50.4578048  82.1297074  38.6639536  43.7815340  95.6414836
  39.5649399  43.6421805  95.3498834  38.7387511  43.9469795  96.5813013
  32.9982342  41.1582195  94.4868022  32.1285651  41.4515761  94.2150611
  33.2341822  41.7422640  95.2075286  28.0124666  46.5038135  82.6208687
  27.7670708  45.6000465  82.8188897  28.1820580  46.5055286  81.6788165
  35.7021376  37.3761812  92.0033443  36.2203320  38.1122839  91.6779931
  35.3476508  37.6825805  92.8380202  27.2820313  42.2366493  80.1194848
  26.5889558  42.3110848  79.4634884  27.0372065  41.4726836  80.6416365
  35.9533970  33.7962094  87.5234339  36.2335724  33.1285283  88.1494766
  36.7384577  33.9891190  87.0109003  33.7567438  52.9721088  79.0859365
  33.1841405  53.5911275  78.6329837  34.3300232  53.5220450  79.6199287
  39.8242828  42.2179728  91.2705914  40.7760251  42.3177826  91.2918138
  39.6546279  41.4257997  91.7803999  37.8457208  39.3035311  91.4565315
  37.2507140  39.5840324  90.7611804  37.5606904  39.7929212  92.2282056
  34.1414237  44.3081901  76.4275418  35.0873342  44.1788109  76.4963836
  33.7628482  43.5696563  76.9044846  42.4525394  42.2296891  90.4306497
  41.9364443  41.4455348  90.2436426  43.3365343  41.9015608  90.5953017
  40.1136121  35.9737907  86.3902310  39.9160942  35.6652995  87.2745642
  40.7235827  36.6999546  86.5200240  32.3257154  42.2331877  76.3630303
  31.4188609  41.9364990  76.4393017  32.6033135  41.9361695  75.4964589
  23.2435094  43.5538241  86.8129350  22.9237879  42.7003549  86.5203724
  22.6968523  43.7686819  87.5687317  27.0215002  46.2700682  90.5298856
  27.2401012  47.2017789  90.5486890  27.4340776  45.9108656  91.3153660
  33.9419220  36.7768767  82.5174544  33.1319948  36.4315852  82.8929791
  34.6303637  36.4676311  83.1062156  35.8709768  35.8546814  84.1398841
  36.4240807  36.2742267  84.7988864  36.1079854  34.9282562  84.1821797
  31.8942867  41.8433887  99.9201605  31.7939594  42.7928244  99.8513696
  31.6764409  41.5152126  99.0477675  31.0955939  39.0918812  76.5042282
  31.9575103  39.4173711  76.7638100  31.2806283  38.3050308  75.9915348
  23.1123354  47.1741152  88.7822471  22.4186826  46.7595105  88.2692426
  23.8596345  47.2161689  88.1855890  39.2488575  37.9647339  83.6477505
  38.6687244  38.6232143  83.2655558  38.9824508  37.1424684  83.2364923
  37.6992141  37.3652397  85.8498826  38.1991920  37.4768931  85.0413144
  38.3427749  37.0613449  86.4899634  31.7574137  45.2731026  98.7366667
  31.2741219  46.0731386  98.9430556  31.8435076  45.2838971  97.7834111
  25.0260097  47.1059406  86.6588486  25.0030785  47.2047093  85.7070369
  25.3360733  47.9524557  86.9805652  27.6847475  49.1635561  90.7735100
  28.6390728  49.1319503  90.7065032  27.4859998  48.7026185  91.5885326
  28.2746857  47.7336677  93.3405898  29.0939746  48.2280756  93.3640735
  28.5483665  46.8168645  93.3123466  38.0313453  40.1247429  82.7033854
  37.1439308  40.4097080  82.4854048  38.4467442  39.9641193  81.8561130
  41.3827989  40.1493950  86.4188193  42.1588379  40.6390403  86.6912810
  40.6576123  40.5752004  86.8760062  43.8200548  40.8621569  87.4762133
  44.4145039  40.6217305  86.7655442  43.8927132  40.1428700  88.1035670
  26.0397704  54.7055180  87.7905298  25.9052171  53.9455581  87.2243296
  25.6229766  55.4296080  87.3234087  37.1756667  49.8892104  76.7981874
  37.8792517  50.0942106  77.4139529  36.4519315  50.4568866  77.0630957
  38.0054477  45.6401965  82.9184144  37.9489678  46.0970517  82.0791776
  38.5582819  44.8792650  82.7406986  41.8159283  41.4291697  83.7434263
  41.5596217  41.0288333  84.5742471  41.1912151  42.1435491  83.6184402
  46.1271621  44.1687770  86.2505555  45.5671179  44.2380960  87.0237117
  45.5215124  43.9928755  85.5305051  38.7389256  46.8306746  80.2136673
  38.6838060  46.6651018  79.2725117  38.1135311  47.5382779  80.3698863
  23.5281771  42.0674811  94.0398095  24.1740635  41.5573765  94.5285320
  23.3198922  42.8043492  94.6141520  32.0485382  36.3314855  79.7921991
  32.0364051  37.2756695  79.9490262  32.9408803  36.1485001  79.4981453
  35.8637501  32.9257632  84.0467928  35.0969897  32.3716119  84.1924610
  36.2748206  32.9979501  84.9082080  27.8679262  39.2142428  98.1373109
  28.7310724  38.8579233  98.3476434  27.2944673  38.8756323  98.8248514
  50.1902755  52.2192545  91.3816306  49.8586080  53.0887956  91.1577521
  49.5948368  51.9028829  92.0610336  50.0831418  56.9387632  88.4609656
  49.1748296  56.8703040  88.1668417  50.0319014  57.4159577  89.2891481
  51.9493065  55.1404070  90.2387529  51.3067445  55.4336603  89.5927324
  51.4447993  55.0256990  91.0440726  58.5494795  61.6718162  86.7934006
  57.7958504  61.1025560  86.6378011  58.6842336  61.6380827  87.7404641
  42.6125313  52.5205511  87.9703034  43.4778310  52.3248320  87.6108924
  42.6802822  52.2915863  88.8972391  49.0873552  49.3255686  86.1005357
  49.3932429  48.4653049  85.8131272  49.8126157  49.9173306  85.9004351
  46.8961204  58.7028363  93.1986821  47.2510592  58.9299836  94.0581286
  47.5433335  59.0346740  92.5764076  53.5143870  63.9347027  91.4480307
  53.7079760  64.8392837  91.6939582  53.4144488  63.4754446  92.2818892
  48.5758979  64.0853769  97.0221187  48.4244485  63.8564321  96.1051271
  48.5663658  65.0424371  97.0352532  50.2851185  67.1172892  95.0997669
  50.2263731  66.4332112  94.4328252  50.6870704  67.8591882  94.6478295
  31.9397740  61.4136568  86.6554700  32.6268779  61.0998298  86.0675715
  31.7845868  62.3177932  86.3821952  49.3575170  51.7549921  88.5989278
  48.4438250  51.9854148  88.7671485  49.7868272  51.8388365  89.4503310
  48.7702859  66.8187809  97.6761479  49.3142763  67.4317767  97.1816434
  48.1889704  67.3767388  98.1928492  44.9926919  51.9065653  86.6598451
  45.0148616  51.9704986  85.7050430  45.4094978  51.0670162  86.8538957
  52.0931654  66.2783863  97.0122801  51.3027197  66.2608002  96.4727300
  51.8565008  66.8172157  97.7671837  52.2129529  63.1276330  94.3255529
  52.2627534  62.9626337  95.2671052  52.1043452  62.2603589  93.9353410
  49.5033291  59.1107258  95.6414836  50.4043154  58.9713723  95.3498834
  49.5781265  59.2761712  96.5813013  53.7147725  65.5473271  94.5697551
  53.4232534  65.9103252  95.4061012  53.1019857  64.8340279  94.3910883
  51.9634914  60.6705886  93.0377609  52.4389035  60.8633532  92.2296460
  51.0400479  60.7265072  92.7920992  50.6636583  57.5471646  91.2705914
  51.6154006  57.6469744  91.2918138  50.4940033  56.7549914  91.7803999
  58.9601210  61.8293772  89.5254251  59.6904599  61.5679061  90.0861954
  58.3508156  61.0922494  89.5656319  57.0416507  59.9701635  90.1228702
  56.3149671  59.8357600  89.5145193  56.6263794  60.2778464  90.9285420
  46.7103522  51.1838731  84.1398841  47.2634561  51.6034185  84.7988864
  46.9473609  50.2574480  84.1821797  33.9517109  62.5033070  88.7822471
  33.2580580  62.0887023  88.2692426  34.6990100  62.5453606  88.1855890
  46.7031256  48.2549550  84.0467928  45.9363651  47.7008036  84.1924610
  47.1141960  48.3271419  84.9082080  55.8430883  77.2798482  94.8383241
  55.8319524  76.8851280  93.9663744  56.0051522  76.5464554  95.4317012
  52.5638144  80.0635594  93.7862425  52.2728010  80.9681224  93.6709091
  53.1995128  80.1052121  94.5006494  61.0296509  67.5484463  91.3816306
  60.6979834  68.4179874  91.1577521  60.4342123  67.2320747  92.0610336
  57.5228029  79.7497009  90.7812218  57.2228752  80.6522048  90.6728025
  57.1779089  79.4829192  91.6333371  60.9225173  72.2679549  88.4609656
  60.0142050  72.1994958  88.1668417  60.8712769  72.7451494  89.2891481
  52.5048809  86.5141329  83.7483186  52.4272839  87.4649155  83.8271667
  51.9010452  86.1687202  84.4058112  54.9966039  73.6869195  96.4044553
  54.2199373  74.2463115  96.3947417  55.6356602  74.1725978  96.9259423
  62.7886819  70.4695988  90.2387529  62.1461199  70.7628521  89.5927324
  62.2841748  70.3548908  91.0440726  58.7267751  78.6383789  94.5634681
  59.1351107  78.1966199  93.8189314  58.0045012  78.0636416  94.8168874
  59.0496565  79.1984979  88.3186970  58.4205428  79.3630693  87.6163038
  58.6622227  79.6126589  89.0897934  58.2298266  71.2360764  93.5949412
  57.9859198  71.9902824  93.0583688  58.5058196  71.6146111  94.4296659
  60.1836729  77.7799376  92.2726678  60.3953624  78.4231136  91.5961059
  60.1366477  76.9461693  91.8048608  61.2982557  80.6571332  90.4449035
  62.1200000  80.2551519  90.1631716  61.2944959  80.5539566  91.3965151
  55.0639160  80.2055375  92.6009745  55.1283593  80.6675782  93.4367917
  54.3550084  79.5752740  92.7292055  54.7787178  81.8723482  82.4688726
  54.6432853  82.7175018  82.8973573  55.3196990  82.0742760  81.7054659
  51.2654517  67.9515062  99.1303081  50.8721463  67.3981261  99.8050725
  52.0820658  68.2625641  99.5209598  50.0411460  82.5064677  85.1239404
  50.2178088  83.4282641  84.9360388  50.8368293  82.1923096  85.5533784
  54.1822478  69.3672941  96.7223337  54.9232192  69.9680094  96.6427800
  54.4140401  68.6250579  96.1641380  56.4055654  82.4947049  96.5989068
  55.9619508  81.7083427  96.2809972  57.0672868  82.6826199  95.9332959
  51.1642775  84.0242851  91.1249746  51.7150200  83.8959914  90.3526740
  50.3254251  84.3237740  90.7744639  58.5036892  82.7749849  94.6270469
  58.4855368  83.5958730  94.1350738  59.4256812  82.6503924  94.8520610
  54.9609946  80.2893978  95.4693977  55.4938283  79.5282267  95.2393285
  54.4324027  79.9967630  96.2118132  58.1279641  65.3954044  90.9987619
  57.7843911  66.2855686  90.9226730  58.4958604  65.2055702  90.1357204
  59.9267307  64.6547603  86.1005357  60.2326184  63.7944967  85.8131272
  60.6519912  65.2465224  85.9004351  54.2889325  83.5636213  86.3006191
  54.2465503  83.7897060  85.3714723  55.2052023  83.3299588  86.4491993
  57.7354958  74.0320281  93.1986821  58.0904346  74.2591754  94.0581286
  58.3827090  74.3638658  92.5764076  63.4922075  79.2215244  88.9147421
  63.9258582  79.1290533  89.7630475  64.2053656  79.1972744  88.2767437
  57.2249970  82.8217338  90.4480522  57.2786992  83.3908274  91.2158238
  56.3564751  82.9919223  90.0834559  64.3537624  79.2638944  91.4480307
  64.5473514  80.1684755  91.6939582  64.2538243  78.8046363  92.2818892
  56.0073935  69.1496835  93.9470634  55.3601850  69.8486785  93.8535110
  56.7774951  69.5832979  94.3146882  59.4152733  79.4145687  97.0221187
  59.2638239  79.1856239  96.1051271  59.4057413  80.3716288  97.0352532
  54.9826401  81.0128264  89.7765991  54.8437487  80.6447049  90.6491929
  54.1940998  81.5275904  89.6049949  55.5774553  86.1137361  81.1191528
  55.7526309  85.6425404  81.9337150  54.8907341  86.7403127  81.3472789
  56.5331616  80.3909867  87.1654829  56.1981449  80.3510637  88.0612479
  56.0335562  79.7254583  86.6925239  61.1244940  82.4464810  95.0997669
  61.0657486  81.7624030  94.4328252  61.5264458  83.1883800  94.6478295
  50.1435639  89.2626723  87.8931388  50.3832237  89.8945248  88.5710407
  49.3004835  88.9114763  88.1796747  61.1262347  80.4104394  93.3311649
  60.2389126  80.0730315  93.4538048  61.6960898  79.6787425  93.5680414
  54.6563500  85.0705846  90.2972892  54.5833672  85.8760817  90.8092196
  54.2140894  85.2697812  89.4720913  54.4453280  84.3077616  83.8075713
  53.6620802  84.8499296  83.9013938  55.1446025  84.8251596  84.2069955
  57.1162184  84.9692680  92.4531051  57.8290156  85.6040145  92.3806952
  56.6252213  85.0656546  91.6371052  52.1674097  82.7187123  93.2736621
  52.8683557  83.3523606  93.4266016  51.6969212  83.0601855  92.5132261
  60.1968925  67.0841839  88.5989278  59.2832005  67.3146066  88.7671485
  60.6262026  67.1680283  89.4503310  59.9675383  75.2731731  91.0989172
  59.3146834  75.5207638  90.4441625  60.3455763  74.4595869  90.7651649
  56.9282557  85.3091424  85.2017342  57.1104952  84.4913080  85.6645094
  57.7515543  85.5259116  84.7642232  57.2624723  84.2359609  82.4632391
  57.7912489  83.7252064  81.8502553  57.5252942  83.9202139  83.3277924
  56.0162956  76.0151542  97.5855209  55.3403593  75.9145671  98.2557584
  56.8390590  75.8590756  98.0491206  47.7641816  82.2523478  90.2067724
  48.3495252  81.5067166  90.3395628  47.5666654  82.5627435  91.0904388
  50.6180471  85.2874726  85.2230166  49.9490846  85.7720853  84.7394207
  50.4793340  85.5343946  86.1373545  54.7585739  87.3218469  91.8212825
  55.3104047  87.4850091  92.5861910  55.0991933  87.9122907  91.1492850
  59.6096614  82.1479727  97.6761479  60.1536518  82.7609685  97.1816434
  59.0283458  82.7059305  98.1928492  57.8954127  85.2700445  88.8076507
  57.7705266  84.4690185  88.2987453  58.5533218  85.7646638  88.3190477
  59.9589035  83.0709465  90.4356057  59.0119371  82.9514816  90.3634384
  60.3071808  82.1831963  90.5182319  52.3188608  68.9603604  94.2594299
  52.8423010  69.2065900  95.0220608  52.1000942  69.7923639  93.8397436
  56.9635468  82.8662181  86.6360409  56.8160431  81.9378889  86.8167979
  57.7888962  82.8882272  86.1517485  53.5241153  69.9017299  91.9443970
  53.1837974  69.1025112  92.3464649  52.8180160  70.2019010  91.3720803
  54.1757625  66.9866611  90.3971293  54.9983695  66.5127090  90.2750183
  54.4195689  67.7657095  90.8969979  54.9051551  84.8876951  93.8361479
  55.2138677  84.6426098  94.7084179  55.7027033  85.0923589  93.3480349
  54.9272163  87.0414861  86.0666856  54.4877153  86.5491239  86.7599712
  55.6780280  86.4987828  85.8258931  47.4064502  83.2326401  86.0691484
  48.2322522  82.9330173  85.6890127  47.0558554  82.4634024  86.5181273
  52.3746035  82.5852870  88.1389157  51.7526044  81.9223575  87.8391385
  53.0450902  82.6114002  87.4562805  45.6073107  81.1512728  87.0280417
  44.7705015  80.7234902  86.8464419  45.5796752  81.3445171  87.9651209
  52.4470562  71.0634658  97.7321663  52.4958718  71.9396780  97.3499433
  52.9893077  70.5212051  97.1593307  62.9325408  81.6075781  97.0122801
  62.1420952  81.5899920  96.4727300  62.6958763  82.1464075  97.7671837
  63.0523283  78.4568247  94.3255529  63.1021288  78.2918255  95.2671052
  62.9437206  77.5895506  93.9353410  51.9359542  81.1356793  81.6147618
  52.0847662  81.8192257  80.9614291  52.7425985  81.1161883  82.1297074
  60.3427045  74.4399175  95.6414836  61.2436908  74.3005640  95.3498834
  60.4175020  74.6053630  96.5813013  54.6769851  71.8166030  94.4868022
  53.8073160  72.1099596  94.2150611  54.9129331  72.4006475  95.2075286
  64.5541480  80.8765189  94.5697551  64.2626288  81.2395169  95.4061012
  63.9413611  80.1632197  94.3910883  62.8028668  75.9997803  93.0377609
  63.2782790  76.1925450  92.2296460  61.8794234  76.0556989  92.7920992
  57.3808885  68.0345647  92.0033443  57.8990828  68.7706674  91.6779931
  57.0264017  68.3409640  92.8380202  61.5030337  72.8763564  91.2705914
  62.4547760  72.9761661  91.2918138  61.3333788  72.0841832  91.7803999
  59.5244717  69.9619147  91.4565315  58.9294649  70.2424159  90.7611804
  59.2394413  70.4513048  92.2282056  63.9818415  76.0969683  90.3848214
  63.9494735  75.1585684  90.5707898  64.5919039  76.1753720  89.6514039
  64.1312903  72.8880727  90.4306497  63.6151952  72.1039183  90.2436426
  65.0152852  72.5599443  90.5953017  61.7923630  66.6321742  86.3902310
  61.5948451  66.3236830  87.2745642  62.4023336  67.3583381  86.5200240
  69.7994965  77.1585690  89.5254251  70.5298353  76.8970978  90.0861954
  69.1901910  76.4214412  89.5656319  55.7040438  79.0183482  97.8876075
  56.6243448  79.1962081  98.0816121  55.6690021  78.0739528  97.7355774
  53.5730376  72.5017723  99.9201605  53.4727103  73.4512080  99.8513696
  53.3551918  72.1735962  99.0477675  60.9276084  68.6231174  83.6477505
  60.3474753  69.2815978  83.2655558  60.6612017  67.8008519  83.2364923
  59.3779650  68.0236232  85.8498826  59.8779429  68.1352766  85.0413144
  60.0215258  67.7197285  86.4899634  53.4361646  75.9314862  98.7366667
  52.9528728  76.7315222  98.9430556  53.5222585  75.9422806  97.7834111
  59.7100962  70.7831265  82.7033854  58.8226817  71.0680915  82.4854048
  60.1254951  70.6225028  81.8561130  63.0615498  70.8077786  86.4188193
  63.8375888  71.2974238  86.6912810  62.3363632  71.2335840  86.8760062
  47.7185213  85.3639016  87.7905298  47.5839680  84.6039417  87.2243296
  47.3017275  86.0879916  87.3234087  50.8754338  86.2608333  88.0023741
  50.7586723  87.2053765  87.9002431  50.0546785  85.9581894  88.3909540
  57.7322672  79.7939494  99.5390236  58.6013832  79.9680146  99.1776871
  57.2529424  80.6133911  99.4165965  51.9008853  86.9136595  91.2179669
  52.8036099  86.9460205  91.5346164  51.6746223  85.9837046  91.2326005
  53.6562455  85.6667581  87.8789748  52.7058086  85.6669443  87.7654120
  53.9594941  84.9200316  87.3625783  69.3915148  91.5028120  88.9435510
  70.0293558  91.3834867  88.2398850  69.2735991  92.4508964  89.0023463
  66.2004854  91.4555548  88.8797035  65.8623366  91.3396612  87.9917570
  67.0694622  91.0546713  88.8598041  62.0591670  93.3091024  84.8693926
  61.4956535  93.2180961  84.1010214  61.9444065  92.4890929  85.3496419
  66.6824637  92.6090399  94.8383241  66.6713278  92.2143198  93.9663744
  66.8445277  91.8756472  95.4317012  59.6056102  94.8042216  87.7078146
  60.3977394  94.4633040  87.2924446  59.8452752  94.9137191  88.6280300
  67.6391229  96.9761992  80.1808391  66.9879208  97.5616072  79.7942405
  68.4335592  97.5068187  80.2403428  61.5646856  94.0651129  80.5795525
  62.3377732  93.5180116  80.4408401  61.9172255  94.9295378  80.7909987
  63.4031898  95.3927511  93.7862425  63.1121764  96.2973142  93.6709091
  64.0388883  95.4344039  94.5006494  64.3288105  92.7704360  90.3763784
  64.9251678  92.5460382  89.6620747  64.3863077  92.0289105  90.9789232
  63.9013134  90.2243795  78.2113975  64.1538654  89.7025316  77.4497438
  62.9637693  90.0609941  78.3140659  68.9456416  89.2279573  86.0188718
  69.7319506  88.8098997  85.6679135  69.2095121  90.1325666  86.1870367
  69.1166494  94.6652424  80.7177375  68.4812327  94.7387050  81.4298280
  68.7863900  95.2546023  80.0396454  74.3464844  89.1654807  86.9221697
  75.0790016  88.5954023  87.1559526  73.5904199  88.7776407  87.3628202
  63.6209422  92.1271901  80.4138350  63.5045681  91.4516804  81.0819434
  63.7311682  91.6404275  79.5970503  65.9640963  91.5882048  84.1185039
  65.5999171  91.0612669  84.8297961  66.8208079  91.1980517  83.9451525
  71.8690264  82.8776381  91.3816306  71.5373589  83.7471792  91.1577521
  71.2735877  82.5612665  92.0610336  68.3621784  95.0788927  90.7812218
  68.0622507  95.9813966  90.6728025  68.0172843  94.8121110  91.6333371
  61.8134265  91.5302724  86.8148923  60.8884761  91.3978938  87.0226614
  62.0618678  92.3096943  87.3118865  71.7618927  87.5971467  88.4609656
  70.8535805  87.5286875  88.1668417  71.7106523  88.0743412  89.2891481
  65.5835671  89.0729605  80.0993055  65.4635296  89.5186656  80.9378535
  64.8888260  89.4214923  79.5406593  59.1743076  91.1735997  87.6492712
  59.3035457  91.4270476  88.5632123  58.4940527  91.7663705  87.3297367
  63.3442563 101.8433247  83.7483186  63.2666593 102.7941072  83.8271667
  62.7404207 101.4979120  84.4058112  65.8359793  89.0161113  96.4044553
  65.0593127  89.5755033  96.3947417  66.4750356  89.5017896  96.9259423
  73.6280574  85.7987905  90.2387529  72.9854954  86.0920439  89.5927324
  73.1235502  85.6840826  91.0440726  71.2820737  89.5451079  80.9273389
  72.1938593  89.7778465  80.7521086  70.7730384  90.1288123  80.3648467
  64.0906165  91.8246566  95.9662520  64.8320850  92.3631610  95.6897343
  63.3843151  92.4512855  96.1234072  69.5661505  93.9675706  94.5634681
  69.9744861  93.5258117  93.8189314  68.8438767  93.3928334  94.8168874
  65.9192575  88.9048313  91.9368238  66.7653770  89.3287727  92.0802887
  65.8591213  88.2481937  92.6306801  69.8890320  94.5276897  88.3186970
  69.2599182  94.6922611  87.6163038  69.5015982  94.9418507  89.0897934
  73.7679552  95.4631335  85.6731334  73.0830590  95.8430236  85.1228367
  73.8523401  96.0726662  86.4063282  69.0692020  86.5652682  93.5949412
  68.8252952  87.3194742  93.0583688  69.3451951  86.9438029  94.4296659
  71.0230483  93.1091294  92.2726678  71.2347378  93.7523054  91.5961059
  70.9760231  92.2753610  91.8048608  68.6256712  85.7209115  89.1763250
  67.7641191  86.0190368  89.4679987  68.6519147  85.9379513  88.2444282
  65.4418282  94.2651305  85.5837055  65.9056627  94.5439008  84.7941678
  65.1775080  93.3634750  85.4010146  62.3342363  93.8122787  88.5216819
  62.9043720  94.2410055  87.8834303  62.9250474  93.5305371  89.2201004
  64.3787168  90.3874457  82.3926620  65.0811211  90.8395501  82.8600547
  64.0467796  89.7458276  83.0206514  62.8267529  88.9786214  96.7677830
  62.1966190  89.6602495  97.0013227  62.7203617  88.8669296  95.8230968
  58.1212502  88.6458010  87.6943754  57.3311556  88.9015539  87.2183865
  58.6123749  89.4606348  87.7995795  72.1376311  95.9863249  90.4449035
  72.9593755  95.5843437  90.1631716  72.1338714  95.8831483  91.3965151
  60.0727247  89.0102589  84.6527231  59.2758410  89.1221284  85.1710726
  59.8452839  89.3489242  83.7868121  65.9032915  95.5347293  92.6009745
  65.9677347  95.9967700  93.4367917  65.1943838  94.9044658  92.7292055
  56.4050205  88.8988501  90.1258745  56.6558243  89.7835510  90.3916321
  56.9409753  88.7193102  89.3533837  80.2282304  92.3301998  86.7934006
  79.4746013  91.7609396  86.6378011  80.3629845  92.2964662  87.7404641
  65.6180932  97.2015400  82.4688726  65.4826607  98.0466936  82.8973573
  66.1590745  97.4034678  81.7054659  62.1048272  83.2806980  99.1303081
  61.7115217  82.7273178  99.8050725  62.9214412  83.5917558  99.5209598
  59.0710330  94.7190838  83.0416651  59.5834850  95.5134088  83.1922215
  59.7233042  94.0217129  82.9750252  60.8805214  97.8356594  85.1239404
  61.0571843  98.7574559  84.9360388  61.6762048  97.5215014  85.5533784
  65.0216233  84.6964859  96.7223337  65.7625946  85.2972012  96.6427800
  65.2534156  83.9542497  96.1641380  60.1657571  89.8821226  95.0001567
  60.0511086  88.9806484  95.3008666  59.3102089  90.1284923  94.6486384
  67.2449409  97.8238967  96.5989068  66.8013263  97.0375345  96.2809972
  67.9066622  98.0118117  95.9332959  62.0036530  99.3534768  91.1249746
  62.5543955  99.2251832  90.3526740  61.1648006  99.6529657  90.7744639
  69.3430647  98.1041767  94.6270469  69.3249122  98.9250648  94.1350738
  70.2650567  97.9795842  94.8520610  65.8003701  95.6185896  95.4693977
  66.3332038  94.8574184  95.2393285  65.2717782  95.3259548  96.2118132
  68.9673396  80.7245962  90.9987619  68.6237665  81.6147604  90.9226730
  69.3352358  80.5347620  90.1357204  57.0359246  93.0479492  83.8176221
  57.8734468  93.4576501  83.6009929  57.2137514  92.1078935  83.7876415
  68.9323679  90.7154573  79.5060054  68.4170302  91.4859178  79.7448442
  68.6600987  90.0419709  80.1293116  66.5170790  85.5604274  84.5645293
  65.6612386  85.1711124  84.3850931  66.9297741  85.6396235  83.7045078
  68.0469936  83.0950617  88.9636852  67.5434732  83.0580752  88.1504658
  68.3400543  84.0043360  89.0233509  64.2912822  83.1789347  87.9703034
  65.1565819  82.9832156  87.6108924  64.3590331  82.9499699  88.8972391
  73.9057953  93.4686928  81.4413228  73.1287395  93.1298087  80.9968390
  74.5849434  93.4739551  80.7668193  68.7209982  88.5881665  81.3319835
  68.4160117  88.9027814  82.1829979  69.6740424  88.6663085  81.3747168
  67.1656414  94.7471888  82.9812789  66.6377775  94.0124648  82.6686027
  66.6643916  95.5246565  82.7352758  72.1449260  92.9420909  88.0979836
  71.4872934  93.6320170  88.1859964  72.9489659  93.3317341  88.4413822
  70.9554718  91.2965282  86.1483777  71.4686600  91.9295273  86.6505487
  71.6055942  90.6966477  85.7827137  65.3109014  92.5652099  75.9847762
  64.4036075  92.3341352  76.1838911  65.8080046  91.7689718  76.1721744
  68.2177093 101.2749606  78.9044449  67.5438791 101.5781303  79.5129406
  68.6042915 102.0778686  78.5549906  67.4335549  88.7714737  88.3942118
  66.5158111  88.9929684  88.2363806  67.8495693  88.8461048  87.5353825
  68.2170597  90.1706153  83.5244798  68.9642416  90.6827550  83.2151920
  68.4862187  89.8490206  84.3849192  66.4897247  92.6664694  80.5071753
  65.5808466  92.3823726  80.6044222  66.5192331  93.0863772  79.6475059
  71.7216515  96.2771283  84.2762920  71.2678842  95.4362193  84.3328111
  71.0910481  96.9132681  84.6137700  70.6649434  87.2063269  85.5063588
  69.9272191  86.6940655  85.8373830  70.9176208  86.7663651  84.6946864
  70.1649454  98.1147780  85.2112738  70.4572428  98.6752837  84.4925104
  70.6748074  98.4076341  85.9665897  70.7661061  79.9839521  86.1005357
  71.0719938  79.1236885  85.8131272  71.4913666  80.5757141  85.9004351
  57.0585418  90.3870208  84.4886955  56.8609817  89.7939568  83.7638021
  56.5032082  90.0822418  85.2062894  65.0382141  90.2793314  86.6081548
  65.0930751  89.3267151  86.5324024  64.2273343  90.4352753  87.0922846
  66.1873335  94.2073437  77.8459831  65.7492765  93.4909296  77.3865468
  66.9283776  94.4349552  77.2844923  62.9774501  88.8970374  84.3671927
  62.1642367  89.1964545  84.7737119  63.4733495  88.5026063  85.0846409
  65.1283079  98.8928131  86.3006191  65.0859258  99.1188977  85.3714723
  66.0445778  98.6591505  86.4491993  68.5748713  89.3612198  93.1986821
  68.9298101  89.5883672  94.0581286  69.2220844  89.6930575  92.5764076
  74.3046450  92.4830634  83.9036150  74.1664348  92.6732230  82.9757339
  73.9482669  93.2450017  84.3604201  62.4688576  86.4688729  89.9833162
  63.1087955  86.3277489  89.2856125  61.6366106  86.1823243  89.6071764
  74.3315829  94.5507161  88.9147421  74.7652336  94.4582450  89.7630475
  75.0447410  94.5264662  88.2767437  63.2448880  95.7691160  86.0968154
  64.0389478  95.2741480  85.8950729  62.5340572  95.2409023  85.7335860
  68.0643724  98.1509255  90.4480522  68.1180747  98.7200192  91.2158238
  67.1958506  98.3211140  90.0834559  59.5531643  89.9134242  82.1727907
  58.6229231  89.8518697  82.3897869  59.6489115  89.3910194  81.3764548
  59.4717192  86.4389054  84.7606149  59.7324010  87.3534388  84.6515309
  60.2934365  85.9713497  84.9102761  60.9442118  87.8526812  91.9304973
  61.6165171  87.6444174  91.2817622  60.1171904  87.6548898  91.4910205
  75.1931379  94.5930862  91.4480307  75.3867269  95.4976672  91.6939582
  75.0931997  94.1338281  92.2818892  66.8467690  84.4788753  93.9470634
  66.1995605  85.1778702  93.8535110  67.6168705  84.9124896  94.3146882
  70.2546488  94.7437605  97.0221187  70.1031994  94.5148156  96.1051271
  70.2451167  95.7008206  97.0352532  67.0231824  92.3169517  92.0067454
  67.9523884  92.4680677  91.8336421  66.6022854  92.4053538  91.1516100
  65.8220156  96.3420182  89.7765991  65.6831241  95.9738966  90.6491929
  65.0334752  96.8567821  89.6049949  66.4168308 101.4429278  81.1191528
  66.5920063 100.9717322  81.9337150  65.7301096 102.0695045  81.3472789
  67.3725371  95.7201785  87.1654829  67.0375204  95.6802555  88.0612479
  66.8729317  95.0546501  86.6925239  61.3469615  91.1269415  92.6907410
  61.2089413  90.3949653  93.2918949  62.2574538  91.0378315  92.4091598
  70.3084563  93.0657819  77.4391889  69.6913733  92.3404647  77.3424941
  69.8401051  93.8267179  77.0958963  63.9751916  90.8389374  92.1791090
  64.6851534  90.1982566  92.1377708  63.9321224  91.0902269  93.1017271
  71.9638694  97.7756727  95.0997669  71.9051240  97.0915947  94.4328252
  72.3658213  98.5175717  94.6478295  62.6880850  87.8254592  93.9986729
  62.1518207  87.3745330  94.6508326  62.0997558  87.9600501  93.2557194
  60.9829393 104.5918641  87.8931388  61.2225991 105.2237165  88.5710407
  60.1398590 104.2406681  88.1796747  71.9656101  95.7396311  93.3311649
  71.0782880  95.4022233  93.4538048  72.5354653  95.0079342  93.5680414
  53.6185249  92.0720403  86.6554700  54.3056288  91.7582133  86.0675715
  53.4633377  92.9761768  86.3821952  58.4219971  86.9610600  91.0839724
  58.3378159  86.3536269  90.3490134  57.6002677  87.4519618  91.0849220
  65.4957255 100.3997764  90.2972892  65.4227426 101.2052735  90.8092196
  65.0534648 100.5989729  89.4720913  65.2847035  99.6369534  83.8075713
  64.5014556 100.1791214  83.9013938  65.9839780 100.1543513  84.2069955
  68.5943685  85.4464163  86.4509919  69.0912384  84.6934125  86.1310989
  67.8230666  85.4828480  85.8853128  76.4473442  91.1504529  88.0928210
  76.4363318  92.0329244  87.7222143  75.5790821  90.7976079  87.8982747
  67.9555938 100.2984598  92.4531051  68.6683911 100.9332062  92.3806952
  67.4645967 100.3948464  91.6371052  69.6773465  94.2035850  84.0248342
  68.7429744  94.3237313  83.8553047  69.8550134  93.3008317  83.7608352
  65.1778653  87.5881546  86.1781603  64.8076441  87.0352586  86.8662509
  65.6737746  86.9839680  85.6256604  73.0646017  90.0453170  84.5598376
  73.5306469  90.8781161  84.4858679  73.5153517  89.5798151  85.2643635
  63.0067852  98.0479041  93.2736621  63.7077311  98.6815524  93.4266016
  62.5362967  98.3893773  92.5132261  71.1322248  96.3896991  81.5584528
  71.4082092  96.2753585  82.4678403  70.2626747  95.9914476  81.5196702
  71.0362679  82.4133757  88.5989278  70.1225759  82.6437983  88.7671485
  71.4655781  82.4972201  89.4503310  70.8069138  90.6023649  91.0989172
  70.1540588  90.8499556  90.4441625  71.1849518  89.7887787  90.7651649
  67.7676312 100.6383342  85.2017342  67.9498706  99.8204998  85.6645094
  68.5909298 100.8551034  84.7642232  68.1018477  99.5651527  82.4632391
  68.6306244  99.0543981  81.8502553  68.3646697  99.2494057  83.3277924
  66.8556711  91.3443460  97.5855209  66.1797348  91.2437589  98.2557584
  67.6784345  91.1882673  98.0491206  58.6035570  97.5815396  90.2067724
  59.1889007  96.8359084  90.3395628  58.4060408  97.8919353  91.0904388
  61.4574225 100.6166643  85.2230166  60.7884600 101.1012771  84.7394207
  61.3187095 100.8635864  86.1373545  53.1953225  90.1520996  88.9272167
  53.2337324  89.6184587  89.7209285  52.6893518  89.6256202  88.3083144
  65.5979494 102.6510387  91.8212825  66.1497802 102.8142009  92.5861910
  65.9385687 103.2414825  91.1492850  60.5743987  84.9985537  92.4234710
  60.6385314  85.8600368  92.0112107  60.5111107  84.3859538  91.6907068
  60.0496260  87.0708669  96.0707744  60.6768298  86.6885747  96.6845268
  59.1924178  86.8522871  96.4363436  70.4490368  97.4771645  97.6761479
  70.9930272  98.0901603  97.1816434  69.8677213  98.0351223  98.1928492
  56.8261802  88.8785098  82.0026099  57.1215243  87.9695777  81.9493152
  55.9249838  88.8572838  81.6807101  68.7347881 100.5992363  88.8076507
  68.6099021  99.7982102  88.2987453  69.3926972 101.0938556  88.3190477
  60.3556049  86.9541095  87.9853647  59.6342635  87.5677063  87.8461121
  61.1449305  87.4898860  87.9070293  70.7982789  98.4001383  90.4356057
  69.8513125  98.2806734  90.3634384  71.1465563  97.5123881  90.5182319
  63.1582363  84.2895522  94.2594299  63.6816765  84.5357818  95.0220608
  62.9394696  85.1215556  93.8397436  58.5549644  86.5599196  82.1265424
  58.2262350  85.6796575  81.9440530  58.9089015  86.5046865  83.0141813
  67.8029223  98.1954099  86.6360409  67.6554185  97.2670806  86.8167979
  68.6282716  98.2174190  86.1517485  61.6691467  86.8472166  82.4940901
  62.0087540  87.3758087  81.7719510  62.1163588  87.1852572  83.2699468
  71.4063345  99.0182658  87.7225282  72.3309892  98.8125519  87.5849733
  71.2378648  98.7699059  88.6314624  64.3634908  85.2309217  91.9443970
  64.0231728  84.4317030  92.3464649  63.6573914  85.5310927  91.3720803
  65.0151380  82.3158529  90.3971293  65.8377449  81.8419007  90.2750183
  65.2589443  83.0949013  90.8969979  62.5389958  89.0077650  88.2063271
  62.3934539  89.3217953  89.0987553  62.0615162  89.6262550  87.6534170
  64.3986341  85.9980198  88.2544161  64.3847910  85.1021291  87.9176459
  65.1158769  86.0050861  88.8882447  66.2512472  86.4317538  90.2997288
  65.9930250  87.3534609  90.2981619  65.7197512  86.0347972  90.9897752
  71.1958661  99.5368325  83.0787374  71.3695538  98.9714748  82.3261226
  71.6887552 100.3369220  82.8966863  57.0135621  91.5482994  91.1450932
  56.4689089  92.3242802  91.2771207  57.8914970  91.8953799  90.9870054
  66.6714428  82.5649488  86.6598451  66.6936124  82.6288822  85.7050430
  67.0882487  81.7253997  86.8538957  77.0498052  92.3004748  84.6977673
  77.4929198  91.5512073  84.2996797  76.1724562  92.2914884  84.3151405
  72.1833833  98.8535089  80.1784272  72.8784738  99.4741782  80.3971586
  72.5256983  98.0030441  80.4536650  57.8001642  90.6752890  94.0381089
  57.0583379  90.8235526  94.6245720  57.4794387  90.9361156  93.1747839
  74.0825256  96.3034795  81.7071603  74.6076581  96.6422068  80.9820923
  73.9947609  95.3681810  81.5234737  65.7445305 100.2168869  93.8361479
  66.0532432  99.9718015  94.7084179  66.5420787 100.4215507  93.3480349
  65.7665917 102.3706778  86.0666856  65.3270907 101.8783157  86.7599712
  66.5174034 101.8279746  85.8258931  58.2458256  98.5618319  86.0691484
  59.0716276  98.2622091  85.6890127  57.8952308  97.7925942  86.5181273
  63.2139789  97.9144787  88.1389157  62.5919799  97.2515492  87.8391385
  63.8844656  97.9405919  87.4562805  56.4466861  96.4804646  87.0280417
  55.6098770  96.0526820  86.8464419  56.4190507  96.6737089  87.9651209
  63.2864317  86.3926575  97.7321663  63.3352472  87.2688698  97.3499433
  63.8286831  85.8503968  97.1593307  73.7719163  96.9367699  97.0122801
  72.9814706  96.9191837  96.4727300  73.5352517  97.4755992  97.7671837
  73.8917038  93.7860165  94.3255529  73.9415042  93.6210172  95.2671052
  73.7830961  92.9187424  93.9353410  62.7753296  96.4648711  81.6147618
  62.9241417  97.1484175  80.9614291  63.5819740  96.4453801  82.1297074
  71.1820800  89.7691093  95.6414836  72.0830663  89.6297558  95.3498834
  71.2568774  89.9345548  96.5813013  65.5163605  87.1457948  94.4868022
  64.6466915  87.4391514  94.2150611  65.7523086  87.7298393  95.2075286
  75.3935234  96.2057106  94.5697551  75.1020043  96.5687087  95.4061012
  74.7807366  95.4924115  94.3910883  76.5930917  93.7709986  87.0900121
  77.4277808  94.2099790  87.2537681  76.7290045  93.2948639  86.2708367
  73.6422423  91.3289721  93.0377609  74.1176544  91.5217367  92.2296460
  72.7187988  91.3848907  92.7920992  60.5305929  92.4913888  82.6208687
  60.2851971  91.5876218  82.8188897  60.7001844  92.4931039  81.6788165
  68.2202639  83.3637565  92.0033443  68.7384583  84.0998592  91.6779931
  67.8657772  83.6701558  92.8380202  59.8001577  88.2242246  80.1194848
  59.1070822  88.2986601  79.4634884  59.5553329  87.4602590  80.6416365
  68.4715233  79.7837847  87.5234339  68.7516987  79.1161036  88.1494766
  69.2565840  79.9766943  87.0109003  66.2748702  98.9596841  79.0859365
  65.7022669  99.5787028  78.6329837  66.8481495  99.5096203  79.6199287
  72.3424092  88.2055481  91.2705914  73.2941515  88.3053579  91.2918138
  72.1727542  87.4133750  91.7803999  70.3638471  85.2911064  91.4565315
  69.7688403  85.5716077  90.7611804  70.0788168  85.7804965  92.2282056
  69.4945962  99.2433991  80.2167948  70.4276635  99.1779553  80.4200823
  69.4069174 100.0790258  79.7582480  72.1233978  98.5599862  77.1771895
  72.0447610  98.2259725  78.0707653  72.9443645  99.0521629  77.1763368
  74.8212169  91.4261601  90.3848214  74.7888490  90.4877602  90.5707898
  75.4312793  91.5045638  89.6514039  66.6595500  90.2957654  76.4275418
  67.6054605  90.1663862  76.4963836  66.2809745  89.5572316  76.9044846
  74.9706658  88.2172644  90.4306497  74.4545707  87.4331101  90.2436426
  75.8546606  87.8891361  90.5953017  72.6317385  81.9613660  86.3902310
  72.4342206  81.6528748  87.2745642  73.2417090  82.6875299  86.5200240
  80.6388719  92.4877608  89.5254251  81.3692108  92.2262896  90.0861954
  80.0295665  91.7506330  89.5656319  78.7204016  90.6285470  90.1228702
  77.9937180  90.4941435  89.5145193  78.3051303  90.9362299  90.9285420
  66.5434193  94.3475400  97.8876075  67.4637202  94.5253999  98.0816121
  66.5083776  93.4031445  97.7355774  55.7616358  89.5413994  86.8129350
  55.4419142  88.6879302  86.5203724  55.2149786  89.7562572  87.5687317
  59.5396265  92.2576435  90.5298856  59.7582275  93.1893542  90.5486890
  59.9522039  91.8984409  91.3153660  64.4124131  87.8309640  99.9201605
  64.3120858  88.7803997  99.8513696  64.1945673  87.5027879  99.0477675
  55.6304618  93.1616905  88.7822471  54.9368089  92.7470858  88.2692426
  56.3777609  93.2037442  88.1855890  71.7669839  83.9523092  83.6477505
  71.1868508  84.6107896  83.2655558  71.5005771  83.1300437  83.2364923
  70.2173405  83.3528150  85.8498826  70.7173183  83.4644684  85.0413144
  70.8609013  83.0489202  86.4899634  64.2755401  91.2606779  98.7366667
  63.7922482  92.0607139  98.9430556  64.3616340  91.2714724  97.7834111
  57.5441360  93.0935159  86.6588486  57.5212048  93.1922846  85.7070369
  57.8541997  93.9400310  86.9805652  60.2028738  95.1511314  90.7735100
  61.1571992  95.1195256  90.7065032  60.0041262  94.6901938  91.5885326
  60.7928120  93.7212430  93.3405898  61.6121009  94.2156509  93.3640735
  61.0664928  92.8044398  93.3123466  70.5494717  86.1123182  82.7033854
  69.6620572  86.3972833  82.4854048  70.9648706  85.9516946  81.8561130
  73.9009253  86.1369703  86.4188193  74.6769643  86.6266156  86.6912810
  73.1757387  86.5627757  86.8760062  76.3381811  86.8497323  87.4762133
  76.9326302  86.6093058  86.7655442  76.4108395  86.1304453  88.1035670
  58.5578967 100.6930933  87.7905298  58.4233435  99.9331334  87.2243296
  58.1411029 101.4171833  87.3234087  69.6937930  95.8767857  76.7981874
  70.3973780  96.0817859  77.4139529  68.9700579  96.4444619  77.0630957
  70.5235740  91.6277718  82.9184144  70.4670942  92.0846270  82.0791776
  71.0764083  90.8668403  82.7406986  74.3340546  87.4167450  83.7434263
  74.0777480  87.0164086  84.5742471  73.7093414  88.1311244  83.6184402
  78.6452884  90.1563523  86.2505555  78.0852442  90.2256713  87.0237117
  78.0396387  89.9804508  85.5305051  61.7148093 101.5900250  88.0023741
  61.5980477 102.5345683  87.9002431  60.8940539 101.2873812  88.3909540
  71.6024627  96.3150386  78.8480334  72.4370231  95.8831585  78.6657808
  71.4408970  96.1432400  79.7757228  71.2570520  92.8182500  80.2136673
  71.2019323  92.6526771  79.2725117  70.6316575  93.5258532  80.3698863
  56.0463035  88.0550564  94.0398095  56.6921898  87.5449518  94.5285320
  55.8380186  88.7919246  94.6141520  68.5716427  95.1231411  99.5390236
  69.4407586  95.2972064  99.1776871  68.0923178  95.9425828  99.4165965
  62.7402607 102.2428512  91.2179669  63.6429854 102.2752123  91.5346164
  62.5139977 101.3128963  91.2326005  64.4956209 100.9959499  87.8789748
  63.5451840 100.9961361  87.7654120  64.7988695 100.2492233  87.3625783
  60.3860526  85.2018181  98.1373109  61.2491987  84.8454986  98.3476434
  59.8125936  84.8632076  98.8248514  80.2308902 106.8320037  88.9435510
  80.8687312 106.7126785  88.2398850  80.1129745 107.7800881  89.0023463
  77.0398609 106.7847465  88.8797035  76.7017120 106.6688530  87.9917570
  77.9088377 106.3838630  88.8598041  72.8985424 108.6382942  84.8693926
  72.3350290 108.5472879  84.1010214  72.7837820 107.8182846  85.3496419
  77.5218392 107.9382317  94.8383241  77.5107033 107.5435115  93.9663744
  77.6839031 107.2048390  95.4317012  70.4449856 110.1334133  87.7078146
  71.2371148 109.7924958  87.2924446  70.6846507 110.2429108  88.6280300
  78.4784983 112.3053910  80.1808391  77.8272963 112.8907990  79.7942405
  79.2729346 112.8360104  80.2403428  72.4040610 109.3943047  80.5795525
  73.1771486 108.8472034  80.4408401  72.7566009 110.2587296  80.7909987
  74.2425653 110.7219429  93.7862425  73.9515519 111.6265060  93.6709091
  74.8782637 110.7635957  94.5006494  75.1681860 108.0996277  90.3763784
  75.7645432 107.8752300  89.6620747  75.2256831 107.3581023  90.9789232
  74.7406888 105.5535713  78.2113975  74.9932409 105.0317234  77.4497438
  73.8031447 105.3901858  78.3140659  79.7850171 104.5571491  86.0188718
  80.5713260 104.1390914  85.6679135  80.0488875 105.4617583  86.1870367
  79.9560248 109.9944341  80.7177375  79.3206081 110.0678968  81.4298280
  79.6257655 110.5837940  80.0396454  85.1858598 104.4946724  86.9221697
  85.9183770 103.9245941  87.1559526  84.4297954 104.1068325  87.3628202
  74.4603177 107.4563819  80.4138350  74.3439435 106.7808722  81.0819434
  74.5705437 106.9696193  79.5970503  76.8034718 106.9173966  84.1185039
  76.4392925 106.3904587  84.8297961  77.6601834 106.5272435  83.9451525
  82.7084018  98.2068298  91.3816306  82.3767343  99.0763709  91.1577521
  82.1129632  97.8904582  92.0610336  76.4440205 101.9463866  79.1146388
  76.6114607 102.8144102  79.4816859  76.2537374 102.1091147  78.1907677
  79.2015538 110.4080844  90.7812218  78.9016261 111.3105883  90.6728025
  78.8566598 110.1413028  91.6333371  72.6528019 106.8594641  86.8148923
  71.7278516 106.7270855  87.0226614  72.9012433 107.6388861  87.3118865
  82.6012682 102.9263385  88.4609656  81.6929559 102.8578793  88.1668417
  82.5500278 103.4035330  89.2891481  76.4229426 104.4021523  80.0993055
  76.3029051 104.8478574  80.9378535  75.7282014 104.7506841  79.5406593
  70.0136831 106.5027915  87.6492712  70.1429212 106.7562394  88.5632123
  69.3334282 107.0955623  87.3297367  74.1836318 117.1725165  83.7483186
  74.1060347 118.1232990  83.8271667  73.5797961 116.8271037  84.4058112
  76.6753548 104.3453030  96.4044553  75.8986882 104.9046950  96.3947417
  77.3144111 104.8309813  96.9259423  84.4674328 101.1279823  90.2387529
  83.8248708 101.4212356  89.5927324  83.9629257 101.0132743  91.0440726
  82.1214492 104.8742996  80.9273389  83.0332348 105.1070383  80.7521086
  81.6124139 105.4580040  80.3648467  74.9299920 107.1538484  95.9662520
  75.6714604 107.6923528  95.6897343  74.2236905 107.7804772  96.1234072
  80.4055260 109.2967624  94.5634681  80.8138616 108.8550035  93.8189314
  79.6832521 108.7220252  94.8168874  76.7586330 104.2340231  91.9368238
  77.6047525 104.6579644  92.0802887  76.6984967 103.5773855  92.6306801
  80.7284074 109.8568815  88.3186970  80.0992937 110.0214529  87.6163038
  80.3409736 110.2710424  89.0897934  84.6073306 110.7923253  85.6731334
  83.9224344 111.1722154  85.1228367  84.6917155 111.4018579  86.4063282
  79.9085775 101.8944599  93.5949412  79.6646707 102.6486660  93.0583688
  80.1845705 102.2729947  94.4296659  81.8624238 108.4383212  92.2726678
  82.0741133 109.0814971  91.5961059  81.8153986 107.6045528  91.8048608
  79.4650467 101.0501032  89.1763250  78.6034946 101.3482286  89.4679987
  79.4912901 101.2671431  88.2444282  76.2812036 109.5943223  85.5837055
  76.7450382 109.8730926  84.7941678  76.0168834 108.6926667  85.4010146
  73.1736117 109.1414704  88.5216819  73.7437474 109.5701973  87.8834303
  73.7644229 108.8597289  89.2201004  75.2180922 105.7166375  82.3926620
  75.9204965 106.1687419  82.8600547  74.8861551 105.0750194  83.0206514
  73.6661284 104.3078132  96.7677830  73.0359944 104.9894413  97.0013227
  73.5597372 104.1961213  95.8230968  68.9606256 103.9749928  87.6943754
  68.1705310 104.2307456  87.2183865  69.4517503 104.7898266  87.7995795
  82.9770066 111.3155167  90.4449035  83.7987509 110.9135354  90.1631716
  82.9732468 111.2123401  91.3965151  70.9121001 104.3394507  84.6527231
  70.1152165 104.4513201  85.1710726  70.6846594 104.6781159  83.7868121
  76.7426669 110.8639210  92.6009745  76.8071102 111.3259618  93.4367917
  76.0337593 110.2336575  92.7292055  67.2443959 104.2280418  90.1258745
  67.4951997 105.1127428  90.3916321  67.7803507 104.0485020  89.3533837
  91.0676059 107.6593915  86.7934006  90.3139767 107.0901314  86.6378011
  91.2023600 107.6256580  87.7404641  76.4574687 112.5307318  82.4688726
  76.3220361 113.3758853  82.8973573  76.9984499 112.7326595  81.7054659
  72.9442026  98.6098898  99.1303081  72.5508972  98.0565096  99.8050725
  73.7608167  98.9209476  99.5209598  69.9104084 110.0482756  83.0416651
  70.4228605 110.8426006  83.1922215  70.5626797 109.3509046  82.9750252
  71.7198969 113.1648512  85.1239404  71.8965597 114.0866477  84.9360388
  72.5155802 112.8506931  85.5533784  75.8609987 100.0256777  96.7223337
  76.6019701 100.6263930  96.6427800  76.0927910  99.2834414  96.1641380
  71.0051325 105.2113144  95.0001567  70.8904840 104.3098401  95.3008666
  70.1495843 105.4576841  94.6486384  78.0843163 113.1530884  96.5989068
  77.6407017 112.3667263  96.2809972  78.7460377 113.3410035  95.9332959
  72.8430284 114.6826686  91.1249746  73.3937709 114.5543749  90.3526740
  72.0041760 114.9821575  90.7744639  80.1824401 113.4333684  94.6270469
  80.1642877 114.2542565  94.1350738  81.1044321 113.3087759  94.8520610
  76.6397455 110.9477814  95.4693977  77.1725792 110.1866102  95.2393285
  76.1111536 110.6551465  96.2118132  79.8067150  96.0537880  90.9987619
  79.4631420  96.9439521  90.9226730  80.1746113  95.8639537  90.1357204
  67.8753001 108.3771410  83.8176221  68.7128223 108.7868418  83.6009929
  68.0531269 107.4370852  83.7876415  79.7717433 106.0446491  79.5060054
  79.2564056 106.8151095  79.7448442  79.4994741 105.3711627  80.1293116
  77.3564544 100.8896192  84.5645293  76.5006140 100.5003042  84.3850931
  77.7691496 100.9688152  83.7045078  78.8863691  98.4242535  88.9636852
  78.3828486  98.3872670  88.1504658  79.1794298  99.3335278  89.0233509
  75.1306577  98.5081265  87.9703034  75.9959573  98.3124073  87.6108924
  75.1984085  98.2791616  88.8972391  84.7451707 108.7978845  81.4413228
  83.9681150 108.4590005  80.9968390  85.4243188 108.8031469  80.7668193
  79.5603736 103.9173583  81.3319835  79.2553872 104.2319732  82.1829979
  80.5134178 103.9955003  81.3747168  78.0050168 110.0763806  82.9812789
  77.4771530 109.3416566  82.6686027  77.5037671 110.8538483  82.7352758
  82.9843014 108.2712827  88.0979836  82.3266688 108.9612088  88.1859964
  83.7883413 108.6609259  88.4413822  72.7368896 100.7383472  85.3419401
  73.3112648 100.5158654  84.6092594  73.3239878 100.8072167  86.0948002
  81.7948473 106.6257199  86.1483777  82.3080355 107.2587191  86.6505487
  82.4449697 106.0258395  85.7827137  73.0638483 102.7687933  79.3615286
  72.2275795 103.1062620  79.6824561  72.9243252 102.6336913  78.4242423
  75.0391563  97.6124721  84.0694470  74.3855976  97.2973739  83.4451085
  74.9972037  96.9900462  84.7954293  76.1502768 107.8944016  75.9847762
  75.2429830 107.6633270  76.1838911  76.6473800 107.0981636  76.1721744
  79.0570847 116.6041524  78.9044449  78.3832546 116.9073220  79.5129406
  79.4436669 117.4070604  78.5549906  78.2729304 104.1006655  88.3942118
  77.3551865 104.3221602  88.2363806  78.6889447 104.1752965  87.5353825
  79.0564351 105.4998071  83.5244798  79.8036170 106.0119468  83.2151920
  79.3255941 105.1782123  84.3849192  77.3291002 107.9956611  80.5071753
  76.4202221 107.7115644  80.6044222  77.3586085 108.4155690  79.6475059
  82.5610269 111.6063201  84.2762920  82.1072596 110.7654111  84.3328111
  81.9304236 112.2424599  84.6137700  81.5043189 102.5355187  85.5063588
  80.7665945 102.0232573  85.8373830  81.7569962 102.0955568  84.6946864
  81.0043208 113.4439697  85.2112738  81.2966183 114.0044755  84.4925104
  81.5141829 113.7368258  85.9665897  81.6054816  95.3131439  86.1005357
  81.9113693  94.4528802  85.8131272  82.3307421  95.9049059  85.9004351
  67.8979172 105.7162125  84.4886955  67.7003572 105.1231486  83.7638021
  67.3425836 105.4114336  85.2062894  75.8775896 105.6085232  86.6081548
  75.9324505 104.6559068  86.5324024  75.0667098 105.7644671  87.0922846
  77.0267089 109.5365355  77.8459831  76.5886519 108.8201214  77.3865468
  77.7677530 109.7641470  77.2844923  73.8168256 104.2262292  84.3671927
  73.0036121 104.5256462  84.7737119  74.3127250 103.8317980  85.0846409
  75.9676833 114.2220049  86.3006191  75.9253012 114.4480895  85.3714723
  76.8839532 113.9883423  86.4491993  79.4142467 104.6904116  93.1986821
  79.7691855 104.9175589  94.0581286  80.0614599 105.0222493  92.5764076
  85.1440204 107.8122552  83.9036150  85.0058103 108.0024148  82.9757339
  84.7876423 108.5741935  84.3604201  73.3082330 101.7980647  89.9833162
  73.9481710 101.6569406  89.2856125  72.4759861 101.5115161  89.6071764
  85.1709584 109.8799079  88.9147421  85.6046090 109.7874368  89.7630475
  85.8841165 109.8556579  88.2767437  74.0842634 111.0983078  86.0968154
  74.8783233 110.6033398  85.8950729  73.3734327 110.5700941  85.7335860
  78.9037479 113.4801173  90.4480522  78.9574501 114.0492109  91.2158238
  78.0352260 113.6503058  90.0834559  70.3925398 105.2426159  82.1727907
  69.4622986 105.1810615  82.3897869  70.4882870 104.7202112  81.3764548
  70.3110947 101.7680972  84.7606149  70.5717764 102.6826305  84.6515309
  71.1328119 101.3005415  84.9102761  71.7835872 103.1818729  91.9304973
  72.4558926 102.9736091  91.2817622  70.9565659 102.9840815  91.4910205
  86.0325133 109.9222780  91.4480307  86.2261023 110.8268590  91.6939582
  85.9325752 109.4630199  92.2818892  77.6861444  99.8080670  93.9470634
  77.0389359 100.5070620  93.8535110  78.4562460 100.2416814  94.3146882
  81.0940242 110.0729522  97.0221187  80.9425748 109.8440074  96.1051271
  81.0844922 111.0300124  97.0352532  77.8625578 107.6461435  92.0067454
  78.7917638 107.7972595  91.8336421  77.4416608 107.7345456  91.1516100
  76.6613910 111.6712100  89.7765991  76.5224996 111.3030884  90.6491929
  75.8728506 112.1859739  89.6049949  77.2562062 116.7721196  81.1191528
  77.4313818 116.3009239  81.9337150  76.5694850 117.3986962  81.3472789
  78.2119125 111.0493702  87.1654829  77.8768958 111.0094472  88.0612479
  77.7123071 110.3838418  86.6925239  72.1863369 106.4561332  92.6907410
  72.0483167 105.7241571  93.2918949  73.0968293 106.3670232  92.4091598
  81.1478317 108.3949737  77.4391889  80.5307488 107.6696565  77.3424941
  80.6794806 109.1559097  77.0958963  74.8145670 106.1681292  92.1791090
  75.5245289 105.5274484  92.1377708  74.7714978 106.4194186  93.1017271
  82.8032449 113.1048645  95.0997669  82.7444995 112.4207865  94.4328252
  83.2051967 113.8467635  94.6478295  73.5274604 103.1546509  93.9986729
  72.9911961 102.7037248  94.6508326  72.9391312 103.2892418  93.2557194
  71.8223148 119.9210559  87.8931388  72.0619746 120.5529083  88.5710407
  70.9792344 119.5698599  88.1796747  72.9376863 102.6135161  76.5613193
  72.0606329 102.4923962  76.1975440  73.4134616 101.8221239  76.3092082
  82.8049856 111.0688229  93.3311649  81.9176635 110.7314151  93.4538048
  83.3748407 110.3371260  93.5680414  64.4579003 107.4012321  86.6554700
  65.1450043 107.0874051  86.0675715  64.3027132 108.3053685  86.3821952
  69.2613725 102.2902517  91.0839724  69.1771914 101.6828187  90.3490134
  68.4396432 102.7811536  91.0849220  76.3351009 115.7289681  90.2972892
  76.2621181 116.5344653  90.8092196  75.8928402 115.9281647  89.4720913
  76.1240789 114.9661451  83.8075713  75.3408311 115.5083131  83.9013938
  76.8233534 115.4835431  84.2069955  79.4337439 100.7756081  86.4509919
  79.9306139 100.0226043  86.1310989  78.6624421 100.8120397  85.8853128
  87.2867197 106.4796446  88.0928210  87.2757073 107.3621162  87.7222143
  86.4184576 106.1267997  87.8982747  78.7949693 115.6276515  92.4531051
  79.5077665 116.2623980  92.3806952  78.3039722 115.7240381  91.6371052
  80.5167220 109.5327768  84.0248342  79.5823499 109.6529230  83.8553047
  80.6943888 108.6300235  83.7608352  76.0172408 102.9173464  86.1781603
  75.6470195 102.3644504  86.8662509  76.5131500 102.3131597  85.6256604
  83.9039771 105.3745087  84.5598376  84.3700223 106.2073079  84.4858679
  84.3547272 104.9090069  85.2643635  73.8461606 113.3770959  93.2736621
  74.5471066 114.0107442  93.4266016  73.3756721 113.7185690  92.5132261
  81.9716002 111.7188909  81.5584528  82.2475846 111.6045503  82.4678403
  81.1020501 111.3206393  81.5196702  81.8756434  97.7425674  88.5989278
  80.9619514  97.9729901  88.7671485  82.3049535  97.8264118  89.4503310
  81.6462892 105.9315566  91.0989172  80.9934343 106.1791474  90.4441625
  82.0243272 105.1179704  90.7651649  78.6070066 115.9675259  85.2017342
  78.7892461 115.1496915  85.6645094  79.4303052 116.1842952  84.7642232
  78.9412232 114.8943444  82.4632391  79.4699998 114.3835899  81.8502553
  79.2040451 114.5785975  83.3277924  77.6950465 106.6735377  97.5855209
  77.0191102 106.5729507  98.2557584  78.5178099 106.5174591  98.0491206
  69.4429324 112.9107314  90.2067724  70.0282761 112.1651002  90.3395628
  69.2454163 113.2211270  91.0904388  72.2967980 115.9458561  85.2230166
  71.6278355 116.4304689  84.7394207  72.1580849 116.1927782  86.1373545
  64.0346979 105.4812914  88.9272167  64.0731079 104.9476505  89.7209285
  63.5287272 104.9548120  88.3083144  76.4373248 117.9802305  91.8212825
  76.9891556 118.1433926  92.5861910  76.7779442 118.5706743  91.1492850
  71.4137742 100.3277455  92.4234710  71.4779068 101.1892285  92.0112107
  71.3504862  99.7151456  91.6907068  70.8890014 102.4000587  96.0707744
  71.5162053 102.0177664  96.6845268  70.0317933 102.1814789  96.4363436
  67.6655557 104.2077016  82.0026099  67.9608998 103.2987695  81.9493152
  66.7643593 104.1864756  81.6807101  79.5741636 115.9284280  88.8076507
  79.4492775 115.1274020  88.2987453  80.2320727 116.4230474  88.3190477
  71.1949804 102.2833013  87.9853647  70.4736390 102.8968980  87.8461121
  71.9843060 102.8190778  87.9070293  81.6376544 113.7293300  90.4356057
  80.6906879 113.6098651  90.3634384  81.9859317 112.8415798  90.5182319
  73.9976117  99.6187439  94.2594299  74.5210519  99.8649736  95.0220608
  73.7788451 100.4507474  93.8397436  69.3943398 101.8891114  82.1265424
  69.0656105 101.0088493  81.9440530  69.7482769 101.8338783  83.0141813
  78.6422977 113.5246017  86.6360409  78.4947940 112.5962724  86.8167979
  79.4676471 113.5466107  86.1517485  72.5085222 102.1764084  82.4940901
  72.8481294 102.7050005  81.7719510  72.9557342 102.5144490  83.2699468
  82.2457099 114.3474575  87.7225282  83.1703647 114.1417437  87.5849733
  82.0772402 114.0990976  88.6314624  75.2028662 100.5601134  91.9443970
  74.8625483  99.7608947  92.3464649  74.4967669 100.8602845  91.3720803
  75.8545134  97.6450447  90.3971293  76.6771204  97.1710925  90.2750183
  76.0983198  98.4240931  90.8969979  74.4953369 100.6738705  80.6934194
  75.2161731 101.0519958  80.1897911  73.8718673 101.3927582  80.7969172
  78.6384492 101.3783854  81.6292527  78.8548106 102.2608492  81.3281355
  78.1578559 100.9870068  80.8998169  73.3783713 104.3369567  88.2063271
  73.2328294 104.6509870  89.0987553  72.9008917 104.9554468  87.6534170
  75.2380096 101.3272115  88.2544161  75.2241665 100.4313209  87.9176459
  75.9552524 101.3342779  88.8882447  77.0906227 101.7609456  90.2997288
  76.8324004 102.6826526  90.2981619  76.5591267 101.3639890  90.9897752
  82.0352415 114.8660243  83.0787374  82.2089293 114.3006665  82.3261226
  82.5281307 115.6661138  82.8966863  67.8529375 106.8774912  91.1450932
  67.3082843 107.6534720  91.2771207  68.7308725 107.2245716  90.9870054
  74.6416992 100.2086496  83.5231731  74.7632903  99.2803142  83.7222618
  74.3519034 100.2225182  82.6110046  77.5108182  97.8941406  86.6598451
  77.5329879  97.9580739  85.7050430  77.9276241  97.0545915  86.8538957
  87.8891806 107.6296666  84.6977673  88.3322953 106.8803991  84.2996797
  87.0118317 107.6206802  84.3151405  83.0227588 114.1827007  80.1784272
  83.7178492 114.8033700  80.3971586  83.3650738 113.3322358  80.4536650
  68.6395397 106.0044808  94.0381089  67.8977133 106.1527443  94.6245720
  68.3188141 106.2653074  93.1747839  84.9219011 111.6326713  81.7071603
  85.4470335 111.9713985  80.9820923  84.8341363 110.6973728  81.5234737
  76.5839060 115.5460786  93.8361479  76.8926186 115.3009933  94.7084179
  77.3814542 115.7507425  93.3480349  76.6059672 117.6998696  86.0666856
  76.1664662 117.2075075  86.7599712  77.3567789 117.1571664  85.8258931
  69.0852011 113.8910237  86.0691484  69.9110031 113.5914009  85.6890127
  68.7346063 113.1217859  86.5181273  74.0533544 113.2436705  88.1389157
  73.4313553 112.5807410  87.8391385  74.7238411 113.2697837  87.4562805
  67.2860616 111.8096563  87.0280417  66.4492524 111.3818738  86.8464419
  67.2584261 112.0029007  87.9651209  74.1258071 101.7218493  97.7321663
  74.1746227 102.5980616  97.3499433  74.6680586 101.1795886  97.1593307
  84.7310792 109.1152083  94.3255529  84.7808797 108.9502090  95.2671052
  84.6224715 108.2479342  93.9353410  73.6147051 111.7940628  81.6147618
  73.7635171 112.4776093  80.9614291  74.4213494 111.7745718  82.1297074
  82.0214554 105.0983011  95.6414836  82.9224417 104.9589476  95.3498834
  82.0962529 105.2637466  96.5813013  76.3557360 102.4749865  94.4868022
  75.4860669 102.7683431  94.2150611  76.5916840 103.0590310  95.2075286
  86.2328989 111.5349024  94.5697551  85.9413797 111.8979005  95.4061012
  85.6201120 110.8216032  94.3910883  87.4324671 109.1001904  87.0900121
  88.2671563 109.5391708  87.2537681  87.5683800 108.6240557  86.2708367
  84.4816177 106.6581639  93.0377609  84.9570299 106.8509285  92.2296460
  83.5581742 106.7140825  92.7920992  71.3699684 107.8205806  82.6208687
  71.1245726 106.9168136  82.8188897  71.5395598 107.8222956  81.6788165
  79.0596394  98.6929482  92.0033443  79.5778337  99.4290509  91.6779931
  78.7051526  98.9993476  92.8380202  70.6395331 103.5534164  80.1194848
  69.9464576 103.6278519  79.4634884  70.3947083 102.7894507  80.6416365
  79.3108988  95.1129765  87.5234339  79.5910742  94.4452954  88.1494766
  80.0959595  95.3058861  87.0109003  77.1142456 114.2888759  79.0859365
  76.5416423 114.9078946  78.6329837  77.6875250 114.8388120  79.6199287
  83.1817846 103.5347399  91.2705914  84.1335269 103.6345497  91.2918138
  83.0121297 102.7425667  91.7803999  81.2032226 100.6202982  91.4565315
  80.6082158 100.9007995  90.7611804  80.9181922 101.1096883  92.2282056
  80.3339716 114.5725909  80.2167948  81.2670389 114.5071471  80.4200823
  80.2462929 115.4082176  79.7582480  82.9627733 113.8891779  77.1771895
  82.8841364 113.5551643  78.0707653  83.7837400 114.3813547  77.1763368
  85.6605924 106.7553519  90.3848214  85.6282244 105.8169519  90.5707898
  86.2706548 106.8337555  89.6514039  77.4989255 105.6249572  76.4275418
  78.4448359 105.4955780  76.4963836  77.1203500 104.8864233  76.9044846
  85.8100412 103.5464562  90.4306497  85.2939461 102.7623019  90.2436426
  86.6940361 103.2183279  90.5953017  83.4711139  97.2905578  86.3902310
  83.2735960  96.9820666  87.2745642  84.0810845  98.0167216  86.5200240
  91.4782474 107.8169525  89.5254251  92.2085862 107.5554814  90.0861954
  90.8689419 107.0798247  89.5656319  89.5597771 105.9577388  90.1228702
  88.8330934 105.8233353  89.5145193  89.1445058 106.2654217  90.9285420
  77.3827947 109.6767318  97.8876075  78.3030957 109.8545917  98.0816121
  77.3477530 108.7323363  97.7355774  75.6832172 103.5499548  76.3630303
  74.7763627 103.2532661  76.4393017  75.9608153 103.2529366  75.4964589
  66.6010112 104.8705911  86.8129350  66.2812897 104.0171220  86.5203724
  66.0543540 105.0854489  87.5687317  70.3790020 107.5868352  90.5298856
  70.5976030 108.5185460  90.5486890  70.7915794 107.2276327  91.3153660
  77.2994238  98.0936438  82.5174544  76.4894966  97.7483523  82.8929791
  77.9878655  97.7843981  83.1062156  79.2284786  97.1714484  84.1398841
  79.7815825  97.5909938  84.7988864  79.4654872  96.2450233  84.1821797
  75.2517885 103.1601558  99.9201605  75.1514612 104.1095915  99.8513696
  75.0339427 102.8319797  99.0477675  74.4530957 100.4086483  76.5042282
  75.3150121 100.7341381  76.7638100  74.6381301  99.6217979  75.9915348
  66.4698372 108.4908823  88.7822471  65.7761844 108.0762776  88.2692426
  67.2171363 108.5329359  88.1855890  82.6063593  99.2815010  83.6477505
  82.0262262  99.9399814  83.2655558  82.3399526  98.4592354  83.2364923
  81.0567159  98.6820067  85.8498826  81.5566938  98.7936602  85.0413144
  81.7002767  98.3781120  86.4899634  75.1149155 106.5898697  98.7366667
  74.6316237 107.3899057  98.9430556  75.2010094 106.6006642  97.7834111
  68.3835115 108.4227077  86.6588486  68.3605803 108.5214764  85.7070369
  68.6935751 109.2692227  86.9805652  71.0422493 110.4803232  90.7735100
  71.9965746 110.4487174  90.7065032  70.8435016 110.0193855  91.5885326
  71.6321875 109.0504348  93.3405898  72.4514764 109.5448426  93.3640735
  71.9058683 108.1336316  93.3123466  81.3888471 101.4415100  82.7033854
  80.5014326 101.7264751  82.4854048  81.8042460 101.2808863  81.8561130
  84.7403007 101.4661621  86.4188193  85.5163397 101.9558073  86.6912810
  84.0151141 101.8919675  86.8760062  87.1775566 102.1789240  87.4762133
  87.7720057 101.9384976  86.7655442  87.2502149 101.4596371  88.1035670
  69.3972721 116.0222851  87.7905298  69.2627189 115.2623252  87.2243296
  68.9804784 116.7463751  87.3234087  80.5331684 111.2059775  76.7981874
  81.2367535 111.4109777  77.4139529  79.8094333 111.7736537  77.0630957
  81.3629495 106.9569636  82.9184144  81.3064696 107.4138187  82.0791776
  81.9157837 106.1960321  82.7406986  85.1734301 102.7459368  83.7434263
  84.9171235 102.3456003  84.5742471  84.5487169 103.4603162  83.6184402
  89.4846639 105.4855441  86.2505555  88.9246197 105.5548630  87.0237117
  88.8790142 105.3096426  85.5305051  72.5541847 116.9192168  88.0023741
  72.4374232 117.8637601  87.9002431  71.7334294 116.6165730  88.3909540
  82.4418382 111.6442304  78.8480334  83.2763986 111.2123502  78.6657808
  82.2802725 111.4724318  79.7757228  82.0964274 108.1474417  80.2136673
  82.0413078 107.9818689  79.2725117  81.4710329 108.8550450  80.3698863
  66.8856789 103.3842482  94.0398095  67.5315653 102.8741436  94.5285320
  66.6773940 104.1211163  94.6141520  75.4060400  97.6482526  79.7921991
  75.3939069  98.5924366  79.9490262  76.2983821  97.4652672  79.4981453
  73.5796361 117.5720430  91.2179669  74.4823608 117.6044040  91.5346164
  73.3533732 116.6420881  91.2326005  75.3349964 116.3251417  87.8789748
  74.3845595 116.3253278  87.7654120  75.6382450 115.5784151  87.3625783
  79.2212519  94.2425303  84.0467928  78.4544915  93.6883790  84.1924610
  79.6323224  94.3147172  84.9082080  71.2254280 100.5310099  98.1373109
  72.0885742 100.1746903  98.3476434  70.6519691 100.1923993  98.8248514
  83.7379179 123.9674859  84.8693926  83.1744044 123.8764796  84.1010214
  83.6231574 123.1474764  85.3496419  81.2843611 125.4626051  87.7078146
  82.0764903 125.1216876  87.2924446  81.5240261 125.5721026  88.6280300
  83.2434365 124.7234964  80.5795525  84.0165241 124.1763951  80.4408401
  83.5959764 125.5879214  80.7909987  85.5800643 120.8827630  78.2113975
  85.8326163 120.3609152  77.4497438  84.6425202 120.7193776  78.3140659
  90.6243925 119.8863409  86.0188718  91.4107015 119.4682832  85.6679135
  90.8882630 120.7909501  86.1870367  85.2996931 122.7855736  80.4138350
  85.1833189 122.1100640  81.0819434  85.4099191 122.2988110  79.5970503
  87.6428472 122.2465884  84.1185039  87.2786680 121.7196504  84.8297961
  88.4995588 121.8564353  83.9451525  87.2833959 117.2755783  79.1146388
  87.4508362 118.1436020  79.4816859  87.0931128 117.4383065  78.1907677
  83.4921774 122.1886559  86.8148923  82.5672270 122.0562773  87.0226614
  83.7406187 122.9680778  87.3118865  87.2623180 119.7313441  80.0993055
  87.1422805 120.1770491  80.9378535  86.5675769 120.0798758  79.5406593
  80.8530585 121.8319833  87.6492712  80.9822966 122.0854311  88.5632123
  80.1728036 122.4247541  87.3297367  92.9608246 120.2034914  80.9273389
  93.8726102 120.4362301  80.7521086  92.4517893 120.7871958  80.3648467
  90.3044221 116.3792950  89.1763250  89.4428700 116.6774203  89.4679987
  90.3306656 116.5963349  88.2444282  87.1205791 124.9235140  85.5837055
  87.5844136 125.2022843  84.7941678  86.8562589 124.0218585  85.4010146
  86.0574677 121.0458293  82.3926620  86.7598720 121.4979336  82.8600547
  85.7255305 120.4042112  83.0206514  79.8000011 119.3041845  87.6943754
  79.0099065 119.5599374  87.2183865  80.2911258 120.1190183  87.7995795
  81.7514756 119.6686425  84.6527231  80.9545919 119.7805119  85.1710726
  81.5240348 120.0073077  83.7868121  78.0837714 119.5572336  90.1258745
  78.3345752 120.4419346  90.3916321  78.6197262 119.3776937  89.3533837
  80.7497839 125.3774673  83.0416651  81.2622359 126.1717924  83.1922215
  81.4020551 124.6800964  82.9750252  82.5592723 128.4940430  85.1239404
  82.7359352 129.4158394  84.9360388  83.3549557 128.1798849  85.5533784
  90.6460905 111.3829797  90.9987619  90.3025174 112.2731439  90.9226730
  91.0139867 111.1931455  90.1357204  78.7146755 123.7063328  83.8176221
  79.5521977 124.1160336  83.6009929  78.8925023 122.7662770  83.7876415
  90.6111187 121.3738408  79.5060054  90.0957811 122.1443013  79.7448442
  90.3388496 120.7003545  80.1293116  88.1958299 116.2188109  84.5645293
  87.3399895 115.8294960  84.3850931  88.6085250 116.2980070  83.7045078
  89.7257445 113.7534452  88.9636852  89.2222241 113.7164588  88.1504658
  90.0188052 114.6627195  89.0233509  85.9700331 113.8373182  87.9703034
  86.8353328 113.6415991  87.6108924  86.0377840 113.6083534  88.8972391
  90.3997491 119.2465501  81.3319835  90.0947626 119.5611650  82.1829979
  91.3527933 119.3246920  81.3747168  88.8443923 125.4055724  82.9812789
  88.3165284 124.6708483  82.6686027  88.3431425 126.1830400  82.7352758
  83.5762650 116.0675390  85.3419401  84.1506402 115.8450572  84.6092594
  84.1633633 116.1364085  86.0948002  83.9032237 118.0979851  79.3615286
  83.0669549 118.4354538  79.6824561  83.7637007 117.9628831  78.4242423
  85.8785318 112.9416639  84.0694470  85.2249730 112.6265656  83.4451085
  85.8365792 112.3192379  84.7954293  86.9896523 123.2235934  75.9847762
  86.0823584 122.9925188  76.1838911  87.4867555 122.4273553  76.1721744
  89.1123058 119.4298573  88.3942118  88.1945620 119.6513520  88.2363806
  89.5283202 119.5044883  87.5353825  89.8958106 120.8289988  83.5244798
  90.6429925 121.3411385  83.2151920  90.1649696 120.5074041  84.3849192
  88.1684756 123.3248529  80.5071753  87.2595975 123.0407562  80.6044222
  88.1979840 123.7447608  79.6475059  92.3436943 117.8647104  85.5063588
  91.6059700 117.3524491  85.8373830  92.5963717 117.4247486  84.6946864
  92.4448570 110.6423357  86.1005357  92.7507447 109.7820720  85.8131272
  93.1701175 111.2340977  85.9004351  78.7372927 121.0454043  84.4886955
  78.5397326 120.4523404  83.7638021  78.1819591 120.7406253  85.2062894
  86.7169650 120.9377150  86.6081548  86.7718260 119.9850986  86.5324024
  85.9060852 121.0936589  87.0922846  87.8660844 124.8657273  77.8459831
  87.4280274 124.1493132  77.3865468  88.6071285 125.0933387  77.2844923
  84.6562010 119.5554209  84.3671927  83.8429876 119.8548380  84.7737119
  85.1521004 119.1609898  85.0846409  84.1476085 117.1272565  89.9833162
  84.7875464 116.9861324  89.2856125  83.3153615 116.8407078  89.6071764
  84.9236389 126.4274995  86.0968154  85.7176987 125.9325315  85.8950729
  84.2128081 125.8992858  85.7335860  81.2319152 120.5718077  82.1727907
  80.3016740 120.5102532  82.3897869  81.3276624 120.0494030  81.3764548
  81.1504701 117.0972890  84.7606149  81.4111519 118.0118223  84.6515309
  81.9721874 116.6297332  84.9102761  82.6229627 118.5110647  91.9304973
  83.2952680 118.3028009  91.2817622  81.7959413 118.3132733  91.4910205
  91.9872072 123.7241654  77.4391889  91.3701242 122.9988482  77.3424941
  91.5188560 124.4851015  77.0958963  83.7770617 117.9427079  76.5613193
  82.9000084 117.8215879  76.1975440  84.2528371 117.1513157  76.3092082
  75.2972758 122.7304238  86.6554700  75.9843797 122.4165968  86.0675715
  75.1420886 123.6345603  86.3821952  80.1007480 117.6194435  91.0839724
  80.0165668 117.0120104  90.3490134  79.2790186 118.1103453  91.0849220
  90.2731194 116.1047998  86.4509919  90.7699893 115.3517961  86.1310989
  89.5018175 116.1412315  85.8853128  91.3560974 124.8619686  84.0248342
  90.4217253 124.9821148  83.8553047  91.5337643 123.9592152  83.7608352
  86.8566162 118.2465381  86.1781603  86.4863950 117.6936422  86.8662509
  87.3525255 117.6423515  85.6256604  94.7433526 120.7037005  84.5598376
  95.2093978 121.5364996  84.4858679  95.1941026 120.2381986  85.2643635
  92.7150188 113.0717592  88.5989278  91.8013268 113.3021819  88.7671485
  93.1443290 113.1556036  89.4503310  74.8740734 120.8104832  88.9272167
  74.9124833 120.2768422  89.7209285  74.3681027 120.2840037  88.3083144
  82.2531496 115.6569372  92.4234710  82.3172823 116.5184203  92.0112107
  82.1898616 115.0443374  91.6907068  78.5049311 119.5368934  82.0026099
  78.8002752 118.6279612  81.9493152  77.6037347 119.5156673  81.6807101
  82.0343558 117.6124930  87.9853647  81.3130144 118.2260898  87.8461121
  82.8236814 118.1482695  87.9070293  80.2337153 117.2183031  82.1265424
  79.9049859 116.3380410  81.9440530  80.5876524 117.1630700  83.0141813
  83.3478976 117.5056001  82.4940901  83.6875049 118.0341923  81.7719510
  83.7951097 117.8436407  83.2699468  86.0422417 115.8893052  91.9443970
  85.7019237 115.0900865  92.3464649  85.3361423 116.1894763  91.3720803
  86.6938889 112.9742364  90.3971293  87.5164958 112.5002843  90.2750183
  86.9376952 113.7532848  90.8969979  85.3347123 116.0030623  80.6934194
  86.0555486 116.3811876  80.1897911  84.7112427 116.7219500  80.7969172
  89.4778246 116.7075772  81.6292527  89.6941860 117.5900410  81.3281355
  88.9972313 116.3161985  80.8998169  84.2177467 119.6661485  88.2063271
  84.0722048 119.9801788  89.0987553  83.7402671 120.2846385  87.6534170
  86.0773850 116.6564033  88.2544161  86.0635419 115.7605126  87.9176459
  86.7946278 116.6634697  88.8882447  87.9299981 117.0901373  90.2997288
  87.6717759 118.0118444  90.2981619  87.3985021 116.6931808  90.9897752
  78.6923130 122.2066829  91.1450932  78.1476598 122.9826637  91.2771207
  79.5702479 122.5537634  90.9870054  85.4810746 115.5378413  83.5231731
  85.6026657 114.6095060  83.7222618  85.1912789 115.5517099  82.6110046
  88.3501937 113.2233324  86.6598451  88.3723633 113.2872657  85.7050430
  88.7669996 112.3837832  86.8538957  79.9245765 129.2202154  86.0691484
  80.7503785 128.9205926  85.6890127  79.5739817 128.4509777  86.5181273
  78.1254370 127.1388481  87.0280417  77.2886279 126.7110655  86.8464419
  78.0978016 127.3320924  87.9651209  84.4540805 127.1232546  81.6147618
  84.6028926 127.8068010  80.9614291  85.2607249 127.1037636  82.1297074
  82.2093438 123.1497724  82.6208687  81.9639480 122.2460054  82.8188897
  82.3789353 123.1514874  81.6788165  81.4789086 118.8826081  80.1194848
  80.7858331 118.9570436  79.4634884  81.2340838 118.1186425  80.6416365
  90.1502742 110.4421683  87.5234339  90.4304496 109.7744872  88.1494766
  90.9353349 110.6350778  87.0109003  88.3383009 120.9541489  76.4275418
  89.2842114 120.8247697  76.4963836  87.9597254 120.2156151  76.9044846
  94.3104894 112.6197495  86.3902310  94.1129715 112.3112583  87.2745642
  94.9204599 113.3459134  86.5200240  86.5225926 118.8791466  76.3630303
  85.6157382 118.5824578  76.4393017  86.8001907 118.5821284  75.4964589
  77.4403867 120.1997829  86.8129350  77.1206651 119.3463137  86.5203724
  76.8937295 120.4146407  87.5687317  88.1387992 113.4228355  82.5174544
  87.3288720 113.0775440  82.8929791  88.8272409 113.1135899  83.1062156
  90.0678540 112.5006402  84.1398841  90.6209579 112.9201856  84.7988864
  90.3048627 111.5742150  84.1821797  85.2924711 115.7378401  76.5042282
  86.1543875 116.0633299  76.7638100  85.4775055 114.9509897  75.9915348
  77.3092127 123.8200741  88.7822471  76.6155598 123.4054693  88.2692426
  78.0565118 123.8621277  88.1855890  93.4457347 114.6106927  83.6477505
  92.8656017 115.2691731  83.2655558  93.1793280 113.7884272  83.2364923
  91.8960914 114.0111985  85.8498826  92.3960692 114.1228520  85.0413144
  92.5396522 113.7073038  86.4899634  79.2228869 123.7518994  86.6588486
  79.1999557 123.8506682  85.7070369  79.5329506 124.5984145  86.9805652
  92.2282226 116.7707018  82.7033854  91.3408081 117.0556668  82.4854048
  92.6436215 116.6100781  81.8561130  95.5796762 116.7953539  86.4188193
  96.3557152 117.2849991  86.6912810  94.8544896 117.2211593  86.8760062
  92.2023249 122.2861554  82.9184144  92.1458451 122.7430105  82.0791776
  92.7551592 121.5252238  82.7406986  96.0128055 118.0751285  83.7434263
  95.7564989 117.6747921  84.5742471  95.3880923 118.7895079  83.6184402
  92.9358029 123.4766335  80.2136673  92.8806832 123.3110606  79.2725117
  92.3104084 124.1842368  80.3698863  77.7250544 118.7134399  94.0398095
  78.3709407 118.2033353  94.5285320  77.5167695 119.4503081  94.6141520
  86.2454154 112.9774444  79.7921991  86.2332824 113.9216284  79.9490262
  87.1377576 112.7944589  79.4981453  90.0606273 109.5717220  84.0467928
  89.2938669 109.0175707  84.1924610  90.4716978 109.6439089  84.9082080
  26.0340131   7.1922572  75.6680817  26.6718541   7.0729319  74.9644157
  25.9160974   8.1403415  75.7268769  22.8429838   7.1450000  75.6042342
  22.5048349   7.0291064  74.7162877  23.7119606   6.7441165  75.5843348
  18.7016653   8.9985476  71.5939233  18.1381518   8.9075413  70.8255520
  18.5869048   8.1785380  72.0741725  23.3249621   8.2984851  81.5628547
  23.3138261   7.9037650  80.6909051  23.4870260   7.5650924  82.1562319
  16.2481085  10.4936668  74.4323453  17.0402377  10.1527492  74.0169752
  16.4877735  10.6031643  75.3525606  24.2816212  12.6656444  66.9053698
  23.6304192  13.2510524  66.5187711  25.0760575  13.1962639  66.9648735
  18.2071839   9.7545581  67.3040832  18.9802715   9.2074568  67.1653708
  18.5597238  10.6189830  67.5155293  20.0456882  11.0821963  80.5107731
  19.7546748  11.9867594  80.3954398  20.6813866  11.1238491  81.2251801
  20.9713089   8.4598812  77.1009091  21.5676661   8.2354834  76.3866054
  21.0288060   7.7183557  77.7034539  20.5438117   5.9138247  64.9359282
  20.7963638   5.3919768  64.1742745  19.6062676   5.7504392  65.0385965
  25.5881400   4.9174025  72.7434025  26.3744489   4.4993449  72.3924442
  25.8520104   5.8220118  72.9115673  25.7591477  10.3546876  67.4422682
  25.1237310  10.4281502  68.1543586  25.4288884  10.9440475  66.7641761
  30.9889827   4.8549259  73.6467004  31.7214999   4.2848475  73.8804833
  30.2329183   4.4670859  74.0873509  20.2634406   7.8166353  67.1383657
  20.1470664   7.1411256  67.8064741  20.3736666   7.3298727  66.3215810
  22.6065947   7.2776500  70.8430346  22.2424154   6.7507121  71.5543267
  23.4633063   6.8874969  70.6696831  25.0046767  10.7683379  77.5057525
  24.7047490  11.6708417  77.3973332  24.6597826  10.5015562  78.3578678
  18.4559248   7.2197176  73.5394229  17.5309745   7.0873390  73.7471921
  18.7043661   7.9991395  74.0364172  28.4043911   3.2865919  75.1854962
  27.4960788   3.2181327  74.8913723  28.3531506   3.7637864  76.0136788
  22.2260655   4.7624057  66.8238361  22.1060280   5.2081108  67.6623842
  21.5313243   5.1109375  66.2651899  19.9867547  17.5327699  70.4728493
  19.9091576  18.4835524  70.5516973  19.3829190  17.1873572  71.1303419
  22.4784776   4.7055564  83.1289859  21.7018110   5.2649485  83.1192724
  23.1175339   5.1912347  83.6504730  30.2705557   1.4882357  76.9632836
  29.6279937   1.7814890  76.3172631  29.7660486   1.3735278  77.7686033
  27.9245721   5.2345530  67.6518695  28.8363577   5.4672917  67.4766393
  27.4155368   5.8182575  67.0893774  20.7331149   7.5141018  82.6907826
  21.4745833   8.0526062  82.4142650  20.0268134   8.1407307  82.8479378
  26.2086488   9.6570158  81.2879988  26.6169844   9.2152569  80.5434620
  25.4863750   9.0822786  81.5414181  22.5617558   4.5942765  78.6613545
  23.4078754   5.0182179  78.8048194  22.5016196   3.9376389  79.3552108
  26.5315303  10.2171349  75.0432277  25.9024165  10.3817063  74.3408345
  26.1440965  10.6312958  75.8143241  30.4104535  11.1525787  72.3976641
  29.7255573  11.5324688  71.8473674  30.4948384  11.7621113  73.1308588
  25.7117004   2.2547133  80.3194719  25.4677936   3.0089194  79.7828994
  25.9876934   2.6332481  81.1541966  27.6655466   8.7985746  78.9971984
  27.8772362   9.4417506  78.3206365  27.6185215   7.9648062  78.5293914
  25.2681695   1.4103566  75.9008556  24.4066174   1.7084820  76.1925294
  25.2944130   1.6273965  74.9689589  22.0843265   9.9545757  72.3082362
  22.5481610  10.2333460  71.5186984  21.8200063   9.0529202  72.1255453
  18.9767346   9.5017239  75.2462125  19.5468703   9.9304507  74.6079610
  19.5675458   9.2199823  75.9446311  21.0212151   6.0768909  69.1171927
  21.7236194   6.5289953  69.5845853  20.6892779   5.4352728  69.7451820
  28.7801294  11.6757701  77.1694341  29.6018738  11.2737888  76.8877023
  28.7763697  11.5725935  78.1210457  22.5457898  11.2241744  79.3255052
  22.6102330  11.6862152  80.1613224  21.8368822  10.5939109  79.4537362
  36.8707287   8.0196450  73.5179313  36.1170996   7.4503848  73.3623317
  37.0054829   7.9859114  74.4649948  22.2605916  12.8909852  69.1934032
  22.1251590  13.7361388  69.6218880  22.8015728  13.0929130  68.4299966
  15.7135313  10.4085290  69.7661957  16.2259833  11.2028540  69.9167522
  16.3658026   9.7111580  69.6995559  17.5230198  13.5251046  71.8484711
  17.6996826  14.4469011  71.6605694  18.3187031  13.2109465  72.2779090
  23.8874392  13.5133418  83.3234374  23.4438246  12.7269797  83.0055279
  24.5491605  13.7012569  82.6578265  18.6461513  15.0429220  77.8495053
  19.1968938  14.9146283  77.0772047  17.8072989  15.3424109  77.4989946
  25.9855630  13.7936218  81.3515776  25.9674105  14.6145099  80.8596045
  26.9075550  13.6690294  81.5765917  22.4428684  11.3080348  82.1939284
  22.9757021  10.5468636  81.9638592  21.9142765  11.0154000  82.9363439
  25.5748662   6.4049025  66.2305361  25.0595285   7.1753630  66.4693748
  25.3025970   5.7314161  66.8538422  30.5482936   9.1581380  68.1658534
  29.7712379   8.8192539  67.7213696  31.2274417   9.1634003  67.4913499
  25.3634965   4.2776117  68.0565142  25.0585101   4.5922266  68.9075285
  26.3165407   4.3557537  68.0992475  23.8081397  10.4366340  69.7058096
  23.2802758   9.7019100  69.3931334  23.3068900  11.2141017  69.4598064
  28.7874243   8.6315361  74.8225142  28.1297917   9.3214622  74.9105271
  29.5914642   9.0211793  75.1659129  27.5979702   6.9859734  72.8729084
  28.1111583   7.6189725  73.3750794  28.2480926   6.3860929  72.5072444
  21.9533997   8.2546551  62.7093069  21.0461059   8.0235804  62.9084218
  22.4505029   7.4584170  62.8967051  24.8602076  16.9644058  65.6289755
  24.1863775  17.2675755  66.2374713  25.2467898  17.7673138  65.2795212
  24.0760533   4.4609189  75.1187425  23.1583094   4.6824136  74.9609113
  24.4920676   4.5355500  74.2599132  24.8595580   5.8600605  70.2490105
  25.6067399   6.3722002  69.9397227  25.1287170   5.5384658  71.1094498
  23.1322230   8.3559146  67.2317059  22.2233450   8.0718178  67.3289529
  23.1617314   8.7758224  66.3720366  28.3641498  11.9665735  71.0008227
  27.9103825  11.1256645  71.0573417  27.7335465  12.6027133  71.3383007
  27.3074417   2.8957721  72.2308894  26.5697174   2.3835107  72.5619137
  27.5601191   2.4558103  71.4192171  26.8074437  13.8042232  71.9358045
  27.0997411  14.3647289  71.2170411  27.3173058  14.0970793  72.6911204
  21.6807124   5.9687766  73.3326855  21.7355734   5.0161603  73.2569331
  20.8698327   6.1247205  73.8168153  22.8298318   9.8967889  64.5705138
  22.3917748   9.1803748  64.1110775  23.5708759  10.1244004  64.0090229
  21.7708062  14.5822583  73.0251498  21.7284241  14.8083429  72.0960030
  22.6870761  14.3485957  73.1737299  25.2173696   5.0506650  79.9232127
  25.5723084   5.2778123  80.7826593  25.8645827   5.3825027  79.3009383
  30.9471433   8.1725086  70.6281456  30.8089332   8.3626682  69.7002646
  30.5907652   8.9344469  71.0849507  30.9740813  10.2401613  75.6392728
  31.4077319  10.1476902  76.4875782  31.6872393  10.2159114  75.0012744
  19.8873863  11.4585612  72.8213461  20.6814462  10.9635932  72.6196036
  19.1765555  10.9303475  72.4581166  24.7068708  13.8403707  77.1725828
  24.7605730  14.4094644  77.9403544  23.8383489  14.0105592  76.8079866
  31.8356362  10.2825314  78.1725613  32.0292252  11.1871124  78.4184888
  31.7356980   9.8232733  79.0064198  26.8971471  10.4332057  83.7466494
  26.7456977  10.2042608  82.8296578  26.8876150  11.3902658  83.7597839
  23.6656807   8.0063969  78.7312760  24.5948867   8.1575129  78.5581728
  23.2447837   8.0947990  77.8761407  22.4645139  12.0314634  76.5011298
  22.3256225  11.6633418  77.3737236  21.6759735  12.5462273  76.3295256
  23.0593291  17.1323730  67.8436834  23.2345047  16.6611773  68.6582457
  22.3726079  17.7589496  68.0718095  24.0150354  11.4096236  73.8900136
  23.6800187  11.3697006  74.7857786  23.5154300  10.7440952  73.4170546
  17.9894598   6.8163867  79.4152717  17.8514396   6.0844105  80.0164256
  18.8999522   6.7272767  79.1336905  26.9509546   8.7552271  64.1637195
  26.3338716   8.0299099  64.0670248  26.4826034   9.5161631  63.8204270
  20.6176899   6.5283826  78.9036397  21.3276517   5.8877018  78.8623015
  20.5746207   6.7796721  79.8262577  28.6063678  13.4651179  81.8242976
  28.5476224  12.7810399  81.1573559  29.0083196  14.2070169  81.3723602
  17.6254376  20.2813093  74.6176695  17.8650975  20.9131617  75.2955713
  16.7823573  19.9301133  74.9042054  28.6081085  11.4290763  80.0556955
  27.7207864  11.0916685  80.1783354  29.1779636  10.6973794  80.2925721
  22.1382238  16.0892215  77.0218199  22.0652410  16.8947187  77.5337503
  21.6959631  16.2884181  76.1966220  21.9272018  15.3263985  70.5321020
  21.1439540  15.8685666  70.6259245  22.6264763  15.8437965  70.9315261
  25.2368668   1.1358615  73.1755226  25.7337367   0.3828577  72.8556296
  24.4655649   1.1722932  72.6098435  33.0898425   6.8398980  74.8173517
  33.0788302   7.7223696  74.4467450  32.2215805   6.4870531  74.6228054
  24.5980922  15.9879049  79.1776357  25.3108894  16.6226514  79.1052259
  24.1070950  16.0842915  78.3616359  26.3198449   9.8930302  70.7493649
  25.3854727  10.0131765  70.5798353  26.4975117   8.9902769  70.4853659
  29.7071000   5.7347621  71.2843683  30.1731452   6.5675613  71.2103986
  30.1578500   5.2692603  71.9888942  19.6492835  13.7373493  79.9981928
  20.3502295  14.3709976  80.1511322  19.1787950  14.0788224  79.2377567
  27.7747231  12.0791443  68.2829835  28.0507075  11.9648037  69.1923709
  26.9051730  11.6808928  68.2442008  27.4494121   6.2918100  77.8234478
  26.7965571   6.5394008  77.1686931  27.8274501   5.4782239  77.4896956
  24.4101295  16.3277794  71.9262649  24.5923690  15.5099450  72.3890401
  25.2334281  16.5445486  71.4887539  24.7443461  15.2545979  69.1877697
  25.2731227  14.7438433  68.5747859  25.0071680  14.9388509  70.0523230
  23.4981694   7.0337911  84.3100516  22.8222331   6.9332041  84.9802891
  24.3209328   6.8777125  84.7736513  15.2460553  13.2709848  76.9313031
  15.8313990  12.5253536  77.0640935  15.0485392  13.5813805  77.8149695
  18.0999209  16.3061095  71.9475473  17.4309584  16.7907223  71.4639513
  17.9612078  16.5530316  72.8618852  22.2404477  18.3404839  78.5458131
  22.7922785  18.5036460  79.3107217  22.5810671  18.9309277  77.8738156
  27.0915351  13.1666096  84.4006786  27.6355255  13.7796055  83.9061741
  26.5102196  13.7245675  84.9173799  25.3772864  16.2886814  75.5321814
  25.2524004  15.4876554  75.0232759  26.0351955  16.7833008  75.0435784
  27.4407773  14.0895835  77.1601364  26.4938108  13.9701186  77.0879690
  27.7890546  13.2018333  77.2427625  24.4454206  13.8848551  73.3605716
  24.2979168  12.9565258  73.5413286  25.2707700  13.9068641  72.8762791
  28.0488328  14.7077109  74.4470589  28.9734875  14.5019971  74.3095040
  27.8803631  14.4593511  75.3559930  27.8383644  15.2262777  69.8032680
  28.0120522  14.6609199  69.0506533  28.3312535  16.0263672  69.6212170
  33.6923035   7.9899200  71.4222980  34.1354181   7.2406525  71.0242103
  32.8149546   7.9809336  71.0396712  28.8258817  14.5429541  66.9029578
  29.5209721  15.1636234  67.1216893  29.1681967  13.6924893  67.1781956
  30.7250240  11.9929247  68.4316909  31.2501564  12.3316520  67.7066229
  30.6372592  11.0576262  68.2480044  22.3870288  15.9063321  80.5606786
  22.6957415  15.6612467  81.4329485  23.1845770  16.1109959  80.0725656
  22.4090900  18.0601230  72.7912162  21.9695891  17.5677609  73.4845019
  23.1599017  17.5174198  72.5504238  14.8883239  14.2512771  72.7936790
  15.7141259  13.9516543  72.4135434  14.5377291  13.4820393  73.2426579
  19.8564773  13.6039239  74.8634464  19.2344782  12.9409944  74.5636692
  20.5269640  13.6300371  74.1808112  13.0891845  12.1699097  73.7525724
  12.2523753  11.7421272  73.5709725  13.0615490  12.3631541  74.6896515
  30.4144146  12.6262150  83.7368107  29.6239690  12.6086289  83.1972607
  30.1777500  13.1650444  84.4917144  30.5342021   9.4754617  81.0500836
  30.5840026   9.3104624  81.9916359  30.4255944   8.6081876  80.6598716
  19.4178280  12.1543163  68.3392925  19.5666400  12.8378627  67.6859597
  20.2244723  12.1348253  68.8542380  27.8245783   5.4585545  82.3660142
  28.7255646   5.3192010  82.0744140  27.8993758   5.6240000  83.3058320
  32.0360218  11.8951558  81.2942857  31.7445026  12.2581539  82.1306318
  31.4232349  11.1818567  81.1156189  33.2355900   9.4604438  73.8145427
  34.0702791   9.8994242  73.9782988  33.3715029   8.9843091  72.9953673
  30.2847406   7.0184173  79.7622915  30.7601528   7.2111819  78.9541767
  29.3612971   7.0743359  79.5166299  17.1730913   8.1808340  69.3453994
  16.9276954   7.2770670  69.5434204  17.3426827   8.1825491  68.4033472
  22.9173685  14.6491293  65.8104672  22.3447652  15.2681480  65.3575144
  23.4906479  15.1990655  66.3444594  28.9849075   3.8949933  77.9951221
  29.9366498   3.9948031  78.0163445  28.8152525   3.1028202  78.5049305
  27.0063454   0.9805516  78.1810622  26.4113386   1.2610529  77.4857110
  26.7213151   1.4699417  78.9527363  26.1370945  14.9328443  66.9413254
  27.0701618  14.8674005  67.1446130  26.0494158  15.7684710  66.4827787
  28.7658962  14.2494313  63.9017202  28.6872593  13.9154177  64.7952960
  29.5868628  14.7416081  63.9008674  31.4637153   7.1156053  77.1093520
  31.4313473   6.1772054  77.2953204  32.0737776   7.1940090  76.3759345
  23.3020484   5.9852106  63.1520725  24.2479588   5.8558314  63.2209143
  22.9234729   5.2466768  63.6290153  31.6131641   3.9067096  77.1551804
  31.0970690   3.1225553  76.9681733  32.4971590   3.5785813  77.3198323
  37.2813703   8.1772060  76.2499557  38.0117091   7.9157348  76.8107261
  36.6720648   7.4400782  76.2901625  35.3629000   6.3179922  76.8474008
  34.6362163   6.1835887  76.2390500  34.9476287   6.6256751  77.6530727
  23.1859176  10.0369852  84.6121382  24.1062186  10.2148451  84.8061428
  23.1508759   9.0925897  84.4601081  16.1821249   7.9470887  77.2544163
  16.4007258   8.8787994  77.2732196  16.5947022   7.5878861  78.0398967
  28.4094822  -0.3582456  70.3722812  27.8293491   0.3002348  69.9900864
  28.1430755  -1.1805112  69.9610229  20.9180384   6.9501231  85.4611973
  20.4347466   7.7501591  85.6675862  21.0041323   6.9609176  84.5079417
  14.1866344   8.7829611  73.3833793  14.1637032   8.8817298  72.4315676
  14.4966980   9.6294762  73.7050959  16.8453722  10.8405766  77.4980407
  17.7996975  10.8089708  77.4310339  16.6466245  10.3796390  78.3130633
  17.4353104   9.4106882  80.0651205  18.2545993   9.9050961  80.0886042
  17.7089911   8.4938850  80.0368772  27.1919700   1.8017634  69.4279160
  26.3045555   2.0867285  69.2099355  27.6073689   1.6411398  68.5806437
  30.5434236   1.8264155  73.1433499  31.3194626   2.3160608  73.4158116
  29.8182370   2.2522209  73.6005369  32.9806795   2.5391774  74.2007440
  33.5751285   2.2987510  73.4900748  33.0533378   1.8198905  74.8280976
  15.2003950  16.3825385  74.5150605  15.0658418  15.6225786  73.9488603
  14.7836013  17.1066285  74.0479394  26.3362913  11.5662309  63.5227180
  27.0398763  11.7712311  64.1384836  25.6125562  12.1339071  63.7876264
  27.1660724   7.3172170  69.6429450  27.1095925   7.7740722  68.8037083
  27.7189066   6.5562855  69.4652293  30.9765529   3.1061902  70.4679570
  30.7202464   2.7058538  71.2987778  30.3518398   3.8205696  70.3429709
  35.2877867   5.8457975  72.9750861  34.7277425   5.9151165  73.7482423
  34.6821371   5.6698960  72.2550358  18.3573076  17.2794702  74.7269048
  18.2405460  18.2240135  74.6247738  17.5365522  16.9768264  75.1154847
  28.2449611  12.0044838  65.5725640  29.0795215  11.5726037  65.3903115
  28.0833954  11.8326852  66.5002535  27.8995503   8.5076951  66.9381980
  27.8444307   8.3421223  65.9970424  27.2741558   9.2152984  67.0944169
  25.2141410  10.8125863  86.2635542  26.0832570  10.9866516  85.9022177
  24.7348162  11.6320280  86.1411272  19.3827590  17.9322964  77.9424976
  20.2854837  17.9646575  78.2591471  19.1564960  17.0023415  77.9571312
  21.1381192  16.6853951  74.6035055  20.1876823  16.6855812  74.4899427
  21.4413678  15.9386685  74.0871089  36.8733886  22.5214489  75.6680817
  37.5112296  22.4021237  74.9644157  36.7554729  23.4695333  75.7268769
  33.6823592  22.4741917  75.6042342  33.3442104  22.3582982  74.7162877
  34.5513360  22.0733082  75.5843348  29.5410408  24.3277394  71.5939233
  28.9775273  24.2367331  70.8255520  29.4262803  23.5077298  72.0741725
  34.1643375  23.6276769  81.5628547  34.1532016  23.2329567  80.6909051
  34.3264015  22.8942842  82.1562319  27.0874840  25.8228585  74.4323453
  27.8796132  25.4819410  74.0169752  27.3271490  25.9323560  75.3525606
  35.1209967  27.9948361  66.9053698  34.4697946  28.5802442  66.5187711
  35.9154329  28.5254556  66.9648735  29.0465594  25.0837499  67.3040832
  29.8196470  24.5366486  67.1653708  29.3990993  25.9481748  67.5155293
  30.8850636  26.4113881  80.5107731  30.5940502  27.3159512  80.3954398
  31.5207621  26.4530408  81.2251801  31.8106843  23.7890729  77.1009091
  32.4070415  23.5646752  76.3866054  31.8681815  23.0475475  77.7034539
  31.3831871  21.2430165  64.9359282  31.6357392  20.7211686  64.1742745
  30.4456431  21.0796310  65.0385965  36.4275154  20.2465943  72.7434025
  37.2138244  19.8285366  72.3924442  36.6913859  21.1512035  72.9115673
  36.5985232  25.6838793  67.4422682  35.9631065  25.7573420  68.1543586
  36.2682638  26.2732392  66.7641761  41.8283581  20.1841176  73.6467004
  42.5608753  19.6140393  73.8804833  41.0722937  19.7962777  74.0873509
  31.1028160  23.1458271  67.1383657  30.9864418  22.4703174  67.8064741
  31.2130420  22.6590645  66.3215810  33.4459701  22.6068418  70.8430346
  33.0817908  22.0799039  71.5543267  34.3026817  22.2166887  70.6696831
  39.3509002  13.8962750  78.1061612  39.0192327  14.7658161  77.8822827
  38.7554615  13.5799034  78.7855643  33.0865188  17.6358317  65.8391695
  33.2539590  18.5038554  66.2062166  32.8962357  17.7985599  64.9152984
  35.8440521  26.0975296  77.5057525  35.5441244  27.0000335  77.3973332
  35.4991581  25.8307480  78.3578678  29.2953003  22.5489093  73.5394229
  28.3703499  22.4165307  73.7471921  29.5437416  23.3283312  74.0364172
  39.2437665  18.6157837  75.1854962  38.3354542  18.5473245  74.8913723
  39.1925261  19.0929781  76.0136788  33.0654409  20.0915975  66.8238361
  32.9454034  20.5373026  67.6623842  32.3706997  20.4401293  66.2651899
  26.6561814  22.1922367  74.3738018  26.7854195  22.4456846  75.2877430
  25.9759265  22.7850075  74.0542673  30.8261301  32.8619617  70.4728493
  30.7485331  33.8127442  70.5516973  30.2222945  32.5165489  71.1303419
  33.3178531  20.0347482  83.1289859  32.5411865  20.5941402  83.1192724
  33.9569094  20.5204265  83.6504730  41.1099311  16.8174275  76.9632836
  40.4673692  17.1106808  76.3172631  40.6054240  16.7027195  77.7686033
  38.7639475  20.5637448  67.6518695  39.6757331  20.7964835  67.4766393
  38.2549122  21.1474492  67.0893774  31.5724903  22.8432935  82.6907826
  32.3139588  23.3817979  82.4142650  30.8661889  23.4699224  82.8479378
  37.0480243  24.9862076  81.2879988  37.4563599  24.5444486  80.5434620
  36.3257504  24.4114703  81.5414181  33.4011313  19.9234683  78.6613545
  34.2472508  20.3474096  78.8048194  33.3409951  19.2668307  79.3552108
  37.3709057  25.5463267  75.0432277  36.7417920  25.7108981  74.3408345
  36.9834720  25.9604876  75.8143241  41.2498289  26.4817704  72.3976641
  40.5649328  26.8616606  71.8473674  41.3342139  27.0913031  73.1308588
  36.5510758  17.5839051  80.3194719  36.3071690  18.3381112  79.7828994
  36.8270689  17.9624399  81.1541966  38.5049221  24.1277663  78.9971984
  38.7166116  24.7709423  78.3206365  38.4578969  23.2939980  78.5293914
  36.1075450  16.7395484  75.9008556  35.2459929  17.0376738  76.1925294
  36.1337885  16.9565883  74.9689589  32.9237019  25.2837675  72.3082362
  33.3875365  25.5625378  71.5186984  32.6593817  24.3821119  72.1255453
  29.8161100  24.8309156  75.2462125  30.3862457  25.2596425  74.6079610
  30.4069212  24.5491741  75.9446311  31.8605905  21.4060827  69.1171927
  32.5629949  21.8581871  69.5845853  31.5286534  20.7644646  69.7451820
  30.3086267  19.9972584  83.4923136  29.6784927  20.6788865  83.7258533
  30.2022355  19.8855665  82.5476275  25.6031239  19.6644380  74.4189061
  24.8130293  19.9201908  73.9429171  26.0942487  20.4792718  74.5241101
  39.6195049  27.0049619  77.1694341  40.4412493  26.6029806  76.8877023
  39.6157452  26.9017853  78.1210457  27.5545985  20.0288959  71.3772537
  26.7577148  20.1407653  71.8956033  27.3271577  20.3675611  70.5113428
  33.3851652  26.5533662  79.3255052  33.4496085  27.0154069  80.1613224
  32.6762576  25.9231027  79.4537362  23.8868942  19.9174870  76.8504051
  24.1376981  20.8021880  77.1161627  24.4228491  19.7379472  76.0779143
  47.7101042  23.3488367  73.5179313  46.9564750  22.7795765  73.3623317
  47.8448583  23.3151032  74.4649948  33.0999670  28.2201770  69.1934032
  32.9645345  29.0653305  69.6218880  33.6409483  28.4221047  68.4299966
  29.5867010  14.2993350  85.8548388  29.1933955  13.7459548  86.5296032
  30.4033150  14.6103928  86.2454905  26.5529067  25.7377208  69.7661957
  27.0653588  26.5320458  69.9167522  27.2051780  25.0403498  69.6995559
  28.3623952  28.8542964  71.8484711  28.5390580  29.7760929  71.6605694
  29.1580786  28.5401383  72.2779090  32.5034971  15.7151229  83.4468644
  33.2444684  16.3158382  83.3673107  32.7352893  14.9728866  82.8886687
  27.6476309  20.9007596  81.7246874  27.5329824  19.9992853  82.0253973
  26.7920826  21.1471293  81.3731690  34.7268146  28.8425336  83.3234374
  34.2832001  28.0561715  83.0055279  35.3885360  29.0304487  82.6578265
  29.4855268  30.3721138  77.8495053  30.0362693  30.2438201  77.0772047
  28.6466743  30.6716027  77.4989946  36.8249384  29.1228136  81.3515776
  36.8067860  29.9437017  80.8596045  37.7469305  28.9982211  81.5765917
  33.2822439  26.6372266  82.1939284  33.8150775  25.8760554  81.9638592
  32.7536520  26.3445917  82.9363439  36.4492134  11.7432332  77.7232926
  36.1056403  12.6333973  77.6472036  36.8171096  11.5533989  76.8602511
  24.5177984  24.0665862  70.5421528  25.3553206  24.4762870  70.3255236
  24.6956252  23.1265304  70.5121722  36.4142416  21.7340943  66.2305361
  35.8989040  22.5045547  66.4693748  36.1419725  21.0606079  66.8538422
  33.9989527  16.5790643  71.2890599  33.1431124  16.1897494  71.1096238
  34.4116479  16.6582604  70.4290385  35.5288674  14.1136987  75.6882159
  35.0253470  14.0767122  74.8749964  35.8219281  15.0229729  75.7478816
  31.7731560  14.1975716  74.6948341  32.6384557  14.0018525  74.3354230
  31.8409069  13.9686068  75.6217698  41.3876690  24.4873297  68.1658534
  40.6106133  24.1484457  67.7213696  42.0668171  24.4925920  67.4913499
  36.2028719  19.6068035  68.0565142  35.8978855  19.9214184  68.9075285
  37.1559162  19.6849455  68.0992475  34.6475151  25.7658258  69.7058096
  34.1196513  25.0311018  69.3931334  34.1462654  26.5432934  69.4598064
  39.6267997  23.9607279  74.8225142  38.9691672  24.6506540  74.9105271
  40.4308397  24.3503710  75.1659129  29.3793879  16.4277924  72.0664708
  29.9537631  16.2053106  71.3337901  29.9664861  16.4966619  72.8193309
  38.4373456  22.3151651  72.8729084  38.9505338  22.9481643  73.3750794
  39.0874680  21.7152847  72.5072444  29.7063466  18.4582385  66.0860593
  28.8700778  18.7957072  66.4069868  29.5668236  18.3231365  65.1487730
  31.6816547  13.3019173  70.7939777  31.0280959  12.9868190  70.1696392
  31.6397021  12.6794914  71.5199600  32.7927751  23.5838468  62.7093069
  31.8854813  23.3527722  62.9084218  33.2898783  22.7876088  62.8967051
  35.6995830  32.2935976  65.6289755  35.0257529  32.5967672  66.2374713
  36.0861652  33.0965056  65.2795212  34.9154287  19.7901107  75.1187425
  33.9976848  20.0116054  74.9609113  35.3314431  19.8647417  74.2599132
  35.6989335  21.1892522  70.2490105  36.4461154  21.7013920  69.9397227
  35.9680924  20.8676575  71.1094498  33.9715985  23.6851063  67.2317059
  33.0627204  23.4010096  67.3289529  34.0011069  24.1050142  66.3720366
  39.2035252  27.2957653  71.0008227  38.7497579  26.4548563  71.0573417
  38.5729219  27.9319051  71.3383007  38.1468172  18.2249639  72.2308894
  37.4090929  17.7127025  72.5619137  38.3994945  17.7850020  71.4192171
  37.6468192  29.1334149  71.9358045  37.9391166  29.6939206  71.2170411
  38.1566812  29.4262710  72.6911204  38.2479799  11.0025891  72.8250663
  38.5538676  10.1423254  72.5376579  38.9732404  11.5943511  72.6249657
  24.5404155  21.4056577  71.2132261  24.3428555  20.8125938  70.4883328
  23.9850819  21.1008787  71.9308200  32.5200879  21.2979684  73.3326855
  32.5749489  20.3453520  73.2569331  31.7092081  21.4539123  73.8168153
  33.6692073  25.2259807  64.5705138  33.2311503  24.5095666  64.1110775
  34.4102514  25.4535922  64.0090229  30.4593239  19.9156744  71.0917233
  29.6461104  20.2150914  71.4982426  30.9552233  19.5212432  71.8091716
  32.6101817  29.9114500  73.0251498  32.5677996  30.1375347  72.0960030
  33.5264516  29.6777875  73.1737299  36.0567451  20.3798568  79.9232127
  36.4116838  20.6070041  80.7826593  36.7039582  20.7116945  79.3009383
  41.7865188  23.5017004  70.6281456  41.6483086  23.6918600  69.7002646
  41.4301406  24.2636387  71.0849507  29.9507314  17.4875099  76.7078468
  30.5906693  17.3463858  76.0101432  29.1184844  17.2009612  76.3317070
  41.8134567  25.5693531  75.6392728  42.2471074  25.4768820  76.4875782
  42.5266148  25.5451031  75.0012744  30.7267618  26.7877529  72.8213461
  31.5208216  26.2927850  72.6196036  30.0159310  26.2595393  72.4581166
  35.5462462  29.1695625  77.1725828  35.5999484  29.7386561  77.9403544
  34.6777243  29.3397510  76.8079866  27.0350381  20.9320611  68.8973213
  26.1047969  20.8705067  69.1143176  27.1307853  20.4096564  68.1009855
  26.9535930  17.4575424  71.4851455  27.2142747  18.3720757  71.3760616
  27.7753102  16.9899867  71.6348068  28.4260855  18.8713181  78.6550280
  29.0983909  18.6630543  78.0062929  27.5990642  18.6735267  78.2155512
  42.6750117  25.6117232  78.1725613  42.8686007  26.5163042  78.4184888
  42.5750735  25.1524651  79.0064198  34.3286427  15.4975122  80.6715941
  33.6814342  16.1965072  80.5780417  35.0987443  15.9311266  81.0392189
  37.7365225  25.7623974  83.7466494  37.5850732  25.5334526  82.8296578
  37.7269905  26.7194576  83.7597839  34.5050562  23.3355887  78.7312760
  35.4342622  23.4867047  78.5581728  34.0841592  23.4239908  77.8761407
  33.3038894  27.3606551  76.5011298  33.1649979  26.9925336  77.3737236
  32.5153490  27.8754191  76.3295256  33.8987046  32.4615648  67.8436834
  34.0738801  31.9903691  68.6582457  33.2119834  33.0881414  68.0718095
  34.8544109  26.7388154  73.8900136  34.5193941  26.6988924  74.7857786
  34.3548054  26.0732870  73.4170546  28.8288353  22.1455784  79.4152717
  28.6908151  21.4136023  80.0164256  29.7393276  22.0564684  79.1336905
  37.7903300  24.0844188  64.1637195  37.1732471  23.3591017  64.0670248
  37.3219789  24.8453549  63.8204270  31.4570653  21.8575744  78.9036397
  32.1670272  21.2168936  78.8623015  31.4139961  22.1088638  79.8262577
  39.4457432  28.7943097  81.8242976  39.3869978  28.1102317  81.1573559
  39.8476950  29.5362087  81.3723602  30.1699587  18.8440961  80.7232036
  29.6336944  18.3931700  81.3753632  29.5816296  18.9786870  79.9802500
  28.4648131  35.6105011  74.6176695  28.7044729  36.2423535  75.2955713
  27.6217327  35.2593051  74.9042054  29.5801846  18.3029613  63.2858500
  28.7031313  18.1818414  62.9220746  30.0559599  17.5115691  63.0337388
  39.4474839  26.7582681  80.0556955  38.5601618  26.4208603  80.1783354
  40.0173390  26.0265712  80.2925721  21.1003986  23.0906773  73.3800007
  21.7875026  22.7768503  72.7921022  20.9452115  23.9948137  73.1067258
  25.9038709  17.9796969  77.8085030  25.8196897  17.3722639  77.0735440
  25.0821415  18.4705987  77.8094527  32.9775993  31.4184133  77.0218199
  32.9046164  32.2239105  77.5337503  32.5353386  31.6176099  76.1966220
  32.7665772  30.6555903  70.5321020  31.9833294  31.1977583  70.6259245
  33.4658517  31.1729883  70.9315261  36.0762422  16.4650533  73.1755226
  36.5731122  15.7120495  72.8556296  35.3049404  16.5014849  72.6098435
  43.9292180  22.1690898  74.8173517  43.9182056  23.0515614  74.4467450
  43.0609559  21.8162449  74.6228054  35.4374676  31.3170967  79.1776357
  36.1502648  31.9518432  79.1052259  34.9464705  31.4134833  78.3616359
  37.1592203  25.2222220  70.7493649  36.2248482  25.3423682  70.5798353
  37.3368872  24.3194687  70.4853659  32.6597391  18.6067916  72.9026910
  32.2895179  18.0538956  73.5907816  33.1556484  18.0026049  72.3501910
  40.5464754  21.0639539  71.2843683  41.0125207  21.8967531  71.2103986
  40.9972255  20.5984521  71.9888942  30.4886590  29.0665411  79.9981928
  31.1896049  29.7001894  80.1511322  30.0181705  29.4080142  79.2377567
  38.6140986  27.4083360  68.2829835  38.8900829  27.2939955  69.1923709
  37.7445484  27.0100845  68.2442008  38.5181417  13.4320126  75.3234584
  37.6044497  13.6624353  75.4916791  38.9474519  13.5158570  76.1748617
  38.2887876  21.6210018  77.8234478  37.6359326  21.8685926  77.1686931
  38.6668256  20.8074156  77.4896956  35.2495050  31.6569711  71.9262649
  35.4317444  30.8391367  72.3890401  36.0728036  31.8737404  71.4887539
  35.5837215  30.5837896  69.1877697  36.1124981  30.0730351  68.5747859
  35.8465435  30.2680427  70.0523230  34.3375449  22.3629829  84.3100516
  33.6616086  22.2623958  84.9802891  35.1603083  22.2069043  84.7736513
  26.0854308  28.6001766  76.9313031  26.6707745  27.8545454  77.0640935
  25.8879146  28.9105722  77.8149695  28.9392963  31.6353013  71.9475473
  28.2703338  32.1199141  71.4639513  28.8005833  31.8822234  72.8618852
  20.6771963  21.1707366  75.6517474  20.7156062  20.6370957  76.4454592
  20.1712255  20.6442571  75.0328451  33.0798232  33.6696757  78.5458131
  33.6316540  33.8328378  79.3107217  33.4204425  34.2601194  77.8738156
  28.0562725  16.0171906  79.1480016  28.1204051  16.8786737  78.7357414
  27.9929845  15.4045908  78.4152375  27.5314997  18.0895039  82.7953050
  28.1587036  17.7072116  83.4090575  26.6742916  17.8709241  83.1608743
  37.9309106  28.4958014  84.4006786  38.4749010  29.1087972  83.9061741
  37.3495951  29.0537593  84.9173799  24.3080540  19.8971468  68.7271405
  24.6033981  18.9882146  68.6738459  23.4068576  19.8759207  68.4052408
  36.2166619  31.6178732  75.5321814  36.0917758  30.8168472  75.0232759
  36.8745710  32.1124925  75.0435784  27.8374787  17.9727465  74.7098954
  27.1161373  18.5863432  74.5706427  28.6268043  18.5085229  74.6315600
  38.2801527  29.4187752  77.1601364  37.3331863  29.2993103  77.0879690
  38.6284300  28.5310250  77.2427625  30.6401101  15.3081891  80.9839606
  31.1635502  15.5544188  81.7465915  30.4213434  16.1401926  80.5642743
  26.0368382  17.5785566  68.8510730  25.7081088  16.6982945  68.6685836
  26.3907752  17.5233234  69.7387120  35.2847961  29.2140468  73.3605716
  35.1372923  28.2857176  73.5413286  36.1101454  29.2360559  72.8762791
  29.1510205  17.8658535  69.2186208  29.4906277  18.3944457  68.4964816
  29.5982325  18.2038942  69.9944775  38.8882082  30.0369027  74.4470589
  39.8128630  29.8311888  74.3095040  38.7197386  29.7885428  75.3559930
  31.8453646  16.2495586  78.6689276  31.5050466  15.4503399  79.0709956
  31.1392652  16.5497297  78.0966109  32.4970117  13.3344899  77.1216599
  33.3196187  12.8605377  76.9995490  32.7408181  14.1135382  77.6215285
  31.1378352  16.3633157  67.4179501  31.8586714  16.7414410  66.9143218
  30.5143656  17.0822034  67.5214479  35.2809475  17.0678306  68.3537833
  35.4973089  17.9502944  68.0526661  34.8003542  16.6764519  67.6243475
  30.0208696  20.0264019  74.9308578  29.8753277  20.3404322  75.8232859
  29.5433900  20.6448920  74.3779476  31.8805079  17.0166567  74.9789467
  31.8666648  16.1207661  74.6421765  32.5977507  17.0237231  75.6127753
  33.7331210  17.4503907  77.0242595  33.4748988  18.3720978  77.0226925
  33.2016250  17.0534342  77.7143059  38.6777399  30.5554695  69.8032680
  38.8514276  29.9901117  69.0506533  39.1706290  31.3555589  69.6212170
  24.4954358  22.5669364  77.8696239  23.9507826  23.3429172  78.0016513
  25.3733708  22.9140168  77.7115360  31.2841975  15.8980948  70.2477037
  31.4057886  14.9697594  70.4467925  30.9944017  15.9119634  69.3355353
  34.1533165  13.5835858  73.3843757  34.1754862  13.6475191  72.4295737
  34.5701224  12.7440367  73.5784263  44.5316790  23.3191118  71.4222980
  44.9747936  22.5698443  71.0242103  43.6543300  23.3101254  71.0396712
  39.6652571  29.8721459  66.9029578  40.3603476  30.4928152  67.1216893
  40.0075721  29.0216810  67.1781956  25.2820380  21.6939260  80.7626396
  24.5402116  21.8421895  81.3491026  24.9613125  21.9547526  79.8993145
  41.5643994  27.3221165  68.4316909  42.0895318  27.6608437  67.7066229
  41.4766347  26.3868180  68.2480044  33.2264043  31.2355238  80.5606786
  33.5351169  30.9904385  81.4329485  34.0239525  31.4401877  80.0725656
  33.2484655  33.3893148  72.7912162  32.8089645  32.8969527  73.4845019
  33.9992772  32.8466115  72.5504238  25.7276994  29.5804689  72.7936790
  26.5535014  29.2808461  72.4135434  25.3771046  28.8112311  73.2426579
  30.6958527  28.9331157  74.8634464  30.0738536  28.2701862  74.5636692
  31.3663394  28.9592289  74.1808112  23.9285599  27.4991015  73.7525724
  23.0917507  27.0713189  73.5709725  23.9009244  27.6923458  74.6896515
  30.7683055  17.4112945  84.4566970  30.8171210  18.2875068  84.0744740
  31.3105569  16.8690338  83.8838613  41.2537900  27.9554068  83.7368107
  40.4633444  27.9378207  83.1972607  41.0171255  28.4942362  84.4917144
  41.3735775  24.8046535  81.0500836  41.4233780  24.6396542  81.9916359
  41.2649699  23.9373794  80.6598716  30.2572034  27.4835080  68.3392925
  30.4060154  28.1670545  67.6859597  31.0638477  27.4640170  68.8542380
  38.6639538  20.7877463  82.3660142  39.5649400  20.6483927  82.0744140
  38.7387512  20.9531917  83.3058320  32.9982343  18.1644317  81.2113329
  32.1285652  18.4577883  80.9395917  33.2341823  18.7484762  81.9320592
  42.8753972  27.2243476  81.2942857  42.5838780  27.5873457  82.1306318
  42.2626103  26.5110484  81.1156189  44.0749654  24.7896356  73.8145427
  44.9096546  25.2286160  73.9782988  44.2108783  24.3135009  72.9953673
  41.1241160  22.3476091  79.7622915  41.5995282  22.5403737  78.9541767
  40.2006726  22.4035277  79.5166299  28.0124667  23.5100258  69.3453994
  27.7670709  22.6062588  69.5434204  28.1820582  23.5117408  68.4033472
  35.7021377  14.3823934  78.7278749  36.2203321  15.1184961  78.4025238
  35.3476510  14.6887928  79.5625508  27.2820315  19.2428615  66.8440155
  26.5889559  19.3172970  66.1880191  27.0372066  18.4788959  67.3661672
  35.9533971  10.8024217  74.2479646  36.2335725  10.1347406  74.8740072
  36.7384578  10.9953312  73.7354310  33.7567440  29.9783211  65.8104672
  33.1841407  30.5973398  65.3575144  34.3300233  30.5282572  66.3444594
  39.8242829  19.2241851  77.9951221  40.7760252  19.3239948  78.0163445
  39.6546280  18.4320119  78.5049305  37.8457209  16.3097434  78.1810622
  37.2507141  16.5902447  77.4857110  37.5606906  16.7991335  78.9527363
  36.9764699  30.2620361  66.9413254  37.9095372  30.1965922  67.1446130
  36.8887912  31.0976628  66.4827787  39.6052716  29.5786231  63.9017202
  39.5266348  29.2446095  64.7952960  40.4262383  30.0707999  63.9008674
  42.3030907  22.4447970  77.1093520  42.2707227  21.5063971  77.2953204
  42.9131531  22.5232007  76.3759345  34.1414238  21.3144023  63.1520725
  35.0873343  21.1850232  63.2209143  33.7628483  20.5758685  63.6290153
  42.4525396  19.2359014  77.1551804  41.9364444  18.4517471  76.9681733
  43.3365344  18.9077731  77.3198323  40.1136123  12.9800029  73.1147616
  39.9160944  12.6715118  73.9990948  40.7235828  13.7061668  73.2445546
  48.1207457  23.5063977  76.2499557  48.8510846  23.2449265  76.8107261
  47.5114403  22.7692699  76.2901625  46.2022754  21.6471840  76.8474008
  45.4755918  21.5127805  76.2390500  45.7870041  21.9548669  77.6530727
  34.0252931  25.3661770  84.6121382  34.9455940  25.5440369  84.8061428
  33.9902514  24.4217815  84.4601081  32.3257155  19.2394000  63.0875610
  31.4188611  18.9427113  63.1638323  32.6033136  18.9423818  62.2209896
  23.2435096  20.5600363  73.5374656  22.9237880  19.7065671  73.2449030
  22.6968524  20.7748941  74.2932623  27.0215003  23.2762804  77.2544163
  27.2401013  24.2079912  77.2732196  27.4340777  22.9170779  78.0398967
  33.9419221  13.7830890  69.2419851  33.1319949  13.4377975  69.6175097
  34.6303638  13.4738433  69.8307463  35.8709769  12.8608936  70.8644148
  36.4240808  13.2804390  71.5234171  36.1079856  11.9344684  70.9067104
  31.8942868  18.8496010  86.6446912  31.7939595  19.7990367  86.5759003
  31.6764410  18.5214249  85.7722982  31.0955940  16.0980935  63.2287589
  31.9575104  16.4235833  63.4883406  31.2806284  15.3112431  62.7160655
  23.1123356  24.1803275  75.5067778  22.4186827  23.7657228  74.9937732
  23.8596347  24.2223811  74.9101197  39.2488576  14.9709462  70.3722812
  38.6687245  15.6294266  69.9900864  38.9824509  14.1486806  69.9610229
  37.6992143  14.3714519  72.5744132  38.1991921  14.4831054  71.7658451
  38.3427751  14.0675572  73.2144941  31.7574139  22.2793149  85.4611973
  31.2741220  23.0793509  85.6675862  31.8435078  22.2901094  84.5079417
  25.0260098  24.1121529  73.3833793  25.0030786  24.2109216  72.4315676
  25.3360735  24.9586679  73.7050959  27.6847476  26.1697684  77.4980407
  28.6390730  26.1381626  77.4310339  27.4860000  25.7088307  78.3130633
  28.2746858  24.7398800  80.0651205  29.0939747  25.2342878  80.0886042
  28.5483666  23.8230768  80.0368772  38.0313454  17.1309552  69.4279160
  37.1439309  17.4159203  69.2099355  38.4467443  16.9703315  68.5806437
  41.3827990  17.1556073  73.1433499  42.1588381  17.6452525  73.4158116
  40.6576125  17.5814127  73.6005369  43.8200549  17.8683692  74.2007440
  44.4145040  17.6279428  73.4900748  43.8927133  17.1490823  74.8280976
  26.0397705  31.7117303  74.5150605  25.9052173  30.9517704  73.9488603
  25.6229767  32.4358203  74.0479394  37.1756668  26.8954227  63.5227180
  37.8792518  27.1004229  64.1384836  36.4519317  27.4630988  63.7876264
  38.0054478  22.6464088  69.6429450  37.9489679  23.1032639  68.8037083
  38.5582821  21.8854772  69.4652293  41.8159284  18.4353820  70.4679570
  41.5596218  18.0350455  71.2987778  41.1912152  19.1497614  70.3429709
  46.1271622  21.1749893  72.9750861  45.5671180  21.2443082  73.7482423
  45.5215125  20.9990878  72.2550358  29.1966831  32.6086620  74.7269048
  29.0799215  33.5532053  74.6247738  28.3759277  32.3060182  75.1154847
  39.0843365  27.3336756  65.5725640  39.9188969  26.9017954  65.3903115
  38.9227708  27.1618769  66.5002535  38.7389257  23.8368869  66.9381980
  38.6838061  23.6713140  65.9970424  38.1135313  24.5444902  67.0944169
  23.5281772  19.0736933  80.7643402  24.1740636  18.5635887  81.2530627
  23.3198923  19.8105615  81.3386827  36.0535165  26.1417781  86.2635542
  36.9226324  26.3158433  85.9022177  35.5741916  26.9612198  86.1411272
  32.0485383  13.3376978  66.5167298  32.0364053  14.2818818  66.6735569
  32.9408805  13.1547123  66.2226759  30.2221345  33.2614882  77.9424976
  31.1248591  33.2938492  78.2591471  29.9958715  32.3315333  77.9571312
  31.9774947  32.0145868  74.6035055  31.0270578  32.0147730  74.4899427
  32.2807433  31.2678603  74.0871089  35.8637502   9.9319755  70.7713235
  35.0969898   9.3778241  70.9169917  36.2748207  10.0041623  71.6327386
  27.8679263  16.2204551  84.8618416  28.7310725  15.8641355  85.0721741
  27.2944674  15.8818445  85.5493820  47.7127640  37.8506407  75.6680817
  48.3506050  37.7313154  74.9644157  47.5948483  38.7987251  75.7268769
  44.5217347  37.8033835  75.6042342  44.1835858  37.6874900  74.7162877
  45.3907115  37.4025000  75.5843348  40.3804162  39.6569311  71.5939233
  39.8169027  39.5659248  70.8255520  40.2656557  38.8369216  72.0741725
  45.0037130  38.9568687  81.5628547  44.9925770  38.5621485  80.6909051
  45.1657769  38.2234759  82.1562319  37.9268594  41.1520503  74.4323453
  38.7189886  40.8111328  74.0169752  38.1665244  41.2615478  75.3525606
  39.8859348  40.4129416  67.3040832  40.6590224  39.8658403  67.1653708
  40.2384747  41.2773666  67.5155293  41.7244391  41.7405799  80.5107731
  41.4334257  42.6451429  80.3954398  42.3601375  41.7822326  81.2251801
  42.6500598  39.1182647  77.1009091  43.2464170  38.8938669  76.3866054
  42.7075569  38.3767393  77.7034539  42.2225626  36.5722082  64.9359282
  42.4751147  36.0503604  64.1742745  41.2850185  36.4088228  65.0385965
  47.2668909  35.5757861  72.7434025  48.0531998  35.1577284  72.3924442
  47.5307613  36.4803953  72.9115673  52.6677336  35.5133094  73.6467004
  53.4002508  34.9432311  73.8804833  51.9116692  35.1254694  74.0873509
  41.9421915  38.4750188  67.1383657  41.8258173  37.7995092  67.8064741
  42.0524175  37.9882562  66.3215810  44.2853456  37.9360335  70.8430346
  43.9211663  37.4090956  71.5543267  45.1420572  37.5458804  70.6696831
  50.1902756  29.2254668  78.1061612  49.8586081  30.0950079  77.8822827
  49.5948370  28.9090952  78.7855643  43.9258943  32.9650235  65.8391695
  44.0933345  33.8330472  66.2062166  43.7356112  33.1277517  64.9152984
  46.6834276  41.4267214  77.5057525  46.3834999  42.3292253  77.3973332
  46.3385335  41.1599397  78.3578678  40.1346757  37.8781011  73.5394229
  39.2097254  37.7457225  73.7471921  40.3831170  38.6575230  74.0364172
  50.0831420  33.9449754  75.1854962  49.1748297  33.8765163  74.8913723
  50.0319015  34.4221699  76.0136788  43.9048163  35.4207893  66.8238361
  43.7847789  35.8664943  67.6623842  43.2100752  35.7693210  66.2651899
  37.4955568  37.5214284  74.3738018  37.6247949  37.7748763  75.2877430
  36.8153020  38.1141992  74.0542673  44.1572285  35.3639400  83.1289859
  43.3805619  35.9233320  83.1192724  44.7962848  35.8496183  83.6504730
  51.9493066  32.1466193  76.9632836  51.3067446  32.4398726  76.3172631
  51.4447995  32.0319113  77.7686033  49.6033230  35.8929366  67.6518695
  50.5151086  36.1256753  67.4766393  49.0942877  36.4766410  67.0893774
  42.4118658  38.1724853  82.6907826  43.1533342  38.7109897  82.4142650
  41.7055643  38.7991142  82.8479378  47.8873997  40.3153994  81.2879988
  48.2957353  39.8736404  80.5434620  47.1651259  39.7406621  81.5414181
  44.2405067  35.2526600  78.6613545  45.0866263  35.6766014  78.8048194
  44.1803705  34.5960225  79.3552108  48.2102812  40.8755184  75.0432277
  47.5811674  41.0400898  74.3408345  47.8228474  41.2896794  75.8143241
  52.0892044  41.8109622  72.3976641  51.4043082  42.1908523  71.8473674
  52.1735893  42.4204949  73.1308588  47.3904513  32.9130969  80.3194719
  47.1465445  33.6673029  79.7828994  47.6664443  33.2916316  81.1541966
  49.3442975  39.4569581  78.9971984  49.5559871  40.1001341  78.3206365
  49.2972724  38.6231898  78.5293914  46.9469204  32.0687402  75.9008556
  46.0853683  32.3668655  76.1925294  46.9731639  32.2857801  74.9689589
  43.7630774  40.6129592  72.3082362  44.2269119  40.8917295  71.5186984
  43.4987572  39.7113037  72.1255453  40.6554855  40.1601074  75.2462125
  41.2256212  40.5888342  74.6079610  41.2462967  39.8783659  75.9446311
  42.6999660  36.7352745  69.1171927  43.4023703  37.1873788  69.5845853
  42.3680288  36.0936564  69.7451820  41.1480021  35.3264501  83.4923136
  40.5178682  36.0080782  83.7258533  41.0416109  35.2147583  82.5476275
  36.4424994  34.9936297  74.4189061  35.6524048  35.2493826  73.9429171
  36.9336241  35.8084635  74.5241101  50.4588803  42.3341537  77.1694341
  51.2806247  41.9321724  76.8877023  50.4551206  42.2309771  78.1210457
  38.3939739  35.3580877  71.3772537  37.5970902  35.4699571  71.8956033
  38.1665331  35.6967529  70.5113428  44.2245407  41.8825580  79.3255052
  44.2889839  42.3445987  80.1613224  43.5156331  41.2522945  79.4537362
  34.7262697  35.2466788  76.8504051  34.9770735  36.1313798  77.1161627
  35.2622245  35.0671389  76.0779143  58.5494796  38.6780285  73.5179313
  57.7958505  38.1087683  73.3623317  58.6842338  38.6442950  74.4649948
  40.4260764  29.6285267  85.8548388  40.0327710  29.0751466  86.5296032
  41.2426904  29.9395846  86.2454905  37.3922822  41.0669125  69.7661957
  37.9047342  41.8612376  69.9167522  38.0445535  40.3695416  69.6995559
  39.2017707  44.1834882  71.8484711  39.3784335  45.1052846  71.6605694
  39.9974540  43.8693301  72.2779090  43.3428725  31.0443146  83.4468644
  44.0838438  31.6450299  83.3673107  43.5746648  30.3020784  82.8886687
  38.4870063  36.2299514  81.7246874  38.3723578  35.3284771  82.0253973
  37.6314581  36.4763210  81.3731690  45.5661901  44.1717254  83.3234374
  45.1225755  43.3853632  83.0055279  46.2279114  44.3596404  82.6578265
  40.3249022  45.7013055  77.8495053  40.8756447  45.5730119  77.0772047
  39.4860498  46.0007944  77.4989946  47.6643139  44.4520054  81.3515776
  47.6461614  45.2728935  80.8596045  48.5863059  44.3274129  81.5765917
  44.1216193  41.9664183  82.1939284  44.6544530  41.2052471  81.9638592
  43.5930274  41.6737835  82.9363439  47.2885888  27.0724249  77.7232926
  46.9450157  27.9625891  77.6472036  47.6564851  26.8825907  76.8602511
  35.3571739  39.3957780  70.5421528  36.1946961  39.8054788  70.3255236
  35.5350006  38.4557222  70.5121722  44.8383282  31.9082561  71.2890599
  43.9824878  31.5189411  71.1096238  45.2510234  31.9874522  70.4290385
  46.3682428  29.4428904  75.6882159  45.8647224  29.4059040  74.8749964
  46.6613035  30.3521647  75.7478816  42.6125314  29.5267634  74.6948341
  43.4778311  29.3310443  74.3354230  42.6802823  29.2977986  75.6217698
  47.0422474  34.9359952  68.0565142  46.7372610  35.2506102  68.9075285
  47.9952916  35.0141372  68.0992475  50.4661752  39.2899196  74.8225142
  49.8085426  39.9798458  74.9105271  51.2702151  39.6795628  75.1659129
  40.2187633  31.7569842  72.0664708  40.7931385  31.5345024  71.3337901
  40.8058616  31.8258537  72.8193309  49.2767211  37.6443569  72.8729084
  49.7899092  38.2773561  73.3750794  49.9268435  37.0444764  72.5072444
  40.5457221  33.7874303  66.0860593  39.7094533  34.1248990  66.4069868
  40.4061990  33.6523283  65.1487730  42.5210301  28.6311091  70.7939777
  41.8674713  28.3160108  70.1696392  42.4790775  28.0086831  71.5199600
  45.7548041  35.1193024  75.1187425  44.8370603  35.3407971  74.9609113
  46.1708185  35.1939335  74.2599132  46.5383089  36.5184440  70.2490105
  47.2854908  37.0305837  69.9397227  46.8074679  36.1968493  71.1094498
  50.0429007  42.6249570  71.0008227  49.5891334  41.7840480  71.0573417
  49.4122974  43.2610969  71.3383007  48.9861926  33.5541556  72.2308894
  48.2484683  33.0418943  72.5619137  49.2388700  33.1141938  71.4192171
  48.4861946  44.4626067  71.9358045  48.7784920  45.0231124  71.2170411
  48.9960567  44.7554628  72.6911204  49.0873554  26.3317808  72.8250663
  49.3932431  25.4715172  72.5376579  49.8126159  26.9235429  72.6249657
  35.3797910  36.7348495  71.2132261  35.1822310  36.1417856  70.4883328
  34.8244574  36.4300705  71.9308200  43.3594633  36.6271601  73.3326855
  43.4143243  35.6745438  73.2569331  42.5485835  36.7831041  73.8168153
  41.2986993  35.2448661  71.0917233  40.4854859  35.5442832  71.4982426
  41.7945988  34.8504350  71.8091716  46.8961205  35.7090486  79.9232127
  47.2510593  35.9361959  80.7826593  47.5433336  36.0408862  79.3009383
  52.6258942  38.8308922  70.6281456  52.4876841  39.0210518  69.7002646
  52.2695161  39.5928304  71.0849507  40.7901068  32.8167017  76.7078468
  41.4300447  32.6755776  76.0101432  39.9578599  32.5301530  76.3317070
  52.6528322  40.8985449  75.6392728  53.0864828  40.8060738  76.4875782
  53.3659902  40.8742949  75.0012744  37.8744136  36.2612529  68.8973213
  36.9441724  36.1996984  69.1143176  37.9701608  35.7388482  68.1009855
  37.7929685  32.7867342  71.4851455  38.0536502  33.7012675  71.3760616
  38.6146857  32.3191784  71.6348068  39.2654610  34.2005099  78.6550280
  39.9377663  33.9922461  78.0062929  38.4384396  34.0027185  78.2155512
  53.5143871  40.9409149  78.1725613  53.7079761  41.8454960  78.4184888
  53.4144489  40.4816568  79.0064198  45.1680182  30.8267040  80.6715941
  44.5208097  31.5256989  80.5780417  45.9381197  31.2603184  81.0392189
  48.5758980  41.0915892  83.7466494  48.4244486  40.8626444  82.8296578
  48.5663659  42.0486493  83.7597839  45.3444316  38.6647805  78.7312760
  46.2736376  38.8158964  78.5581728  44.9235346  38.7531826  77.8761407
  39.6682107  37.4747702  79.4152717  39.5301905  36.7427941  80.0164256
  40.5787031  37.3856602  79.1336905  42.2964408  37.1867661  78.9036397
  43.0064026  36.5460853  78.8623015  42.2533716  37.4380556  79.8262577
  50.2851186  44.1235015  81.8242976  50.2263733  43.4394235  81.1573559
  50.6870705  44.8654005  81.3723602  41.0093342  34.1732879  80.7232036
  40.4730699  33.7223618  81.3753632  40.4210050  34.3078788  79.9802500
  40.4195601  33.6321530  63.2858500  39.5425067  33.5110331  62.9220746
  40.8953354  32.8407609  63.0337388  50.2868594  42.0874598  80.0556955
  49.3995373  41.7500520  80.1783354  50.8567145  41.3557630  80.2925721
  31.9397741  38.4198690  73.3800007  32.6268781  38.1060420  72.7921022
  31.7845870  39.3240055  73.1067258  36.7432463  33.3088887  77.8085030
  36.6590652  32.7014556  77.0735440  35.9215169  33.7997905  77.8094527
  46.9156177  31.7942450  73.1755226  47.4124876  31.0412413  72.8556296
  46.1443158  31.8306767  72.6098435  54.7685934  37.4982816  74.8173517
  54.7575811  38.3807531  74.4467450  53.9003314  37.1454367  74.6228054
  43.4991146  33.9359833  72.9026910  43.1288933  33.3830874  73.5907816
  43.9950238  33.3317967  72.3501910  51.3858509  36.3931457  71.2843683
  51.8518961  37.2259448  71.2103986  51.8366009  35.9276438  71.9888942
  41.3280344  44.3957328  79.9981928  42.0289804  45.0293811  80.1511322
  40.8575459  44.7372060  79.2377567  49.3575172  28.7612044  75.3234584
  48.4438251  28.9916271  75.4916791  49.7868273  28.8450488  76.1748617
  49.1281630  36.9501936  77.8234478  48.4753080  37.1977843  77.1686931
  49.5062010  36.1366074  77.4896956  45.1769203  37.6921747  84.3100516
  44.5009840  37.5915876  84.9802891  45.9996837  37.5360961  84.7736513
  36.9248062  43.9293683  76.9313031  37.5101499  43.1837371  77.0640935
  36.7272901  44.2397640  77.8149695  31.5165717  36.4999284  75.6517474
  31.5549817  35.9662874  76.4454592  31.0106010  35.9734489  75.0328451
  38.8956479  31.3463824  79.1480016  38.9597806  32.2078655  78.7357414
  38.8323600  30.7337826  78.4152375  38.3708752  33.4186957  82.7953050
  38.9980791  33.0364034  83.4090575  37.5136671  33.2001159  83.1608743
  48.7702860  43.8249932  84.4006786  49.3142764  44.4379890  83.9061741
  48.1889705  44.3829510  84.9173799  35.1474295  35.2263386  68.7271405
  35.4427736  34.3174064  68.6738459  34.2462330  35.2051125  68.4052408
  38.6768542  33.3019382  74.7098954  37.9555127  33.9155350  74.5706427
  39.4661797  33.8377147  74.6315600  49.1195282  44.7479670  77.1601364
  48.1725617  44.6285021  77.0879690  49.4678055  43.8602168  77.2427625
  41.4794855  30.6373809  80.9839606  42.0029257  30.8836105  81.7465915
  41.2607188  31.4693844  80.5642743  36.8762136  32.9077483  68.8510730
  36.5474842  32.0274862  68.6685836  37.2301507  32.8525152  69.7387120
  39.9903959  33.1950453  69.2186208  40.3300032  33.7236374  68.4964816
  40.4376080  33.5330859  69.9944775  49.7275837  45.3660945  74.4470589
  50.6522384  45.1603806  74.3095040  49.5591140  45.1177346  75.3559930
  42.6847400  31.5787504  78.6689276  42.3444221  30.7795317  79.0709956
  41.9786406  31.8789215  78.0966109  43.3363872  28.6636816  77.1216599
  44.1589941  28.1897295  76.9995490  43.5801936  29.4427300  77.6215285
  41.9772106  31.6925075  67.4179501  42.6980469  32.0706328  66.9143218
  41.3537411  32.4113952  67.5214479  46.1203229  32.3970224  68.3537833
  46.3366844  33.2794862  68.0526661  45.6397297  32.0056437  67.6243475
  40.8602451  35.3555937  74.9308578  40.7147031  35.6696240  75.8232859
  40.3827654  35.9740837  74.3779476  42.7198834  32.3458485  74.9789467
  42.7060402  31.4499578  74.6421765  43.4371262  32.3529149  75.6127753
  44.5724964  32.7795825  77.0242595  44.3142742  33.7012896  77.0226925
  44.0410005  32.3826260  77.7143059  35.3348113  37.8961281  77.8696239
  34.7901581  38.6721089  78.0016513  36.2127463  38.2432086  77.7115360
  42.1235730  31.2272865  70.2477037  42.2451641  30.2989511  70.4467925
  41.8337772  31.2411551  69.3355353  44.9926920  28.9127776  73.3843757
  45.0148617  28.9767109  72.4295737  45.4094979  28.0732284  73.5784263
  55.3710544  38.6483035  71.4222980  55.8141690  37.8990360  71.0242103
  54.4937055  38.6393172  71.0396712  36.1214135  37.0231178  80.7626396
  35.3795871  37.1713813  81.3491026  35.8006879  37.2839443  79.8993145
  44.0657797  46.5647156  80.5606786  44.3744924  46.3196303  81.4329485
  44.8633279  46.7693794  80.0725656  36.5670748  44.9096606  72.7936790
  37.3928768  44.6100378  72.4135434  36.2164800  44.1404229  73.2426579
  34.7679353  42.8282933  73.7525724  33.9311262  42.4005107  73.5709725
  34.7402999  43.0215376  74.6896515  41.6076809  32.7404863  84.4566970
  41.6564965  33.6166985  84.0744740  42.1499323  32.1982256  83.8838613
  52.0931655  43.2845986  83.7368107  51.3027198  43.2670125  83.1972607
  51.8565009  43.8234280  84.4917144  52.2129530  40.1338452  81.0500836
  52.2627535  39.9688460  81.9916359  52.1043453  39.2665711  80.6598716
  41.0965789  42.8126998  68.3392925  41.2453909  43.4962462  67.6859597
  41.9032232  42.7932088  68.8542380  49.5033292  36.1169380  82.3660142
  50.4043155  35.9775845  82.0744140  49.5781267  36.2823835  83.3058320
  43.8376098  33.4936235  81.2113329  42.9679407  33.7869801  80.9395917
  44.0735578  34.0776680  81.9320592  53.7147727  42.5535394  81.2942857
  53.4232535  42.9165374  82.1306318  53.1019858  41.8402402  81.1156189
  54.9143409  40.1188274  73.8145427  55.7490300  40.5578078  73.9782988
  55.0502538  39.6426927  72.9953673  51.9634915  37.6768008  79.7622915
  52.4389036  37.8695655  78.9541767  51.0400480  37.7327194  79.5166299
  38.8518421  38.8392176  69.3453994  38.6064463  37.9354506  69.5434204
  39.0214336  38.8409326  68.4033472  46.5415131  29.7115852  78.7278749
  47.0597075  30.4476879  78.4025238  46.1870264  30.0179845  79.5625508
  38.1214069  34.5720533  66.8440155  37.4283314  34.6464888  66.1880191
  37.8765821  33.8080877  67.3661672  46.7927726  26.1316134  74.2479646
  47.0729479  25.4639324  74.8740072  47.5778332  26.3245230  73.7354310
  50.6636584  34.5533768  77.9951221  51.6154007  34.6531866  78.0163445
  50.4940034  33.7612037  78.5049305  48.6850963  31.6389352  78.1810622
  48.0900895  31.9194364  77.4857110  48.4000660  32.1283253  78.9527363
  53.1424662  37.7739888  77.1093520  53.1100982  36.8355889  77.2953204
  53.7525285  37.8523925  76.3759345  44.9807993  36.6435941  63.1520725
  45.9267097  36.5142149  63.2209143  44.6022237  35.9050603  63.6290153
  53.2919150  34.5650932  77.1551804  52.7758199  33.7809388  76.9681733
  54.1759099  34.2369648  77.3198323  50.9529877  28.3091947  73.1147616
  50.7554698  28.0007035  73.9990948  51.5629583  29.0353586  73.2445546
  58.9601212  38.8355895  76.2499557  59.6904600  38.5741183  76.8107261
  58.3508157  38.0984617  76.2901625  57.0416509  36.9763758  76.8474008
  56.3149672  36.8419723  76.2390500  56.6263796  37.2840586  77.6530727
  44.8646685  40.6953687  84.6121382  45.7849695  40.8732286  84.8061428
  44.8296268  39.7509733  84.4601081  43.1650910  34.5685918  63.0875610
  42.2582365  34.2719030  63.1638323  43.4426891  34.2715736  62.2209896
  34.0828850  35.8892281  73.5374656  33.7631634  35.0357589  73.2449030
  33.5362278  36.1040859  74.2932623  37.8608758  38.6054722  77.2544163
  38.0794767  39.5371830  77.2732196  38.2734531  38.2462696  78.0398967
  44.7812975  29.1122807  69.2419851  43.9713704  28.7669892  69.6175097
  45.4697392  28.8030351  69.8307463  46.7103524  28.1900854  70.8644148
  47.2634562  28.6096307  71.5234171  46.9473610  27.2636602  70.9067104
  42.7336623  34.1787928  86.6446912  42.6333350  35.1282285  86.5759003
  42.5158165  33.8506167  85.7722982  41.9349694  31.4272853  63.2287589
  42.7968858  31.7527751  63.4883406  42.1200038  30.6404349  62.7160655
  33.9517110  39.5095192  75.5067778  33.2580582  39.0949145  74.9937732
  34.6990101  39.5515729  74.9101197  50.0882331  30.3001379  70.3722812
  49.5081000  30.9586183  69.9900864  49.8218263  29.4778724  69.9610229
  48.5385897  29.7006437  72.5744132  49.0385676  29.8122971  71.7658451
  49.1821505  29.3967490  73.2144941  42.5967893  37.6085067  85.4611973
  42.1134975  38.4085427  85.6675862  42.6828832  37.6193011  84.5079417
  35.8653853  39.4413446  73.3833793  35.8424541  39.5401133  72.4315676
  36.1754489  40.2878597  73.7050959  38.5241230  41.4989601  77.4980407
  39.4784484  41.4673544  77.4310339  38.3253754  41.0380225  78.3130633
  39.1140613  40.0690717  80.0651205  39.9333502  40.5634796  80.0886042
  39.3877420  39.1522685  80.0368772  48.8707209  32.4601470  69.4279160
  47.9833064  32.7451120  69.2099355  49.2861198  32.2995233  68.5806437
  52.2221745  32.4847991  73.1433499  52.9982135  32.9744443  73.4158116
  51.4969879  32.9106045  73.6005369  54.6594304  33.1975610  74.2007440
  55.2538794  32.9571346  73.4900748  54.7320887  32.4782740  74.8280976
  36.8791459  47.0409221  74.5150605  36.7445927  46.2809622  73.9488603
  36.4623522  47.7650121  74.0479394  48.8448233  37.9756005  69.6429450
  48.7883434  38.4324557  68.8037083  49.3976575  37.2146690  69.4652293
  52.6553038  33.7645737  70.4679570  52.3989973  33.3642373  71.2987778
  52.0305907  34.4789531  70.3429709  56.9665376  36.5041811  72.9750861
  56.4064934  36.5735000  73.7482423  56.3608880  36.3282795  72.2550358
  34.3675527  34.4028851  80.7643402  35.0134390  33.8927805  81.2530627
  34.1592678  35.1397533  81.3386827  46.8928919  41.4709699  86.2635542
  47.7620079  41.6450351  85.9022177  46.4135671  42.2904115  86.1411272
  42.8879137  28.6668896  66.5167298  42.8757807  29.6110736  66.6735569
  43.7802559  28.4839041  66.2226759  46.7031257  25.2611672  70.7713235
  45.9363653  24.7070159  70.9169917  47.1141962  25.3333541  71.6327386
  38.7073018  31.5496468  84.8618416  39.5704479  31.1933273  85.0721741
  38.1338429  31.2110363  85.5493820  63.5071090  50.8425012  73.6467004
  64.2396262  50.2724228  73.8804833  62.7510446  50.4546612  74.0873509
  61.0296511  44.5546586  78.1061612  60.6979836  45.4241997  77.8822827
  60.4342124  44.2382870  78.7855643  57.5228030  56.7559132  77.5057525
  57.2228753  57.6584171  77.3973332  57.1779090  56.4891315  78.3578678
  60.9225174  49.2741672  75.1854962  60.0142051  49.2057080  74.8913723
  60.8712770  49.7513617  76.0136788  48.3349323  52.8506202  74.3738018
  48.4641704  53.1040681  75.2877430  47.6546774  53.4433910  74.0542673
  62.7886820  47.4758110  76.9632836  62.1461201  47.7690643  76.3172631
  62.2841749  47.3611031  77.7686033  58.7267752  55.6445911  81.2879988
  59.1351108  55.2028322  80.5434620  58.0045013  55.0698539  81.5414181
  59.0496566  56.2047102  75.0432277  58.4205429  56.3692816  74.3408345
  58.6622229  56.6188711  75.8143241  58.2298267  48.2422886  80.3194719
  57.9859199  48.9964947  79.7828994  58.5058198  48.6208234  81.1541966
  60.1836730  54.7861499  78.9971984  60.3953625  55.4293259  78.3206365
  60.1366478  53.9523815  78.5293914  57.7862959  47.3979319  75.9008556
  56.9247438  47.6960573  76.1925294  57.8125394  47.6149718  74.9689589
  61.2982558  57.6633454  77.1694341  62.1200002  57.2613641  76.8877023
  61.2944961  57.5601688  78.1210457  51.2654519  44.9577185  85.8548388
  50.8721464  44.4043383  86.5296032  52.0820659  45.2687763  86.2454905
  54.1822480  46.3735064  83.4468644  54.9232193  46.9742217  83.3673107
  54.4140402  45.6312702  82.8886687  58.5036893  59.7811971  81.3515776
  58.4855369  60.6020852  80.8596045  59.4256813  59.6566047  81.5765917
  58.1279643  42.4016167  77.7232926  57.7843912  43.2917809  77.6472036
  58.4958605  42.2117825  76.8602511  57.2076183  44.7720822  75.6882159
  56.7040979  44.7350957  74.8749964  57.5006790  45.6813565  75.7478816
  53.4519069  44.8559552  74.6948341  54.3172066  44.6602360  74.3354230
  53.5196578  44.6269904  75.6217698  61.3055506  54.6191114  74.8225142
  60.6479181  55.3090375  74.9105271  62.1095906  55.0087546  75.1659129
  59.9267308  41.6609726  72.8250663  60.2326185  40.8007089  72.5376579
  60.6519913  42.2527346  72.6249657  57.7354960  51.0382403  79.9232127
  58.0904347  51.2653876  80.7826593  58.3827091  51.3700780  79.3009383
  51.6294823  48.1458934  76.7078468  52.2694202  48.0047693  76.0101432
  50.7972353  47.8593448  76.3317070  63.4922076  56.2277366  75.6392728
  63.9258583  56.1352655  76.4875782  64.2053657  56.2034867  75.0012744
  57.2249971  59.8279460  77.1725828  57.2786993  60.3970397  77.9403544
  56.3564752  59.9981345  76.8079866  64.3537626  56.2701067  78.1725613
  64.5473516  57.1746877  78.4184888  64.2538244  55.8108486  79.0064198
  56.0073936  46.1558957  80.6715941  55.3601851  46.8548907  80.5780417
  56.7774952  46.5895101  81.0392189  59.4152734  56.4207810  83.7466494
  59.2638241  56.1918361  82.8296578  59.4057414  57.3778411  83.7597839
  61.1244941  59.4526932  81.8242976  61.0657487  58.7686152  81.1573559
  61.5264459  60.1945922  81.3723602  61.1262348  57.4166516  80.0556955
  60.2389127  57.0792438  80.1783354  61.6960899  56.6849547  80.2925721
  65.6079689  52.8274733  74.8173517  65.5969565  53.7099449  74.4467450
  64.7397068  52.4746284  74.6228054  60.1968926  44.0903961  75.3234584
  59.2832006  44.3208188  75.4916791  60.6262028  44.1742406  76.1748617
  59.9675385  52.2793853  77.8234478  59.3146835  52.5269761  77.1686931
  60.3455765  51.4657992  77.4896956  59.6096615  59.1541849  84.4006786
  60.1536519  59.7671808  83.9061741  59.0283460  59.7121428  84.9173799
  52.3188610  45.9665726  80.9839606  52.8423011  46.2128023  81.7465915
  52.1000943  46.7985761  80.5642743  53.5241155  46.9079422  78.6689276
  53.1837975  46.1087235  79.0709956  52.8180161  47.2081132  78.0966109
  54.1757626  43.9928734  77.1216599  54.9983696  43.5189212  76.9995490
  54.4195690  44.7719218  77.6215285  55.4118719  48.1087743  77.0242595
  55.1536497  49.0304813  77.0226925  54.8803759  47.7118177  77.7143059
  52.4470564  48.0696780  84.4566970  52.4958719  48.9458903  84.0744740
  52.9893078  47.5274173  83.8838613  62.9325409  58.6137904  83.7368107
  62.1420953  58.5962042  83.1972607  62.6958764  59.1526197  84.4917144
  63.0523284  55.4630370  81.0500836  63.1021289  55.2980377  81.9916359
  62.9437208  54.5957629  80.6598716  60.3427047  51.4461298  82.3660142
  61.2436909  51.3067763  82.0744140  60.4175021  51.6115753  83.3058320
  54.6769852  48.8228153  81.2113329  53.8073161  49.1161719  80.9395917
  54.9129332  49.4068598  81.9320592  64.5541481  57.8827311  81.2942857
  64.2626289  58.2457292  82.1306318  63.9413612  57.1694320  81.1156189
  65.7537163  55.4480191  73.8145427  66.5884055  55.8869995  73.9782988
  65.8896292  54.9718844  72.9953673  62.8028669  53.0059926  79.7622915
  63.2782791  53.1987572  78.9541767  61.8794235  53.0619112  79.5166299
  57.3808886  45.0407770  78.7278749  57.8990830  45.7768797  78.4025238
  57.0264019  45.3471763  79.5625508  57.6321480  41.4608052  74.2479646
  57.9123234  40.7931241  74.8740072  58.4172087  41.6537148  73.7354310
  61.5030338  49.8825686  77.9951221  62.4547761  49.9823784  78.0163445
  61.3333789  49.0903955  78.5049305  59.5244718  46.9681269  78.1810622
  58.9294650  47.2486282  77.4857110  59.2394415  47.4575170  78.9527363
  63.9818416  53.1031806  77.1093520  63.9494736  52.1647807  77.2953204
  64.5919040  53.1815843  76.3759345  64.1312905  49.8942849  77.1551804
  63.6151953  49.1101306  76.9681733  65.0152853  49.5661566  77.3198323
  61.7923632  43.6383865  73.1147616  61.5948453  43.3298953  73.9990948
  62.4023337  44.3645504  73.2445546  69.7994966  54.1647813  76.2499557
  70.5298354  53.9033101  76.8107261  69.1901911  53.4276535  76.2901625
  67.8810263  52.3055675  76.8474008  67.1543427  52.1711640  76.2390500
  67.4657550  52.6132504  77.6530727  53.5730377  49.5079845  86.6446912
  53.4727104  50.4574202  86.5759003  53.3551919  49.1798084  85.7722982
  60.9276085  45.6293297  70.3722812  60.3474754  46.2878101  69.9900864
  60.6612018  44.8070641  69.9610229  63.0615499  47.8139908  73.1433499
  63.8375890  48.3036361  73.4158116  62.3363634  48.2397962  73.6005369
  65.4988058  48.5267527  74.2007440  66.0932549  48.2863263  73.4900748
  65.5714642  47.8074658  74.8280976  67.8059131  51.8333728  72.9750861
  67.2458689  51.9026918  73.7482423  67.2002634  51.6574713  72.2550358
  57.7322674  56.8001616  86.2635542  58.6013833  56.9742269  85.9022177
  57.2529425  57.6196033  86.1411272  57.5425011  40.5903590  70.7713235
  56.7757407  40.0362077  70.9169917  57.9535716  40.6625459  71.6327386
  49.5466772  46.8788386  84.8618416  50.4098234  46.5225191  85.0721741
  48.9732183  46.5402281  85.5493820  62.1048273  60.2869103  85.8548388
  61.7115219  59.7335301  86.5296032  62.9214413  60.5979681  86.2454905
  65.0216234  61.7026982  83.4468644  65.7625947  62.3034135  83.3673107
  65.2534157  60.9604619  82.8886687  60.1657572  66.8883349  81.7246874
  60.0511087  65.9868606  82.0253973  59.3102090  67.1347046  81.3731690
  66.8467691  61.4850875  80.6715941  66.1995606  62.1840825  80.5780417
  67.6168706  61.9187019  81.0392189  62.6880851  64.8316714  80.7232036
  62.1518208  64.3807453  81.3753632  62.0997559  64.9662623  79.9802500
  60.5743988  62.0047659  79.1480016  60.6385315  62.8662490  78.7357414
  60.5111109  61.3921661  78.4152375  63.1582364  61.2957644  80.9839606
  63.6816766  61.5419941  81.7465915  62.9394697  62.1277679  80.5642743
  65.0151381  59.3220652  77.1216599  65.8377450  58.8481130  76.9995490
  65.2589444  60.1011135  77.6215285  63.2864318  63.3988698  84.4566970
  63.3352474  64.2750821  84.0744740  63.8286832  62.8566091  83.8838613
  73.7719164  73.9429821  83.7368107  72.9814707  73.9253960  83.1972607
  73.5352518  74.4818115  84.4917144  73.8917039  70.7922288  81.0500836
  73.9415044  70.6272295  81.9916359  73.7830962  69.9249547  80.6598716
  75.3935236  73.2119229  81.2942857  75.1020044  73.5749210  82.1306318
  74.7807367  72.4986237  81.1156189  64.4124132  64.8371763  86.6446912
  64.3120859  65.7866120  86.5759003  64.1945674  64.5090002  85.7722982
  60.3860527  62.2080304  84.8618416  61.2491988  61.8517108  85.0721741
  59.8125937  61.8694198  85.5493820  80.2308904  83.8382160  75.6680817
  80.8687314  83.7188907  74.9644157  80.1129747  84.7863004  75.7268769
  77.0398610  83.7909588  75.6042342  76.7017122  83.6750653  74.7162877
  77.9088378  83.3900753  75.5843348  77.5218393  84.9444440  81.5628547
  77.5107034  84.5497238  80.6909051  77.6839033  84.2110512  82.1562319
  78.4784984  89.3116032  66.9053698  77.8272964  89.8970113  66.5187711
  79.2729347  89.8422227  66.9648735  74.2425654  87.7281552  80.5107731
  73.9515520  88.6327182  80.3954398  74.8782639  87.7698079  81.2251801
  75.1681861  85.1058400  77.1009091  75.7645433  84.8814422  76.3866054
  75.2256833  84.3643146  77.7034539  79.7850172  81.5633614  72.7434025
  80.5713261  81.1453037  72.3924442  80.0488877  82.4679706  72.9115673
  79.9560250  87.0006464  67.4422682  79.3206083  87.0741091  68.1543586
  79.6257656  87.5900063  66.7641761  85.1858599  81.5008847  73.6467004
  85.9183771  80.9308064  73.8804833  84.4297955  81.1130447  74.0873509
  82.7084020  75.2130421  78.1061612  82.3767345  76.0825832  77.8822827
  82.1129633  74.8966705  78.7855643  79.2015539  87.4142967  77.5057525
  78.9016262  88.3168006  77.3973332  78.8566599  87.1475150  78.3578678
  82.6012683  79.9325507  75.1854962  81.6929560  79.8640916  74.8913723
  82.5500279  80.4097452  76.0136788  74.1836319  94.1787287  70.4728493
  74.1060349  95.1295112  70.5516973  73.5797963  93.8333160  71.1303419
  76.6753549  81.3515153  83.1289859  75.8986883  81.9109073  83.1192724
  77.3144112  81.8371936  83.6504730  84.4674329  78.1341946  76.9632836
  83.8248710  78.4274479  76.3172631  83.9629258  78.0194866  77.7686033
  82.1214493  81.8805119  67.6518695  83.0332349  82.1132506  67.4766393
  81.6124140  82.4642163  67.0893774  74.9299921  84.1600606  82.6907826
  75.6714606  84.6985650  82.4142650  74.2236907  84.7866895  82.8479378
  80.4055261  86.3029747  81.2879988  80.8138617  85.8612157  80.5434620
  79.6832522  85.7282374  81.5414181  76.7586331  81.2402353  78.6613545
  77.6047526  81.6641767  78.8048194  76.6984968  80.5835978  79.3552108
  80.7284075  86.8630937  75.0432277  80.0992938  87.0276651  74.3408345
  80.3409738  87.2772547  75.8143241  84.6073307  87.7985375  72.3976641
  83.9224345  88.1784276  71.8473674  84.6917157  88.4080702  73.1308588
  79.9085776  78.9006722  80.3194719  79.6646708  79.6548782  79.7828994
  80.1845707  79.2792069  81.1541966  81.8624239  85.4445334  78.9971984
  82.0741134  86.0877094  78.3206365  81.8153987  84.6107651  78.5293914
  73.6661285  81.3140254  83.4923136  73.0359945  81.9956535  83.7258533
  73.5597373  81.2023336  82.5476275  82.9770067  88.3217290  77.1694341
  83.7987511  87.9197477  76.8877023  82.9732470  88.2185524  78.1210457
  76.7426670  87.8701333  79.3255052  76.8071103  88.3321740  80.1613224
  76.0337594  87.2398698  79.4537362  76.4574688  89.5369440  69.1934032
  76.3220363  90.3820976  69.6218880  76.9984500  89.7388718  68.4299966
  72.9442028  75.6161020  85.8548388  72.5508973  75.0627219  86.5296032
  73.7608168  75.9271599  86.2454905  75.8609989  77.0318899  83.4468644
  76.6019702  77.6326052  83.3673107  76.0927911  76.2896537  82.8886687
  78.0843164  90.1593007  83.3234374  77.6407019  89.3729385  83.0055279
  78.7460378  90.3472157  82.6578265  72.8430286  91.6888808  77.8495053
  73.3937711  91.5605872  77.0772047  72.0041761  91.9883697  77.4989946
  80.1824402  90.4395807  81.3515776  80.1642878  91.2604688  80.8596045
  81.1044322  90.3149882  81.5765917  76.6397457  87.9539936  82.1939284
  77.1725793  87.1928224  81.9638592  76.1111538  87.6613588  82.9363439
  79.7717434  83.0508613  66.2305361  79.2564058  83.8213218  66.4693748
  79.4994743  82.3773749  66.8538422  77.3564545  77.8958314  71.2890599
  76.5006142  77.5065165  71.1096238  77.7691497  77.9750275  70.4290385
  84.7451708  85.8040968  68.1658534  83.9681151  85.4652127  67.7213696
  85.4243189  85.8093591  67.4913499  79.5603737  80.9235705  68.0565142
  79.2553873  81.2381855  68.9075285  80.5134180  81.0017125  68.0992475
  82.9843015  85.2774949  74.8225142  82.3266690  85.9674211  74.9105271
  83.7883415  85.6671381  75.1659129  81.7948474  83.6319322  72.8729084
  82.3080356  84.2649314  73.3750794  82.4449698  83.0320517  72.5072444
  79.0570848  93.6103646  65.6289755  78.3832547  93.9135343  66.2374713
  79.4436670  94.4132727  65.2795212  78.2729305  81.1068777  75.1187425
  77.3551866  81.3283724  74.9609113  78.6889449  81.1815088  74.2599132
  79.0564353  82.5060193  70.2490105  79.8036172  83.0181590  69.9397227
  79.3255942  82.1844246  71.1094498  82.5610270  88.6125323  71.0008227
  82.1072597  87.7716233  71.0573417  81.9304237  89.2486722  71.3383007
  81.5043190  79.5417309  72.2308894  80.7665947  79.0294696  72.5619137
  81.7569963  79.1017691  71.4192171  81.0043210  90.4501820  71.9358045
  81.2966184  91.0106877  71.2170411  81.5141830  90.7430381  72.6911204
  77.0267091  86.5427478  64.5705138  76.5886521  85.8263336  64.1110775
  77.7677532  86.7703592  64.0090229  75.9676835  91.2282171  73.0251498
  75.9253014  91.4543017  72.0960030  76.8839534  90.9945546  73.1737299
  79.4142469  81.6966239  79.9232127  79.7691856  81.9237712  80.7826593
  80.0614600  82.0284615  79.3009383  85.1440205  84.8184675  70.6281456
  85.0058104  85.0086271  69.7002646  84.7876424  85.5804057  71.0849507
  85.1709585  86.8861202  75.6392728  85.6046092  86.7936491  76.4875782
  85.8841166  86.8618702  75.0012744  78.9037480  90.4863296  77.1725828
  78.9574502  91.0554232  77.9403544  78.0352261  90.6565181  76.8079866
  86.0325135  86.9284902  78.1725613  86.2261025  87.8330713  78.4184888
  85.9325753  86.4692321  79.0064198  77.6861445  76.8142793  80.6715941
  77.0389360  77.5132742  80.5780417  78.4562461  77.2478937  81.0392189
  81.0940243  87.0791645  83.7466494  80.9425750  86.8502197  82.8296578
  81.0844923  88.0362246  83.7597839  77.8625580  84.6523558  78.7312760
  78.7917640  84.8034717  78.5581728  77.4416610  84.7407579  77.8761407
  76.6613912  88.6774222  76.5011298  76.5224997  88.3093007  77.3737236
  75.8728508  89.1921862  76.3295256  77.2562063  93.7783319  67.8436834
  77.4313819  93.3071362  68.6582457  76.5694852  94.4049085  68.0718095
  78.2119127  88.0555825  73.8900136  77.8768959  88.0156595  74.7857786
  77.7123072  87.3900541  73.4170546  81.1478318  85.4011859  64.1637195
  80.5307489  84.6758687  64.0670248  80.6794807  86.1621219  63.8204270
  74.8145671  83.1743414  78.9036397  75.5245290  82.5336606  78.8623015
  74.7714979  83.4256309  79.8262577  82.8032450  90.1110768  81.8242976
  82.7444996  89.4269988  81.1573559  83.2051968  90.8529758  81.3723602
  71.8223149  96.9272681  74.6176695  72.0619747  97.5591206  75.2955713
  70.9792345  96.5760721  74.9042054  82.8049857  88.0750351  80.0556955
  81.9176636  87.7376273  80.1783354  83.3748408  87.3433383  80.2925721
  76.3351011  92.7351804  77.0218199  76.2621182  93.5406775  77.5337503
  75.8928404  92.9343770  76.1966220  76.1240790  91.9723574  70.5321020
  75.3408312  92.5145254  70.6259245  76.8233535  92.4897554  70.9315261
  78.7949694  92.6338638  79.1776357  79.5077666  93.2686103  79.1052259
  78.3039723  92.7302504  78.3616359  80.5167221  86.5389891  70.7493649
  79.5823500  86.6591353  70.5798353  80.6943890  85.6362357  70.4853659
  83.9039772  82.3807210  71.2843683  84.3700225  83.2135201  71.2103986
  84.3547273  81.9152191  71.9888942  73.8461608  90.3833081  79.9981928
  74.5471067  91.0169564  80.1511322  73.3756723  90.7247813  79.2377567
  81.9716004  88.7251031  68.2829835  82.2475847  88.6107626  69.1923709
  81.1020502  88.3268516  68.2442008  81.6462894  82.9377689  77.8234478
  80.9934344  83.1853596  77.1686931  82.0243274  82.1241827  77.4896956
  78.6070068  92.9737382  71.9262649  78.7892462  92.1559038  72.3890401
  79.4303054  93.1905074  71.4887539  78.9412233  91.9005567  69.1877697
  79.4699999  91.3898022  68.5747859  79.2040453  91.5848097  70.0523230
  77.6950467  83.6797500  84.3100516  77.0191104  83.5791629  84.9802891
  78.5178101  83.5236714  84.7736513  72.2967981  92.9520684  71.9475473
  71.6278356  93.4366811  71.4639513  72.1580851  93.1989904  72.8618852
  76.4373250  94.9864427  78.5458131  76.9891558  95.1496049  79.3107217
  76.7779443  95.5768865  77.8738156  81.2884124  89.8125685  84.4006786
  81.8324028  90.4255643  83.9061741  80.7070969  90.3705263  84.9173799
  79.5741637  92.9346403  75.5321814  79.4492776  92.1336143  75.0232759
  80.2320728  93.4292596  75.0435784  81.6376545  90.7355423  77.1601364
  80.6906881  90.6160774  77.0879690  81.9859318  89.8477921  77.2427625
  73.9976119  76.6249562  80.9839606  74.5210520  76.8711858  81.7465915
  73.7788452  77.4569597  80.5642743  78.6422979  90.5308139  73.3605716
  78.4947941  89.6024847  73.5413286  79.4676472  90.5528230  72.8762791
  82.2457100  91.3536698  74.4470589  83.1703648  91.1479559  74.3095040
  82.0772404  91.1053099  75.3559930  75.2028664  77.5663257  78.6689276
  74.8625484  76.7671070  79.0709956  74.4967670  77.8664968  78.0966109
  78.6384493  78.3845977  68.3537833  78.8548107  79.2670615  68.0526661
  78.1578560  77.9932190  67.6243475  75.2380097  78.3334238  74.9789467
  75.2241666  77.4375331  74.6421765  75.9552525  78.3404902  75.6127753
  77.0906228  78.7671578  77.0242595  76.8324006  79.6888649  77.0226925
  76.5591268  78.3702013  77.7143059  82.0352417  91.8722365  69.8032680
  82.2089294  91.3068788  69.0506533  82.5281308  92.6723260  69.6212170
  83.0227589  91.1889130  66.9029578  83.7178494  91.8095822  67.1216893
  83.3650739  90.3384481  67.1781956  84.9219012  88.6388835  68.4316909
  85.4470336  88.9776108  67.7066229  84.8341365  87.7035851  68.2480044
  76.5839061  92.5522909  80.5606786  76.8926187  92.3072056  81.4329485
  77.3814543  92.7569547  80.0725656  76.6059673  94.7060819  72.7912162
  76.1664663  94.2137197  73.4845019  77.3567790  94.1633786  72.5504238
  74.0533545  90.2498828  74.8634464  73.4313554  89.5869533  74.5636692
  74.7238412  90.2759959  74.1808112  74.1258073  78.7280616  84.4566970
  74.1746228  79.6042738  84.0744740  74.6680587  78.1858009  83.8838613
  84.6112918  89.2721739  83.7368107  83.8208462  89.2545878  83.1972607
  84.3746273  89.8110033  84.4917144  84.7310793  86.1214205  81.0500836
  84.7808798  85.9564213  81.9916359  84.6224717  85.2541464  80.6598716
  82.0214556  82.1045133  82.3660142  82.9224418  81.9651598  82.0744140
  82.0962530  82.2699588  83.3058320  76.3557361  79.4811988  81.2113329
  75.4860670  79.7745554  80.9395917  76.5916841  80.0652433  81.9320592
  86.2328990  88.5411147  81.2942857  85.9413798  88.9041127  82.1306318
  85.6201121  87.8278155  81.1156189  87.4324672  86.1064027  73.8145427
  88.2671564  86.5453831  73.9782988  87.5683801  85.6302680  72.9953673
  84.4816178  83.6643761  79.7622915  84.9570300  83.8571408  78.9541767
  83.5581744  83.7202947  79.5166299  79.0596395  75.6991605  78.7278749
  79.5778339  76.4352632  78.4025238  78.7051528  76.0055598  79.5625508
  77.1142458  91.2950881  65.8104672  76.5416425  91.9141069  65.3575144
  77.6875251  91.8450243  66.3444594  83.1817847  80.5409521  77.9951221
  84.1335270  80.6407619  78.0163445  83.0121298  79.7487790  78.5049305
  81.2032227  77.6265105  78.1810622  80.6082159  77.9070117  77.4857110
  80.9181924  78.1159006  78.9527363  80.3339717  91.5788032  66.9413254
  81.2670390  91.5133593  67.1446130  80.2462930  92.4144298  66.4827787
  82.9627734  90.8953902  63.9017202  82.8841365  90.5613765  64.7952960
  83.7837401  91.3875670  63.9008674  85.6605925  83.7615641  77.1093520
  85.6282245  82.8231642  77.2953204  86.2706549  83.8399678  76.3759345
  85.8100414  80.5526685  77.1551804  85.2939462  79.7685141  76.9681733
  86.6940362  80.2245401  77.3198323  83.4711141  74.2967700  73.1147616
  83.2735962  73.9882788  73.9990948  84.0810846  75.0229339  73.2445546
  91.4782475  84.8231648  76.2499557  92.2085863  84.5616936  76.8107261
  90.8689420  84.0860370  76.2901625  89.5597772  82.9639511  76.8474008
  88.8330936  82.8295476  76.2390500  89.1445059  83.2716339  77.6530727
  77.3827949  86.6829440  84.6121382  78.3030958  86.8608039  84.8061428
  77.3477532  85.7385486  84.4601081  77.2994239  75.0998560  69.2419851
  76.4894967  74.7545645  69.6175097  77.9878656  74.7906104  69.8307463
  75.2517886  80.1663681  86.6446912  75.1514613  81.1158038  86.5759003
  75.0339428  79.8381920  85.7722982  82.6063594  76.2877132  70.3722812
  82.0262263  76.9461936  69.9900864  82.3399527  75.4654477  69.9610229
  75.1149156  83.5960820  85.4611973  74.6316238  84.3961180  85.6675862
  75.2010096  83.6068764  84.5079417  81.3888472  78.4477223  69.4279160
  80.5014327  78.7326873  69.2099355  81.8042461  78.2870986  68.5806437
  84.7403008  78.4723744  73.1433499  85.5163399  78.9620196  73.4158116
  84.0151143  78.8981798  73.6005369  87.1775567  79.1851363  74.2007440
  87.7720058  78.9447099  73.4900748  87.2502151  78.4658493  74.8280976
  69.3972723  93.0284974  74.5150605  69.2627191  92.2685375  73.9488603
  68.9804785  93.7525874  74.0479394  80.5331686  88.2121897  63.5227180
  81.2367536  88.4171900  64.1384836  79.8094335  88.7798659  63.7876264
  81.3629496  83.9631759  69.6429450  81.3064697  84.4200310  68.8037083
  81.9157838  83.2022443  69.4652293  85.1734302  79.7521490  70.4679570
  84.9171236  79.3518126  71.2987778  84.5487170  80.4665284  70.3429709
  89.4846640  82.4917564  72.9750861  88.9246198  82.5610753  73.7482423
  88.8790143  82.3158548  72.2550358  72.5541849  93.9254291  74.7269048
  72.4374233  94.8699723  74.6247738  71.7334295  93.6227852  75.1154847
  82.4418383  88.6504426  65.5725640  83.2763987  88.2185625  65.3903115
  82.2802726  88.4786440  66.5002535  82.0964275  85.1536540  66.9381980
  82.0413079  84.9880811  65.9970424  81.4710331  85.8612573  67.0944169
  79.4110183  87.4585452  86.2635542  80.2801342  87.6326104  85.9022177
  78.9316934  88.2779868  86.1411272  73.5796363  94.5782553  77.9424976
  74.4823609  94.6106163  78.2591471  73.3533733  93.6483004  77.9571312
  75.3349965  93.3313539  74.6035055  74.3845596  93.3315401  74.4899427
  75.6382451  92.5846274  74.0871089  91.0702658  99.1674078  75.6680817
  91.7081068  99.0480825  74.9644157  90.9523501 100.1154922  75.7268769
  87.8792365  99.1201506  75.6042342  87.5410876  99.0042570  74.7162877
  88.7482133  98.7192671  75.5843348  83.7379180 100.9736982  71.5939233
  83.1744045 100.8826919  70.8255520  83.6231575 100.1536887  72.0741725
  88.3612148 100.2736357  81.5628547  88.3500788  99.8789156  80.6909051
  88.5232787  99.5402430  82.1562319  81.2843612 102.4688174  74.4323453
  82.0764904 102.1278998  74.0169752  81.5240262 102.5783149  75.3525606
  89.3178739 104.6407950  66.9053698  88.6666719 105.2262030  66.5187711
  90.1123102 105.1714145  66.9648735  83.2434366 101.7297087  67.3040832
  84.0165242 101.1826074  67.1653708  83.5959765 102.5941336  67.5155293
  85.0819409 103.0573469  80.5107731  84.7909275 103.9619100  80.3954398
  85.7176393 103.0989997  81.2251801  86.0075616 100.4350318  77.1009091
  86.6039188 100.2106340  76.3866054  86.0650587  99.6935063  77.7034539
  85.5800644  97.8889753  64.9359282  85.8326165  97.3671274  64.1742745
  84.6425203  97.7255899  65.0385965  90.6243927  96.8925531  72.7434025
  91.4107016  96.4744955  72.3924442  90.8882631  97.7971624  72.9115673
  90.7954004 102.3298382  67.4422682  90.1599837 102.4033008  68.1543586
  90.4651411 102.9191981  66.7641761  96.0252354  96.8300765  73.6467004
  96.7577526  96.2599981  73.8804833  95.2691710  96.4422365  74.0873509
  85.2996933  99.7917859  67.1383657  85.1833191  99.1162762  67.8064741
  85.4099193  99.3050233  66.3215810  87.6428474  99.2528006  70.8430346
  87.2786681  98.7258627  71.5543267  88.4995590  98.8626475  70.6696831
  93.5477774  90.5422339  78.1061612  93.2161099  91.4117750  77.8822827
  92.9523388  90.2258623  78.7855643  87.2833961  94.2817906  65.8391695
  87.4508363  95.1498142  66.2062166  87.0931130  94.4445188  64.9152984
  90.0409294 102.7434885  77.5057525  89.7410017 103.6459924  77.3973332
  89.6960353 102.4767068  78.3578678  83.4921775  99.1948682  73.5394229
  82.5672272  99.0624896  73.7471921  83.7406188  99.9742901  74.0364172
  93.4406438  95.2617425  75.1854962  92.5323315  95.1932833  74.8913723
  93.3894033  95.7389370  76.0136788  87.2623181  96.7375563  66.8238361
  87.1422807  97.1832614  67.6623842  86.5675770  97.0860881  66.2651899
  80.8530586  98.8381955  74.3738018  80.9822967  99.0916434  75.2877430
  80.1728038  99.4309663  74.0542673  85.0230074 109.5079205  70.4728493
  84.9454103 110.4587030  70.5516973  84.4191717 109.1625078  71.1303419
  87.5147303  96.6807070  83.1289859  86.7380637  97.2400991  83.1192724
  88.1537866  97.1663853  83.6504730  95.3068084  93.4633863  76.9632836
  94.6642464  93.7566396  76.3172631  94.8023012  93.3486784  77.7686033
  92.9608248  97.2097037  67.6518695  93.8726104  97.4424423  67.4766393
  92.4517895  97.7934081  67.0893774  85.7693676  99.4892524  82.6907826
  86.5108360 100.0277568  82.4142650  85.0630661 100.1158813  82.8479378
  91.2449015 101.6321664  81.2879988  91.6532371 101.1904075  80.5434620
  90.5226277 101.0574292  81.5414181  87.5980085  96.5694271  78.6613545
  88.4441281  96.9933685  78.8048194  87.5378723  95.9127895  79.3552108
  91.5677830 102.1922855  75.0432277  90.9386692 102.3568569  74.3408345
  91.1803492 102.6064465  75.8143241  95.4467062 103.1277293  72.3976641
  94.7618100 103.5076194  71.8473674  95.5310911 103.7372619  73.1308588
  90.7479531  94.2298639  80.3194719  90.5040463  94.9840700  79.7828994
  91.0239461  94.6083987  81.1541966  92.7017993 100.7737252  78.9971984
  92.9134889 101.4169012  78.3206365  92.6547742  99.9399568  78.5293914
  90.3044222  93.3855072  75.9008556  89.4428701  93.6836326  76.1925294
  90.3306657  93.6025471  74.9689589  87.1205792 101.9297263  72.3082362
  87.5844137 102.2084966  71.5186984  86.8562590 101.0280708  72.1255453
  84.0129873 101.4768745  75.2462125  84.5831230 101.9056013  74.6079610
  84.6037985 101.1951329  75.9446311  86.0574678  98.0520415  69.1171927
  86.7598721  98.5041459  69.5845853  85.7255306  97.4104234  69.7451820
  84.5055039  96.6432172  83.4923136  83.8753700  97.3248453  83.7258533
  84.3991127  96.5315254  82.5476275  79.8000012  96.3103968  74.4189061
  79.0099066  96.5661497  73.9429171  80.2911259  97.1252306  74.5241101
  93.8163821 103.6509207  77.1694341  94.6381265 103.2489395  76.8877023
  93.8126224 103.5477441  78.1210457  81.7514757  96.6748547  71.3772537
  80.9545920  96.7867242  71.8956033  81.5240349  97.0135200  70.5113428
  87.5820425 103.1993251  79.3255052  87.6464857 103.6613658  80.1613224
  86.8731349 102.5690615  79.4537362  78.0837715  96.5634459  76.8504051
  78.3345753  97.4481468  77.1161627  78.6197263  96.3839060  76.0779143
 101.9069814  99.9947956  73.5179313 101.1533523  99.4255354  73.3623317
 102.0417356  99.9610620  74.4649948  87.2968442 104.8661358  69.1934032
  87.1614117 105.7112894  69.6218880  87.8378255 105.0680636  68.4299966
  83.7835782  90.9452938  85.8548388  83.3902728  90.3919136  86.5296032
  84.6001922  91.2563516  86.2454905  80.7497840 102.3836796  69.7661957
  81.2622360 103.1780046  69.9167522  81.4020553 101.6863087  69.6995559
  82.5592725 105.5002552  71.8484711  82.7359353 106.4220517  71.6605694
  83.3549558 105.1860972  72.2779090  86.7003743  92.3610817  83.4468644
  87.4413456  92.9617970  83.3673107  86.9321666  91.6188455  82.8886687
  81.8445081  97.5467184  81.7246874  81.7298596  96.6452441  82.0253973
  80.9889599  97.7930881  81.3731690  88.9236919 105.4884925  83.3234374
  88.4800773 104.7021303  83.0055279  89.5854132 105.6764075  82.6578265
  83.6824040 107.0180726  77.8495053  84.2331465 106.8897789  77.0772047
  82.8435516 107.3175615  77.4989946  91.0218157 105.7687724  81.3515776
  91.0036632 106.5896606  80.8596045  91.9438077 105.6441800  81.5765917
  87.4791211 103.2831854  82.1939284  88.0119548 102.5220142  81.9638592
  86.9505292 102.9905506  82.9363439  90.6460906  88.3891920  77.7232926
  90.3025175  89.2793562  77.6472036  91.0139869  88.1993578  76.8602511
  78.7146757 100.7125450  70.5421528  79.5521979 101.1222459  70.3255236
  78.8925024  99.7724893  70.5121722  90.6111189  98.3800531  66.2305361
  90.0957812  99.1505136  66.4693748  90.3388497  97.7065667  66.8538422
  85.9700332  90.8435305  74.6948341  86.8353329  90.6478113  74.3354230
  86.0377841  90.6145657  75.6217698  95.5845463 101.1332886  68.1658534
  94.8074906 100.7944045  67.7213696  96.2636944 101.1385509  67.4913499
  90.3997492  96.2527623  68.0565142  90.0947627  96.5673772  68.9075285
  91.3527934  96.3309043  68.0992475  88.8443924 102.4117846  69.7058096
  88.3165285 101.6770606  69.3931334  88.3431426 103.1892523  69.4598064
  93.8236770 100.6066867  74.8225142  93.1660444 101.2966128  74.9105271
  94.6277169 100.9963299  75.1659129  83.5762651  93.0737513  72.0664708
  84.1506403  92.8512694  71.3337901  84.1633634  93.1426207  72.8193309
  92.6342229  98.9611240  72.8729084  93.1474110  99.5941231  73.3750794
  93.2843452  98.3612435  72.5072444  83.9032238  95.1041974  66.0860593
  83.0669551  95.4416660  66.4069868  83.7637008  94.9690954  65.1487730
  85.8785319  89.9478762  70.7939777  85.2249731  89.6327779  70.1696392
  85.8365793  89.3254502  71.5199600  86.9896524 100.2298057  62.7093069
  86.0823586  99.9987310  62.9084218  87.4867556  99.4335676  62.8967051
  89.8964603 108.9395564  65.6289755  89.2226302 109.2427261  66.2374713
  90.2830425 109.7424644  65.2795212  89.1123059  96.4360695  75.1187425
  88.1945621  96.6575642  74.9609113  89.5283203  96.5107006  74.2599132
  89.8958107  97.8352111  70.2490105  90.6429926  98.3473508  69.9397227
  90.1649697  97.5136164  71.1094498  88.1684757 100.3310652  67.2317059
  87.2595977 100.0469684  67.3289529  88.1979841 100.7509730  66.3720366
  93.4004025 103.9417241  71.0008227  92.9466352 103.1008151  71.0573417
  92.7697992 104.5778639  71.3383007  92.3436944  94.8709227  72.2308894
  91.6059701  94.3586613  72.5619137  92.5963718  94.4309609  71.4192171
  91.8436964 105.7793738  71.9358045  92.1359938 106.3398795  71.2170411
  92.3535585 106.0722299  72.6911204  92.4448572  87.6485479  72.8250663
  92.7507448  86.7882843  72.5376579  93.1701177  88.2403099  72.6249657
  78.7372928  98.0516166  71.2132261  78.5397328  97.4585526  70.4883328
  78.1819592  97.7468376  71.9308200  86.7169651  97.9439272  73.3326855
  86.7718261  96.9913109  73.2569331  85.9060853  98.0998711  73.8168153
  87.8660845 101.8719395  64.5705138  87.4280275 101.1555254  64.1110775
  88.6071286 102.0995510  64.0090229  84.6562011  96.5616332  71.0917233
  83.8429877  96.8610502  71.4982426  85.1521006  96.1672021  71.8091716
  86.8070589 106.5574089  73.0251498  86.7646768 106.7834935  72.0960030
  87.7233288 106.3237463  73.1737299  90.2536223  97.0258156  79.9232127
  90.6085611  97.2529630  80.7826593  90.9008354  97.3576533  79.3009383
  95.9833960 100.1476592  70.6281456  95.8451859 100.3378188  69.7002646
  95.6270179 100.9095975  71.0849507  84.1476086  94.1334687  76.7078468
  84.7875465  93.9923447  76.0101432  83.3153617  93.8469201  76.3317070
  96.0103340 102.2153119  75.6392728  96.4439846 102.1228408  76.4875782
  96.7234920 102.1910620  75.0012744  84.9236390 103.4337118  72.8213461
  85.7176989 102.9387438  72.6196036  84.2128082 102.9054981  72.4581166
  89.7431234 105.8155213  77.1725828  89.7968257 106.3846150  77.9403544
  88.8746016 105.9857098  76.8079866  81.2319153  97.5780200  68.8973213
  80.3016742  97.5164655  69.1143176  81.3276625  97.0556152  68.1009855
  81.1504703  94.1035012  71.4851455  81.4111520  95.0180346  71.3760616
  81.9721875  93.6359455  71.6348068  82.6229628  95.5172770  78.6550280
  83.2952681  95.3090132  78.0062929  81.7959414  95.3194856  78.2155512
  96.8718889 102.2576820  78.1725613  97.0654779 103.1622630  78.4184888
  96.7719507 101.7984239  79.0064198  88.5255200  92.1434711  80.6715941
  87.8783115  92.8424660  80.5780417  89.2956215  92.5770854  81.0392189
  91.9333998 102.4083563  83.7466494  91.7819504 102.1794114  82.8296578
  91.9238677 103.3654164  83.7597839  88.7019334  99.9815475  78.7312760
  89.6311394 100.1326635  78.5581728  88.2810364 100.0699496  77.8761407
  87.5007666 104.0066140  76.5011298  87.3618752 103.6384924  77.3737236
  86.7122262 104.5213779  76.3295256  88.0955818 109.1075236  67.8436834
  88.2707574 108.6363279  68.6582457  87.4088606 109.7341003  68.0718095
  89.0512881 103.3847743  73.8900136  88.7162714 103.3448513  74.7857786
  88.5516827 102.7192458  73.4170546  83.0257125  98.7915373  79.4152717
  82.8876923  98.0595611  80.0164256  83.9362049  98.7024273  79.1336905
  91.9872073 100.7303777  64.1637195  91.3701243 100.0050605  64.0670248
  91.5188561 101.4913137  63.8204270  85.6539426  98.5035332  78.9036397
  86.3639044  97.8628524  78.8623015  85.6108734  98.7548227  79.8262577
  93.6426204 105.4402685  81.8242976  93.5838751 104.7561905  81.1573559
  94.0445723 106.1821675  81.3723602  84.3668360  95.4900550  80.7232036
  83.8305717  95.0391288  81.3753632  83.7785068  95.6246459  79.9802500
  82.6616903 112.2564599  74.6176695  82.9013501 112.8883123  75.2955713
  81.8186100 111.9052639  74.9042054  83.7770619  94.9489201  63.2858500
  82.9000085  94.8278002  62.9220746  84.2528372  94.1575279  63.0337388
  93.6443612 103.4042269  80.0556955  92.7570390 103.0668191  80.1783354
  94.2142163 102.6725300  80.2925721  75.2972759  99.7366361  73.3800007
  75.9843799  99.4228091  72.7921022  75.1420888 100.6407726  73.1067258
  80.1007481  94.6256557  77.8085030  80.0165670  94.0182227  77.0735440
  79.2790187  95.1165576  77.8094527  87.1744765 108.0643722  77.0218199
  87.1014937 108.8698693  77.5337503  86.7322158 108.2635687  76.1966220
  86.9634545 107.3015492  70.5321020  86.1802067 107.8437172  70.6259245
  87.6627290 107.8189471  70.9315261  90.2731195  93.1110121  73.1755226
  90.7699894  92.3580083  72.8556296  89.5018176  93.1474438  72.6098435
  98.1260952  98.8150487  74.8173517  98.1150829  99.6975202  74.4467450
  97.2578332  98.4622037  74.6228054  89.6343449 107.9630556  79.1776357
  90.3471421 108.5978020  79.1052259  89.1433477 108.0594422  78.3616359
  91.3560976 101.8681808  70.7493649  90.4217254 101.9883271  70.5798353
  91.5337644 100.9654275  70.4853659  86.8566164  95.2527504  72.9026910
  86.4863951  94.6998544  73.5907816  87.3525256  94.6485637  72.3501910
  94.7433527  97.7099128  71.2843683  95.2093979  98.5427119  71.2103986
  95.1941027  97.2444109  71.9888942  84.6855362 105.7124999  79.9981928
  85.3864822 106.3461482  80.1511322  84.2150477 106.0539731  79.2377567
  92.8109758 104.0542949  68.2829835  93.0869602 103.9399543  69.1923709
  91.9414257 103.6560434  68.2442008  92.7150190  90.0779714  75.3234584
  91.8013269  90.3083941  75.4916791  93.1443291  90.1618159  76.1748617
  92.4856648  98.2669606  77.8234478  91.8328098  98.5145514  77.1686931
  92.8637028  97.4533745  77.4896956  89.4463822 108.3029300  71.9262649
  89.6286217 107.4850956  72.3890401  90.2696808 108.5196992  71.4887539
  89.7805988 107.2297485  69.1877697  90.3093754 106.7189939  68.5747859
  90.0434207 106.9140015  70.0523230  88.5344221  99.0089418  84.3100516
  87.8584858  98.9083547  84.9802891  89.3571855  98.8528631  84.7736513
  80.2823080 105.2461354  76.9313031  80.8676517 104.5005042  77.0640935
  80.0847919 105.5565311  77.8149695  83.1361735 108.2812601  71.9475473
  82.4672111 108.7658729  71.4639513  82.9974605 108.5281822  72.8618852
  74.8740735  97.8166954  75.6517474  74.9124834  97.2830545  76.4454592
  74.3681028  97.2902160  75.0328451  87.2767004 110.3156345  78.5458131
  87.8285312 110.4787966  79.3107217  87.6173198 110.9060783  77.8738156
  82.2531497  92.6631495  79.1480016  82.3172824  93.5246326  78.7357414
  82.1898618  92.0505496  78.4152375  81.7283770  94.7354627  82.7953050
  82.3555809  94.3531705  83.4090575  80.8711689  94.5168829  83.1608743
  92.1277878 105.1417602  84.4006786  92.6717782 105.7547561  83.9061741
  91.5464723 105.6997181  84.9173799  78.5049313  96.5431056  68.7271405
  78.8002754  95.6341735  68.6738459  77.6037348  96.5218796  68.4052408
  90.4135391 108.2638320  75.5321814  90.2886531 107.4628060  75.0232759
  91.0714482 108.7584514  75.0435784  82.0343560  94.6187053  74.7098954
  81.3130145  95.2323021  74.5706427  82.8236815  95.1544818  74.6315600
  92.4770300 106.0647341  77.1601364  91.5300635 105.9452692  77.0879690
  92.8253073 105.1769839  77.2427625  84.8369873  91.9541479  80.9839606
  85.3604275  92.2003776  81.7465915  84.6182206  92.7861514  80.5642743
  80.2337154  94.2245154  68.8510730  79.9049860  93.3442533  68.6685836
  80.5876525  94.1692823  69.7387120  89.4816733 105.8600057  73.3605716
  89.3341695 104.9316764  73.5413286  90.3070227 105.8820148  72.8762791
  93.0850855 106.6828616  74.4470589  94.0097402 106.4771477  74.3095040
  92.9166158 106.4345017  75.3559930  86.0422418  92.8955175  78.6689276
  85.7019238  92.0962988  79.0709956  85.3361424  93.1956885  78.0966109
  86.6938890  89.9804487  77.1216599  87.5164959  89.5064965  76.9995490
  86.9376953  90.7594971  77.6215285  85.3347124  93.0092745  67.4179501
  86.0555487  93.3873998  66.9143218  84.7112429  93.7281622  67.5214479
  89.4778247  93.7137894  68.3537833  89.6941862  94.5962532  68.0526661
  88.9972314  93.3224108  67.6243475  84.2177469  96.6723608  74.9308578
  84.0722049  96.9863911  75.8232859  83.7402672  97.2908508  74.3779476
  86.0773852  93.6626156  74.9789467  86.0635420  92.7667249  74.6421765
  86.7946280  93.6696819  75.6127753  87.9299982  94.0963496  77.0242595
  87.6717760  95.0180567  77.0226925  87.3985023  93.6993930  77.7143059
  92.8746171 107.2014283  69.8032680  93.0483049 106.6360705  69.0506533
  93.3675062 108.0015178  69.6212170  78.6923131  99.2128952  77.8696239
  78.1476599  99.9888760  78.0016513  79.5702481  99.5599757  77.7115360
  85.4810748  92.5440536  70.2477037  85.6026659  91.6157182  70.4467925
  85.1912790  92.5579222  69.3355353  88.3501938  90.2295446  73.3843757
  88.3723635  90.2934779  72.4295737  88.7669997  89.3899955  73.5784263
  98.7285562  99.9650706  71.4222980  99.1716708  99.2158031  71.0242103
  97.8512073  99.9560842  71.0396712  93.8621344 106.5181047  66.9029578
  94.5572248 107.1387740  67.1216893  94.2044494 105.6676399  67.1781956
  79.4789153  98.3398848  80.7626396  78.7370889  98.4881484  81.3491026
  79.1581897  98.6007114  79.8993145  95.7612767 103.9680753  68.4316909
  96.2864091 104.3068026  67.7066229  95.6735119 103.0327768  68.2480044
  87.4232815 107.8814827  80.5606786  87.7319942 107.6363973  81.4329485
  88.2208297 108.0861465  80.0725656  87.4453427 110.0352736  72.7912162
  87.0058418 109.5429115  73.4845019  88.1961544 109.4925704  72.5504238
  79.9245766 106.2264277  72.7936790  80.7503786 105.9268049  72.4135434
  79.5739818 105.4571899  73.2426579  84.8927300 105.5790745  74.8634464
  84.2707309 104.9161450  74.5636692  85.5632166 105.6051877  74.1808112
  78.1254371 104.1450604  73.7525724  77.2886280 103.7172778  73.5709725
  78.0978017 104.3383047  74.6896515  84.9651827  94.0572533  84.4566970
  85.0139983  94.9334656  84.0744740  85.5074341  93.5149926  83.8838613
  95.4506673 104.6013657  83.7368107  94.6602216 104.5837795  83.1972607
  95.2140027 105.1401950  84.4917144  95.5704548 101.4506123  81.0500836
  95.6202553 101.2856130  81.9916359  95.4618471 100.5833382  80.6598716
  84.4540806 104.1294669  68.3392925  84.6028927 104.8130133  67.6859597
  85.2607250 104.1099759  68.8542380  92.8608310  97.4337051  82.3660142
  93.7618173  97.2943516  82.0744140  92.9356285  97.5991506  83.3058320
  87.1951116  94.8103906  81.2113329  86.3254425  95.1037472  80.9395917
  87.4310596  95.3944351  81.9320592  97.0722745 103.8703064  81.2942857
  96.7807553 104.2333045  82.1306318  96.4594876 103.1570073  81.1156189
  98.2718427 101.4355944  73.8145427  99.1065318 101.8745748  73.9782988
  98.4077556 100.9594597  72.9953673  95.3209933  98.9935679  79.7622915
  95.7964054  99.1863325  78.9541767  94.3975498  99.0494865  79.5166299
  82.2093439 100.1559846  69.3453994  81.9639481  99.2522176  69.5434204
  82.3789354 100.1576997  68.4033472  89.8990149  91.0283523  78.7278749
  90.4172093  91.7644550  78.4025238  89.5445282  91.3347516  79.5625508
  81.4789087  95.8888204  66.8440155  80.7858332  95.9632559  66.1880191
  81.2340839  95.1248547  67.3661672  87.9536212 106.6242799  65.8104672
  87.3810179 107.2432986  65.3575144  88.5269006 107.1742161  66.3444594
  94.0211602  95.8701439  77.9951221  94.9729025  95.9699537  78.0163445
  93.8515052  95.0779708  78.5049305  92.0425981  92.9557022  78.1810622
  91.4475913  93.2362035  77.4857110  91.7575678  93.4450923  78.9527363
  91.1733472 106.9079949  66.9413254  92.1064145 106.8425511  67.1446130
  91.0856685 107.7436216  66.4827787  93.8021488 106.2245820  63.9017202
  93.7235120 105.8905683  64.7952960  94.6231155 106.7167587  63.9008674
  96.4999680  99.0907559  77.1093520  96.4676000  98.1523560  77.2953204
  97.1100303  99.1691596  76.3759345  88.3383010  97.9603612  63.1520725
  89.2842115  97.8309820  63.2209143  87.9597255  97.2218274  63.6290153
  96.6494168  95.8818602  77.1551804  96.1333217  95.0977059  76.9681733
  97.5334117  95.5537319  77.3198323  94.3104895  89.6259618  73.1147616
  94.1129716  89.3174706  73.9990948  94.9204601  90.3521257  73.2445546
 102.3176229 100.1523566  76.2499557 103.0479618  99.8908854  76.8107261
 101.7083175  99.4152288  76.2901625 100.3991527  98.2931428  76.8474008
  99.6724690  98.1587393  76.2390500  99.9838813  98.6008257  77.6530727
  88.2221703 102.0121358  84.6121382  89.1424713 102.1899957  84.8061428
  88.1871286 101.0677403  84.4601081  86.5225928  95.8853588  63.0875610
  85.6157383  95.5886701  63.1638323  86.8001909  95.5883406  62.2209896
  77.4403868  97.2059952  73.5374656  77.1206652  96.3525260  73.2449030
  76.8937296  97.4208530  74.2932623  81.2183776  99.9222393  77.2544163
  81.4369785 100.8539500  77.2732196  81.6309549  99.5630367  78.0398967
  88.1387993  90.4290478  69.2419851  87.3288722  90.0837563  69.6175097
  88.8272410  90.1198022  69.8307463  86.0911641  95.4955598  86.6446912
  85.9908368  96.4449955  86.5759003  85.8733183  95.1673837  85.7722982
  85.2924712  92.7440523  63.2287589  86.1543876  93.0695422  63.4883406
  85.4775056  91.9572019  62.7160655  77.3092128 100.8262863  75.5067778
  76.6155599 100.4116816  74.9937732  78.0565119 100.8683400  74.9101197
  93.4457349  91.6169050  70.3722812  92.8656018  92.2753854  69.9900864
  93.1793281  90.7946394  69.9610229  91.8960915  91.0174108  72.5744132
  92.3960693  91.1290642  71.7658451  92.5396523  90.7135160  73.2144941
  85.9542911  98.9252737  85.4611973  85.4709993  99.7253097  85.6675862
  86.0403850  98.9360682  84.5079417  79.2228871 100.7581117  73.3833793
  79.1999559 100.8568804  72.4315676  79.5329507 101.6046268  73.7050959
  81.8816248 102.8157272  77.4980407  82.8359502 102.7841214  77.4310339
  81.6828772 102.3547896  78.3130633  82.4715631 101.3858388  80.0651205
  83.2908520 101.8802467  80.0886042  82.7452438 100.4690356  80.0368772
  92.2282227  93.7769140  69.4279160  91.3408082  94.0618791  69.2099355
  92.6436216  93.6162904  68.5806437  95.5796763  93.8015661  73.1433499
  96.3557153  94.2912114  73.4158116  94.8544897  94.2273715  73.6005369
  98.0169322  94.5143280  74.2007440  98.6113812  94.2739016  73.4900748
  98.0895905  93.7950411  74.8280976  80.2366477 108.3576891  74.5150605
  80.1020945 107.5977292  73.9488603  79.8198539 109.0817791  74.0479394
  91.3725440 103.5413815  63.5227180  92.0761290 103.7463817  64.1384836
  90.6488089 104.1090577  63.7876264  92.2023251  99.2923676  69.6429450
  92.1458452  99.7492228  68.8037083  92.7551593  98.5314361  69.4652293
  96.0128056  95.0813408  70.4679570  95.7564991  94.6810044  71.2987778
  95.3880924  95.7957202  70.3429709 100.3240394  97.8209481  72.9750861
  99.7639952  97.8902671  73.7482423  99.7183898  97.6450466  72.2550358
  83.3935603 109.2546208  74.7269048  83.2767987 110.1991641  74.6247738
  82.5728049 108.9519770  75.1154847  93.2812138 103.9796344  65.5725640
  94.1157742 103.5477543  65.3903115  93.1196481 103.8078358  66.5002535
  92.9358030 100.4828457  66.9381980  92.8806834 100.3172729  65.9970424
  92.3104085 101.1904490  67.0944169  77.7250545  95.7196522  80.7643402
  78.3709408  95.2095476  81.2530627  77.5167696  96.4565203  81.3386827
  90.2503937 102.7877369  86.2635542  91.1195097 102.9618022  85.9022177
  89.7710688 103.6071786  86.1411272  86.2454155  89.9836566  66.5167298
  86.2332825  90.9278406  66.6735569  87.1377577  89.8006712  66.2226759
  84.4190117 109.9074470  77.9424976  85.3217364 109.9398081  78.2591471
  84.1927487 108.9774921  77.9571312  86.1743719 108.6605457  74.6035055
  85.2239350 108.6607318  74.4899427  86.4776205 107.9138191  74.0871089
  90.0606275  86.5779343  70.7713235  89.2938671  86.0237830  70.9169917
  90.4716980  86.6501212  71.6327386  82.0648036  92.8664139  84.8618416
  82.9279497  92.5100944  85.0721741  81.4913446  92.5278034  85.5493820
 101.9096413 114.4965995  75.6680817 102.5474823 114.3772743  74.9644157
 101.7917256 115.4446839  75.7268769  98.7186119 114.4493423  75.6042342
  98.3804631 114.3334488  74.7162877  99.5875887 114.0484588  75.5843348
  94.5772935 116.3028900  71.5939233  94.0137800 116.2118837  70.8255520
  94.4625330 115.4828804  72.0741725  99.2005902 115.6028275  81.5628547
  99.1894543 115.2081073  80.6909051  99.3626541 114.8694348  82.1562319
  92.1237367 117.7980091  74.4323453  92.9158659 117.4570916  74.0169752
  92.3634017 117.9075066  75.3525606  94.0828121 117.0589005  67.3040832
  94.8558997 116.5117992  67.1653708  94.4353519 117.9233254  67.5155293
  95.9213163 118.3865387  80.5107731  95.6303029 119.2911018  80.3954398
  96.5570148 118.4281914  81.2251801  96.8469370 115.7642235  77.1009091
  97.4432942 115.5398258  76.3866054  96.9044342 115.0226981  77.7034539
  96.4194398 113.2181671  64.9359282  96.6719919 112.6963192  64.1742745
  95.4818957 113.0547816  65.0385965 101.4637681 112.2217449  72.7434025
 102.2500770 111.8036872  72.3924442 101.7276386 113.1263541  72.9115673
 106.8646108 112.1592682  73.6467004 107.5971280 111.5891899  73.8804833
 106.1085464 111.7714283  74.0873509  96.1390687 115.1209777  67.1383657
  96.0226945 114.4454680  67.8064741  96.2492947 114.6342151  66.3215810
  98.4822228 114.5819924  70.8430346  98.1180435 114.0550545  71.5543267
  99.3389344 114.1918393  70.6696831 104.3871529 105.8714256  78.1061612
 104.0554853 106.7409667  77.8822827 103.7917142 105.5550540  78.7855643
  98.1227715 109.6109823  65.8391695  98.2902117 110.4790060  66.2062166
  97.9324884 109.7737105  64.9152984  94.3315530 114.5240599  73.5394229
  93.4066026 114.3916813  73.7471921  94.5799943 115.3034818  74.0364172
 104.2800192 110.5909343  75.1854962 103.3717069 110.5224751  74.8913723
 104.2287788 111.0681288  76.0136788  98.1016936 112.0667481  66.8238361
  97.9816561 112.5124532  67.6623842  97.4069524 112.4152799  66.2651899
  91.6924341 114.1673873  74.3738018  91.8216722 114.4208352  75.2877430
  91.0121792 114.7601581  74.0542673  98.3541058 112.0098988  83.1289859
  97.5774392 112.5692908  83.1192724  98.9931621 112.4955771  83.6504730
 106.1461838 108.7925781  76.9632836 105.5036219 109.0858314  76.3172631
 105.6416767 108.6778701  77.7686033 103.8002002 112.5388954  67.6518695
 104.7119858 112.7716341  67.4766393 103.2911649 113.1225998  67.0893774
  96.6087430 114.8184442  82.6907826  97.3502114 115.3569486  82.4142650
  95.9024416 115.4450730  82.8479378 102.0842770 116.9613582  81.2879988
 102.4926126 116.5195993  80.5434620 101.3620031 116.3866210  81.5414181
  98.4373840 111.8986189  78.6613545  99.2835035 112.3225602  78.8048194
  98.3772477 111.2419813  79.3552108 101.5873285 109.5590557  80.3194719
 101.3434217 110.3132618  79.7828994 101.8633216 109.9375905  81.1541966
 101.1437977 108.7146990  75.9008556 100.2822456 109.0128244  76.1925294
 101.1700412 108.9317389  74.9689589  97.9599546 117.2589181  72.3082362
  98.4237892 117.5376884  71.5186984  97.6956344 116.3572625  72.1255453
  94.8523627 116.8060662  75.2462125  95.4224984 117.2347931  74.6079610
  95.4431739 116.5243247  75.9446311  96.8968432 113.3812333  69.1171927
  97.5992476 113.8333377  69.5845853  96.5649061 112.7396152  69.7451820
  95.3448794 111.9724090  83.4923136  94.7147454 112.6540371  83.7258533
  95.2384882 111.8607171  82.5476275  90.6393766 111.6395886  74.4189061
  89.8492820 111.8953414  73.9429171  91.1305014 112.4544224  74.5241101
  92.5908512 112.0040465  71.3772537  91.7939675 112.1159159  71.8956033
  92.3634104 112.3427117  70.5113428  98.4214179 118.5285168  79.3255052
  98.4858612 118.9905575  80.1613224  97.7125103 117.8982533  79.4537362
  88.9231469 111.8926376  76.8504051  89.1739508 112.7773386  77.1161627
  89.4591018 111.7130978  76.0779143  94.6229537 106.2744856  85.8548388
  94.2296482 105.7211054  86.5296032  95.4395677 106.5855434  86.2454905
  91.5891594 117.7128714  69.7661957  92.1016115 118.5071964  69.9167522
  92.2414307 117.0155004  69.6995559  93.3986479 120.8294470  71.8484711
  93.5753107 121.7512435  71.6605694  94.1943313 120.5152889  72.2779090
  97.5397498 107.6902735  83.4468644  98.2807211 108.2909888  83.3673107
  97.7715420 106.9480372  82.8886687  92.6838836 112.8759102  81.7246874
  92.5692351 111.9744359  82.0253973  91.8283353 113.1222799  81.3731690
  94.5217795 122.3472644  77.8495053  95.0725220 122.2189707  77.0772047
  93.6829270 122.6467533  77.4989946  98.3184966 118.6123772  82.1939284
  98.8513302 117.8512060  81.9638592  97.7899047 118.3197423  82.9363439
 101.4854661 103.7183838  77.7232926 101.1418930 104.6085479  77.6472036
 101.8533623 103.5285495  76.8602511  89.5540511 116.0417368  70.5421528
  90.3915733 116.4514376  70.3255236  89.7318779 115.1016810  70.5121722
 101.4504943 113.7092449  66.2305361 100.9351567 114.4797053  66.4693748
 101.1782252 113.0357585  66.8538422  99.0352054 108.5542149  71.2890599
  98.1793651 108.1649000  71.1096238  99.4479006 108.6334110  70.4290385
 100.5651201 106.0888493  75.6882159 100.0615996 106.0518628  74.8749964
 100.8581808 106.9981235  75.7478816  96.8094087 106.1727222  74.6948341
  97.6747084 105.9770031  74.3354230  96.8771596 105.9437574  75.6217698
 101.2391246 111.5819541  68.0565142 100.9341382 111.8965690  68.9075285
 102.1921689 111.6600961  68.0992475  99.6837678 117.7409764  69.7058096
  99.1559040 117.0062524  69.3931334  99.1825181 118.5184440  69.4598064
  94.4156406 108.4029430  72.0664708  94.9900158 108.1804612  71.3337901
  95.0027388 108.4718125  72.8193309 103.4735983 114.2903157  72.8729084
 103.9867865 114.9233149  73.3750794 104.1237207 113.6904353  72.5072444
  94.7425993 110.4333891  66.0860593  93.9063305 110.7708578  66.4069868
  94.6030763 110.2982871  65.1487730  96.7179074 105.2770679  70.7939777
  96.0643486 104.9619696  70.1696392  96.6759548 104.6546420  71.5199600
  97.8290278 115.5589974  62.7093069  96.9217340 115.3279228  62.9084218
  98.3261310 114.7627594  62.8967051  99.9516814 111.7652613  75.1187425
  99.0339375 111.9867560  74.9609113 100.3676958 111.8398923  74.2599132
 100.7351862 113.1644029  70.2490105 101.4823681 113.6765426  69.9397227
 101.0043451 112.8428081  71.1094498  99.0078512 115.6602569  67.2317059
  98.0989731 115.3761602  67.3289529  99.0373596 116.0801648  66.3720366
 103.1830699 110.2001145  72.2308894 102.4453456 109.6878531  72.5619137
 103.4357472 109.7601526  71.4192171 103.2842326 102.9777397  72.8250663
 103.5901203 102.1174760  72.5376579 104.0094931 103.5695017  72.6249657
  89.5766682 113.3808083  71.2132261  89.3791082 112.7877444  70.4883328
  89.0213346 113.0760294  71.9308200  97.5563406 113.2731190  73.3326855
  97.6112016 112.3205026  73.2569331  96.7454608 113.4290629  73.8168153
  98.7054600 117.2011313  64.5705138  98.2674030 116.4847172  64.1110775
  99.4465041 117.4287428  64.0090229  95.4955766 111.8908250  71.0917233
  94.6823631 112.1902420  71.4982426  95.9914760 111.4963938  71.8091716
 101.0929978 112.3550074  79.9232127 101.4479365 112.5821547  80.7826593
 101.7402109 112.6868451  79.3009383  94.9869841 109.4626605  76.7078468
  95.6269220 109.3215364  76.0101432  94.1547371 109.1761118  76.3317070
  95.7630145 118.7629036  72.8213461  96.5570743 118.2679356  72.6196036
  95.0521837 118.2346899  72.4581166  92.0712908 112.9072117  68.8973213
  91.1410496 112.8456573  69.1143176  92.1670380 112.3848070  68.1009855
  91.9898457 109.4326930  71.4851455  92.2505274 110.3472263  71.3760616
  92.8115629 108.9651373  71.6348068  93.4623382 110.8464687  78.6550280
  94.1346436 110.6382049  78.0062929  92.6353169 110.6486773  78.2155512
  99.3648954 107.4726628  80.6715941  98.7176869 108.1716578  80.5780417
 100.1349970 107.9062772  81.0392189  99.5413089 115.3107393  78.7312760
 100.4705149 115.4618553  78.5581728  99.1204119 115.3991414  77.8761407
  98.3401420 119.3358058  76.5011298  98.2012506 118.9676842  77.3737236
  97.5516017 119.8505697  76.3295256  99.8906636 118.7139660  73.8900136
  99.5556468 118.6740430  74.7857786  99.3910581 118.0484376  73.4170546
  93.8650880 114.1207290  79.4152717  93.7270678 113.3887529  80.0164256
  94.7755803 114.0316190  79.1336905 102.8265827 116.0595695  64.1637195
 102.2094998 115.3342523  64.0670248 102.3582316 116.8205055  63.8204270
  96.4933180 113.8327250  78.9036397  97.2032799 113.1920442  78.8623015
  96.4502488 114.0840144  79.8262577  95.2062114 110.8192467  80.7232036
  94.6699471 110.3683206  81.3753632  94.6178823 110.9538376  79.9802500
  94.6164373 110.2781119  63.2858500  93.7393840 110.1569920  62.9220746
  95.0922126 109.4867197  63.0337388  86.1366513 115.0658279  73.3800007
  86.8237553 114.7520009  72.7921022  85.9814642 115.9699643  73.1067258
  90.9401235 109.9548475  77.8085030  90.8559424 109.3474145  77.0735440
  90.1183942 110.4457493  77.8094527 101.1124949 108.4402039  73.1755226
 101.6093649 107.6872001  72.8556296 100.3411931 108.4766355  72.6098435
 102.1954730 117.1973726  70.7493649 101.2611009 117.3175188  70.5798353
 102.3731399 116.2946193  70.4853659  97.6959918 110.5819422  72.9026910
  97.3257706 110.0290462  73.5907816  98.1919011 109.9777555  72.3501910
 105.5827281 113.0391045  71.2843683 106.0487734 113.8719037  71.2103986
 106.0334782 112.5736027  71.9888942  95.5249117 121.0416917  79.9981928
  96.2258576 121.6753400  80.1511322  95.0544232 121.3831648  79.2377567
 103.5543944 105.4071632  75.3234584 102.6407024 105.6375859  75.4916791
 103.9837046 105.4910076  76.1748617 103.3250403 113.5961524  77.8234478
 102.6721853 113.8437432  77.1686931 103.7030783 112.7825662  77.4896956
  99.3737976 114.3381335  84.3100516  98.6978613 114.2375465  84.9802891
 100.1965610 114.1820549  84.7736513  91.1216835 120.5753272  76.9313031
  91.7070272 119.8296960  77.0640935  90.9241673 120.8857228  77.8149695
  85.7134489 113.1458872  75.6517474  85.7518589 112.6122463  76.4454592
  85.2074782 112.6194077  75.0328451  93.0925252 107.9923412  79.1480016
  93.1566578 108.8538243  78.7357414  93.0292372 107.3797414  78.4152375
  92.5677524 110.0646545  82.7953050  93.1949563 109.6823622  83.4090575
  91.7105443 109.8460747  83.1608743  89.3443067 111.8722974  68.7271405
  89.6396508 110.9633653  68.6738459  88.4431103 111.8510714  68.4052408
  92.8737314 109.9478971  74.7098954  92.1523900 110.5614938  74.5706427
  93.6630570 110.4836735  74.6315600  95.6763628 107.2833397  80.9839606
  96.1998029 107.5295694  81.7465915  95.4575961 108.1153432  80.5642743
  91.0730909 109.5537072  68.8510730  90.7443615 108.6734451  68.6685836
  91.4270279 109.4984740  69.7387120  94.1872732 109.8410042  69.2186208
  94.5268804 110.3695963  68.4964816  94.6344852 110.1790448  69.9944775
  96.8816173 108.2247092  78.6689276  96.5412993 107.4254905  79.0709956
  96.1755179 108.5248803  78.0966109  97.5332644 105.3096405  77.1216599
  98.3558714 104.8356883  76.9995490  97.7770708 106.0886888  77.6215285
  96.1740879 108.3384663  67.4179501  96.8949241 108.7165916  66.9143218
  95.5506183 109.0573540  67.5214479 100.3172002 109.0429812  68.3537833
 100.5335616 109.9254450  68.0526661  99.8366069 108.6516026  67.6243475
  95.0571223 112.0015525  74.9308578  94.9115804 112.3155828  75.8232859
  94.5796427 112.6200426  74.3779476  96.9167606 108.9918073  74.9789467
  96.9029175 108.0959167  74.6421765  97.6340034 108.9988737  75.6127753
  98.7693737 109.4255414  77.0242595  98.5111515 110.3472484  77.0226925
  98.2378777 109.0285848  77.7143059  89.5316885 114.5420870  77.8696239
  88.9870353 115.3180678  78.0016513  90.4096235 114.8891674  77.7115360
  96.3204502 107.8732454  70.2477037  96.4420413 106.9449100  70.4467925
  96.0306544 107.8871140  69.3355353  99.1895692 105.5587364  73.3843757
  99.2117389 105.6226697  72.4295737  99.6063751 104.7191873  73.5784263
  90.3182907 113.6690766  80.7626396  89.5764643 113.8173401  81.3491026
  89.9975652 113.9299032  79.8993145  90.7639521 121.5556195  72.7936790
  91.5897541 121.2559967  72.4135434  90.4133573 120.7863817  73.2426579
  95.7321054 120.9082663  74.8634464  95.1101063 120.2453368  74.5636692
  96.4025921 120.9343795  74.1808112  88.9648126 119.4742521  73.7525724
  88.1280034 119.0464696  73.5709725  88.9371771 119.6674965  74.6896515
  95.8045582 109.3864451  84.4566970  95.8533737 110.2626574  84.0744740
  96.3468096 108.8441844  83.8838613  95.2934561 119.4586586  68.3392925
  95.4422681 120.1422051  67.6859597  96.1001004 119.4391676  68.8542380
 103.7002065 112.7628969  82.3660142 104.6011927 112.6235433  82.0744140
 103.7750039 112.9283423  83.3058320  98.0344870 110.1395823  81.2113329
  97.1648179 110.4329389  80.9395917  98.2704350 110.7236268  81.9320592
  93.0487194 115.4851764  69.3453994  92.8033236 114.5814094  69.5434204
  93.2183108 115.4868914  68.4033472 100.7383904 106.3575440  78.7278749
 101.2565848 107.0936467  78.4025238 100.3839037 106.6639434  79.5625508
  92.3182841 111.2180122  66.8440155  91.6252086 111.2924476  66.1880191
  92.0734593 110.4540465  67.3661672 100.9896498 102.7775723  74.2479646
 101.2698252 102.1098912  74.8740072 101.7747105 102.9704818  73.7354310
 104.8605356 111.1993357  77.9951221 105.8122779 111.2991454  78.0163445
 104.6908807 110.4071625  78.5049305 102.8819736 108.2848940  78.1810622
 102.2869668 108.5653953  77.4857110 102.5969433 108.7742841  78.9527363
  99.1776765 113.2895530  63.1520725 100.1235870 113.1601738  63.2209143
  98.7991010 112.5510191  63.6290153 107.4887923 111.2110520  77.1551804
 106.9726971 110.4268977  76.9681733 108.3727871 110.8829237  77.3198323
 105.1498650 104.9551536  73.1147616 104.9523471 104.6466624  73.9990948
 105.7598355 105.6813174  73.2445546  99.0615458 117.3413276  84.6121382
  99.9818467 117.5191875  84.8061428  99.0265041 116.3969321  84.4601081
  97.3619682 111.2145506  63.0875610  96.4551138 110.9178619  63.1638323
  97.6395663 110.9175324  62.2209896  88.2797623 112.5351869  73.5374656
  87.9600407 111.6817177  73.2449030  87.7331051 112.7500447  74.2932623
  92.0577530 115.2514310  77.2544163  92.2763540 116.1831418  77.2732196
  92.4703304 114.8922285  78.0398967  98.9781748 105.7582396  69.2419851
  98.1682476 105.4129481  69.6175097  99.6666165 105.4489939  69.8307463
 100.9072296 104.8360442  70.8644148 101.4603335 105.2555896  71.5234171
 101.1442383 103.9096191  70.9067104  96.9305395 110.8247516  86.6446912
  96.8302122 111.7741873  86.5759003  96.7126937 110.4965755  85.7722982
  96.1318467 108.0732441  63.2287589  96.9937631 108.3987339  63.4883406
  96.3168811 107.2863937  62.7160655  88.1485883 116.1554781  75.5067778
  87.4549354 115.7408734  74.9937732  88.8958874 116.1975317  74.9101197
 104.2851103 106.9460968  70.3722812 103.7049772 107.6045772  69.9900864
 104.0187036 106.1238312  69.9610229 102.7354670 106.3466025  72.5744132
 103.2354448 106.4582560  71.7658451 103.3790278 106.0427078  73.2144941
  96.7936665 114.2544655  85.4611973  96.3103747 115.0545015  85.6675862
  96.8797604 114.2652600  84.5079417  90.0622625 116.0873035  73.3833793
  90.0393313 116.1860722  72.4315676  90.3723262 116.9338185  73.7050959
  92.7210003 118.1449190  77.4980407  93.6753256 118.1133132  77.4310339
  92.5222527 117.6839813  78.3130633  93.3109385 116.7150306  80.0651205
  94.1302274 117.2094384  80.0886042  93.5846193 115.7982274  80.0368772
 103.0675981 109.1061058  69.4279160 102.1801836 109.3910709  69.2099355
 103.4829970 108.9454821  68.5806437 106.4190517 109.1307579  73.1433499
 107.1950908 109.6204031  73.4158116 105.6938652 109.5565633  73.6005369
 108.8563076 109.8435198  74.2007440 109.4507567 109.6030934  73.4900748
 108.9289660 109.1242329  74.8280976  91.0760232 123.6868809  74.5150605
  90.9414700 122.9269210  73.9488603  90.6592294 124.4109709  74.0479394
 103.0417005 114.6215594  69.6429450 102.9852206 115.0784145  68.8037083
 103.5945347 113.8606278  69.4652293 106.8521811 110.4105326  70.4679570
 106.5958745 110.0101961  71.2987778 106.2274679 111.1249120  70.3429709
 103.7751784 115.8120375  66.9381980 103.7200588 115.6464647  65.9970424
 103.1497840 116.5196408  67.0944169  88.5644299 111.0488440  80.7643402
  89.2103163 110.5387393  81.2530627  88.3561450 111.7857121  81.3386827
  97.0847910 105.3128484  66.5167298  97.0726580 106.2570324  66.6735569
  97.9771332 105.1298630  66.2226759 100.9000029 101.9071261  70.7713235
 100.1332425 101.3529747  70.9169917 101.3110734 101.9793130  71.6327386
  92.9041790 108.1956057  84.8618416  93.7673252 107.8392861  85.0721741
  92.3307201 107.8569951  85.5493820  36.8733887  -0.4723388  62.3926124
  37.5112297  -0.5916641  61.6889464  36.7554730   0.4757456  62.4514076
  33.6823593  -0.5195960  62.3287648  33.3442105  -0.6354895  61.4408183
  34.5513362  -0.9204795  62.3088654  29.5410409   1.3339516  58.3184539
  28.9775274   1.2429453  57.5500827  29.4262804   0.5139421  58.7987032
  34.1643376   0.6338892  68.2873854  34.1532017   0.2391690  67.4154358
  34.3264016  -0.0995036  68.8807625  27.0874841   2.8290708  61.1568760
  27.8796133   2.4881533  60.7415059  27.3271491   2.9385683  62.0770913
  35.1209968   5.0010484  53.6299004  34.4697948   5.5864564  53.2433018
  35.9154331   5.5316679  53.6894042  29.0465595   2.0899621  54.0286139
  29.8196471   1.5428608  53.8899014  29.3990994   2.9543870  54.2400600
  30.8850637   3.4176003  67.2353038  30.5940503   4.3221634  67.1199704
  31.5207622   3.4592531  67.9497107  31.8106844   0.7952852  63.8254397
  32.4070417   0.5708874  63.1111360  31.8681816   0.0537597  64.4279845
  31.3831873  -1.7507713  51.6604588  31.6357393  -2.2726191  50.8988051
  30.4456432  -1.9141567  51.7631272  36.4275156  -2.7471934  59.4679332
  37.2138245  -3.1652511  59.1169749  36.6913860  -1.8425842  59.6360980
  36.5985233   2.6900916  54.1667989  35.9631066   2.7635542  54.8788893
  36.2682639   3.2794515  53.4887068  41.8283583  -2.8096701  60.3712310
  42.5608755  -3.3797484  60.6050140  41.0722938  -3.1975101  60.8118816
  31.1028161   0.1520393  53.8628963  30.9864420  -0.5234703  54.5310048
  31.2130421  -0.3347233  53.0461116  33.4459702  -0.3869460  57.5675653
  33.0817910  -0.9138839  58.2788574  34.3026818  -0.7770991  57.3942138
  35.8440523   3.1037419  64.2302832  35.5441246   4.0062458  64.1218639
  35.4991582   2.8369602  65.0823984  29.2953004  -0.4448784  60.2639536
  28.3703501  -0.5772570  60.4717228  29.5437417   0.3345435  60.7609478
  39.2437666  -4.3780041  61.9100269  38.3354544  -4.4464632  61.6159030
  39.1925262  -3.9008096  62.7382094  33.0654410  -2.9021902  53.5483668
  32.9454035  -2.4564852  54.3869148  32.3706999  -2.5536585  52.9897206
  30.8261302   9.8681739  57.1973799  30.7485332  10.8189564  57.2762280
  30.2222946   9.5227612  57.8548726  33.3178532  -2.9590395  69.8535166
  32.5411866  -2.3996475  69.8438031  33.9569095  -2.4733612  70.3750036
  41.1099313  -6.1763602  63.6878143  40.4673693  -5.8831069  63.0417937
  40.6054241  -6.2910682  64.4931339  38.7639476  -2.4300429  54.3764002
  39.6757333  -2.1973043  54.2011700  38.2549123  -1.8463385  53.8139081
  31.5724904  -0.1504942  69.4153133  32.3139589   0.3880102  69.1387957
  30.8661890   0.4761347  69.5724685  37.0480244   1.9924199  68.0125295
  37.4563600   1.5506609  67.2679927  36.3257506   1.4176826  68.2659488
  33.4011314  -3.0703195  65.3858852  34.2472509  -2.6463781  65.5293501
  33.3409952  -3.7269570  66.0797415  37.3709059   2.5525389  61.7677584
  36.7417921   2.7171103  61.0653651  36.9834721   2.9666999  62.5388548
  41.2498291   3.4879827  59.1221947  40.5649329   3.8678728  58.5718981
  41.3342140   4.0975154  59.8553895  36.5510759  -5.4098826  67.0440025
  36.3071691  -4.6556766  66.5074301  36.8270690  -5.0313479  67.8787272
  38.5049222   1.1339786  65.7217291  38.7166117   1.7771546  65.0451672
  38.4578970   0.3002103  65.2539221  36.1075451  -6.2542393  62.6253863
  35.2459930  -5.9561140  62.9170601  36.1337886  -6.0371994  61.6934896
  32.9237021   2.2899797  59.0327669  33.3875366   2.5687500  58.2432291
  32.6593819   1.3883242  58.8500759  29.8161102   1.8371279  61.9707432
  30.3862459   2.2658547  61.3324916  30.4069214   1.5553863  62.6691618
  31.8605907  -1.5877050  55.8417234  32.5629950  -1.1356007  56.3091160
  31.5286535  -2.2293232  56.4697127  39.6195050   4.0111741  63.8939648
  40.4412494   3.6091929  63.6122330  39.6157453   3.9079976  64.8455764
  33.3851654   3.5595785  66.0500359  33.4496086   4.0216192  66.8858530
  32.6762577   2.9293150  66.1782668  47.7101043   0.3550490  60.2424620
  46.9564752  -0.2142112  60.0868624  47.8448584   0.3213154  61.1895254
  33.0999671   5.2263892  55.9179339  32.9645346   6.0715428  56.3464187
  33.6409484   5.4283170  55.1545273  26.5529069   2.7439330  56.4907264
  27.0653589   3.5382581  56.6412829  27.2051781   2.0465621  56.4240866
  28.3623953   5.8605087  58.5730017  28.5390582   6.7823051  58.3851001
  29.1580787   5.5463506  59.0024397  34.7268148   5.8487459  70.0479681
  34.2832002   5.0623837  69.7300586  35.3885361   6.0366609  69.3823572
  29.4855269   7.3783260  64.5740360  30.0362694   7.2500324  63.8017353
  28.6466745   7.6778149  64.2235252  36.8249386   6.1290259  68.0761082
  36.8067861   6.9499140  67.5841351  37.7469306   6.0044334  68.3011223
  33.2822440   3.6434388  68.9184591  33.8150777   2.8822676  68.6883899
  32.7536521   3.3508040  69.6608745  36.4142418  -1.2596935  52.9550668
  35.8989041  -0.4892330  53.1939055  36.1419726  -1.9331799  53.5783729
  41.3876692   1.4935420  54.8903841  40.6106134   1.1546579  54.4459003
  42.0668173   1.4988043  54.2158806  36.2028721  -3.3869843  54.7810449
  35.8978856  -3.0723693  55.6320592  37.1559163  -3.3088423  54.8237782
  34.6475153   2.7720381  56.4303403  34.1196514   2.0373140  56.1176640
  34.1462655   3.5495057  56.1843371  39.6267999   0.9669401  61.5470449
  38.9691673   1.6568663  61.6350578  40.4308398   1.3565833  61.8904435
  38.4373457  -0.6786226  59.5974391  38.9505339  -0.0456234  60.0996100
  39.0874681  -1.2785031  59.2317751  32.7927753   0.5900591  49.4338376
  31.8854814   0.3589844  49.6329525  33.2898785  -0.2061790  49.6212357
  35.6995832   9.2998098  52.3535062  35.0257530   9.6029795  52.9620020
  36.0861654  10.1027178  52.0040519  34.9154288  -3.2036771  61.8432731
  33.9976850  -2.9821824  61.6854419  35.3314432  -3.1290460  60.9844439
  35.6989336  -1.8045355  56.9735412  36.4461155  -1.2923958  56.6642534
  35.9680926  -2.1261302  57.8339805  33.9715986   0.6913186  53.9562366
  33.0627205   0.4072219  54.0534836  34.0011070   1.1112264  53.0965673
  39.2035254   4.3019775  57.7253533  38.7497581   3.4610685  57.7818724
  38.5729220   4.9381174  58.0628314  38.1468173  -4.7688239  58.9554201
  37.4090930  -5.2810852  59.2864443  38.3994947  -5.2087857  58.1437478
  37.6468193   6.1396272  58.6603352  37.9391167   6.7001329  57.9415717
  38.1566813   6.4324833  59.4156511  32.5200880  -1.6958194  60.0572161
  32.5749490  -2.6484357  59.9814638  31.7092082  -1.5398755  60.5413460
  33.6692074   2.2321929  51.2950444  33.2311504   1.5157788  50.8356082
  34.4102515   2.4598044  50.7335536  32.6101818   6.9176623  59.7496805
  32.5677997   7.1437469  58.8205337  33.5264517   6.6839998  59.8982606
  36.0567452  -2.6139309  66.6477434  36.4116840  -2.3867836  67.5071900
  36.7039583  -2.2820933  66.0254689  41.7865189   0.5079126  57.3526763
  41.6483087   0.6980722  56.4247952  41.4301408   1.2698509  57.8094814
  41.8134568   2.5755653  62.3638034  42.2471075   2.4830943  63.2121089
  42.5266149   2.5513154  61.7258050  30.7267619   3.7939652  59.5458767
  31.5208217   3.2989972  59.3441342  30.0159311   3.2657515  59.1826473
  35.5462463   6.1757748  63.8971135  35.5999486   6.7448684  64.6648851
  34.6777245   6.3459633  63.5325172  42.6750118   2.6179354  64.8970920
  42.8686008   3.5225165  65.1430195  42.5750736   2.1586773  65.7309505
  37.7365227   2.7686097  70.4711800  37.5850733   2.5396649  69.5541884
  37.7269906   3.7256698  70.4843145  34.5050563   0.3418010  65.4558067
  35.4342623   0.4929169  65.2827034  34.0841593   0.4302030  64.6006713
  33.3038895   4.3668674  63.2256605  33.1649981   3.9987458  64.0982543
  32.5153491   4.8816313  63.0540562  33.8987047   9.4677771  54.5682141
  34.0738802   8.9965814  55.3827764  33.2119835  10.0943537  54.7963402
  34.8544110   3.7450277  60.6145442  34.5193943   3.7051047  61.5103092
  34.3548056   3.0794993  60.1415853  28.8288354  -0.8482093  66.1398023
  28.6908152  -1.5801854  66.7409563  29.7393277  -0.9373193  65.8582211
  37.7903302   1.0906311  50.8882502  37.1732472   0.3653139  50.7915555
  37.3219790   1.8515671  50.5449576  31.4570655  -1.1362134  65.6281703
  32.1670273  -1.7768942  65.5868322  31.4139963  -0.8849239  66.5507884
  39.4457433   5.8005219  68.5488282  39.3869979   5.1164440  67.8818865
  39.8476952   6.5424209  68.0968908  28.4648132  12.6167133  61.3422001
  28.7044730  13.2485657  62.0201020  27.6217329  12.2655173  61.6287360
  39.4474841   3.7644803  66.7802262  38.5601619   3.4270725  66.9028661
  40.0173392   3.0327835  67.0171027  32.9775994   8.4246256  63.7463505
  32.9046165   9.2301227  64.2582810  32.5353387   8.6238222  62.9211527
  32.7665774   7.6618026  57.2566327  31.9833295   8.2039706  57.3504551
  33.4658519   8.1792005  57.6560568  36.0762424  -6.5287345  59.9000532
  36.5731123  -7.2817382  59.5801602  35.3049405  -6.4923028  59.3343741
  43.9292181  -0.8246979  61.5418824  43.9182057   0.0577736  61.1712757
  43.0609561  -1.1775428  61.3473361  35.4374677   8.3233090  65.9021664
  36.1502650   8.9580555  65.8297565  34.9464706   8.4196956  65.0861666
  37.1592204   2.2284342  57.4738956  36.2248483   2.3485805  57.3043660
  37.3368873   1.3256809  57.2098965  40.5464756  -1.9298338  58.0088990
  41.0125208  -1.0970347  57.9349292  40.9972256  -2.3953357  58.7134248
  30.4886591   6.0727533  66.7227235  31.1896050   6.7064016  66.8756629
  30.0181706   6.4142265  65.9622874  38.6140987   4.4145483  55.0075142
  38.8900831   4.3002078  55.9169016  37.7445486   4.0162968  54.9687315
  38.2887877  -1.3727859  64.5479785  37.6359327  -1.1251952  63.8932238
  38.6668257  -2.1863721  64.2142262  35.2495051   8.6631834  58.6507955
  35.4317445   7.8453490  59.1135708  36.0728037   8.8799526  58.2132845
  35.5837216   7.5900019  55.9123004  36.1124983   7.0792474  55.2993166
  35.8465436   7.2742549  56.7768537  34.3375450  -0.6308048  71.0345822
  33.6616087  -0.7313919  71.7048197  35.1603084  -0.7868835  71.4981819
  26.0854309   5.6063888  63.6558337  26.6707746   4.8607576  63.7886242
  25.8879148   5.9167845  64.5395001  28.9392964   8.6415136  58.6720780
  28.2703340   9.1261263  58.1884820  28.8005834   8.8884356  59.5864158
  33.0798233  10.6758879  65.2703438  33.6316541  10.8390501  66.0352523
  33.4204426  11.2663317  64.5983463  37.9309107   5.5020137  71.1252093
  38.4749011   6.1150095  70.6307047  37.3495952   6.0599715  71.6419106
  36.2166620   8.6240855  62.2567120  36.0917760   7.8230595  61.7478066
  36.8745711   9.1187048  61.7681090  38.2801529   6.4249875  63.8846670
  37.3331864   6.3055226  63.8124997  38.6284302   5.5372373  63.9672932
  35.2847962   6.2202591  60.0851023  35.1372924   5.2919298  60.2658593
  36.1101455   6.2422682  59.6008098  38.8882084   7.0431150  61.1715895
  39.8128631   6.8374011  61.0340346  38.7197387   6.7947551  62.0805237
  38.6777400   7.5616817  56.5277987  38.8514277   6.9963240  55.7751839
  39.1706291   8.3617712  56.3457477  44.5316791   0.3253240  58.1468287
  44.9747937  -0.4239435  57.7487410  43.6543301   0.3163376  57.7642019
  39.6652572   6.8783582  53.6274885  40.3603477   7.4990274  53.8462200
  40.0075722   6.0278933  53.9027263  41.5643995   4.3283287  55.1562216
  42.0895320   4.6670560  54.4311536  41.4766348   3.3930302  54.9725350
  33.2264044   8.2417361  67.2852092  33.5351171   7.9966508  68.1574792
  34.0239526   8.4463999  66.7970963  33.2484656  10.3955270  59.5157469
  32.8089647   9.9031649  60.2090326  33.9992773   9.8528238  59.2749544
  25.7276995   6.5866811  59.5182097  26.5535015   6.2870583  59.1380741
  25.3771047   5.8174434  59.9671886  30.6958528   5.9393279  61.5879771
  30.0738538   5.2763985  61.2881999  31.3663395   5.9654411  60.9053418
  23.9285600   4.5053138  60.4771031  23.0917509   4.0775312  60.2955032
  23.9009246   4.6985581  61.4141822  41.2537902   4.9616191  70.4613414
  40.4633445   4.9440330  69.9217913  41.0171256   5.5004484  71.2162450
  41.3735777   1.8108657  67.7746142  41.4233782   1.6458665  68.7161665
  41.2649700   0.9435916  67.3844023  30.2572035   4.4897203  55.0638231
  30.4060156   5.1732667  54.4104904  31.0638479   4.4702293  55.5787687
  38.6639539  -2.2060415  69.0905449  39.5649402  -2.3453950  68.7989447
  38.7387513  -2.0405960  70.0303627  42.8753973   4.2305599  68.0188164
  42.5838782   4.5935579  68.8551625  42.2626105   3.5172607  67.8401496
  44.0749656   1.7958478  60.5390734  44.9096547   2.2348283  60.7028294
  44.2108785   1.3197132  59.7198980  41.1241162  -0.6461787  66.4868222
  41.5995283  -0.4534140  65.6787073  40.2006727  -0.5902601  66.2411606
  28.0124668   0.5162380  56.0699300  27.7670710  -0.3875290  56.2679510
  28.1820583   0.5179531  55.1278778  33.7567441   6.9845333  52.5349979
  33.1841408   7.6035520  52.0820451  34.3300234   7.5344695  53.0689901
  39.8242831  -3.7696027  64.7196527  40.7760254  -3.6697929  64.7408752
  39.6546281  -4.5617758  65.2294612  37.8457210  -6.6840443  64.9055928
  37.2507142  -6.4035431  64.2102417  37.5606907  -6.1946542  65.6772670
  36.9764701   7.2682483  53.6658561  37.9095374   7.2028045  53.8691436
  36.8887913   8.1038750  53.2073094  39.6052717   6.5848354  50.6262509
  39.5266349   6.2508217  51.5198266  40.4262384   7.0770122  50.6253981
  42.3030908  -0.5489907  63.8338827  42.2707229  -1.4873906  64.0198511
  42.9131532  -0.4705870  63.1004652  34.1414239  -1.6793854  49.8766031
  35.0873344  -1.8087646  49.9454449  33.7628484  -2.4179192  50.3535459
  42.4525397  -3.7578864  63.8797110  41.9364446  -4.5420407  63.6927039
  43.3365345  -4.0860147  64.0443630  48.1207458   0.5126100  62.9744864
  48.8510847   0.2511388  63.5352567  47.5114404  -0.2245178  63.0146932
  46.2022755  -1.3466038  63.5719315  45.4755919  -1.4810073  62.9635807
  45.7870042  -1.0389209  64.3776033  34.0252932   2.3723892  71.3366688
  34.9455941   2.5502491  71.5306735  33.9902515   1.4279938  71.1846387
  27.0215004   0.2824927  63.9789469  27.2401014   1.2142035  63.9977503
  27.4340778  -0.0767099  64.7644273  39.2488578  -8.0228416  57.0968119
  38.6687247  -7.3643612  56.7146171  38.9824510  -8.8451071  56.6855536
  31.7574140  -0.7144729  72.1857280  31.2741221   0.0855632  72.3921169
  31.8435079  -0.7036784  71.2324724  25.0260099   1.1183651  60.1079099
  25.0030787   1.2171338  59.1560982  25.3360736   1.9648802  60.4296265
  27.6847477   3.1759806  64.2225714  28.6390731   3.1443748  64.1555645
  27.4860001   2.7150430  65.0375940  28.2746859   1.7460922  66.7896511
  29.0939748   2.2405001  66.8131349  28.5483667   0.8292890  66.7614079
  38.0313456  -5.8628326  56.1524467  37.1439311  -5.5778675  55.9344662
  38.4467445  -6.0234562  55.3051744  41.3827992  -5.8381805  59.8678806
  42.1588382  -5.3485352  60.1403423  40.6576126  -5.4123750  60.3250676
  43.8200550  -5.1254185  60.9252747  44.4145041  -5.3658449  60.2146055
  43.8927134  -5.8447055  61.5526283  26.0397706   8.7179426  61.2395912
  25.9052174   7.9579827  60.6733910  25.6229768   9.4420325  60.7724700
  37.1756669   3.9016349  50.2472487  37.8792519   4.1066352  50.8630142
  36.4519318   4.4693111  50.5121570  38.0054479  -0.3473790  56.3674757
  37.9489681   0.1094762  55.5282389  38.5582822  -1.1083105  56.1897600
  41.8159285  -4.5584058  57.1924877  41.5596219  -4.9587422  58.0233084
  41.1912153  -3.8440264  57.0675016  46.1271623  -1.8187984  59.6996168
  45.5671181  -1.7494795  60.4727730  45.5215126  -1.9947000  58.9795664
  29.1966832   9.6148743  61.4514354  29.0799216  10.5594175  61.3493044
  28.3759278   9.3122304  61.8400153  39.0843366   4.3398878  52.2970947
  39.9188970   3.9080077  52.1148422  38.9227709   4.1680892  53.2247841
  38.7389259   0.8430992  53.6627286  38.6838062   0.6775263  52.7215730
  38.1135314   1.5507025  53.8189476  36.0535166   3.1479904  72.9880849
  36.9226325   3.3220556  72.6267484  35.5741917   3.9674320  72.8656578
  30.2221346  10.2677005  64.6670283  31.1248593  10.3000615  64.9836778
  29.9958716   9.3377455  64.6816618  31.9774948   9.0207991  61.3280361
  31.0270579   9.0209853  61.2144734  32.2807434   8.2740726  60.8116396
  47.7127642  14.8568529  62.3926124  48.3506052  14.7375277  61.6889464
  47.5948484  15.8049373  62.4514076  44.5217348  14.8095958  62.3287648
  44.1835859  14.6937022  61.4408183  45.3907116  14.4087123  62.3088654
  40.3804164  16.6631434  58.3184539  39.8169029  16.5721371  57.5500827
  40.2656559  15.8431338  58.7987032  45.0037131  15.9630809  68.2873854
  44.9925772  15.5683608  67.4154358  45.1657770  15.2296882  68.8807625
  37.9268595  18.1582626  61.1568760  38.7189887  17.8173450  60.7415059
  38.1665246  18.2677601  62.0770913  45.9603722  20.3302402  53.6299004
  45.3091702  20.9156482  53.2433018  46.7548085  20.8608597  53.6894042
  39.8859349  17.4191539  54.0286139  40.6590225  16.8720526  53.8899014
  40.2384748  18.2835788  54.2400600  41.7244392  18.7467921  67.2353038
  41.4334258  19.6513552  67.1199704  42.3601376  18.7884449  67.9497107
  42.6500599  16.1244770  63.8254397  43.2464171  15.9000792  63.1111360
  42.7075570  15.3829515  64.4279845  42.2225627  13.5784205  51.6604588
  42.4751148  13.0565726  50.8988051  41.2850186  13.4150350  51.7631272
  47.2668910  12.5819983  59.4679332  48.0531999  12.1639406  59.1169749
  47.5307614  13.4866075  59.6360980  47.4378987  18.0192834  54.1667989
  46.8024820  18.0927460  54.8788893  47.1076394  18.6086432  53.4887068
  52.6677337  12.5195217  60.3712310  53.4002509  11.9494433  60.6050140
  51.9116693  12.1316817  60.8118816  41.9421916  15.4812311  53.8628963
  41.8258174  14.8057214  54.5310048  42.0524176  14.9944685  53.0461116
  44.2853457  14.9422458  57.5675653  43.9211664  14.4153079  58.2788574
  45.1420573  14.5520927  57.3942138  50.1902758   6.2316791  64.8306919
  49.8586082   7.1012202  64.6068134  49.5948371   5.9153075  65.5100949
  43.9258944   9.9712358  52.5637001  44.0933346  10.8392594  52.9307472
  43.7356113  10.1339639  51.6398290  46.6834277  18.4329337  64.2302832
  46.3835000  19.3354375  64.1218639  46.3385337  18.1661520  65.0823984
  40.1346759  14.8843133  60.2639536  39.2097255  14.7519348  60.4717228
  40.3831172  15.6637353  60.7609478  50.0831421  10.9511877  61.9100269
  49.1748298  10.8827285  61.6159030  50.0319017  11.4283822  62.7382094
  43.9048165  12.4270015  53.5483668  43.7847790  12.8727066  54.3869148
  43.2100753  12.7755333  52.9897206  37.4955570  14.5276407  61.0983325
  37.6247951  14.7810886  62.0122737  36.8153021  15.1204115  60.7787980
  41.6655057  25.1973657  57.1973799  41.5879087  26.1481482  57.2762280
  41.0616700  24.8519529  57.8548726  44.1572287  12.3701522  69.8535166
  43.3805621  12.9295443  69.8438031  44.7962850  12.8558305  70.3750036
  51.9493067   9.1528315  63.6878143  51.3067447   9.4460848  63.0417937
  51.4447996   9.0381236  64.4931339  49.6033231  12.8991488  54.3764002
  50.5151087  13.1318875  54.2011700  49.0942878  13.4828533  53.8139081
  42.4118659  15.1786976  69.4153133  43.1533343  15.7172020  69.1387957
  41.7055644  15.8053265  69.5724685  47.8873999  17.3216116  68.0125295
  48.2957355  16.8798527  67.2679927  47.1651260  16.7468744  68.2659488
  44.2405069  12.2588723  65.3858852  45.0866264  12.6828137  65.5293501
  44.1803706  11.6022347  66.0797415  48.2102813  17.8817307  61.7677584
  47.5811676  18.0463021  61.0653651  47.8228475  18.2958916  62.5388548
  52.0892045  18.8171745  59.1221947  51.4043083  19.1970646  58.5718981
  52.1735894  19.4267071  59.8553895  47.3904514   9.9193091  67.0440025
  47.1465446  10.6735152  66.5074301  47.6664444  10.2978439  67.8787272
  49.3442977  16.4631704  65.7217291  49.5559872  17.1063464  65.0451672
  49.2972725  15.6294020  65.2539221  46.9469206   9.0749524  62.6253863
  46.0853685   9.3730778  62.9170601  46.9731640   9.2919923  61.6934896
  43.7630775  17.6191715  59.0327669  44.2269121  17.8979418  58.2432291
  43.4987573  16.7175160  58.8500759  40.6554856  17.1663196  61.9707432
  41.2256213  17.5950465  61.3324916  41.2462968  16.8845781  62.6691618
  42.6999661  13.7414867  55.8417234  43.4023704  14.1935911  56.3091160
  42.3680290  13.0998686  56.4697127  41.1480023  12.3326624  70.2168443
  40.5178683  13.0142905  70.4503840  41.0416111  12.2209706  69.2721581
  36.4424995  11.9998420  61.1434367  35.6524049  12.2555948  60.6674478
  36.9336242  12.8146758  61.2486408  50.4588805  19.3403659  63.8939648
  51.2806248  18.9383846  63.6122330  50.4551208  19.2371893  64.8455764
  38.3939740  12.3642999  58.1017844  37.5970904  12.4761693  58.6201340
  38.1665333  12.7029651  57.2358735  44.2245408  18.8887702  66.0500359
  44.2889841  19.3508110  66.8858530  43.5156332  18.2585067  66.1782668
  34.7262698  12.2528910  63.5749358  34.9770736  13.1375920  63.8406934
  35.2622246  12.0733512  62.8024450  58.5494798  15.6842408  60.2424620
  57.7958506  15.1149806  60.0868624  58.6842339  15.6505072  61.1895254
  43.9393426  20.5555810  55.9179339  43.8039101  21.4007346  56.3464187
  44.4803238  20.7575088  55.1545273  40.4260765   6.6347390  72.5793694
  40.0327711   6.0813588  73.2541338  41.2426906   6.9457968  72.9700212
  37.3922823  18.0731248  56.4907264  37.9047344  18.8674498  56.6412829
  38.0445536  17.3757538  56.4240866  39.2017708  21.1897004  58.5730017
  39.3784336  22.1114969  58.3851001  39.9974541  20.8755423  59.0024397
  43.3428726   8.0505269  70.1713951  44.0838440   8.6512422  70.0918413
  43.5746649   7.3082907  69.6131993  38.4870064  13.2361636  68.4492180
  38.3723580  12.3346893  68.7499279  37.6314582  13.4825333  68.0976997
  45.5661902  21.1779376  70.0479681  45.1225756  20.3915755  69.7300586
  46.2279116  21.3658527  69.3823572  40.3249023  22.7075178  64.5740360
  40.8756448  22.5792241  63.8017353  39.4860499  23.0070067  64.2235252
  47.6643140  21.4582176  68.0761082  47.6461616  22.2791057  67.5841351
  48.5863060  21.3336252  68.3011223  44.1216194  18.9726306  68.9184591
  44.6544531  18.2114594  68.6883899  43.5930275  18.6799958  69.6608745
  47.2885889   4.0786372  64.4478232  46.9450159   4.9688013  64.3717343
  47.6564852   3.8888029  63.5847817  35.3571740  16.4019902  57.2666835
  36.1946962  16.8116911  57.0500542  35.5350008  15.4619344  57.2367028
  47.2536172  14.0694983  52.9550668  46.7382795  14.8399588  53.1939055
  46.9813480  13.3960119  53.5783729  44.8383283   8.9144684  58.0135906
  43.9824879   8.5251534  57.8341545  45.2510235   8.9936644  57.1535691
  46.3682430   6.4491027  62.4127466  45.8647225   6.4121162  61.5995271
  46.6613037   7.3583770  62.4724122  42.6125316   6.5329757  61.4193647
  43.4778312   6.3372565  61.0599537  42.6802825   6.3040108  62.3463004
  52.2270446  16.8227338  54.8903841  51.4499889  16.4838497  54.4459003
  52.9061927  16.8279961  54.2158806  47.0422475  11.9422075  54.7810449
  46.7372611  12.2568224  55.6320592  47.9952917  12.0203495  54.8237782
  45.4868907  18.1012298  56.4303403  44.9590269  17.3665058  56.1176640
  44.9856410  18.8786975  56.1843371  50.4661753  16.2961319  61.5470449
  49.8085428  16.9860580  61.6350578  51.2702152  16.6857751  61.8904435
  40.2187635   8.7631965  58.7910014  40.7931387   8.5407146  58.0583207
  40.8058617   8.8320659  59.5438616  49.2767212  14.6505691  59.5974391
  49.7899094  15.2835683  60.0996100  49.9268436  14.0506887  59.2317751
  40.5457222  10.7936426  52.8105899  39.7094534  11.1311112  53.1315174
  40.4061991  10.6585405  51.8733036  42.5210302   5.6373214  57.5185084
  41.8674715   5.3222231  56.8941698  42.4790777   5.0148954  58.2444907
  43.6321507  15.9192509  49.4338376  42.7248569  15.6881762  49.6329525
  44.1292539  15.1230128  49.6212357  46.5389586  24.6290016  52.3535062
  45.8651285  24.9321713  52.9620020  46.9255408  25.4319096  52.0040519
  45.7548043  12.1255147  61.8432731  44.8370604  12.3470094  61.6854419
  46.1708186  12.2001458  60.9844439  46.5383091  13.5246563  56.9735412
  47.2854909  14.0367960  56.6642534  46.8074680  13.2030615  57.8339805
  44.8109741  16.0205103  53.9562366  43.9020960  15.7364136  54.0534836
  44.8404824  16.4404182  53.0965673  50.0429008  19.6311693  57.7253533
  49.5891335  18.7902603  57.7818724  49.4122975  20.2673091  58.0628314
  48.9861928  10.5603679  58.9554201  48.2484684  10.0481065  59.2864443
  49.2388701  10.1204061  58.1437478  48.4861947  21.4688190  58.6603352
  48.7784922  22.0293247  57.9415717  48.9960568  21.7616751  59.4156511
  49.0873555   3.3379931  59.5495970  49.3932432   2.4777294  59.2621885
  49.8126160   3.9297551  59.3494964  35.3797911  13.7410618  57.9377568
  35.1822311  13.1479978  57.2128635  34.8244575  13.4362828  58.6553507
  43.3594635  13.6333724  60.0572161  43.4143245  12.6807560  59.9814638
  42.5485837  13.7893163  60.5413460  44.5085828  17.5613847  51.2950444
  44.0705258  16.8449706  50.8356082  45.2496269  17.7889962  50.7335536
  41.2986995  12.2510784  57.8162540  40.4854860  12.5504954  58.2227732
  41.7945989  11.8566473  58.5337022  43.4495573  22.2468541  59.7496805
  43.4071751  22.4729387  58.8205337  44.3658271  22.0131915  59.8982606
  46.8961206  12.7152608  66.6477434  47.2510594  12.9424081  67.5071900
  47.5433338  13.0470985  66.0254689  52.6258943  15.8371044  57.3526763
  52.4876842  16.0272640  56.4247952  52.2695162  16.5990427  57.8094814
  40.7901069   9.8229139  63.4323775  41.4300449   9.6817898  62.7346738
  39.9578600   9.5363653  63.0562377  52.6528323  17.9047571  62.3638034
  53.0864830  17.8122860  63.2121089  53.3659904  17.8805072  61.7258050
  41.5661373  19.1231570  59.5458767  42.3601972  18.6281890  59.3441342
  40.8553066  18.5949433  59.1826473  46.3856218  21.5049665  63.8971135
  46.4393240  22.0740602  64.6648851  45.5170999  21.6751550  63.5325172
  37.8744137  13.2674651  55.6218520  36.9441725  13.2059107  55.8388482
  37.9701609  12.7450604  54.8255161  37.7929686   9.7929464  58.2096762
  38.0536503  10.7074798  58.1005922  38.6146858   9.3253907  58.3593375
  39.2654611  11.2067221  65.3795586  39.9377665  10.9984584  64.7308235
  38.4384398  11.0089307  64.9400819  53.5143872  17.9471272  64.8970920
  53.7079763  18.8517082  65.1430195  53.4144491  17.4878691  65.7309505
  45.1680183   7.8329162  67.3961247  44.5208098   8.5319112  67.3025724
  45.9381199   8.2665306  67.7637495  48.5758981  18.0978015  70.4711800
  48.4244488  17.8688566  69.5541884  48.5663661  19.0548616  70.4843145
  45.3444318  15.6709927  65.4558067  46.2736378  15.8221087  65.2827034
  44.9235348  15.7593948  64.6006713  44.1432649  19.6960592  63.2256605
  44.0043735  19.3279376  64.0982543  43.3547246  20.2108231  63.0540562
  44.7380801  24.7969688  54.5682141  44.9132557  24.3257731  55.3827764
  44.0513589  25.4235454  54.7963402  45.6937864  19.0742194  60.6145442
  45.3587697  19.0342964  61.5103092  45.1941810  18.4086910  60.1415853
  39.6682108  14.4809824  66.1398023  39.5301906  13.7490063  66.7409563
  40.5787032  14.3918725  65.8582211  48.6297056  16.4198229  50.8882502
  48.0126227  15.6945057  50.7915555  48.1613545  17.1807589  50.5449576
  42.2964409  14.1929784  65.6281703  43.0064028  13.5522976  65.5868322
  42.2533717  14.4442679  66.5507884  50.2851188  21.1297137  68.5488282
  50.2263734  20.4456357  67.8818865  50.6870706  21.8716127  68.0968908
  41.0093343  11.1795002  67.4477343  40.4730700  10.7285740  68.0998939
  40.4210052  11.3140910  66.7047807  39.3041887  27.9459051  61.3422001
  39.5438485  28.5777575  62.0201020  38.4611083  27.5947091  61.6287360
  40.4195602  10.6383653  50.0103806  39.5425068  10.5172454  49.6466053
  40.8953355   9.8469731  49.7582695  50.2868595  19.0936721  66.7802262
  49.3995374  18.7562643  66.9028661  50.8567146  18.3619752  67.0171027
  31.9397742  15.4260813  60.1045313  32.6268782  15.1122543  59.5166329
  31.7845871  16.3302177  59.8312565  36.7432464  10.3151009  64.5330337
  36.6590653   9.7076679  63.7980747  35.9215171  10.8060028  64.5339833
  43.8169748  23.7538173  63.7463505  43.7439920  24.5593145  64.2582810
  43.3747142  23.9530139  62.9211527  43.6059528  22.9909943  57.2566327
  42.8227050  23.5331624  57.3504551  44.3052273  23.5083923  57.6560568
  46.9156178   8.8004573  59.9000532  47.4124878   8.0474535  59.5801602
  46.1443160   8.8368890  59.3343741  54.7685936  14.5044938  61.5418824
  54.7575812  15.3869654  61.1712757  53.9003315  14.1516489  61.3473361
  46.2768432  23.6525007  65.9021664  46.9896404  24.2872472  65.8297565
  45.7858461  23.7488873  65.0861666  47.9985959  17.5576260  57.4738956
  47.0642238  17.6777723  57.3043660  48.1762627  16.6548727  57.2098965
  43.4991147  10.9421956  59.6272217  43.1288934  10.3892996  60.3153122
  43.9950239  10.3380089  59.0747217  51.3858510  13.3993579  58.0088990
  51.8518962  14.2321571  57.9349292  51.8366011  12.9338561  58.7134248
  41.3280345  21.4019451  66.7227235  42.0289805  22.0355934  66.8756629
  40.8575460  21.7434182  65.9622874  49.4534741  19.7437401  55.0075142
  49.7294585  19.6293995  55.9169016  48.5839240  19.3454886  54.9687315
  49.3575173   5.7674166  62.0479891  48.4438253   5.9978393  62.2162098
  49.7868274   5.8512610  62.8993923  49.1281631  13.9564058  64.5479785
  48.4753082  14.2039966  63.8932238  49.5062011  13.1428197  64.2142262
  46.0888805  23.9923752  58.6507955  46.2711200  23.1745407  59.1135708
  46.9121791  24.2091444  58.2132845  46.4230971  22.9191937  55.9123004
  46.9518737  22.4084391  55.2993166  46.6859190  22.6034467  56.7768537
  45.1769204  14.6983869  71.0345822  44.5009841  14.5977999  71.7048197
  45.9996838  14.5423083  71.4981819  36.9248064  20.9355806  63.6558337
  37.5101500  20.1899494  63.7886242  36.7272902  21.2459763  64.5395001
  39.7786719  23.9707053  58.6720780  39.1097094  24.4553181  58.1884820
  39.6399588  24.2176274  59.5864158  31.5165718  13.5061406  62.3762781
  31.5549818  12.9724997  63.1699899  31.0106011  12.9796612  61.7573758
  43.9191987  26.0050797  65.2703438  44.4710295  26.1682418  66.0352523
  44.2598181  26.5955235  64.5983463  38.8956481   8.3525947  65.8725323
  38.9597807   9.2140778  65.4602721  38.8323601   7.7399948  65.1397681
  38.3708753  10.4249079  69.5198357  38.9980792  10.0426157  70.1335881
  37.5136672  10.2063281  69.8854050  48.7702862  20.8312054  71.1252093
  49.3142766  21.4442013  70.6307047  48.1889707  21.3891633  71.6419106
  35.1474296  12.2325508  55.4516712  35.4427737  11.3236187  55.3983766
  34.2462332  12.2113248  55.1297714  47.0560375  23.9532772  62.2567120
  46.9311514  23.1522512  61.7478066  47.7139466  24.4478966  61.7681090
  38.6768543  10.3081505  61.4344261  37.9555129  10.9217473  61.2951734
  39.4661799  10.8439270  61.3560906  49.1195283  21.7541792  63.8846670
  48.1725619  21.6347144  63.8124997  49.4678056  20.8664291  63.9672932
  41.4794856   7.6435931  67.7084912  42.0029258   7.8898228  68.4711222
  41.2607190   8.4755966  67.2888050  36.8762137   9.9139606  55.5756037
  36.5474844   9.0336985  55.3931143  37.2301508   9.8587275  56.4632426
  46.1241716  21.5494509  60.0851023  45.9766679  20.6211216  60.2658593
  46.9495210  21.5714599  59.6008098  39.9903961  10.2012576  55.9431515
  40.3300033  10.7298497  55.2210123  40.4376081  10.5392982  56.7190081
  49.7275838  22.3723067  61.1715895  50.6522386  22.1665929  61.0340346
  49.5591142  22.1239469  62.0805237  42.6847401   8.5849626  65.3934583
  42.3444222   7.7857440  65.7955263  41.9786408   8.8851337  64.8211416
  43.3363873   5.6698939  63.8461906  44.1589943   5.1959417  63.7240796
  43.5801937   6.4489423  64.3460592  41.9772108   8.6987197  54.1424808
  42.6980470   9.0768450  53.6388524  41.3537412   9.4176074  54.2459785
  46.1203231   9.4032346  55.0783140  46.3366845  10.2856984  54.7771968
  45.6397298   9.0118560  54.3488782  40.8602452  12.3618060  61.6553884
  40.7147033  12.6758363  62.5478166  40.3827656  12.9802960  61.1024783
  42.7198835   9.3520608  61.7034774  42.7060404   8.4561701  61.3667072
  43.4371263   9.3591271  62.3373060  44.5724966   9.7857948  63.7487901
  44.3142743  10.7075018  63.7472232  44.0410006   9.3888382  64.4388366
  49.5171154  22.8908735  56.5277987  49.6908032  22.3255157  55.7751839
  50.0100046  23.6909630  56.3457477  35.3348114  14.9023404  64.5941546
  34.7901582  15.6783212  64.7261820  36.2127464  15.2494208  64.4360667
  42.1235731   8.2334988  56.9722344  42.2451642   7.3051634  57.1713232
  41.8337773   8.2473674  56.0600660  44.9926921   5.9189898  60.1089064
  45.0148618   5.9829231  59.1541044  45.4094980   5.0794407  60.3029570
  55.3710546  15.6545158  58.1468287  55.8141692  14.9052483  57.7487410
  54.4937056  15.6455294  57.7642019  50.5046327  22.2075499  53.6274885
  51.1997231  22.8282192  53.8462200  50.8469477  21.3570850  53.9027263
  36.1214136  14.0293300  67.4871702  35.3795872  14.1775936  68.0736333
  35.8006880  14.2901566  66.6238452  52.4037750  19.6575205  55.1562216
  52.9289074  19.9962478  54.4311536  52.3160103  18.7222220  54.9725350
  44.0657799  23.5709278  67.2852092  44.3744925  23.3258425  68.1574792
  44.8633281  23.7755917  66.7970963  44.0878411  25.7247188  59.5157469
  43.6483401  25.2323567  60.2090326  44.8386528  25.1820156  59.2749544
  36.5670750  21.9158729  59.5182097  37.3928770  21.6162501  59.1380741
  36.2164802  21.1466351  59.9671886  41.5352283  21.2685197  61.5879771
  40.9132292  20.6055902  61.2881999  42.2057150  21.2946329  60.9053418
  34.7679355  19.8345055  60.4771031  33.9311263  19.4067230  60.2955032
  34.7403000  20.0277499  61.4141822  41.6076810   9.7466985  71.1812277
  41.6564966  10.6229108  70.7990046  42.1499325   9.2044378  70.6083920
  52.0931656  20.2908108  70.4613414  51.3027200  20.2732247  69.9217913
  51.8565011  20.8296402  71.2162450  52.2129531  17.1400575  67.7746142
  52.2627536  16.9750582  68.7161665  52.1043454  16.2727834  67.3844023
  41.0965790  19.8189121  55.0638231  41.2453910  20.5024585  54.4104904
  41.9032233  19.7994211  55.5787687  49.5033293  13.1231503  69.0905449
  50.4043156  12.9837968  68.7989447  49.5781268  13.2885958  70.0303627
  43.8376099  10.4998358  67.9358635  42.9679408  10.7931924  67.6641224
  44.0735579  11.0838803  68.6565899  53.7147728  19.5597516  68.0188164
  53.4232536  19.9227497  68.8551625  53.1019859  18.8464525  67.8401496
  54.9143410  17.1250396  60.5390734  55.7490302  17.5640200  60.7028294
  55.0502539  16.6489049  59.7198980  51.9634916  14.6830131  66.4868222
  52.4389038  14.8757777  65.6787073  51.0400482  14.7389317  66.2411606
  38.8518423  15.8454298  56.0699300  38.6064465  14.9416628  56.2679510
  39.0214337  15.8471449  55.1278778  46.5415133   6.7177975  65.4524056
  47.0597077   7.4539001  65.1270544  46.1870265   7.0241968  66.2870815
  38.1214070  11.5782656  53.5685462  37.4283315  11.6527011  52.9125498
  37.8765822  10.8142999  54.0906979  46.7927727   3.1378257  60.9724952
  47.0729481   2.4701446  61.5985379  47.5778334   3.3307353  60.4599616
  44.5961195  22.3137251  52.5349979  44.0235162  22.9327438  52.0820451
  45.1693989  22.8636613  53.0689901  50.6636585  11.5595891  64.7196527
  51.6154008  11.6593989  64.7408752  50.4940036  10.7674160  65.2294612
  48.6850965   8.6451474  64.9055928  48.0900897   8.9256487  64.2102417
  48.4000661   9.1345375  65.6772670  47.8158455  22.5974401  53.6658561
  48.7489128  22.5319963  53.8691436  47.7281668  23.4330668  53.2073094
  50.4446472  21.9140271  50.6262509  50.3660103  21.5800135  51.5198266
  51.2656139  22.4062039  50.6253981  53.1424663  14.7802011  63.8338827
  53.1100983  13.8418011  64.0198511  53.7525287  14.8586047  63.1004652
  44.9807994  13.6498064  49.8766031  45.9267099  13.5204272  49.9454449
  44.6022239  12.9112726  50.3535459  53.2919151  11.5713054  63.8797110
  52.7758200  10.7871511  63.6927039  54.1759100  11.2431771  64.0443630
  50.9529878   5.3154070  59.8392923  50.7554699   5.0069158  60.7236255
  51.5629584   6.0415709  59.9690853  58.9601213  15.8418018  62.9744864
  59.6904601  15.5803306  63.5352567  58.3508158  15.1046740  63.0146932
  57.0416510  13.9825880  63.5719315  56.3149673  13.8481845  62.9635807
  56.6263797  14.2902709  64.3776033  44.8646686  17.7015810  71.3366688
  45.7849696  17.8794409  71.5306735  44.8296269  16.7571855  71.1846387
  43.1650911  11.5748040  49.8120916  42.2582366  11.2781153  49.8883630
  43.4426892  11.2777858  48.9455203  34.0828851  12.8954404  60.2619963
  33.7631636  12.0419712  59.9694337  33.5362280  13.1102982  61.0177930
  37.8608759  15.6116845  63.9789469  38.0794769  16.5433952  63.9977503
  38.2734533  15.2524819  64.7644273  44.7812977   6.1184930  55.9665158
  43.9713705   5.7732015  56.3420404  45.4697394   5.8092474  56.5552769
  46.7103525   5.1962977  57.5889454  47.2634564   5.6158430  58.2479477
  46.9473611   4.2698725  57.6312410  42.7336624  11.1850050  73.3692218
  42.6333351  12.1344407  73.3004309  42.5158166  10.8568289  72.4968288
  41.9349696   8.4334975  49.9532896  42.7968860   8.7589874  50.2128713
  42.1200040   7.6466471  49.4405961  33.9517111  16.5157315  62.2313084
  33.2580583  16.1011268  61.7183039  34.6990102  16.5577852  61.6346503
  50.0882332   7.3063502  57.0968119  49.5081001   7.9648306  56.7146171
  49.8218265   6.4840846  56.6855536  48.5385898   6.7068559  59.2989439
  49.0385677   6.8185094  58.4903758  49.1821506   6.4029612  59.9390247
  42.5967894  14.6147189  72.1857280  42.1134976  15.4147549  72.3921169
  42.6828833  14.6255134  71.2324724  35.8653854  16.4475569  60.1079099
  35.8424542  16.5463256  59.1560982  36.1754490  17.2940720  60.4296265
  38.5241232  18.5051724  64.2225714  39.4784485  18.4735666  64.1555645
  38.3253755  18.0442348  65.0375940  39.1140614  17.0752840  66.7896511
  39.9333503  17.5696919  66.8131349  39.3877422  16.1584808  66.7614079
  48.8707210   9.4663592  56.1524467  47.9833065   9.7513243  55.9344662
  49.2861199   9.3057356  55.3051744  52.2221746   9.4910113  59.8678806
  52.9982136   9.9806566  60.1403423  51.4969880   9.9168167  60.3250676
  54.6594305  10.2037732  60.9252747  55.2538796   9.9633468  60.2146055
  54.7320889   9.4844863  61.5526283  36.8791461  24.0471343  61.2395912
  36.7445928  23.2871744  60.6733910  36.4623523  24.7712243  60.7724700
  48.0150424  19.2308267  50.2472487  48.7186274  19.4358269  50.8630142
  47.2913072  19.7985029  50.5121570  48.8448234  14.9818128  56.3674757
  48.7883435  15.4386680  55.5282389  49.3976576  14.2208813  56.1897600
  52.6553040  10.7707860  57.1924877  52.3989974  10.3704496  58.0233084
  52.0305908  11.4851654  57.0675016  56.9665378  13.5103933  59.6996168
  56.4064936  13.5797123  60.4727730  56.3608881  13.3344918  58.9795664
  40.0360586  24.9440660  61.4514354  39.9192971  25.8886093  61.3493044
  39.2153033  24.6414222  61.8400153  49.9237121  19.6690796  52.2970947
  50.7582725  19.2371995  52.1148422  49.7621464  19.4972810  53.2247841
  49.5783013  16.1722909  53.6627286  49.5231817  16.0067181  52.7215730
  48.9529068  16.8798942  53.8189476  34.3675528  11.4090974  67.4888708
  35.0134392  10.8989928  67.9775934  34.1592679  12.1459655  68.0632134
  46.8928920  18.4771821  72.9880849  47.7620080  18.6512473  72.6267484
  46.4135672  19.2966238  72.8656578  42.8879139   5.6731018  53.2412605
  42.8757808   6.6172858  53.3980875  43.7802560   5.4901164  52.9472066
  41.0615101  25.5968922  64.6670283  41.9642347  25.6292532  64.9836778
  40.8352471  24.6669373  64.6816618  42.8168703  24.3499909  61.3280361
  41.8664334  24.3501770  61.2144734  43.1201189  23.6032643  60.8116396
  46.7031258   2.2673795  57.4958541  45.9363654   1.7132282  57.6415224
  47.1141963   2.3395664  58.3572693  38.7073019   8.5558591  71.5863723
  39.5704481   8.1995396  71.7967047  38.1338430   8.2172486  72.2739127
  58.5521396  30.1860447  62.3926124  59.1899806  30.0667195  61.6889464
  58.4342239  31.1341291  62.4514076  55.3611102  30.1387875  62.3287648
  55.0229614  30.0228940  61.4408183  56.2300871  29.7379040  62.3088654
  51.2197918  31.9923352  58.3184539  50.6562783  31.9013289  57.5500827
  51.1050313  31.1723256  58.7987032  55.8430885  31.2922727  68.2873854
  55.8319526  30.8975525  67.4154358  56.0051525  30.5588800  68.8807625
  56.7997477  35.6594319  53.6299004  56.1485456  36.2448400  53.2433018
  57.5941840  36.1900514  53.6894042  52.5638146  34.0759839  67.2353038
  52.2728012  34.9805470  67.1199704  53.1995131  34.1176366  67.9497107
  53.4894353  31.4536687  63.8254397  54.0857926  31.2292710  63.1111360
  53.5469325  30.7121433  64.4279845  53.0619382  28.9076123  51.6604588
  53.3144902  28.3857644  50.8988051  52.1243941  28.7442268  51.7631272
  58.1062665  27.9111901  59.4679332  58.8925754  27.4931324  59.1169749
  58.3701369  28.8157993  59.6360980  58.2772742  33.3484751  54.1667989
  57.6418575  33.4219378  54.8788893  57.9470148  33.9378350  53.4887068
  63.5071092  27.8487134  60.3712310  64.2396264  27.2786351  60.6050140
  62.7510447  27.4608735  60.8118816  52.7815670  30.8104229  53.8628963
  52.6651929  30.1349132  54.5310048  52.8917930  30.3236603  53.0461116
  55.1247211  30.2714376  57.5675653  54.7605419  29.7444997  58.2788574
  55.9814327  29.8812845  57.3942138  61.0296512  21.5608708  64.8306919
  60.6979837  22.4304119  64.6068134  60.4342125  21.2444992  65.5100949
  54.7652698  25.3004275  52.5637001  54.9327101  26.1684512  52.9307472
  54.5749867  25.4631557  51.6398290  57.5228032  33.7621254  64.2302832
  57.2228755  34.6646293  64.1218639  57.1779091  33.4953438  65.0823984
  50.9740513  30.2135051  60.2639536  50.0491009  30.0811265  60.4717228
  51.2224926  30.9929270  60.7609478  60.9225175  26.2803794  61.9100269
  60.0142053  26.2119203  61.6159030  60.8712771  26.7575739  62.7382094
  54.7441919  27.7561933  53.5483668  54.6241544  28.2018984  54.3869148
  54.0494508  28.1047251  52.9897206  48.3349324  29.8568325  61.0983325
  48.4641705  30.1102804  62.0122737  47.6546775  30.4496033  60.7787980
  54.9966041  27.6993440  69.8535166  54.2199375  28.2587360  69.8438031
  55.6356604  28.1850223  70.3750036  62.7886822  24.4820233  63.6878143
  62.1461202  24.7752766  63.0417937  62.2841750  24.3673153  64.4931339
  60.4426985  28.2283406  54.3764002  61.3544841  28.4610793  54.2011700
  59.9336632  28.8120450  53.8139081  53.2512413  30.5078893  69.4153133
  53.9927098  31.0463937  69.1387957  52.5449399  31.1345182  69.5724685
  58.7267753  32.6508034  68.0125295  59.1351109  32.2090444  67.2679927
  58.0045015  32.0760661  68.2659488  55.0798823  27.5880641  65.3858852
  55.9260018  28.0120054  65.5293501  55.0197461  26.9314265  66.0797415
  59.0496568  33.2109225  61.7677584  58.4205430  33.3754939  61.0653651
  58.6622230  33.6250834  62.5388548  62.9285800  34.1463662  59.1221947
  62.2436838  34.5262564  58.5718981  63.0129649  34.7558989  59.8553895
  58.2298268  25.2485009  67.0440025  57.9859200  26.0027070  66.5074301
  58.5058199  25.6270357  67.8787272  60.1836731  31.7923621  65.7217291
  60.3953626  32.4355381  65.0451672  60.1366479  30.9585938  65.2539221
  57.7862960  24.4041442  62.6253863  56.9247439  24.7022696  62.9170601
  57.8125395  24.6211841  61.6934896  54.6024530  32.9483633  59.0327669
  55.0662875  33.2271336  58.2432291  54.3381328  32.0467077  58.8500759
  53.5393416  29.0706785  55.8417234  54.2417459  29.5227829  56.3091160
  53.2074044  28.4290604  56.4697127  51.9873777  27.6618542  70.2168443
  51.3572438  28.3434822  70.4503840  51.8809865  27.5501623  69.2721581
  47.2818750  27.3290338  61.1434367  46.4917804  27.5847866  60.6674478
  47.7729997  28.1438675  61.2486408  61.2982559  34.6695577  63.8939648
  62.1200003  34.2675764  63.6122330  61.2944962  34.5663811  64.8455764
  49.2333495  27.6934917  58.1017844  48.4364658  27.8053611  58.6201340
  49.0059087  28.0321569  57.2358735  55.0639163  34.2179620  66.0500359
  55.1283595  34.6800027  66.8858530  54.3550086  33.5876985  66.1782668
  45.5656453  27.5820828  63.5749358  45.8164491  28.4667838  63.8406934
  46.1016001  27.4025430  62.8024450  69.3888552  31.0134325  60.2424620
  68.6352261  30.4441723  60.0868624  69.5236093  30.9796990  61.1895254
  51.2654520  21.9639307  72.5793694  50.8721465  21.4105506  73.2541338
  52.0820660  22.2749886  72.9700212  54.1822481  23.3797187  70.1713951
  54.9232194  23.9804340  70.0918413  54.4140404  22.6374824  69.6131993
  49.3263819  28.5653554  68.4492180  49.2117334  27.6638811  68.7499279
  48.4708337  28.8117251  68.0976997  56.4055657  36.5071294  70.0479681
  55.9619511  35.7207673  69.7300586  57.0672870  36.6950445  69.3823572
  58.5036895  36.7874094  68.0761082  58.4855370  37.6082975  67.5841351
  59.4256815  36.6628169  68.3011223  54.9609949  34.3018224  68.9184591
  55.4938286  33.5406512  68.6883899  54.4324030  34.0091875  69.6608745
  58.1279644  19.4078289  64.4478232  57.7843913  20.2979931  64.3717343
  58.4958606  19.2179947  63.5847817  58.0929927  29.3986901  52.9550668
  57.5776550  30.1691505  53.1939055  57.8207235  28.7252037  53.5783729
  55.6777038  24.2436601  58.0135906  54.8218634  23.8543452  57.8341545
  56.0903989  24.3228562  57.1535691  57.2076184  21.7782945  62.4127466
  56.7040980  21.7413080  61.5995271  57.5006791  22.6875687  62.4724122
  53.4519070  21.8621674  61.4193647  54.3172067  21.6664483  61.0599537
  53.5196579  21.6332026  62.3463004  63.0664201  32.1519255  54.8903841
  62.2893643  31.8130415  54.4459003  63.7455682  32.1571878  54.2158806
  57.8816230  27.2713993  54.7810449  57.5766365  27.5860142  55.6320592
  58.8346672  27.3495413  54.8237782  56.3262662  33.4304216  56.4303403
  55.7984023  32.6956976  56.1176640  55.8250164  34.2078892  56.1843371
  61.3055508  31.6253236  61.5470449  60.6479182  32.3152498  61.6350578
  62.1095907  32.0149668  61.8904435  51.0581389  24.0923882  58.7910014
  51.6325141  23.8699064  58.0583207  51.6452372  24.1612577  59.5438616
  60.1160966  29.9797609  59.5974391  60.6292848  30.6127601  60.0996100
  60.7662190  29.3798805  59.2317751  51.3850976  26.1228343  52.8105899
  50.5488289  26.4603030  53.1315174  51.2455746  25.9877323  51.8733036
  53.3604057  20.9665131  57.5185084  52.7068469  20.6514148  56.8941698
  53.3184531  20.3440872  58.2444907  54.4715262  31.2484426  49.4338376
  53.5642323  31.0173680  49.6329525  54.9686294  30.4522046  49.6212357
  57.3783341  39.9581933  52.3535062  56.7045039  40.2613630  52.9620020
  57.7649163  40.7611014  52.0040519  56.5941797  27.4547065  61.8432731
  55.6764359  27.6762012  61.6854419  57.0101941  27.5293375  60.9844439
  57.3776845  28.8538480  56.9735412  58.1248664  29.3659878  56.6642534
  57.6468435  28.5322533  57.8339805  55.6503495  31.3497021  53.9562366
  54.7414714  31.0656054  54.0534836  55.6798579  31.7696100  53.0965673
  60.8822763  34.9603611  57.7253533  60.4285090  34.1194521  57.7818724
  60.2516729  35.5965009  58.0628314  59.8255682  25.8895597  58.9554201
  59.0878439  25.3772983  59.2864443  60.0782456  25.4495978  58.1437478
  59.3255702  36.7980107  58.6603352  59.6178676  37.3585164  57.9415717
  59.8354322  37.0908668  59.4156511  59.9267309  18.6671849  59.5495970
  60.2326186  17.8069212  59.2621885  60.6519914  19.2589469  59.3494964
  46.2191666  29.0702535  57.9377568  46.0216065  28.4771896  57.2128635
  45.6638330  28.7654745  58.6553507  54.1988389  28.9625642  60.0572161
  54.2536999  28.0099478  59.9814638  53.3879591  29.1185081  60.5413460
  55.3479583  32.8905765  51.2950444  54.9099013  32.1741624  50.8356082
  56.0890024  33.1181880  50.7335536  52.1380749  27.5802701  57.8162540
  51.3248615  27.8796872  58.2227732  52.6339743  27.1858390  58.5337022
  57.7354961  28.0444526  66.6477434  58.0904349  28.2715999  67.5071900
  58.3827092  28.3762903  66.0254689  63.4652698  31.1662962  57.3526763
  63.3270596  31.3564558  56.4247952  63.1088917  31.9282345  57.8094814
  51.6294824  25.1521057  63.4323775  52.2694203  25.0109816  62.7346738
  50.7972354  24.8655570  63.0562377  63.4922077  33.2339489  62.3638034
  63.9258584  33.1414778  63.2121089  64.2053658  33.2096989  61.7258050
  57.2249972  36.8341583  63.8971135  57.2786995  37.4032519  64.6648851
  56.3564754  37.0043468  63.5325172  48.7137891  28.5966569  55.6218520
  47.7835479  28.5351025  55.8388482  48.8095363  28.0742522  54.8255161
  48.6323440  25.1221382  58.2096762  48.8930258  26.0366715  58.1005922
  49.4540613  24.6545825  58.3593375  50.1048366  26.5359139  65.3795586
  50.7771419  26.3276501  64.7308235  49.2778152  26.3381225  64.9400819
  64.3537627  33.2763189  64.8970920  64.5473517  34.1809000  65.1430195
  64.2538245  32.8170609  65.7309505  56.0073938  23.1621080  67.3961247
  55.3601853  23.8611030  67.3025724  56.7774953  23.5957224  67.7637495
  59.4152736  33.4269932  70.4711800  59.2638242  33.1980484  69.5541884
  59.4057415  34.3840534  70.4843145  56.1838072  31.0001845  65.4558067
  57.1130132  31.1513005  65.2827034  55.7629102  31.0885866  64.6006713
  54.9826404  35.0252509  63.2256605  54.8437489  34.6571294  64.0982543
  54.1941000  35.5400149  63.0540562  56.5331619  34.4034112  60.6145442
  56.1981452  34.3634882  61.5103092  56.0335565  33.7378828  60.1415853
  50.5075863  29.8101742  66.1398023  50.3695661  29.0781981  66.7409563
  51.4180786  29.7210642  65.8582211  59.4690811  31.7490146  50.8882502
  58.8519981  31.0236975  50.7915555  59.0007299  32.5099507  50.5449576
  53.1358164  29.5221701  65.6281703  53.8457782  28.8814894  65.5868322
  53.0927472  29.7734596  66.5507884  61.1244942  36.4589055  68.5488282
  61.0657488  35.7748275  67.8818865  61.5264461  37.2008045  68.0968908
  51.8487098  26.5086919  67.4477343  51.3124455  26.0577658  68.0998939
  51.2603806  26.6432828  66.7047807  51.2589357  25.9675571  50.0103806
  50.3818823  25.8464372  49.6466053  51.7347110  25.1761649  49.7582695
  61.1262350  34.4228639  66.7802262  60.2389128  34.0854561  66.9028661
  61.6960901  33.6911670  67.0171027  42.7791497  30.7552730  60.1045313
  43.4662536  30.4414461  59.5166329  42.6239625  31.6594095  59.8312565
  47.5826219  25.6442927  64.5330337  47.4984408  25.0368597  63.7980747
  46.7608925  26.1351945  64.5339833  57.7549933  24.1296491  59.9000532
  58.2518632  23.3766453  59.5801602  56.9836914  24.1660807  59.3343741
  65.6079690  29.8336856  61.5418824  65.5969566  30.7161572  61.1712757
  64.7397069  29.4808407  61.3473361  57.1162186  38.9816925  65.9021664
  57.8290159  39.6164390  65.8297565  56.6252215  39.0780791  65.0861666
  58.8379713  32.8868178  57.4738956  57.9035992  33.0069640  57.3043660
  59.0156382  31.9840645  57.2098965  54.3384901  26.2713874  59.6272217
  53.9682689  25.7184914  60.3153122  54.8343994  25.6672007  59.0747217
  62.2252265  28.7285497  58.0088990  62.6912717  29.5613489  57.9349292
  62.6759765  28.2630479  58.7134248  52.1674100  36.7311369  66.7227235
  52.8683559  37.3647852  66.8756629  51.6969215  37.0726100  65.9622874
  60.2928496  35.0729318  55.0075142  60.5688340  34.9585913  55.9169016
  59.4232995  34.6746803  54.9687315  60.1968927  21.0966084  62.0479891
  59.2832007  21.3270311  62.2162098  60.6262029  21.1804528  62.8993923
  59.9675386  29.2855976  64.5479785  59.3146836  29.5331883  63.8932238
  60.3455766  28.4720114  64.2142262  57.2624725  38.2483854  55.9123004
  57.7912492  37.7376309  55.2993166  57.5252945  37.9326385  56.7768537
  56.0162959  30.0275787  71.0345822  55.3403596  29.9269916  71.7048197
  56.8390593  29.8715001  71.4981819  42.3559473  28.8353324  62.3762781
  42.3943572  28.3016915  63.1699899  41.8499766  28.3088529  61.7573758
  49.7350235  23.6817864  65.8725323  49.7991562  24.5432695  65.4602721
  49.6717355  23.0691866  65.1397681  49.2102508  25.7540997  69.5198357
  49.8374546  25.3718074  70.1335881  48.3530426  25.5355199  69.8854050
  59.6096616  36.1603972  71.1252093  60.1536520  36.7733930  70.6307047
  59.0283461  36.7183550  71.6419106  45.9868050  27.5617426  55.4516712
  46.2821491  26.6528104  55.3983766  45.0856086  27.5405165  55.1297714
  49.5162297  25.6373423  61.4344261  48.7948883  26.2509390  61.2951734
  50.3055553  26.1731187  61.3560906  59.9589037  37.0833710  63.8846670
  59.0119373  36.9639061  63.8124997  60.3071811  36.1956208  63.9672932
  52.3188611  22.9727849  67.7084912  52.8423013  23.2190146  68.4711222
  52.1000944  23.8047884  67.2888050  47.7155892  25.2431524  55.5756037
  47.3868598  24.3628903  55.3931143  48.0695263  25.1879192  56.4632426
  50.8297715  25.5304493  55.9431515  51.1693788  26.0590415  55.2210123
  51.2769836  25.8684900  56.7190081  60.5669593  37.7014985  61.1715895
  61.4916140  37.4957846  61.0340346  60.3984896  37.4531386  62.0805237
  53.5241156  23.9141544  65.3934583  53.1837976  23.1149357  65.7955263
  52.8180162  24.2143255  64.8211416  54.1757628  20.9990857  63.8461906
  54.9983697  20.5251335  63.7240796  54.4195691  21.7781340  64.3460592
  52.8165862  24.0279115  54.1424808  53.5374225  24.4060368  53.6388524
  52.1931166  24.7467992  54.2459785  56.9596985  24.7324264  55.0783140
  57.1760600  25.6148902  54.7771968  56.4791052  24.3410477  54.3488782
  51.6996206  27.6909977  61.6553884  51.5540787  28.0050280  62.5478166
  51.2221410  28.3094878  61.1024783  53.5592589  24.6812525  61.7034774
  53.5454158  23.7853619  61.3667072  54.2765017  24.6883189  62.3373060
  55.4118720  25.1149865  63.7487901  55.1536498  26.0366936  63.7472232
  54.8803760  24.7180300  64.4388366  60.3564909  38.2200653  56.5277987
  60.5301786  37.6547075  55.7751839  60.8493800  39.0201547  56.3457477
  46.1741869  30.2315322  64.5941546  45.6295337  31.0075130  64.7261820
  47.0521219  30.5786126  64.4360667  52.9629485  23.5626906  56.9722344
  53.0845397  22.6343552  57.1713232  52.6731528  23.5765591  56.0600660
  55.8320676  21.2481816  60.1089064  55.8542373  21.3121149  59.1541044
  56.2488735  20.4086325  60.3029570  66.2104300  30.9837075  58.1468287
  66.6535446  30.2344401  57.7487410  65.3330810  30.9747212  57.7642019
  61.3440081  37.5367417  53.6274885  62.0390986  38.1574110  53.8462200
  61.6863231  36.6862768  53.9027263  46.9607891  29.3585218  67.4871702
  46.2189627  29.5067853  68.0736333  46.6400635  29.6193484  66.6238452
  63.2431504  34.9867122  55.1562216  63.7682829  35.3254395  54.4311536
  63.1553857  34.0514138  54.9725350  54.9051553  38.9001196  67.2852092
  55.2138680  38.6550343  68.1574792  55.7027035  39.1047835  66.7970963
  52.4470565  25.0758903  71.1812277  52.4958720  25.9521026  70.7990046
  52.9893079  24.5336296  70.6083920  62.9325411  35.6200026  70.4613414
  62.1420954  35.6024165  69.9217913  62.6958765  36.1588320  71.2162450
  63.0523286  32.4692492  67.7746142  63.1021291  32.3042500  68.7161665
  62.9437209  31.6019752  67.3844023  60.3427048  28.4523421  69.0905449
  61.2436911  28.3129885  68.7989447  60.4175022  28.6177875  70.0303627
  54.6769853  25.8290275  67.9358635  53.8073163  26.1223841  67.6641224
  54.9129334  26.4130720  68.6565899  64.5541482  34.8889434  68.0188164
  64.2626291  35.2519415  68.8551625  63.9413614  34.1756442  67.8401496
  65.7537165  32.4542314  60.5390734  66.5884056  32.8932118  60.7028294
  65.8896294  31.9780967  59.7198980  62.8028671  30.0122049  66.4868222
  63.2782792  30.2049695  65.6787073  61.8794236  30.0681234  66.2411606
  49.6912177  31.1746216  56.0699300  49.4458219  30.2708546  56.2679510
  49.8608092  31.1763366  55.1278778  57.3808887  22.0469892  65.4524056
  57.8990831  22.7830919  65.1270544  57.0264020  22.3533885  66.2870815
  48.9607825  26.9074573  53.5685462  48.2677070  26.9818928  52.9125498
  48.7159577  26.1434917  54.0906979  57.6321481  18.4670175  60.9724952
  57.9123235  17.7993364  61.5985379  58.4172088  18.6599270  60.4599616
  55.4354950  37.6429169  52.5349979  54.8628917  38.2619356  52.0820451
  56.0087743  38.1928530  53.0689901  61.5030340  26.8887809  64.7196527
  62.4547763  26.9885906  64.7408752  61.3333790  26.0966077  65.2294612
  59.5244719  23.9743392  64.9055928  58.9294651  24.2548405  64.2102417
  59.2394416  24.4637293  65.6772670  58.6552210  37.9266319  53.6658561
  59.5882883  37.8611880  53.8691436  58.5675422  38.7622586  53.2073094
  61.2840226  37.2432189  50.6262509  61.2053858  36.9092053  51.5198266
  62.1049893  37.7353957  50.6253981  63.9818417  30.1093928  63.8338827
  63.9494738  29.1709929  64.0198511  64.5919041  30.1877965  63.1004652
  55.8201748  28.9789981  49.8766031  56.7660853  28.8496189  49.9454449
  55.4415993  28.2404643  50.3535459  64.1312906  26.9004972  63.8797110
  63.6151955  26.1163428  63.6927039  65.0152854  26.5723688  64.0443630
  61.7923633  20.6445987  59.8392923  61.5948454  20.3361076  60.7236255
  62.4023338  21.3707626  59.9690853  69.7994967  31.1709935  62.9744864
  70.5298356  30.9095223  63.5352567  69.1901913  30.4338657  63.0146932
  67.8810264  29.3117798  63.5719315  67.1543428  29.1773763  62.9635807
  67.4657551  29.6194626  64.3776033  55.7040441  33.0307728  71.3366688
  56.6243450  33.2086327  71.5306735  55.6690024  32.0863773  71.1846387
  54.0044665  26.9039958  49.8120916  53.0976121  26.6073070  49.8883630
  54.2820646  26.6069776  48.9455203  44.9222606  28.2246321  60.2619963
  44.6025390  27.3711629  59.9694337  44.3756034  28.4394899  61.0177930
  48.7002513  30.9408762  63.9789469  48.9188523  31.8725870  63.9977503
  49.1128287  30.5816737  64.7644273  55.6206731  21.4476847  55.9665158
  54.8107459  21.1023932  56.3420404  56.3091148  21.1384391  56.5552769
  57.5497279  20.5254894  57.5889454  58.1028318  20.9450348  58.2479477
  57.7867366  19.5990642  57.6312410  53.5730379  26.5141968  73.3692218
  53.4727106  27.4636325  73.3004309  53.3551921  26.1860207  72.4968288
  52.7743450  23.7626893  49.9532896  53.6362614  24.0881791  50.2128713
  52.9593794  22.9758389  49.4405961  44.7910866  31.8449233  62.2313084
  44.0974337  31.4303185  61.7183039  45.5383857  31.8869769  61.6346503
  60.9276087  22.6355419  57.0968119  60.3474756  23.2940223  56.7146171
  60.6612019  21.8132764  56.6855536  59.3779653  22.0360477  59.2989439
  59.8779431  22.1477012  58.4903758  60.0215261  21.7321530  59.9390247
  53.4361649  29.9439107  72.1857280  52.9528730  30.7439467  72.3921169
  53.5222588  29.9547052  71.2324724  46.7047608  31.7767486  60.1079099
  46.6818296  31.8755174  59.1560982  47.0148245  32.6232637  60.4296265
  49.9534368  32.4044758  66.7896511  50.7727257  32.8988836  66.8131349
  50.2271176  31.4876726  66.7614079  59.7100965  24.7955510  56.1524467
  58.8226820  25.0805160  55.9344662  60.1254954  24.6349273  55.3051744
  63.0615501  24.8202031  59.8678806  63.8375891  25.3098483  60.1403423
  62.3363635  25.2460085  60.3250676  65.4988059  25.5329650  60.9252747
  66.0932550  25.2925386  60.2146055  65.5714643  24.8136781  61.5526283
  58.8544178  34.5600185  50.2472487  59.5580028  34.7650187  50.8630142
  58.1306827  35.1276946  50.5121570  59.6841988  30.3110046  56.3674757
  59.6277190  30.7678597  55.5282389  60.2370331  29.5500730  56.1897600
  63.4946794  26.0999778  57.1924877  63.2383728  25.6996413  58.0233084
  62.8699662  26.8143572  57.0675016  67.8059132  28.8395851  59.6996168
  67.2458690  28.9089040  60.4727730  67.2002635  28.6636836  58.9795664
  60.7630875  34.9982714  52.2970947  61.5976479  34.5663912  52.1148422
  60.6015218  34.8264727  53.2247841  60.4176768  31.5014827  53.6627286
  60.3625571  31.3359098  52.7215730  59.7922823  32.2090860  53.8189476
  45.2069283  26.7382891  67.4888708  45.8528146  26.2281845  67.9775934
  44.9986434  27.4751573  68.0632134  57.7322675  33.8063739  72.9880849
  58.6013834  33.9804391  72.6267484  57.2529426  34.6258156  72.8656578
  53.7272893  21.0022936  53.2412605  53.7151563  21.9464776  53.3980875
  54.6196315  20.8193081  52.9472066  57.5425013  17.5965713  57.4958541
  56.7757408  17.0424199  57.6415224  57.9535718  17.6687581  58.3572693
  49.5466774  23.8850508  71.5863723  50.4098235  23.5287313  71.7967047
  48.9732184  23.5464403  72.2739127  66.2004857  45.4679793  62.3287648
  65.8623368  45.3520858  61.4408183  67.0694625  45.0670958  62.3088654
  62.0591672  47.3215269  58.3184539  61.4956538  47.2305206  57.5500827
  61.9444068  46.5015174  58.7987032  66.6824640  46.6214645  68.2873854
  66.6713281  46.2267443  67.4154358  66.8445279  45.8880717  68.8807625
  67.6391231  50.9886237  53.6299004  66.9879211  51.5740317  53.2433018
  68.4335594  51.5192432  53.6894042  68.9456419  43.2403819  59.4679332
  69.7319508  42.8223242  59.1169749  69.2095123  44.1449911  59.6360980
  69.1166496  48.6776669  54.1667989  68.4812329  48.7511295  54.8788893
  68.7863903  49.2670268  53.4887068  74.3464846  43.1779052  60.3712310
  75.0790018  42.6078269  60.6050140  73.5904202  42.7900652  60.8118816
  63.6209425  46.1396146  53.8628963  63.5045683  45.4641050  54.5310048
  63.7311685  45.6528520  53.0461116  65.9640966  45.6006293  57.5675653
  65.5999173  45.0736914  58.2788574  66.8208082  45.2104762  57.3942138
  71.8690266  36.8900626  64.8306919  71.5373591  37.7596037  64.6068134
  71.2735880  36.5736910  65.5100949  65.6046453  40.6296193  52.5637001
  65.7720855  41.4976429  52.9307472  65.4143622  40.7923475  51.6398290
  71.7618930  41.6095712  61.9100269  70.8535807  41.5411121  61.6159030
  71.7106526  42.0867657  62.7382094  65.5835674  43.0853851  53.5483668
  65.4635299  43.5310901  54.3869148  64.8888262  43.4339168  52.9897206
  65.8359796  43.0285358  69.8535166  65.0593130  43.5879278  69.8438031
  66.4750359  43.5142141  70.3750036  73.6280576  39.8112151  63.6878143
  72.9854956  40.1044684  63.0417937  73.1235505  39.6965071  64.4931339
  71.2820740  43.5575324  54.3764002  72.1938596  43.7902710  54.2011700
  70.7730387  44.1412368  53.8139081  64.0906168  45.8370811  69.4153133
  64.8320852  46.3755855  69.1387957  63.3843153  46.4637100  69.5724685
  65.9192578  42.9172558  65.3858852  66.7653773  43.3411972  65.5293501
  65.8591215  42.2606183  66.0797415  73.7679554  49.4755580  59.1221947
  73.0830592  49.8554481  58.5718981  73.8523403  50.0850907  59.8553895
  69.0692023  40.5776927  67.0440025  68.8252955  41.3318987  66.5074301
  69.3451953  40.9562274  67.8787272  68.6256715  39.7333360  62.6253863
  67.7641194  40.0314613  62.9170601  68.6519149  39.9503759  61.6934896
  64.3787170  44.3998703  55.8417234  65.0811213  44.8519746  56.3091160
  64.0467799  43.7582522  56.4697127  62.8267532  42.9910459  70.2168443
  62.1966192  43.6726740  70.4503840  62.7203620  42.8793541  69.2721581
  60.0727249  43.0226835  58.1017844  59.2758413  43.1345529  58.6201340
  59.8452842  43.3613487  57.2358735  80.2282307  46.3426243  60.2424620
  79.4746015  45.7733641  60.0868624  80.3629848  46.3088907  61.1895254
  62.1048274  37.2931225  72.5793694  61.7115220  36.7397424  73.2541338
  62.9214415  37.6041804  72.9700212  65.0216235  38.7089104  70.1713951
  65.7625949  39.3096257  70.0918413  65.2534158  37.9666742  69.6131993
  67.2449411  51.8363212  70.0479681  66.8013265  51.0499590  69.7300586
  67.9066625  52.0242362  69.3823572  68.9673398  34.7370207  64.4478232
  68.6237668  35.6271849  64.3717343  69.3352361  34.5471865  63.5847817
  66.5170792  39.5728519  58.0135906  65.6612388  39.1835369  57.8341545
  66.9297744  39.6520480  57.1535691  68.0469939  37.1074862  62.4127466
  67.5434734  37.0704997  61.5995271  68.3400546  38.0167605  62.4724122
  64.2912825  37.1913592  61.4193647  65.1565821  36.9956401  61.0599537
  64.3590333  36.9623944  62.3463004  73.9057955  47.4811173  54.8903841
  73.1287398  47.1422332  54.4459003  74.5849436  47.4863796  54.2158806
  68.7209984  42.6005910  54.7810449  68.4160120  42.9152060  55.6320592
  69.6740426  42.6787330  54.8237782  67.1656416  48.7596134  56.4303403
  66.6377778  48.0248893  56.1176640  66.6643919  49.5370810  56.1843371
  61.8975144  39.4215800  58.7910014  62.4718896  39.1990981  58.0583207
  62.4846126  39.4904494  59.5438616  62.2244731  41.4520261  52.8105899
  61.3882043  41.7894948  53.1315174  62.0849500  41.3169241  51.8733036
  64.1997811  36.2957049  57.5185084  63.5462224  35.9806066  56.8941698
  64.1578286  35.6732789  58.2444907  67.4335552  42.7838982  61.8432731
  66.5158113  43.0053929  61.6854419  67.8495695  42.8585293  60.9844439
  68.2170599  44.1830398  56.9735412  68.9642418  44.6951795  56.6642534
  68.4862189  43.8614451  57.8339805  66.4897250  46.6788939  53.9562366
  65.5808469  46.3947972  54.0534836  66.5192333  47.0988017  53.0965673
  70.6649437  41.2187514  58.9554201  69.9272193  40.7064901  59.2864443
  70.9176210  40.7787896  58.1437478  70.7661064  33.9963766  59.5495970
  71.0719941  33.1361130  59.2621885  71.4913669  34.5881387  59.3494964
  65.0382144  44.2917559  60.0572161  65.0930753  43.3391396  59.9814638
  64.2273346  44.4476999  60.5413460  62.9774504  42.9094619  57.8162540
  62.1642369  43.2088790  58.2227732  63.4733498  42.5150308  58.5337022
  68.5748715  43.3736444  66.6477434  68.9298103  43.6007917  67.5071900
  69.2220847  43.7054820  66.0254689  74.3046452  46.4954880  57.3526763
  74.1664351  46.6856475  56.4247952  73.9482671  47.2574262  57.8094814
  62.4688578  40.4812975  63.4323775  63.1087958  40.3401734  62.7346738
  61.6366109  40.1947488  63.0562377  59.4717195  40.4513300  58.2096762
  59.7324012  41.3658633  58.1005922  60.2934367  39.9837742  58.3593375
  60.9442120  41.8651057  65.3795586  61.6165174  41.6568419  64.7308235
  60.1171907  41.6673143  64.9400819  66.8467692  38.4912998  67.3961247
  66.1995607  39.1902947  67.3025724  67.6168708  38.9249142  67.7637495
  70.2546490  48.7561850  70.4711800  70.1031997  48.5272402  69.5541884
  70.2451170  49.7132451  70.4843145  62.6880852  41.8378837  67.4477343
  62.1518209  41.3869575  68.0998939  62.0997560  41.9724746  66.7047807
  58.4219973  40.9734845  64.5330337  58.3378162  40.3660514  63.7980747
  57.6002680  41.4643863  64.5339833  68.5943687  39.4588408  59.9000532
  69.0912387  38.7058371  59.5801602  67.8230669  39.4952725  59.3343741
  76.4473445  45.1628774  61.5418824  76.4363321  46.0453489  61.1712757
  75.5790824  44.8100325  61.3473361  69.6773468  48.2160095  57.4738956
  68.7429747  48.3361558  57.3043660  69.8550136  47.3132562  57.2098965
  65.1778656  41.6005791  59.6272217  64.8076443  41.0476832  60.3153122
  65.6737748  40.9963925  59.0747217  73.0646019  44.0577415  58.0088990
  73.5306471  44.8905406  57.9349292  73.5153520  43.5922396  58.7134248
  71.1322250  50.4021236  55.0075142  71.4082094  50.2877831  55.9169016
  70.2626749  50.0038721  54.9687315  71.0362682  36.4258002  62.0479891
  70.1225762  36.6562229  62.2162098  71.4655783  36.5096446  62.8993923
  66.8556713  45.3567705  71.0345822  66.1797350  45.2561834  71.7048197
  67.6784347  45.2006918  71.4981819  60.5743990  39.0109782  65.8725323
  60.6385316  39.8724613  65.4602721  60.5111110  38.3983784  65.1397681
  60.0496262  41.0832915  69.5198357  60.6768301  40.7009992  70.1335881
  59.1924181  40.8647116  69.8854050  60.3556052  40.9665340  61.4344261
  59.6342638  41.5801308  61.2951734  61.1449308  41.5023105  61.3560906
  63.1582365  38.3019767  67.7084912  63.6816767  38.5482063  68.4711222
  62.9394699  39.1339802  67.2888050  58.5549646  40.5723441  55.5756037
  58.2262353  39.6920820  55.3931143  58.9089017  40.5171110  56.4632426
  61.6691470  40.8596411  55.9431515  62.0087542  41.3882332  55.2210123
  62.1163590  41.1976817  56.7190081  64.3634910  39.2433462  65.3934583
  64.0231731  38.4441275  65.7955263  63.6573917  39.5435173  64.8211416
  65.0151382  36.3282774  63.8461906  65.8377452  35.8543252  63.7240796
  65.2589446  37.1073258  64.3460592  63.6559617  39.3571033  54.1424808
  64.3767979  39.7352285  53.6388524  63.0324921  40.0759910  54.2459785
  67.7990740  40.0616182  55.0783140  68.0154354  40.9440820  54.7771968
  67.3184807  39.6702395  54.3488782  62.5389961  43.0201895  61.6553884
  62.3934542  43.3342198  62.5478166  62.0615165  43.6386795  61.1024783
  64.3986344  40.0104443  61.7034774  64.3847913  39.1145536  61.3667072
  65.1158772  40.0175107  62.3373060  66.2512475  40.4441783  63.7487901
  65.9930252  41.3658854  63.7472232  65.7197515  40.0472218  64.4388366
  63.8023240  38.8918823  56.9722344  63.9239151  37.9635469  57.1713232
  63.5125282  38.9057509  56.0600660  66.6714430  36.5773734  60.1089064
  66.6936127  36.6413067  59.1541044  67.0882489  35.7378242  60.3029570
  77.0498055  46.3128993  58.1468287  77.4929201  45.5636318  57.7487410
  76.1724565  46.3039130  57.7642019  63.2864319  40.4050821  71.1812277
  63.3352475  41.2812943  70.7990046  63.8286834  39.8628214  70.6083920
  71.1820802  43.7815338  69.0905449  72.0830665  43.6421803  68.7989447
  71.2568777  43.9469793  70.0303627  65.5163608  41.1582193  67.9358635
  64.6466917  41.4515759  67.6641224  65.7523088  41.7422638  68.6565899
  76.5930919  47.7834231  60.5390734  77.4277811  48.2224036  60.7028294
  76.7290048  47.3072885  59.7198980  73.6422425  45.3413966  66.4868222
  74.1176547  45.5341613  65.6787073  72.7187991  45.3973152  66.2411606
  68.2202642  37.3761810  65.4524056  68.7384585  38.1122837  65.1270544
  67.8657774  37.6825803  66.2870815  59.8001579  42.2366491  53.5685462
  59.1070824  42.3110846  52.9125498  59.5553331  41.4726835  54.0906979
  68.4715236  33.7962092  60.9724952  68.7516990  33.1285281  61.5985379
  69.2565843  33.9891188  60.4599616  72.3424094  42.2179726  64.7196527
  73.2941517  42.3177824  64.7408752  72.1727545  41.4257995  65.2294612
  70.3638474  39.3035310  64.9055928  69.7688406  39.5840322  64.2102417
  70.0788170  39.7929211  65.6772670  74.8212172  45.4385846  63.8338827
  74.7888492  44.5001847  64.0198511  75.4312796  45.5169883  63.1004652
  74.9706660  42.2296890  63.8797110  74.4545709  41.4455346  63.6927039
  75.8546609  41.9015606  64.0443630  72.6317387  35.9737905  59.8392923
  72.4342208  35.6652993  60.7236255  73.2417093  36.6999544  59.9690853
  80.6388722  46.5001853  62.9744864  81.3692110  46.2387141  63.5352567
  80.0295667  45.7630575  63.0146932  78.7204019  44.6409716  63.5719315
  77.9937182  44.5065680  62.9635807  78.3051306  44.9486544  64.3776033
  66.5434195  48.3599645  71.3366688  67.4637205  48.5378244  71.5306735
  66.5083778  47.4155691  71.1846387  66.4600486  36.7768765  55.9665158
  65.6501214  36.4315850  56.3420404  67.1484903  36.4676309  56.5552769
  68.3891034  35.8546812  57.5889454  68.9422073  36.2742265  58.2479477
  68.6261120  34.9282560  57.6312410  64.4124133  41.8433886  73.3692218
  64.3120860  42.7928243  73.3004309  64.1945675  41.5152125  72.4968288
  63.6137205  39.0918811  49.9532896  64.4756369  39.4173709  50.2128713
  63.7987549  38.3050307  49.4405961  71.7669841  37.9647337  57.0968119
  71.1868510  38.6232141  56.7146171  71.5005774  37.1424682  56.6855536
  70.2173407  37.3652395  59.2989439  70.7173186  37.4768929  58.4903758
  70.8609015  37.0613448  59.9390247  64.2755403  45.2731024  72.1857280
  63.7922485  46.0731385  72.3921169  64.3616342  45.2838969  71.2324724
  70.5494719  40.1247428  56.1524467  69.6620574  40.4097078  55.9344662
  70.9648708  39.9641191  55.3051744  73.9009255  40.1493948  59.8678806
  74.6769645  40.6390401  60.1403423  73.1757389  40.5752003  60.3250676
  76.3381814  40.8621568  60.9252747  76.9326305  40.6217304  60.2146055
  76.4108398  40.1428698  61.5526283  70.5235743  45.6401963  56.3674757
  70.4670944  46.0970515  55.5282389  71.0764085  44.8792648  56.1897600
  74.3340549  41.4291695  57.1924877  74.0777483  41.0288331  58.0233084
  73.7093417  42.1435489  57.0675016  78.6452887  44.1687769  59.6996168
  78.0852445  44.2380958  60.4727730  78.0396390  43.9928753  58.9795664
  71.2570522  46.8306745  53.6627286  71.2019326  46.6651016  52.7215730
  70.6316577  47.5382778  53.8189476  68.5716429  49.1355657  72.9880849
  69.4407589  49.3096309  72.6267484  68.0923181  49.9550073  72.8656578
  64.5666648  36.3314854  53.2412605  64.5545317  37.2756694  53.3980875
  65.4590069  36.1484999  52.9472066  68.3818767  32.9257630  57.4958541
  67.6151163  32.3716117  57.6415224  68.7929472  32.9979499  58.3572693
  60.3860528  39.2142426  71.5863723  61.2491990  38.8579231  71.7967047
  59.8125939  38.8756321  72.2739127  85.1858601  58.5070970  60.3712310
  85.9183773  57.9370186  60.6050140  84.4297956  58.1192570  60.8118816
  82.7084021  52.2192544  64.8306919  82.3767346  53.0887955  64.6068134
  82.1129634  51.9028828  65.5100949  82.6012684  56.9387630  61.9100269
  81.6929562  56.8703038  61.6159030  82.5500280  57.4159575  62.7382094
  84.4674331  55.1404068  63.6878143  83.8248711  55.4336601  63.0417937
  83.9629259  55.0256989  64.4931339  84.6073309  64.8047498  59.1221947
  83.9224347  65.1846399  58.5718981  84.6917158  65.4142824  59.8553895
  79.4650469  55.0625277  62.6253863  78.6034948  55.3606531  62.9170601
  79.4912904  55.2795676  61.6934896  91.0676061  61.6718161  60.2424620
  90.3139770  61.1025559  60.0868624  91.2023602  61.6380825  61.1895254
  79.8067153  50.0662125  64.4478232  79.4631422  50.9563767  64.3717343
  80.1746115  49.8763782  63.5847817  78.8863693  52.4366780  62.4127466
  78.3828489  52.3996915  61.5995271  79.1794300  53.3459523  62.4724122
  84.7451710  62.8103091  54.8903841  83.9681152  62.4714250  54.4459003
  85.4243191  62.8155714  54.2158806  75.0391566  51.6248967  57.5185084
  74.3855978  51.3097984  56.8941698  74.9972040  51.0024707  58.2444907
  81.5043191  56.5479432  58.9554201  80.7665948  56.0356818  59.2864443
  81.7569965  56.1079814  58.1437478  81.6054818  49.3255684  59.5495970
  81.9113695  48.4653047  59.2621885  82.3307423  49.9173304  59.3494964
  85.1440207  61.8246797  57.3526763  85.0058105  62.0148393  56.4247952
  84.7876426  62.5866180  57.8094814  85.1709586  63.8923324  62.3638034
  85.6046093  63.7998613  63.2121089  85.8841167  63.8680825  61.7258050
  86.0325136  63.9347025  64.8970920  86.2261026  64.8392835  65.1430195
  85.9325754  63.4754444  65.7309505  81.1478320  62.4073982  50.8882502
  80.5307490  61.6820810  50.7915555  80.6794808  63.1683342  50.5449576
  79.4337442  54.7880326  59.9000532  79.9306141  54.0350288  59.5801602
  78.6624423  54.8244643  59.3343741  87.2867199  60.4920691  61.5418824
  87.2757075  61.3745407  61.1712757  86.4184578  60.1392242  61.3473361
  83.9039774  59.3869332  58.0088990  84.3700226  60.2197324  57.9349292
  84.3547274  58.9214314  58.7134248  81.8756436  51.7549919  62.0479891
  80.9619516  51.9854146  62.2162098  82.3049538  51.8388363  62.8993923
  81.6462895  59.9439811  64.5479785  80.9934345  60.1915719  63.8932238
  82.0243275  59.1303950  64.2142262  82.0352418  68.8784488  56.5277987
  82.2089295  68.3130910  55.7751839  82.5281309  69.6785383  56.3457477
  77.5108185  51.9065651  60.1089064  77.5329881  51.9704984  59.1541044
  77.9276244  51.0670160  60.3029570  87.8891809  61.6420911  58.1468287
  88.3322955  60.8928236  57.7487410  87.0118319  61.6331047  57.7642019
  83.0227590  68.1951252  53.6274885  83.7178495  68.8157945  53.8462200
  83.3650740  67.3446604  53.9027263  84.9219013  65.6450958  55.1562216
  85.4470338  65.9838231  54.4311536  84.8341366  64.7097973  54.9725350
  84.7310795  63.1276328  67.7746142  84.7808799  62.9626335  68.7161665
  84.6224718  62.2603587  67.3844023  82.0214557  59.1107256  69.0905449
  82.9224420  58.9713721  68.7989447  82.0962531  59.2761711  70.0303627
  86.2328991  65.5473269  68.0188164  85.9413800  65.9103250  68.8551625
  85.6201123  64.8340278  67.8401496  87.4324674  63.1126149  60.5390734
  88.2671565  63.5515953  60.7028294  87.5683802  62.6364802  59.7198980
  84.4816180  60.6705884  66.4868222  84.9570301  60.8633530  65.6787073
  83.5581745  60.7265070  66.2411606  79.0596396  52.7053728  65.4524056
  79.5778340  53.4414754  65.1270544  78.7051529  53.0117721  66.2870815
  79.3108990  49.1254010  60.9724952  79.5910744  48.4577199  61.5985379
  80.0959597  49.3183106  60.4599616  83.1817849  57.5471644  64.7196527
  84.1335272  57.6469742  64.7408752  83.0121299  56.7549913  65.2294612
  81.2032228  54.6327227  64.9055928  80.6082160  54.9132240  64.2102417
  80.9181925  55.1221128  65.6772670  82.9627735  67.9016024  50.6262509
  82.8841367  67.5675888  51.5198266  83.7837402  68.3937792  50.6253981
  85.6605926  60.7677764  63.8338827  85.6282247  59.8293764  64.0198511
  86.2706550  60.8461800  63.1004652  85.8100415  57.5588807  63.8797110
  85.2939464  56.7747264  63.6927039  86.6940363  57.2307524  64.0443630
  83.4711142  51.3029823  59.8392923  83.2735963  50.9944911  60.7236255
  84.0810847  52.0291462  59.9690853  91.4782476  61.8293771  62.9744864
  92.2085865  61.5679059  63.5352567  90.8689422  61.0922493  63.0146932
  89.5597773  59.9701633  63.5719315  88.8330937  59.8357598  62.9635807
  89.1445060  60.2778462  64.3776033  79.2284788  51.1838730  57.5889454
  79.7815827  51.6034183  58.2479477  79.4654875  50.2574478  57.6312410
  82.6063596  53.2939255  57.0968119  82.0262265  53.9524059  56.7146171
  82.3399528  52.4716599  56.6855536  81.0567162  52.6944313  59.2989439
  81.5566940  52.8060847  58.4903758  81.7002770  52.3905365  59.9390247
  84.7403010  55.4785866  59.8678806  85.5163400  55.9682319  60.1403423
  84.0151144  55.9043920  60.3250676  87.1775568  56.1913485  60.9252747
  87.7720059  55.9509221  60.2146055  87.2502152  55.4720616  61.5526283
  80.5331687  65.2184020  50.2472487  81.2367537  65.4234022  50.8630142
  79.8094336  65.7860782  50.5121570  85.1734303  56.7583613  57.1924877
  84.9171237  56.3580249  58.0233084  84.5487171  57.4727407  57.0675016
  89.4846641  59.4979686  59.6996168  88.9246199  59.5672876  60.4727730
  88.8790144  59.3220671  58.9795664  82.4418384  65.6566549  52.2970947
  83.2763988  65.2247748  52.1148422  82.2802727  65.4848563  53.2247841
  79.2212522  48.2549548  57.4958541  78.4544917  47.7008035  57.6415224
  79.6323226  48.3271417  58.3572693  91.0702660  76.1736200  62.3926124
  91.7081069  76.0542948  61.6889464  90.9523502  77.1217044  62.4514076
  87.8792366  76.1263628  62.3287648  87.5410877  76.0104693  61.4408183
  88.7482134  75.7254793  62.3088654  83.7379181  77.9799105  58.3184539
  83.1744047  77.8889042  57.5500827  83.6231577  77.1599009  58.7987032
  88.3612149  77.2798480  68.2873854  88.3500790  76.8851278  67.4154358
  88.5232788  76.5464553  68.8807625  81.2843613  79.4750296  61.1568760
  82.0764905  79.1341121  60.7415059  81.5240264  79.5845271  62.0770913
  89.3178740  81.6470072  53.6299004  88.6666720  82.2324153  53.2433018
  90.1123103  82.1776267  53.6894042  83.2434367  78.7359210  54.0286139
  84.0165243  78.1888197  53.8899014  83.5959766  79.6003459  54.2400600
  85.0819410  80.0635592  67.2353038  84.7909276  80.9681223  67.1199704
  85.7176394  80.1052119  67.9497107  86.0075617  77.4412440  63.8254397
  86.6039189  77.2168463  63.1111360  86.0650588  76.6997186  64.4279845
  85.5800645  74.8951876  51.6604588  85.8326166  74.3733397  50.8988051
  84.6425204  74.7318021  51.7631272  90.6243928  73.8987654  59.4679332
  91.4107017  73.4807077  59.1169749  90.8882632  74.8033746  59.6360980
  90.7954005  79.3360504  54.1667989  90.1599838  79.4095131  54.8788893
  90.4651412  79.9254103  53.4887068  96.0252355  73.8362887  60.3712310
  96.7577527  73.2662104  60.6050140  95.2691711  73.4484488  60.8118816
  85.2996934  76.7979982  53.8628963  85.1833192  76.1224885  54.5310048
  85.4099194  76.3112356  53.0461116  87.6428475  76.2590129  57.5675653
  87.2786682  75.7320750  58.2788574  88.4995591  75.8688598  57.3942138
  93.5477775  67.5484461  64.8306919  93.2161100  68.4179872  64.6068134
  92.9523389  67.2320745  65.5100949  87.2833962  71.2880028  52.5637001
  87.4508364  72.1560265  52.9307472  87.0931131  71.4507310  51.6398290
  90.0409295  79.7497007  64.2302832  89.7410018  80.6522046  64.1218639
  89.6960355  79.4829191  65.0823984  83.4921776  76.2010804  60.2639536
  82.5672273  76.0687018  60.4717228  83.7406190  76.9805023  60.7609478
  93.4406439  72.2679548  61.9100269  92.5323316  72.1994956  61.6159030
  93.3894035  72.7451492  62.7382094  87.2623183  73.7437686  53.5483668
  87.1422808  74.1894737  54.3869148  86.5675771  74.0923004  52.9897206
  80.8530588  75.8444078  61.0983325  80.9822969  76.0978557  62.0122737
  80.1728039  76.4371786  60.7787980  85.0230075  86.5141328  57.1973799
  84.9454104  87.4649153  57.2762280  84.4191718  86.1687200  57.8548726
  87.5147305  73.6869193  69.8535166  86.7380639  74.2463113  69.8438031
  88.1537868  74.1725976  70.3750036  95.3068085  70.4695986  63.6878143
  94.6642465  70.7628519  63.0417937  94.8023014  70.3548906  64.4931339
  92.9608249  74.2159159  54.3764002  93.8726105  74.4486546  54.2011700
  92.4517896  74.7996203  53.8139081  85.7693677  76.4954646  69.4153133
  86.5108361  77.0339690  69.1387957  85.0630662  77.1220935  69.5724685
  91.2449017  78.6383787  68.0125295  91.6532373  78.1966197  67.2679927
  90.5226278  78.0636414  68.2659488  87.5980087  73.5756394  65.3858852
  88.4441282  73.9995807  65.5293501  87.5378724  72.9190018  66.0797415
  91.5677831  79.1984978  61.7677584  90.9386694  79.3630692  61.0653651
  91.1803493  79.6126587  62.5388548  90.7479532  71.2360762  67.0440025
  90.5040464  71.9902823  66.5074301  91.0239462  71.6146110  67.8787272
  92.7017995  77.7799374  65.7217291  92.9134890  78.4231134  65.0451672
  92.6547743  76.9461691  65.2539221  90.3044224  70.3917195  62.6253863
  89.4428703  70.6898449  62.9170601  90.3306658  70.6087594  61.6934896
  87.1205793  78.9359386  59.0327669  87.5844139  79.2147089  58.2432291
  86.8562591  78.0342830  58.8500759  84.0129874  78.4830867  61.9707432
  84.5831231  78.9118136  61.3324916  84.6037986  78.2013452  62.6691618
  86.0574679  75.0582538  55.8417234  86.7598722  75.5103582  56.3091160
  85.7255308  74.4166357  56.4697127  84.5055041  73.6494295  70.2168443
  83.8753701  74.3310575  70.4503840  84.3991129  73.5377376  69.2721581
  93.8163823  80.6571330  63.8939648  94.6381266  80.2551517  63.6122330
  93.8126225  80.5539564  64.8455764  87.5820426  80.2055373  66.0500359
  87.6464859  80.6675780  66.8858530  86.8731350  79.5752738  66.1782668
 101.9069816  77.0010078  60.2424620 101.1533524  76.4317476  60.0868624
 102.0417357  76.9672743  61.1895254  87.2968444  81.8723481  55.9179339
  87.1614119  82.7175016  56.3464187  87.8378256  82.0742758  55.1545273
  80.7497841  79.3898919  56.4907264  81.2622362  80.1842169  56.6412829
  81.4020554  78.6925209  56.4240866  82.5592726  82.5064675  58.5730017
  82.7359354  83.4282640  58.3851001  83.3549559  82.1923094  59.0024397
  86.7003744  69.3672940  70.1713951  87.4413458  69.9680093  70.0918413
  86.9321667  68.6250577  69.6131993  81.8445082  74.5529307  68.4492180
  81.7298597  73.6514564  68.7499279  80.9889600  74.7993004  68.0976997
  88.9236920  82.4947047  70.0479681  88.4800774  81.7083426  69.7300586
  89.5854134  82.6826198  69.3823572  83.6824041  84.0242849  64.5740360
  84.2331466  83.8959912  63.8017353  82.8435517  84.3237738  64.2235252
  87.4791212  80.2893977  68.9184591  88.0119549  79.5282265  68.6883899
  86.9505293  79.9967628  69.6608745  90.6460907  65.3954043  64.4478232
  90.3025177  66.2855684  64.3717343  91.0139870  65.2055700  63.5847817
  90.6111190  75.3862654  52.9550668  90.0957813  76.1567258  53.1939055
  90.3388498  74.7127790  53.5783729  88.1958301  70.2312354  58.0135906
  87.3399897  69.8419205  57.8341545  88.6085253  70.3104315  57.1535691
  89.7257448  67.7658698  62.4127466  89.2222243  67.7288833  61.5995271
  90.0188055  68.6751440  62.4724122  85.9700334  67.8497427  61.4193647
  86.8353330  67.6540236  61.0599537  86.0377842  67.6207779  62.3463004
  95.5845464  78.1395008  54.8903841  94.8074907  77.8006168  54.4459003
  96.2636945  78.1447631  54.2158806  90.3997493  73.2589746  54.7810449
  90.0947629  73.5735895  55.6320592  91.3527935  73.3371166  54.8237782
  88.8443925  79.4179969  56.4303403  88.3165287  78.6832729  56.1176640
  88.3431428  80.1954645  56.1843371  93.8236771  77.6128990  61.5470449
  93.1660445  78.3028251  61.6350578  94.6277170  78.0025421  61.8904435
  83.5762653  70.0799635  58.7910014  84.1506405  69.8574817  58.0583207
  84.1633635  70.1488330  59.5438616  92.6342230  75.9673362  59.5974391
  93.1474112  76.6003354  60.0996100  93.2843454  75.3674558  59.2317751
  83.9032240  72.1104096  52.8105899  83.0669552  72.4478783  53.1315174
  83.7637009  71.9753076  51.8733036  85.8785320  66.9540884  57.5185084
  85.2249733  66.6389901  56.8941698  85.8365794  66.3316625  58.2444907
  86.9896525  77.2360179  49.4338376  86.0823587  77.0049433  49.6329525
  87.4867557  76.4397799  49.6212357  89.8964604  85.9457686  52.3535062
  89.2226303  86.2489383  52.9620020  90.2830426  86.7486767  52.0040519
  89.1123061  73.4422818  61.8432731  88.1945622  73.6637765  61.6854419
  89.5283204  73.5169128  60.9844439  89.8958108  74.8414233  56.9735412
  90.6429927  75.3535631  56.6642534  90.1649698  74.5198286  57.8339805
  88.1684759  77.3372774  53.9562366  87.2595978  77.0531807  54.0534836
  88.1979842  77.7571853  53.0965673  93.4004026  80.9479364  57.7253533
  92.9466353  80.1070274  57.7818724  92.7697993  81.5840762  58.0628314
  92.3436946  71.8771350  58.9554201  91.6059702  71.3648736  59.2864443
  92.5963719  71.4371731  58.1437478  92.4448573  64.6547602  59.5495970
  92.7507450  63.7944965  59.2621885  93.1701178  65.2465222  59.3494964
  86.7169653  74.9501395  60.0572161  86.7718262  73.9975231  59.9814638
  85.9060855  75.1060834  60.5413460  87.8660846  78.8781518  51.2950444
  87.4280276  78.1617377  50.8356082  88.6071287  79.1057633  50.7335536
  84.6562013  73.5678455  57.8162540  83.8429878  73.8672625  58.2227732
  85.1521007  73.1734143  58.5337022  86.8070590  83.5636211  59.7496805
  86.7646769  83.7897058  58.8205337  87.7233289  83.3299586  59.8982606
  90.2536224  74.0320279  66.6477434  90.6085612  74.2591752  67.5071900
  90.9008356  74.3638656  66.0254689  95.9833961  77.1538715  57.3526763
  95.8451860  77.3440311  56.4247952  95.6270180  77.9158098  57.8094814
  84.9236391  80.4399240  59.5458767  85.7176990  79.9449561  59.3441342
  84.2128084  79.9117104  59.1826473  89.7431236  82.8217336  63.8971135
  89.7968258  83.3908272  64.6648851  88.8746017  82.9919221  63.5325172
  81.2319155  74.5842322  55.6218520  80.3016743  74.5226778  55.8388482
  81.3276627  74.0618275  54.8255161  96.8718890  79.2638943  64.8970920
  97.0654780  80.1684753  65.1430195  96.7719509  78.8046362  65.7309505
  88.5255201  69.1496833  67.3961247  87.8783116  69.8486783  67.3025724
  89.2956217  69.5832977  67.7637495  91.9333999  79.4145685  70.4711800
  91.7819505  79.1856237  69.5541884  91.9238679  80.3716287  70.4843145
  88.7019335  76.9877598  65.4558067  89.6311395  77.1388758  65.2827034
  88.2810365  77.0761619  64.6006713  87.5007667  81.0128262  63.2256605
  87.3618753  80.6447047  64.0982543  86.7122263  81.5275902  63.0540562
  88.0955819  86.1137359  54.5682141  88.2707575  85.6425402  55.3827764
  87.4088607  86.7403125  54.7963402  89.0512882  80.3909865  60.6145442
  88.7162715  80.3510635  61.5103092  88.5516828  79.7254581  60.1415853
  83.0257126  75.7977495  66.1398023  82.8876924  75.0657734  66.7409563
  83.9362050  75.7086395  65.8582211  91.9872074  77.7365899  50.8882502
  91.3701245  77.0112728  50.7915555  91.5188563  78.4975260  50.5449576
  85.6539427  75.5097454  65.6281703  86.3639046  74.8690647  65.5868322
  85.6108735  75.7610349  66.5507884  93.6426206  82.4464808  68.5488282
  93.5838752  81.7624028  67.8818865  94.0445724  83.1883798  68.0968908
  84.3668361  72.4962672  67.4477343  83.8305718  72.0453411  68.0998939
  83.7785069  72.6308581  66.7047807  82.6616905  89.2626722  61.3422001
  82.9013503  89.8945246  62.0201020  81.8186101  88.9114762  61.6287360
  83.7770620  71.9551324  50.0103806  82.9000086  71.8340125  49.6466053
  84.2528373  71.1637402  49.7582695  93.6443613  80.4104392  66.7802262
  92.7570392  80.0730314  66.9028661  94.2142164  79.6787423  67.0171027
  87.1744766  85.0705844  63.7463505  87.1014938  85.8760816  64.2582810
  86.7322159  85.2697810  62.9211527  86.9634546  84.3077614  57.2566327
  86.1802068  84.8499294  57.3504551  87.6627291  84.8251594  57.6560568
  90.2731196  70.1172244  59.9000532  90.7699896  69.3642206  59.5801602
  89.5018178  70.1536560  59.3343741  98.1260954  75.8212609  61.5418824
  98.1150830  76.7037325  61.1712757  97.2578333  75.4684160  61.3473361
  89.6343450  84.9692678  65.9021664  90.3471422  85.6040143  65.8297565
  89.1433479  85.0656544  65.0861666  91.3560977  78.8743931  57.4738956
  90.4217256  78.9945393  57.3043660  91.5337645  77.9716398  57.2098965
  86.8566165  72.2589627  59.6272217  86.4863952  71.7060667  60.3153122
  87.3525257  71.6547760  59.0747217  94.7433528  74.7161250  58.0088990
  95.2093980  75.5489242  57.9349292  95.1941029  74.2506232  58.7134248
  84.6855363  82.7187122  66.7227235  85.3864823  83.3523605  66.8756629
  84.2150478  83.0601853  65.9622874  92.8109759  81.0605071  55.0075142
  93.0869603  80.9461666  55.9169016  91.9414258  80.6622556  54.9687315
  92.7150191  67.0841837  62.0479891  91.8013271  67.3146064  62.2162098
  93.1443292  67.1680281  62.8993923  92.4856649  75.2731729  64.5479785
  91.8328100  75.5207637  63.8932238  92.8637029  74.4595867  64.2142262
  89.4463823  85.3091422  58.6507955  89.6286218  84.4913078  59.1135708
  90.2696809  85.5259114  58.2132845  89.7805989  84.2359607  55.9123004
  90.3093755  83.7252062  55.2993166  90.0434208  83.9202138  56.7768537
  88.5344222  76.0151540  71.0345822  87.8584859  75.9145669  71.7048197
  89.3571856  75.8590754  71.4981819  80.2823081  82.2523477  63.6558337
  80.8676518  81.5067165  63.7886242  80.0847920  82.5627433  64.5395001
  83.1361737  85.2874724  58.6720780  82.4672112  85.7720852  58.1884820
  82.9974606  85.5343944  59.5864158  87.2767005  87.3218468  65.2703438
  87.8285313  87.4850089  66.0352523  87.6173199  87.9122905  64.5983463
  92.1277880  82.1479725  71.1252093  92.6717784  82.7609683  70.6307047
  91.5464724  82.7059303  71.6419106  90.4135393  85.2700443  62.2567120
  90.2886532  84.4690183  61.7478066  91.0714484  85.7646636  61.7681090
  89.4816734  82.8662179  60.0851023  89.3341697  81.9378887  60.2658593
  90.3070228  82.8882270  59.6008098  83.3478979  71.5180246  55.9431515
  83.6875051  72.0466168  55.2210123  83.7951099  71.8560653  56.7190081
  93.0850856  83.6890738  61.1715895  94.0097404  83.4833599  61.0340346
  92.9166159  83.4407139  62.0805237  86.0422419  69.9017297  65.3934583
  85.7019240  69.1025110  65.7955263  85.3361426  70.2019008  64.8211416
  86.6938891  66.9866610  63.8461906  87.5164961  66.5127088  63.7240796
  86.9376955  67.7657093  64.3460592  85.3347126  70.0154868  54.1424808
  86.0555488  70.3936121  53.6388524  84.7112430  70.7343745  54.2459785
  89.4778249  70.7200017  55.0783140  89.6941863  71.6024655  54.7771968
  88.9972316  70.3286230  54.3488782  84.2177470  73.6785730  61.6553884
  84.0722051  73.9926033  62.5478166  83.7402674  74.2970631  61.1024783
  86.0773853  70.6688278  61.7034774  86.0635422  69.7729372  61.3667072
  86.7946281  70.6758942  62.3373060  87.9299984  71.1025618  63.7487901
  87.6717761  72.0242689  63.7472232  87.3985024  70.7056053  64.4388366
  92.8746172  84.2076406  56.5277987  93.0483050  83.6422828  55.7751839
  93.3675064  85.0077300  56.3457477  78.6923132  76.2191075  64.5941546
  78.1476600  76.9950883  64.7261820  79.5702482  76.5661879  64.4360667
  85.4810749  69.5502659  56.9722344  85.6026660  68.6219305  57.1713232
  85.1912791  69.5641344  56.0600660  88.3501939  67.2357569  60.1089064
  88.3723636  67.2996902  59.1541044  88.7669998  66.3962078  60.3029570
  98.7285563  76.9712829  58.1468287  99.1716710  76.2220154  57.7487410
  97.8512074  76.9622965  57.7642019  79.4789154  75.3460971  67.4871702
  78.7370890  75.4943606  68.0736333  79.1581898  75.6069237  66.6238452
  87.4232817  84.8876949  67.2852092  87.7319943  84.6426096  68.1574792
  88.2208299  85.0923588  66.7970963  87.4453429  87.0414859  59.5157469
  87.0058419  86.5491237  60.2090326  88.1961546  86.4987826  59.2749544
  79.9245768  83.2326400  59.5182097  80.7503788  82.9330172  59.1380741
  79.5739820  82.4634022  59.9671886  84.8927301  82.5852868  61.5879771
  84.2707310  81.9223573  61.2881999  85.5632168  82.6114000  60.9053418
  84.9651828  71.0634656  71.1812277  85.0139984  71.9396779  70.7990046
  85.5074343  70.5212049  70.6083920  95.4506674  81.6075779  70.4613414
  94.6602218  81.5899918  69.9217913  95.2140029  82.1464073  71.2162450
  95.5704549  78.4568246  67.7746142  95.6202554  78.2918253  68.7161665
  95.4618472  77.5895505  67.3844023  84.4540808  81.1356791  55.0638231
  84.6028928  81.8192256  54.4104904  85.2607251  81.1161881  55.5787687
  92.8608311  74.4399174  69.0905449  93.7618174  74.3005638  68.7989447
  92.9356286  74.6053628  70.0303627  87.1951117  71.8166028  67.9358635
  86.3254426  72.1099594  67.6641224  87.4310597  72.4006473  68.6565899
  97.0722746  80.8765187  68.0188164  96.7807554  81.2395168  68.8551625
  96.4594877  80.1632195  67.8401496  98.2718428  78.4418067  60.5390734
  99.1065320  78.8807871  60.7028294  98.4077557  77.9656720  59.7198980
  95.3209934  75.9997802  66.4868222  95.7964056  76.1925448  65.6787073
  94.3975499  76.0556987  66.2411606  82.2093441  77.1621969  56.0699300
  81.9639483  76.2584299  56.2679510  82.3789355  77.1639119  55.1278778
  89.8990151  68.0345645  65.4524056  90.4172094  68.7706672  65.1270544
  89.5445283  68.3409639  66.2870815  81.4789088  72.8950326  53.5685462
  80.7858333  72.9694681  52.9125498  81.2340840  72.1310670  54.0906979
  90.1502745  64.4545928  60.9724952  90.4304499  63.7869117  61.5985379
  90.9353352  64.6475023  60.4599616  87.9536213  83.6304922  52.5349979
  87.3810180  84.2495109  52.0820451  88.5269007  84.1804283  53.0689901
  94.0211603  72.8763562  64.7196527  94.9729026  72.9761659  64.7408752
  93.8515054  72.0841830  65.2294612  92.0425983  69.9619145  64.9055928
  91.4475915  70.2424158  64.2102417  91.7575679  70.4513046  65.6772670
  91.1733473  83.9142072  53.6658561  92.1064146  83.8487633  53.8691436
  91.0856686  84.7498339  53.2073094  93.8021490  83.2307942  50.6262509
  93.7235121  82.8967806  51.5198266  94.6231157  83.7229710  50.6253981
  88.3383012  74.9665734  49.8766031  89.2842116  74.8371943  49.9454449
  87.9597257  74.2280396  50.3535459  96.6494169  72.8880725  63.8797110
  96.1333218  72.1039182  63.6927039  97.5334118  72.5599441  64.0443630
  94.3104896  66.6321740  59.8392923  94.1129717  66.3236829  60.7236255
  94.9204602  67.3583379  59.9690853 102.3176231  77.1585688  62.9744864
 103.0479619  76.8970976  63.5352567 101.7083176  76.4214410  63.0146932
 100.3991528  75.2993551  63.5719315  99.6724691  75.1649516  62.9635807
  99.9838815  75.6070379  64.3776033  88.2221704  79.0183481  71.3366688
  89.1424714  79.1962080  71.5306735  88.1871287  78.0739526  71.1846387
  86.5225929  72.8915711  49.8120916  85.6157384  72.5948824  49.8883630
  86.8001910  72.5945529  48.9455203  81.2183777  76.9284515  63.9789469
  81.4369787  77.8601623  63.9977503  81.6309551  76.5692490  64.7644273
  88.1387995  67.4352601  55.9665158  87.3288723  67.0899685  56.3420404
  88.8272412  67.1260144  56.5552769  90.0678543  66.5130647  57.5889454
  90.6209582  66.9326101  58.2479477  90.3048629  65.5866395  57.6312410
  86.0911642  72.5017721  73.3692218  85.9908369  73.4512078  73.3004309
  85.8733184  72.1735960  72.4968288  85.2924714  69.7502646  49.9532896
  86.1543878  70.0757544  50.2128713  85.4775058  68.9634142  49.4405961
  93.4457350  68.6231172  57.0968119  92.8656019  69.2815977  56.7146171
  93.1793283  67.8008517  56.6855536  91.8960916  68.0236230  59.2989439
  92.3960695  68.1352765  58.4903758  92.5396524  67.7197283  59.9390247
  85.9542912  75.9314860  72.1857280  85.4709994  76.7315220  72.3921169
  86.0403851  75.9422805  71.2324724  81.8816250  79.8219395  64.2225714
  82.8359503  79.7903337  64.1555645  81.6828773  79.3610018  65.0375940
  82.4715632  78.3920511  66.7896511  83.2908521  78.8864589  66.8131349
  82.7452440  77.4752479  66.7614079  92.2282228  70.7831263  56.1524467
  91.3408083  71.0680913  55.9344662  92.6436217  70.6225026  55.3051744
  95.5796764  70.8077784  59.8678806  96.3557154  71.2974236  60.1403423
  94.8544898  71.2335838  60.3250676  80.2366478  85.3639014  61.2395912
  80.1020946  84.6039415  60.6733910  79.8198541  86.0879914  60.7724700
  91.3725441  80.5475938  50.2472487  92.0761292  80.7525940  50.8630142
  90.6488090  81.1152699  50.5121570  92.2023252  76.2985799  56.3674757
  92.1458453  76.7554350  55.5282389  92.7551594  75.5376483  56.1897600
  96.0128058  72.0875531  57.1924877  95.7564992  71.6872166  58.0233084
  95.3880926  72.8019325  57.0675016 100.3240396  74.8271604  59.6996168
  99.7639954  74.8964793  60.4727730  99.7183899  74.6512589  58.9795664
  83.3935604  86.2608331  61.4514354  83.2767989  87.2053764  61.3493044
  82.5728051  85.9581893  61.8400153  93.2812139  80.9858467  52.2970947
  94.1157743  80.5539665  52.1148422  93.1196482  80.8140480  53.2247841
  92.9358031  77.4890580  53.6627286  92.8806835  77.3234851  52.7215730
  92.3104086  78.1966613  53.8189476  86.2454157  66.9898689  53.2412605
  86.2332826  67.9340529  53.3980875  87.1377578  66.8068834  52.9472066
  84.4190118  86.9136593  64.6670283  85.3217365  86.9460203  64.9836778
  84.1927489  85.9837044  64.6816618  86.1743721  85.6667579  61.3280361
  85.2239352  85.6669441  61.2144734  86.4776207  84.9200314  60.8116396
  90.0606276  63.5841466  57.4958541  89.2938672  63.0299952  57.6415224
  90.4716981  63.6563334  58.3572693 101.9096414  91.5028118  62.3926124
 102.5474824  91.3834865  61.6889464 101.7917257  92.4508962  62.4514076
  98.7186120  91.4555546  62.3287648  98.3804632  91.3396611  61.4408183
  99.5875888  91.0546711  62.3088654  94.5772936  93.3091022  58.3184539
  94.0137801  93.2180959  57.5500827  94.4625331  92.4890927  58.7987032
  99.2005903  92.6090398  68.2873854  99.1894544  92.2143196  67.4154358
  99.3626543  91.8756470  68.8807625  92.1237368  94.8042214  61.1568760
  92.9158660  94.4633039  60.7415059  92.3634018  94.9137189  62.0770913
 100.1572495  96.9761990  53.6299004  99.5060474  97.5616070  53.2433018
 100.9516857  97.5068185  53.6894042  94.0828122  94.0651127  54.0286139
  94.8558998  93.5180114  53.8899014  94.4353521  94.9295377  54.2400600
  95.9213164  95.3927509  67.2353038  95.6303030  96.2973140  67.1199704
  96.5570149  95.4344037  67.9497107  96.8469371  92.7704358  63.8254397
  97.4432944  92.5460380  63.1111360  96.9044343  92.0289103  64.4279845
  96.4194400  90.2243793  51.6604588  96.6719920  89.7025315  50.8988051
  95.4818959  90.0609939  51.7631272 101.4637682  89.2279572  59.4679332
 102.2500772  88.8098995  59.1169749 101.7276387  90.1325664  59.6360980
 101.6347760  94.6652422  54.1667989 100.9993593  94.7387049  54.8788893
 101.3045166  95.2546021  53.4887068 106.8646110  89.1654805  60.3712310
 107.5971282  88.5954022  60.6050140 106.1085465  88.7776405  60.8118816
  96.1390688  92.1271899  53.8628963  96.0226947  91.4516803  54.5310048
  96.2492948  91.6404273  53.0461116  98.4822229  91.5882046  57.5675653
  98.1180437  91.0612667  58.2788574  99.3389345  91.1980515  57.3942138
 104.3871530  82.8776379  64.8306919 104.0554855  83.7471790  64.6068134
 103.7917143  82.5612663  65.5100949  98.1227716  86.6171946  52.5637001
  98.2902119  87.4852182  52.9307472  97.9324885  86.7799228  51.6398290
 100.8803049  95.0788925  64.2302832 100.5803773  95.9813964  64.1218639
 100.5354109  94.8121108  65.0823984  94.3315531  91.5302722  60.2639536
  93.4066027  91.3978936  60.4717228  94.5799944  92.3096941  60.7609478
 104.2800193  87.5971465  61.9100269 103.3717071  87.5286874  61.6159030
 104.2287789  88.0743410  62.7382094  98.1016937  89.0729604  53.5483668
  97.9816562  89.5186654  54.3869148  97.4069526  89.4214921  52.9897206
  91.6924342  91.1735995  61.0983325  91.8216723  91.4270474  62.0122737
  91.0121793  91.7663703  60.7787980  95.8623829 101.8433245  57.1973799
  95.7847859 102.7941070  57.2762280  95.2585473 101.4979118  57.8548726
  98.3541059  89.0161111  69.8535166  97.5774393  89.5755031  69.8438031
  98.9931622  89.5017894  70.3750036 106.1461840  85.7987904  63.6878143
 105.5036220  86.0920437  63.0417937 105.6416768  85.6840824  64.4931339
 103.8002003  89.5451077  54.3764002 104.7119859  89.7778464  54.2011700
 103.2911650  90.1288121  53.8139081  96.6087431  91.8246564  69.4153133
  97.3502116  92.3631608  69.1387957  95.9024417  92.4512853  69.5724685
 102.0842771  93.9675705  68.0125295 102.4926127  93.5258115  67.2679927
 101.3620033  93.3928332  68.2659488  98.4373841  88.9048311  65.3858852
  99.2835036  89.3287725  65.5293501  98.3772479  88.2481936  66.0797415
 102.4071586  94.5276895  61.7677584 101.7780448  94.6922609  61.0653651
 102.0197248  94.9418505  62.5388548 106.2860818  95.4631333  59.1221947
 105.6011856  95.8430234  58.5718981 106.3704667  96.0726660  59.8553895
 101.5873286  86.5652680  67.0440025 101.3434218  87.3194740  66.5074301
 101.8633217  86.9438027  67.8787272 103.5411749  93.1091292  65.7217291
 103.7528644  93.7523052  65.0451672 103.4941497  92.2753609  65.2539221
 101.1437978  85.7209113  62.6253863 100.2822457  86.0190366  62.9170601
 101.1700413  85.9379512  61.6934896  97.9599548  94.2651303  59.0327669
  98.4237893  94.5439006  58.2432291  97.6956346  93.3634748  58.8500759
  94.8523629  93.8122785  61.9707432  95.4224986  94.2410053  61.3324916
  95.4431740  93.5305370  62.6691618  96.8968434  90.3874456  55.8417234
  97.5992477  90.8395499  56.3091160  96.5649062  89.7458275  56.4697127
  95.3448795  88.9786212  70.2168443  94.7147456  89.6602493  70.4503840
  95.2384883  88.8669294  69.2721581 104.6557577  95.9863248  63.8939648
 105.4775021  95.5843435  63.6122330 104.6519980  95.8831482  64.8455764
  92.5908513  89.0102588  58.1017844  91.7939676  89.1221282  58.6201340
  92.3634105  89.3489240  57.2358735  98.4214181  95.5347291  66.0500359
  98.4858613  95.9967698  66.8858530  97.7125104  94.9044656  66.1782668
  88.9231471  88.8988499  63.5749358  89.1739509  89.7835509  63.8406934
  89.4591019  88.7193100  62.8024450 112.7463570  92.3301996  60.2424620
 111.9927279  91.7609394  60.0868624 112.8811111  92.2964660  61.1895254
  98.1362198  97.2015398  55.9179339  98.0007873  98.0466934  56.3464187
  98.6772011  97.4034676  55.1545273  94.6229538  83.2806978  72.5793694
  94.2296483  82.7273177  73.2541338  95.4395678  83.5917557  72.9700212
  91.5891596  94.7190836  56.4907264  92.1016116  95.5134087  56.6412829
  92.2414308  94.0217127  56.4240866  93.3986480  97.8356593  58.5730017
  93.5753109  98.7574557  58.3851001  94.1943314  97.5215012  59.0024397
  97.5397499  84.6964857  70.1713951  98.2807212  85.2972010  70.0918413
  97.7715422  83.9542495  69.6131993  92.6838837  89.8821225  68.4492180
  92.5692352  88.9806482  68.7499279  91.8283355  90.1284921  68.0976997
  99.7630675  97.8238965  70.0479681  99.3194529  97.0375343  69.7300586
 100.4247888  98.0118115  69.3823572  94.5217796  99.3534766  64.5740360
  95.0725221  99.2251830  63.8017353  93.6829272  99.6529655  64.2235252
 101.8611913  98.1041765  68.0761082 101.8430388  98.9250646  67.5841351
 102.7831833  97.9795840  68.3011223  98.3184967  95.6185894  68.9184591
  98.8513304  94.8574182  68.6883899  97.7899048  95.3259546  69.6608745
 101.4854662  80.7245960  64.4478232 101.1418931  81.6147602  64.3717343
 101.8533624  80.5347618  63.5847817  89.5540512  93.0479491  57.2666835
  90.3915734  93.4576499  57.0500542  89.7318780  92.1078933  57.2367028
 101.4504944  90.7154571  52.9550668 100.9351568  91.4859176  53.1939055
 101.1782253  90.0419707  53.5783729  99.0352056  85.5604272  58.0135906
  98.1793652  85.1711122  57.8341545  99.4479007  85.6396233  57.1535691
 100.5651202  83.0950615  62.4127466 100.0615998  83.0580751  61.5995271
 100.8581809  84.0043358  62.4724122  96.8094088  83.1789345  61.4193647
  97.6747085  82.9832154  61.0599537  96.8771597  82.9499697  62.3463004
 106.4239219  93.4686926  54.8903841 105.6468661  93.1298085  54.4459003
 107.1030700  93.4739549  54.2158806 101.2391248  88.5881663  54.7810449
 100.9341383  88.9027813  55.6320592 102.1921690  88.6663083  54.8237782
  99.6837680  94.7471887  56.4303403  99.1559041  94.0124646  56.1176640
  99.1825182  95.5246563  56.1843371 104.6630526  92.9420907  61.5470449
 104.0054200  93.6320169  61.6350578 105.4670925  93.3317339  61.8904435
  94.4156407  85.4091553  58.7910014  94.9900159  85.1866734  58.0583207
  95.0027390  85.4780247  59.5438616 103.4735984  91.2965280  59.5974391
 103.9867866  91.9295272  60.0996100 104.1237208  90.6966475  59.2317751
  94.7425994  87.4396014  52.8105899  93.9063306  87.7770701  53.1315174
  94.6030764  87.3044994  51.8733036  96.7179075  82.2832802  57.5185084
  96.0643487  81.9681819  56.8941698  96.6759549  81.6608542  58.2444907
  97.8290280  92.5652097  49.4338376  96.9217341  92.3341350  49.6329525
  98.3261312  91.7689716  49.6212357 100.7358359 101.2749604  52.3535062
 100.0620057 101.5781301  52.9620020 101.1224181 102.0778684  52.0040519
  99.9516815  88.7714735  61.8432731  99.0339377  88.9929682  61.6854419
 100.3676959  88.8461046  60.9844439 100.7351863  90.1706151  56.9735412
 101.4823682  90.6827548  56.6642534 101.0043453  89.8490204  57.8339805
  99.0078513  92.6664692  53.9562366  98.0989732  92.3823725  54.0534836
  99.0373597  93.0863770  53.0965673 104.2397781  96.2771281  57.7253533
 103.7860108  95.4362191  57.7818724 103.6091747  96.9132680  58.0628314
 103.1830700  87.2063267  58.9554201 102.4453457  86.6940654  59.2864443
 103.4357474  86.7663649  58.1437478 102.6830720  98.1147778  58.6603352
 102.9753694  98.6752835  57.9415717 103.1929340  98.4076339  59.4156511
 103.2842327  79.9839519  59.5495970 103.5901204  79.1236883  59.2621885
 104.0094932  80.5757140  59.3494964  89.5766684  90.3870206  57.9377568
  89.3791083  89.7939567  57.2128635  89.0213348  90.0822416  58.6553507
  97.5563407  90.2793312  60.0572161  97.6112017  89.3267149  59.9814638
  96.7454609  90.4352752  60.5413460  98.7054601  94.2073436  51.2950444
  98.2674031  93.4909294  50.8356082  99.4465042  94.4349550  50.7335536
  95.4955767  88.8970372  57.8162540  94.6823633  89.1964543  58.2227732
  95.9914761  88.5026061  58.5337022  97.6464345  98.8928129  59.7496805
  97.6040524  99.1188975  58.8205337  98.5627044  98.6591504  59.8982606
 101.0929979  89.3612197  66.6477434 101.4479367  89.5883670  67.5071900
 101.7402110  89.6930573  66.0254689 106.8227716  92.4830633  57.3526763
 106.6845614  92.6732229  56.4247952 106.4663935  93.2450015  57.8094814
  94.9869842  86.4688728  63.4323775  95.6269221  86.3277487  62.7346738
  94.1547372  86.1823241  63.0562377 106.8497095  94.5507160  62.3638034
 107.2833602  94.4582449  63.2121089 107.5628676  94.5264660  61.7258050
  95.7630146  95.7691158  59.5458767  96.5570744  95.2741478  59.3441342
  95.0521838  95.2409021  59.1826473 100.5824990  98.1509254  63.8971135
 100.6362013  98.7200190  64.6648851  99.7139772  98.3211139  63.5325172
  92.0712909  89.9134240  55.6218520  91.1410497  89.8518695  55.8388482
  92.1670381  89.3910193  54.8255161  91.9898458  86.4389053  58.2096762
  92.2505276  87.3534386  58.1005922  92.8115631  85.9713495  58.3593375
  93.4623384  87.8526810  65.3795586  94.1346437  87.6444172  64.7308235
  92.6353170  87.6548896  64.9400819 107.7112645  94.5930860  64.8970920
 107.9048535  95.4976671  65.1430195 107.6113263  94.1338279  65.7309505
  99.3648956  84.4788751  67.3961247  98.7176871  85.1778700  67.3025724
 100.1349971  84.9124895  67.7637495 102.7727754  94.7437603  70.4711800
 102.6213260  94.5148155  69.5541884 102.7632433  95.7008204  70.4843145
  99.5413090  92.3169516  65.4558067 100.4705150  92.4680675  65.2827034
  99.1204120  92.4053536  64.6006713  98.3401422  96.3420180  63.2256605
  98.2012507  95.9738965  64.0982543  97.5516018  96.8567820  63.0540562
  98.9349574 101.4429277  54.5682141  99.1101329 100.9717320  55.3827764
  98.2482362 102.0695043  54.7963402  99.8906637  95.7201783  60.6145442
  99.5556470  95.6802553  61.5103092  99.3910583  95.0546499  60.1415853
  93.8650881  91.1269413  66.1398023  93.7270679  90.3949652  66.7409563
  94.7755804  91.0378313  65.8582211 102.8265829  93.0657817  50.8882502
 102.2094999  92.3404645  50.7915555 102.3582317  93.8267177  50.5449576
  96.4933182  90.8389372  65.6281703  97.2032800  90.1982564  65.5868322
  96.4502490  91.0902267  66.5507884 104.4819960  97.7756725  68.5488282
 104.4232506  97.0915946  67.8818865 104.8839479  98.5175716  68.0968908
  95.2062116  87.8254590  67.4477343  94.6699473  87.3745329  68.0998939
  94.6178824  87.9600499  66.7047807  93.5010659 104.5918639  61.3422001
  93.7407257 105.2237164  62.0201020  92.6579855 104.2406679  61.6287360
  94.6164374  87.2843241  50.0103806  93.7393841  87.1632042  49.6466053
  95.0922128  86.4929320  49.7582695 104.4837367  95.7396309  66.7802262
 103.5964146  95.4022231  66.9028661 105.0535919  95.0079341  67.0171027
  86.1366515  92.0720401  60.1045313  86.8237554  91.7582131  59.5166329
  85.9814643  92.9761766  59.8312565  98.0138521 100.3997762  63.7463505
  97.9408692 101.2052733  64.2582810  97.5715914 100.5989728  62.9211527
  97.8028300  99.6369532  57.2566327  97.0195822 100.1791212  57.3504551
  98.5021046 100.1543511  57.6560568 101.1124951  85.4464161  59.9000532
 101.6093650  84.6934124  59.5801602 100.3411932  85.4828478  59.3343741
 108.9654708  91.1504527  61.5418824 108.9544584  92.0329242  61.1712757
 108.0972087  90.7976078  61.3473361 100.4737204 100.2984596  65.9021664
 101.1865177 100.9332061  65.8297565  99.9827233 100.3948462  65.0861666
 102.1954731  94.2035848  57.4738956 101.2611010  94.3237311  57.3043660
 102.3731400  93.3008315  57.2098965  97.6959919  87.5881544  59.6272217
  97.3257707  87.0352585  60.3153122  98.1919012  86.9839678  59.0747217
 105.5827283  90.0453168  58.0088990 106.0487735  90.8781159  57.9349292
 106.0334783  89.5798149  58.7134248  95.5249118  98.0479039  66.7227235
  96.2258577  98.6815522  66.8756629  95.0544233  98.3893771  65.9622874
 103.6503514  96.3896989  55.0075142 103.9263358  96.2753584  55.9169016
 102.7808012  95.9914474  54.9687315 103.5543945  82.4133755  62.0479891
 102.6407025  82.6437982  62.2162098 103.9837047  82.4972199  62.8993923
 103.3250404  90.6023647  64.5479785 102.6721854  90.8499554  63.8932238
 103.7030784  89.7887785  64.2142262 100.2857578 100.6383340  58.6507955
 100.4679972  99.8204996  59.1135708 101.1090564 100.8551032  58.2132845
 100.6199743  99.5651525  55.9123004 101.1487510  99.0543980  55.2993166
 100.8827963  99.2494055  56.7768537  99.3737977  91.3443458  71.0345822
  98.6978614  91.2437587  71.7048197 100.1965611  91.1882672  71.4981819
  91.1216836  97.5815394  63.6558337  91.7070273  96.8359082  63.7886242
  90.9241674  97.8919351  64.5395001  93.9755491 100.6166642  58.6720780
  93.3065866 101.1012769  58.1884820  93.8368361 100.8635862  59.5864158
  85.7134491  90.1520995  62.3762781  85.7518590  89.6184585  63.1699899
  85.2074784  89.6256200  61.7573758  98.1160760 102.6510385  65.2703438
  98.6679068 102.8142007  66.0352523  98.4566953 103.2414823  64.5983463
  93.0925253  84.9985535  65.8725323  93.1566580  85.8600366  65.4602721
  93.0292373  84.3859537  65.1397681 102.9671634  97.4771643  71.1252093
 103.5111538  98.0901601  70.6307047 102.3858479  98.0351221  71.6419106
  89.3443068  88.8785097  55.4516712  89.6396509  87.9695775  55.3983766
  88.4431104  88.8572836  55.1297714 101.2529147 100.5992361  62.2567120
 101.1280287  99.7982101  61.7478066 101.9108238 101.0938554  61.7681090
  92.8737315  86.9541093  61.4344261  92.1523901  87.5677061  61.2951734
  93.6630571  87.4898858  61.3560906 103.3164055  98.4001381  63.8846670
 102.3694391  98.2806732  63.8124997 103.6646829  97.5123879  63.9672932
  95.6763629  84.2895520  67.7084912  96.1998031  84.5357816  68.4711222
  95.4575962  85.1215555  67.2888050  91.0730910  86.5599194  55.5756037
  90.7443616  85.6796573  55.3931143  91.4270281  86.5046863  56.4632426
 100.3210489  98.1954097  60.0851023 100.1735451  97.2670804  60.2658593
 101.1463982  98.2174188  59.6008098  94.1872733  86.8472164  55.9431515
  94.5268806  87.3758085  55.2210123  94.6344854  87.1852570  56.7190081
 103.9244611  99.0182656  61.1715895 104.8491158  98.8125517  61.0340346
 103.7559914  98.7699057  62.0805237  96.8816174  85.2309215  65.3934583
  96.5412994  84.4317028  65.7955263  96.1755180  85.5310926  64.8211416
  97.5332646  82.3158527  63.8461906  98.3558715  81.8419005  63.7240796
  97.7770709  83.0949011  64.3460592  96.1740880  85.3446786  54.1424808
  96.8949243  85.7228039  53.6388524  95.5506184  86.0635663  54.2459785
 100.3172003  86.0491935  55.0783140 100.5335617  86.9316573  54.7771968
  99.8366070  85.6578148  54.3488782  95.0571224  89.0077648  61.6553884
  94.9115805  89.3217951  62.5478166  94.5796428  89.6262548  61.1024783
  96.9167607  85.9980196  61.7034774  96.9029176  85.1021289  61.3667072
  97.6340035  86.0050860  62.3373060  98.7693738  86.4317536  63.7487901
  98.5111516  87.3534607  63.7472232  98.2378778  86.0347971  64.4388366
 103.7139927  99.5368323  56.5277987 103.8876804  98.9714746  55.7751839
 104.2068818 100.3369218  56.3457477  89.5316887  91.5482992  64.5941546
  88.9870355  92.3242800  64.7261820  90.4096236  91.8953797  64.4360667
  96.3204503  84.8794576  56.9722344  96.4420414  83.9511222  57.1713232
  96.0306546  84.8933262  56.0600660  99.1895694  82.5649487  60.1089064
  99.2117390  82.6288820  59.1541044  99.6063753  81.7253995  60.3029570
 109.5679318  92.3004746  58.1468287 110.0110464  91.5512071  57.7487410
 108.6905828  92.2914883  57.7642019 104.7015099  98.8535088  53.6274885
 105.3966004  99.4741780  53.8462200 105.0438249  98.0030439  53.9027263
  90.3182908  90.6752889  67.4871702  89.5764645  90.8235524  68.0736333
  89.9975653  90.9361154  66.6238452 106.6006522  96.3034793  55.1562216
 107.1257847  96.6422066  54.4311536 106.5128875  95.3681809  54.9725350
  98.2626571 100.2168867  67.2852092  98.5713698  99.9718014  68.1574792
  99.0602053 100.4215505  66.7970963  98.2847183 102.3706776  59.5157469
  97.8452173 101.8783155  60.2090326  99.0355300 101.8279744  59.2749544
  90.7639522  98.5618317  59.5182097  91.5897542  98.2622089  59.1380741
  90.4133574  97.7925940  59.9671886  95.7321055  97.9144786  61.5879771
  95.1101065  97.2515491  61.2881999  96.4025922  97.9405917  60.9053418
  88.9648127  96.4804644  60.4771031  88.1280036  96.0526818  60.2955032
  88.9371773  96.6737087  61.4141822  95.8045583  86.3926574  71.1812277
  95.8533738  87.2688696  70.7990046  96.3468097  85.8503967  70.6083920
 106.2900428  96.9367697  70.4613414 105.4995972  96.9191836  69.9217913
 106.0533783  97.4755991  71.2162450 106.4098304  93.7860163  67.7746142
 106.4596308  93.6210171  68.7161665 106.3012227  92.9187422  67.3844023
  95.2934562  96.4648709  55.0638231  95.4422683  97.1484173  54.4104904
  96.1001006  96.4453799  55.5787687 103.7002066  89.7691091  69.0905449
 104.6011929  89.6297556  68.7989447 103.7750040  89.9345546  70.0303627
  98.0344871  87.1457946  67.9358635  97.1648181  87.4391512  67.6641224
  98.2704352  87.7298391  68.6565899 107.9116500  96.2057105  68.0188164
 107.6201309  96.5687085  68.8551625 107.2988632  95.4924113  67.8401496
 109.1112183  93.7709984  60.5390734 109.9459074  94.2099789  60.7028294
 109.2471311  93.2948638  59.7198980 106.1603689  91.3289719  66.4868222
 106.6357810  91.5217366  65.6787073 105.2369254  91.3848905  66.2411606
  93.0487195  92.4913887  56.0699300  92.8033237  91.5876217  56.2679510
  93.2183110  92.4931037  55.1278778 100.7383905  83.3637563  65.4524056
 101.2565849  84.0998590  65.1270544 100.3839038  83.6701556  66.2870815
  92.3182843  88.2242244  53.5685462  91.6252088  88.2986599  52.9125498
  92.0734595  87.4602588  54.0906979 100.9896499  79.7837845  60.9724952
 101.2698253  79.1161035  61.5985379 101.7747106  79.9766941  60.4599616
  98.7929968  98.9596839  52.5349979  98.2203935  99.5787026  52.0820451
  99.3662761  99.5096201  53.0689901 104.8605358  88.2055479  64.7196527
 105.8122780  88.3053577  64.7408752 104.6908808  87.4133748  65.2294612
 102.8819737  85.2911063  64.9055928 102.2869669  85.5716075  64.2102417
 102.5969434  85.7804964  65.6772670 102.0127228  99.2433989  53.6658561
 102.9457901  99.1779551  53.8691436 101.9250440 100.0790256  53.2073094
 104.6415244  98.5599860  50.6262509 104.5628876  98.2259723  51.5198266
 105.4624911  99.0521628  50.6253981 107.3393435  91.4261599  63.8338827
 107.3069755  90.4877600  64.0198511 107.9494059  91.5045636  63.1004652
  99.1776766  90.2957652  49.8766031 100.1235871  90.1663860  49.9454449
  98.7991011  89.5572314  50.3535459 107.4887924  88.2172643  63.8797110
 106.9726973  87.4331099  63.6927039 108.3727872  87.8891359  64.0443630
 105.1498651  81.9613658  59.8392923 104.9523472  81.6528746  60.7236255
 105.7598356  82.6875297  59.9690853 113.1569985  92.4877606  62.9744864
 113.8873374  92.2262894  63.5352567 112.5476931  91.7506328  63.0146932
 111.2385282  90.6285469  63.5719315 110.5118446  90.4941433  62.9635807
 110.8232569  90.9362297  64.3776033  99.0615459  94.3475398  71.3366688
  99.9818468  94.5253997  71.5306735  99.0265042  93.4031444  71.1846387
  97.3619683  88.2207628  49.8120916  96.4551139  87.9240741  49.8883630
  97.6395664  87.9237447  48.9455203  88.2797624  89.5413992  60.2619963
  87.9600408  88.6879300  59.9694337  87.7331052  89.7562570  61.0177930
  92.0577531  92.2576433  63.9789469  92.2763541  93.1893541  63.9977503
  92.4703305  91.8984407  64.7644273  98.9781749  82.7644518  55.9665158
  98.1682477  82.4191603  56.3420404  99.6666166  82.4552062  56.5552769
 100.9072297  81.8422565  57.5889454 101.4603336  82.2618018  58.2479477
 101.1442384  80.9158313  57.6312410  96.9305397  87.8309639  73.3692218
  96.8302124  88.7803996  73.3004309  96.7126939  87.5027878  72.4968288
  96.1318468  85.0794564  49.9532896  96.9937632  85.4049462  50.2128713
  96.3168812  84.2926060  49.4405961  88.1485884  93.1616903  62.2313084
  87.4549355  92.7470856  61.7183039  88.8958875  93.2037440  61.6346503
 104.2851104  83.9523090  57.0968119 103.7049774  84.6107894  56.7146171
 104.0187037  83.1300435  56.6855536 102.7354671  83.3528148  59.2989439
 103.2354449  83.4644682  58.4903758 103.3790279  83.0489201  59.9390247
  96.7936667  91.2606777  72.1857280  96.3103748  92.0607138  72.3921169
  96.8797606  91.2714722  71.2324724  90.0622626  93.0935157  60.1079099
  90.0393314  93.1922844  59.1560982  90.3723263  93.9400308  60.4296265
  92.7210004  95.1511312  64.2225714  93.6753258  95.1195255  64.1555645
  92.5222528  94.6901936  65.0375940  93.3109386  93.7212428  66.7896511
  94.1302275  94.2156507  66.8131349  93.5846194  92.8044396  66.7614079
 103.0675983  86.1123181  56.1524467 102.1801838  86.3972831  55.9344662
 103.4829972  85.9516944  55.3051744 106.4190519  86.1369702  59.8678806
 107.1950909  86.6266154  60.1403423 105.6938653  86.5627756  60.3250676
 108.8563077  86.8497321  60.9252747 109.4507568  86.6093057  60.2146055
 108.9289661  86.1304451  61.5526283  91.0760233 100.6930932  61.2395912
  90.9414701  99.9331333  60.6733910  90.6592295 101.4171832  60.7724700
 102.2119196  95.8767855  50.2472487 102.9155046  96.0817858  50.8630142
 101.4881845  96.4444617  50.5121570 103.0417006  91.6277716  56.3674757
 102.9852208  92.0846268  55.5282389 103.5945349  90.8668401  56.1897600
 106.8521812  87.4167448  57.1924877 106.5958746  87.0164084  58.0233084
 106.2274680  88.1311242  57.0675016 111.1634150  90.1563522  59.6996168
 110.6033708  90.2256711  60.4727730 110.5577653  89.9804506  58.9795664
  94.2329359 101.5900249  61.4514354  94.1161743 102.5345681  61.3493044
  93.4121805 101.2873810  61.8400153 104.1205893  96.3150384  52.2970947
 104.9551497  95.8831583  52.1148422 103.9590236  96.1432398  53.2247841
 103.7751786  92.8182498  53.6627286 103.7200589  92.6526769  52.7215730
 103.1497841  93.5258531  53.8189476  88.5644301  88.0550562  67.4888708
  89.2103164  87.5449516  67.9775934  88.3561452  88.7919244  68.0632134
 101.0897693  95.1231410  72.9880849 101.9588852  95.2972062  72.6267484
 100.6104444  95.9425826  72.8656578  97.0847911  82.3190607  53.2412605
  97.0726581  83.2632447  53.3980875  97.9771333  82.1360752  52.9472066
  95.2583873 102.2428511  64.6670283  96.1611120 102.2752121  64.9836778
  95.0321243 101.3128962  64.6816618  97.0137475 100.9959497  61.3280361
  96.0633106 100.9961359  61.2144734  97.3169961 100.2492232  60.8116396
 100.9000030  78.9133383  57.4958541 100.1332426  78.3591870  57.6415224
 101.3110735  78.9855252  58.3572693  92.9041792  85.2018179  71.5863723
  93.7673253  84.8454984  71.7967047  92.3307202  84.8632074  72.2739127
 112.7490168 106.8320036  62.3926124 113.3868578 106.7126783  61.6889464
 112.6311011 107.7800879  62.4514076 109.5579875 106.7847464  62.3287648
 109.2198386 106.6688528  61.4408183 110.4269643 106.3838629  62.3088654
 105.4166690 108.6382940  58.3184539 104.8531556 108.5472877  57.5500827
 105.3019086 107.8182844  58.7987032 110.0399658 107.9382315  68.2873854
 110.0288299 107.5435114  67.4154358 110.2020297 107.2048388  68.8807625
 102.9631122 110.1334132  61.1568760 103.7552414 109.7924956  60.7415059
 103.2027773 110.2429107  62.0770913 104.9221876 109.3943045  54.0286139
 105.6952752 108.8472032  53.8899014 105.2747275 110.2587294  54.2400600
 106.7606919 110.7219427  67.2353038 106.4696785 111.6265058  67.1199704
 107.3963903 110.7635955  67.9497107 107.6863126 108.0996276  63.8254397
 108.2826698 107.8752298  63.1111360 107.7438097 107.3581021  64.4279845
 107.2588154 105.5535711  51.6604588 107.5113675 105.0317232  50.8988051
 106.3212713 105.3901856  51.7631272 112.3031437 104.5571489  59.4679332
 113.0894526 104.1390913  59.1169749 112.5670141 105.4617582  59.6360980
 117.7039864 104.4946723  60.3712310 118.4365036 103.9245939  60.6050140
 116.9479220 104.1068323  60.8118816 106.9784443 107.4563817  53.8628963
 106.8620701 106.7808720  54.5310048 107.0886703 106.9696191  53.0461116
 109.3215984 106.9173964  57.5675653 108.9574191 106.3904585  58.2788574
 110.1783100 106.5272433  57.3942138 115.2265284  98.2068297  64.8306919
 114.8948609  99.0763708  64.6068134 114.6310898  97.8904581  65.5100949
 108.9621471 101.9463864  52.5637001 109.1295873 102.8144100  52.9307472
 108.7718640 102.1091145  51.6398290 105.1709285 106.8594640  60.2639536
 104.2459782 106.7270854  60.4717228 105.4193699 107.6388859  60.7609478
 115.1193948 102.9263383  61.9100269 114.2110825 102.8578791  61.6159030
 115.0681544 103.4035328  62.7382094 108.9410692 104.4021521  53.5483668
 108.8210317 104.8478572  54.3869148 108.2463280 104.7506839  52.9897206
 102.5318097 106.5027913  61.0983325 102.6610478 106.7562392  62.0122737
 101.8515548 107.0955621  60.7787980 109.1934814 104.3453028  69.8535166
 108.4168148 104.9046949  69.8438031 109.8325377 104.8309811  70.3750036
 116.9855594 101.1279821  63.6878143 116.3429974 101.4212354  63.0417937
 116.4810523 101.0132742  64.4931339 114.6395758 104.8742994  54.3764002
 115.5513614 105.1070381  54.2011700 114.1305405 105.4580039  53.8139081
 107.4481186 107.1538482  69.4153133 108.1895870 107.6923526  69.1387957
 106.7418171 107.7804771  69.5724685 112.9236526 109.2967622  68.0125295
 113.3319882 108.8550033  67.2679927 112.2013787 108.7220250  68.2659488
 109.2767596 104.2340229  65.3858852 110.1228791 104.6579643  65.5293501
 109.2166233 103.5773853  66.0797415 112.4267041 101.8944597  67.0440025
 112.1827973 102.6486658  66.5074301 112.7026971 102.2729945  67.8787272
 111.9831733 101.0501030  62.6253863 111.1216212 101.3482284  62.9170601
 112.0094167 101.2671429  61.6934896 108.7993302 109.5943221  59.0327669
 109.2631648 109.8730924  58.2432291 108.5350100 108.6926666  58.8500759
 105.6917383 109.1414703  61.9707432 106.2618740 109.5701971  61.3324916
 106.2825495 108.8597287  62.6691618 107.7362188 105.7166373  55.8417234
 108.4386231 106.1687417  56.3091160 107.4042817 105.0750192  56.4697127
 106.1842550 104.3078130  70.2168443 105.5541210 104.9894411  70.4503840
 106.0778637 104.1961212  69.2721581 101.4787522 103.9749926  61.1434367
 100.6886576 104.2307455  60.6674478 101.9698769 104.7898264  61.2486408
 103.4302267 104.3394505  58.1017844 102.6333431 104.4513200  58.6201340
 103.2027860 104.6781157  57.2358735 109.2607935 110.8639208  66.0500359
 109.3252368 111.3259616  66.8858530 108.5518859 110.2336573  66.1782668
  99.7625225 104.2280416  63.5749358 100.0133263 105.1127426  63.8406934
 100.2984773 104.0485018  62.8024450 105.4623292  98.6098896  72.5793694
 105.0690238  98.0565094  73.2541338 106.2789433  98.9209474  72.9700212
 102.4285350 110.0482754  56.4907264 102.9409871 110.8426004  56.6412829
 103.0808063 109.3509044  56.4240866 104.2380235 113.1648510  58.5730017
 104.4146863 114.0866475  58.3851001 105.0337068 112.8506930  59.0024397
 108.3791253 100.0256775  70.1713951 109.1200967 100.6263928  70.0918413
 108.6109176  99.2834413  69.6131993 103.5232591 105.2113142  68.4492180
 103.4086106 104.3098399  68.7499279 102.6677109 105.4576839  68.0976997
 105.3611550 114.6826684  64.5740360 105.9118975 114.5543747  63.8017353
 104.5223026 114.9821573  64.2235252 109.1578721 110.9477812  68.9184591
 109.6907058 110.1866100  68.6883899 108.6292802 110.6551464  69.6608745
 112.3248416  96.0537878  64.4478232 111.9812686  96.9439520  64.3717343
 112.6927379  95.8639535  63.5847817 100.3934267 108.3771408  57.2666835
 101.2309489 108.7868417  57.0500542 100.5712535 107.4370850  57.2367028
 112.2898699 106.0446489  52.9550668 111.7745322 106.8151094  53.1939055
 112.0176007 105.3711625  53.5783729 109.8745810 100.8896190  58.0135906
 109.0187406 100.5003040  57.8341545 110.2872762 100.9688151  57.1535691
 111.4044957  98.4242533  62.4127466 110.9009752  98.3872668  61.5995271
 111.6975564  99.3335276  62.4724122 107.6487843  98.5081263  61.4193647
 108.5140839  98.3124071  61.0599537 107.7165351  98.2791615  62.3463004
 112.0785002 103.9173581  54.7810449 111.7735138 104.2319730  55.6320592
 113.0315444 103.9955001  54.8237782 110.5231434 110.0763804  56.4303403
 109.9952796 109.3416564  56.1176640 110.0218937 110.8538481  56.1843371
 105.2550162 100.7383471  58.7910014 105.8293914 100.5158652  58.0583207
 105.8421144 100.8072165  59.5438616 114.3129739 106.6257198  59.5974391
 114.8261621 107.2587189  60.0996100 114.9630963 106.0258393  59.2317751
 105.5819749 102.7687932  52.8105899 104.7457061 103.1062618  53.1315174
 105.4424518 102.6336911  51.8733036 107.5572829  97.6124720  57.5185084
 106.9037242  97.2973737  56.8941698 107.5153303  96.9900460  58.2444907
 108.6684034 107.8944015  49.4338376 107.7611096 107.6633268  49.6329525
 109.1655066 107.0981634  49.6212357 110.7910570 104.1006653  61.8432731
 109.8733131 104.3221600  61.6854419 111.2070713 104.1752964  60.9844439
 111.5745617 105.4998069  56.9735412 112.3217436 106.0119466  56.6642534
 111.8437207 105.1782122  57.8339805 109.8472268 107.9956610  53.9562366
 108.9383487 107.7115642  54.0534836 109.8767351 108.4155688  53.0965673
 114.0224455 102.5355185  58.9554201 113.2847211 102.0232571  59.2864443
 114.2751228 102.0955567  58.1437478 114.1236082  95.3131437  59.5495970
 114.4294959  94.4528800  59.2621885 114.8488687  95.9049057  59.3494964
 100.4160438 105.7162124  57.9377568 100.2184838 105.1231484  57.2128635
  99.8607102 105.4114334  58.6553507 108.3957162 105.6085230  60.0572161
 108.4505771 104.6559067  59.9814638 107.5848364 105.7644669  60.5413460
 109.5448355 109.5365353  51.2950444 109.1067785 108.8201212  50.8356082
 110.2858796 109.7641468  50.7335536 106.3349522 104.2262290  57.8162540
 105.5217387 104.5256460  58.2227732 106.8308516 103.8317979  58.5337022
 111.9323733 104.6904114  66.6477434 112.2873121 104.9175587  67.5071900
 112.5795864 105.0222491  66.0254689 105.8263596 101.7980645  63.4323775
 106.4662976 101.6569404  62.7346738 104.9941127 101.5115159  63.0562377
 106.6023900 111.0983076  59.5458767 107.3964499 110.6033396  59.3441342
 105.8915593 110.5700939  59.1826473 102.9106664 105.2426158  55.6218520
 101.9804252 105.1810613  55.8388482 103.0064136 104.7202110  54.8255161
 102.8292213 101.7680970  58.2096762 103.0899030 102.6826304  58.1005922
 103.6509385 101.3005413  58.3593375 104.3017138 103.1818728  65.3795586
 104.9740192 102.9736090  64.7308235 103.4746925 102.9840814  64.9400819
 110.2042710  99.8080668  67.3961247 109.5570625 100.5070618  67.3025724
 110.9743726 100.2416812  67.7637495 110.3806844 107.6461433  65.4558067
 111.3098904 107.7972593  65.2827034 109.9597874 107.7345454  64.6006713
 109.1795176 111.6712098  63.2256605 109.0406262 111.3030882  64.0982543
 108.3909772 112.1859737  63.0540562 110.7300391 111.0493700  60.6145442
 110.3950224 111.0094470  61.5103092 110.2304337 110.3838416  60.1415853
 104.7044635 106.4561331  66.1398023 104.5664433 105.7241569  66.7409563
 105.6149559 106.3670231  65.8582211 113.6659583 108.3949735  50.8882502
 113.0488754 107.6696563  50.7915555 113.1976072 109.1559095  50.5449576
 107.3326936 106.1681290  65.6281703 108.0426555 105.5274482  65.5868322
 107.2896244 106.4194185  66.5507884 106.0455870 103.1546508  67.4477343
 105.5093227 102.7037246  68.0998939 105.4572578 103.2892417  66.7047807
 105.4558129 102.6135159  50.0103806 104.5787595 102.4923960  49.6466053
 105.9315882 101.8221237  49.7582695  96.9760269 107.4012319  60.1045313
  97.6631309 107.0874049  59.5166329  96.8208398 108.3053683  59.8312565
 101.7794991 102.2902515  64.5330337 101.6953180 101.6828185  63.7980747
 100.9577698 102.7811534  64.5339833 111.9518705 100.7756079  59.9000532
 112.4487405 100.0226041  59.5801602 111.1805687 100.8120396  59.3343741
 113.0348486 109.5327766  57.4738956 112.1004765 109.6529229  57.3043660
 113.2125154 108.6300233  57.2098965 108.5353674 102.9173462  59.6272217
 108.1651461 102.3644502  60.3153122 109.0312766 102.3131595  59.0747217
 116.4221037 105.3745085  58.0088990 116.8881489 106.2073077  57.9349292
 116.8728538 104.9090067  58.7134248 106.3642872 113.3770957  66.7227235
 107.0652332 114.0107440  66.8756629 105.8937987 113.7185689  65.9622874
 114.3937700  97.7425672  62.0479891 113.4800780  97.9729899  62.2162098
 114.8230801  97.8264117  62.8993923 114.1644158 105.9315564  64.5479785
 113.5115609 106.1791472  63.8932238 114.5424538 105.1179703  64.2142262
 110.2131731 106.6735375  71.0345822 109.5372368 106.5729505  71.7048197
 111.0359365 106.5174589  71.4981819 101.9610590 112.9107312  63.6558337
 102.5464027 112.1651000  63.7886242 101.7635429 113.2211269  64.5395001
  96.5528245 105.4812912  62.3762781  96.5912345 104.9476503  63.1699899
  96.0468538 104.9548118  61.7573758 103.9319008 100.3277453  65.8725323
 103.9960334 101.1892284  65.4602721 103.8686128  99.7151454  65.1397681
 103.4071280 102.4000585  69.5198357 104.0343319 102.0177663  70.1335881
 102.5499199 102.1814787  69.8854050 100.1836823 104.2077014  55.4516712
 100.4790264 103.2987693  55.3983766  99.2824859 104.1864754  55.1297714
 103.7131070 102.2833011  61.4344261 102.9917656 102.8968979  61.2951734
 104.5024326 102.8190776  61.3560906 106.5157383  99.6187437  67.7084912
 107.0391785  99.8649734  68.4711222 106.2969717 100.4507472  67.2888050
 101.9124664 101.8891112  55.5756037 101.5837371 101.0088491  55.3931143
 102.2664035 101.8338781  56.4632426 105.0266488 102.1764082  55.9431515
 105.3662560 102.7050003  55.2210123 105.4738608 102.5144488  56.7190081
 107.7209928 100.5601133  65.3934583 107.3806749  99.7608946  65.7955263
 107.0148935 100.8602843  64.8211416 108.3726400  97.6450445  63.8461906
 109.1952470  97.1710923  63.7240796 108.6164464  98.4240929  64.3460592
 107.0134635 100.6738703  54.1424808 107.7342997 101.0519956  53.6388524
 106.3899939 101.3927580  54.2459785 111.1565758 101.3783852  55.0783140
 111.3729372 102.2608490  54.7771968 110.6759825 100.9870066  54.3488782
 105.8964979 104.3369566  61.6553884 105.7509560 104.6509869  62.5478166
 105.4190183 104.9554466  61.1024783 107.7561362 101.3272114  61.7034774
 107.7422931 100.4313207  61.3667072 108.4733790 101.3342777  62.3373060
 109.6087493 101.7609454  63.7487901 109.3505270 102.6826524  63.7472232
 109.0772533 101.3639888  64.4388366 100.3710641 106.8774910  64.5941546
  99.8264109 107.6534718  64.7261820 101.2489991 107.2245714  64.4360667
 107.1598258 100.2086494  56.9722344 107.2814169  99.2803140  57.1713232
 106.8700300 100.2225180  56.0600660 110.0289448  97.8941404  60.1089064
 110.0511145  97.9580737  59.1541044 110.4457507  97.0545913  60.3029570
 101.1576663 106.0044806  67.4871702 100.4158399 106.1527442  68.0736333
 100.8369407 106.2653072  66.6238452 101.6033277 113.8910235  59.5182097
 102.4291297 113.5914007  59.1380741 101.2527329 113.1217857  59.9671886
 106.5714810 113.2436703  61.5879771 105.9494819 112.5807408  61.2881999
 107.2419677 113.2697835  60.9053418  99.8041882 111.8096561  60.4771031
  98.9673790 111.3818736  60.2955032  99.7765527 112.0029005  61.4141822
 106.6439337 101.7218491  71.1812277 106.6927493 102.5980614  70.7990046
 107.1861852 101.1795884  70.6083920 106.1328317 111.7940627  55.0638231
 106.2816437 112.4776091  54.4104904 106.9394760 111.7745717  55.5787687
 114.5395820 105.0983009  69.0905449 115.4405683 104.9589474  68.7989447
 114.6143795 105.2637464  70.0303627 108.8738626 102.4749864  67.9358635
 108.0041935 102.7683430  67.6641224 109.1098106 103.0590309  68.6565899
 103.8880950 107.8205804  56.0699300 103.6426992 106.9168134  56.2679510
 104.0576864 107.8222955  55.1278778 111.5777660  98.6929481  65.4524056
 112.0959603  99.4290508  65.1270544 111.2232792  98.9993474  66.2870815
 103.1576597 103.5534162  53.5685462 102.4645842 103.6278517  52.9125498
 102.9128349 102.7894505  54.0906979 111.8290254  95.1129763  60.9724952
 112.1092008  94.4452952  61.5985379 112.6140861  95.3058859  60.4599616
 115.6999112 103.5347397  64.7196527 116.6516535 103.6345495  64.7408752
 115.5302563 102.7425666  65.2294612 113.7213492 100.6202980  64.9055928
 113.1263424 100.9007993  64.2102417 113.4363188 101.1096881  65.6772670
 110.0170521 105.6249570  49.8766031 110.9629625 105.4955778  49.9454449
 109.6384766 104.8864232  50.3535459 118.3281678 103.5464560  63.8797110
 117.8120727 102.7623017  63.6927039 119.2121627 103.2183277  64.0443630
 115.9892405  97.2905576  59.8392923 115.7917226  96.9820664  60.7236255
 116.5992111  98.0167215  59.9690853 109.9009213 109.6767316  71.3366688
 110.8212223 109.8545915  71.5306735 109.8658796 108.7323361  71.1846387
 108.2013438 103.5499546  49.8120916 107.2944893 103.2532659  49.8883630
 108.4789419 103.2529364  48.9455203  99.1191378 104.8705910  60.2619963
  98.7994163 104.0171218  59.9694337  98.5724806 105.0854488  61.0177930
 102.8971286 107.5868351  63.9789469 103.1157296 108.5185458  63.9977503
 103.3097060 107.2276325  64.7644273 109.8175504  98.0936436  55.9665158
 109.0076232  97.7483521  56.3420404 110.5059921  97.7843980  56.5552769
 111.7466052  97.1714483  57.5889454 112.2997091  97.5909936  58.2479477
 111.9836138  96.2450231  57.6312410 107.7699151 103.1601556  73.3692218
 107.6695878 104.1095913  73.3004309 107.5520693 102.8319795  72.4968288
 106.9712223 100.4086481  49.9532896 107.8331387 100.7341380  50.2128713
 107.1562567  99.6217977  49.4405961  98.9879638 108.4908821  62.2313084
  98.2943110 108.0762774  61.7183039  99.7352629 108.5329358  61.6346503
 115.1244859  99.2815008  57.0968119 114.5443528  99.9399812  56.7146171
 114.8580792  98.4592352  56.6855536 113.5748425  98.6820066  59.2989439
 114.0748204  98.7936600  58.4903758 114.2184033  98.3781118  59.9390247
 107.6330421 106.5898695  72.1857280 107.1497503 107.3899055  72.3921169
 107.7191360 106.6006640  71.2324724 100.9016381 108.4227075  60.1079099
 100.8787069 108.5214762  59.1560982 101.2117017 109.2692226  60.4296265
 103.5603759 110.4803230  64.2225714 104.5147012 110.4487172  64.1555645
 103.3616282 110.0193854  65.0375940 104.1503141 109.0504346  66.7896511
 104.9696030 109.5448425  66.8131349 104.4239949 108.1336314  66.7614079
 113.9069737 101.4415098  56.1524467 113.0195592 101.7264749  55.9344662
 114.3223726 101.2808862  55.3051744 117.2584273 101.4661619  59.8678806
 118.0344663 101.9558072  60.1403423 116.5332407 101.8919673  60.3250676
 119.6956832 102.1789238  60.9252747 120.2901323 101.9384974  60.2146055
 119.7683415 101.4596369  61.5526283 101.9153987 116.0222849  61.2395912
 101.7808455 115.2623250  60.6733910 101.4986050 116.7463749  60.7724700
 113.8810761 106.9569634  56.3674757 113.8245962 107.4138186  55.5282389
 114.4339103 106.1960319  56.1897600 117.6915567 102.7459366  57.1924877
 117.4352501 102.3456002  58.0233084 117.0668435 103.4603160  57.0675016
 114.6145540 108.1474415  53.6627286 114.5594344 107.9818687  52.7215730
 113.9891595 108.8550448  53.8189476  99.4038055 103.3842480  67.4888708
 100.0496919 102.8741434  67.9775934  99.1955206 104.1211161  68.0632134
 107.9241666  97.6482524  53.2412605 107.9120335  98.5924364  53.3980875
 108.8165087  97.4652670  52.9472066 111.7393785  94.2425301  57.4958541
 110.9726181  93.6883788  57.6415224 112.1504490  94.3147170  58.3572693
 103.7435546 100.5310097  71.5863723 104.6067008 100.1746902  71.7967047
 103.1700957 100.1923992  72.2739127  44.5217349  -8.1841920  49.0532955
  44.1835861  -8.3000855  48.1653490  45.3907117  -8.5850755  49.0333961
  40.3804165  -6.3306443  45.0429846  39.8169030  -6.4216506  44.2746134
  40.2656560  -7.1506539  45.5232338  45.0037132  -7.0307068  55.0119160
  44.9925773  -7.4254270  54.1399664  45.1657772  -7.7640995  55.6052932
  37.9268597  -4.8355252  47.8814066  38.7189889  -5.1764427  47.4660366
  38.1665247  -4.7260277  48.8016220  45.9603724  -2.6635476  40.3544311
  45.3091703  -2.0781395  39.9678325  46.7548086  -2.1329281  40.4139348
  39.8859351  -5.5746339  40.7531445  40.6590227  -6.1217351  40.6144321
  40.2384750  -4.7102089  40.9645907  41.7244393  -4.2469956  53.9598344
  41.4334259  -3.3424325  53.8445011  42.3601378  -4.2053429  54.6742414
  42.6500600  -6.8693108  50.5499704  43.2464172  -7.0937085  49.8356667
  42.7075572  -7.6108362  51.1525152  47.4378989  -4.9745044  40.8913295
  46.8024822  -4.9010417  41.6034200  47.1076395  -4.3851445  40.2132374
  41.9421917  -7.5125566  40.5874270  41.8258175  -8.1880663  41.2555354
  42.0524177  -7.9993193  39.7706423  44.2853458  -8.0515419  44.2920959
  43.9211665  -8.5784798  45.0033881  45.1420574  -8.4416950  44.1187445
  46.6834278  -4.5608541  50.9548138  46.3835001  -3.6583502  50.8463945
  46.3385338  -4.8276358  51.8069291  40.1346760  -8.1094744  46.9884843
  39.2097256  -8.2418530  47.1962534  40.3831173  -7.3300525  47.4854785
  41.6655058   2.2035780  43.9219106  41.5879088   3.1543605  44.0007586
  41.0616702   1.8581652  44.5794032  42.4118660  -7.8150902  56.1398440
  43.1533345  -7.2765858  55.8633263  41.7055646  -7.1884613  56.2969992
  47.8874000  -5.6721761  54.7370601  48.2957356  -6.1139351  53.9925234
  47.1651261  -6.2469134  54.9904794  48.2102814  -5.1120571  48.4922890
  47.5811677  -4.9474856  47.7898958  47.8228477  -4.6978961  49.2633854
  52.0892046  -4.1766133  45.8467254  51.4043085  -3.7967231  45.2964287
  52.1735896  -3.5670806  46.5799202  49.3442978  -6.5306174  52.4462597
  49.5559873  -5.8874414  51.7696978  49.2972726  -7.3643857  51.9784527
  43.7630776  -5.3746162  45.7572975  44.2269122  -5.0958459  44.9677598
  43.4987574  -6.2762718  45.5746066  40.6554857  -5.8274681  48.6952738
  41.2256214  -5.3987413  48.0570223  41.2462969  -6.1092096  49.3936924
  50.4588806  -3.6534218  50.6184955  51.2806250  -4.0554031  50.3367636
  50.4551209  -3.7565984  51.5701071  44.2245409  -4.1050175  52.7745665
  44.2889842  -3.6429768  53.6103837  43.5156333  -4.7352810  52.9027975
  43.9393427  -2.4382067  42.6424646  43.8039102  -1.5930532  43.0709493
  44.4803240  -2.2362790  41.8790579  37.3922824  -4.9206629  43.2152571
  37.9047345  -4.1263379  43.3658135  38.0445537  -5.6180339  43.1486172
  39.2017709  -1.8040873  45.2975324  39.3784337  -0.8822908  45.1096308
  39.9974543  -2.1182454  45.7269704  45.5661903  -1.8158501  56.7724988
  45.1225758  -2.6022122  56.4545892  46.2279117  -1.6279350  56.1068878
  40.3249025  -0.2862699  51.2985666  40.8756450  -0.4145636  50.5262660
  39.4860500   0.0132190  50.9480559  47.6643141  -1.5355701  54.8006389
  47.6461617  -0.7146820  54.3086658  48.5863062  -1.6601626  55.0256530
  44.1216196  -4.0211572  55.6429897  44.6544532  -4.7823283  55.4129205
  43.5930277  -4.3137920  56.3854052  45.4868908  -4.8925579  43.1548709
  44.9590270  -5.6272820  42.8421947  44.9856411  -4.1150903  42.9088678
  50.4661754  -6.6976559  48.2715756  49.8085429  -6.0077297  48.3595884
  51.2702154  -6.3080127  48.6149742  43.6321508  -7.0745369  36.1583682
  42.7248570  -7.3056115  36.3574831  44.1292540  -7.8707750  36.3457664
  46.5389587   1.6352138  39.0780369  45.8651286   1.9383835  39.6865326
  46.9255409   2.4381219  38.7285826  44.8109742  -6.9732774  40.6807672
  43.9020961  -7.2573741  40.7780142  44.8404826  -6.5533695  39.8210979
  50.0429009  -3.3626184  44.4498840  49.5891336  -4.2035275  44.5064030
  49.4122976  -2.7264786  44.7873620  48.4861949  -1.5249688  45.3848658
  48.7784923  -0.9644631  44.6661024  48.9960569  -1.2321127  46.1401817
  44.5085830  -5.4324030  38.0195751  44.0705260  -6.1488171  37.5601388
  45.2496271  -5.2047915  37.4580842  43.4495574  -0.7469337  46.4742111
  43.4071753  -0.5208490  45.5450643  44.3658273  -0.9805962  46.6227913
  52.6528324  -5.0890306  49.0883341  53.0864831  -5.1815017  49.9366395
  53.3659905  -5.1132806  48.4503357  41.5661375  -3.8706308  46.2704074
  42.3601973  -4.3655988  46.0686649  40.8553067  -4.3988445  45.9071780
  46.3856219  -1.4888212  50.6216442  46.4393241  -0.9197276  51.3894158
  45.5171000  -1.3186327  50.2570479  53.5143874  -5.0466606  51.6216227
  53.7079764  -4.1420795  51.8675501  53.4144492  -5.5059187  52.4554812
  48.5758982  -4.8959863  57.1957107  48.4244489  -5.1249311  56.2787191
  48.5663662  -3.9389261  57.2088452  45.3444319  -7.3227950  52.1803374
  46.2736379  -7.1716790  52.0072341  44.9235349  -7.2343929  51.3252020
  44.1432651  -3.2977286  49.9501911  44.0043736  -3.6658501  50.8227849
  43.3547247  -2.7829646  49.7785869  44.7380803   1.8031811  41.2927448
  44.9132558   1.3319854  42.1073070  44.0513591   2.4297577  41.5208708
  45.6937866  -3.9195683  47.3390749  45.3587698  -3.9594913  48.2348399
  45.1941811  -4.5850967  46.8661159  39.6682110  -8.5128053  52.8643330
  39.5301908  -9.2447814  53.4654869  40.5787033  -8.6019153  52.5827518
  48.6297057  -6.5739649  37.6127809  48.0126228  -7.2992820  37.5160861
  48.1613546  -5.8130288  37.2694883  42.2964410  -8.8008094  52.3527010
  43.0064029  -9.4414901  52.3113628  42.2533718  -8.5495199  53.2753191
  50.2851189  -1.8640740  55.2733589  50.2263735  -2.5481520  54.6064172
  50.6870707  -1.1221750  54.8214215  39.3041888   4.9521174  48.0667308
  39.5438486   5.5839698  48.7446326  38.4611084   4.6009214  48.3532667
  50.2868596  -3.9001156  53.5047569  49.3995375  -4.2375235  53.6273968
  50.8567147  -4.6318125  53.7416334  43.8169750   0.7600296  50.4708812
  43.7439921   1.5655268  50.9828116  43.3747143   0.9592262  49.6456833
  43.6059529  -0.0027934  43.9811633  42.8227051   0.5393746  44.0749858
  44.3052274   0.5146046  44.3805875  46.2768433   0.6587130  52.6266971
  46.9896405   1.2934595  52.5542872  45.7858462   0.7550996  51.8106972
  47.9985960  -5.4361617  44.1984262  47.0642239  -5.3160155  44.0288967
  48.1762629  -6.3389151  43.9344272  41.3280347  -1.5918426  53.4472541
  42.0289806  -0.9581944  53.6001936  40.8575462  -1.2503695  52.6868181
  49.4534743  -3.2500477  41.7320448  49.7294586  -3.3643882  42.6414322
  48.5839241  -3.6482992  41.6932621  46.0888807   0.9985874  45.3753262
  46.2711201   0.1807530  45.8381014  46.9121793   1.2153566  44.9378152
  46.4230972  -0.0745941  42.6368310  46.9518739  -0.5853486  42.0238473
  46.6859192  -0.3903411  43.5013843  45.1769206  -8.2954008  57.7591129
  44.5009843  -8.3959879  58.4293504  45.9996840  -8.4514794  58.2227126
  36.9248065  -2.0582071  50.3803644  37.5101502  -2.8038384  50.5131548
  36.7272903  -1.7478115  51.2640308  39.7786720   0.9769176  45.3966086
  39.1097095   1.4615304  44.9130126  39.6399590   1.2238396  46.3109465
  43.9191989   3.0112919  51.9948745  44.4710297   3.1744541  52.7597830
  44.2598182   3.6017357  51.3228770  48.7702863  -2.1625823  57.8497399
  49.3142767  -1.5495865  57.3552354  48.1889708  -1.6046245  58.3664412
  47.0560376   0.9594895  48.9812427  46.9311515   0.1584635  48.4723372
  47.7139467   1.4541088  48.4926397  49.1195284  -1.2396085  50.6091977
  48.1725620  -1.3590734  50.5370304  49.4678057  -2.1273587  50.6918238
  46.1241718  -1.4443369  46.8096329  45.9766680  -2.3726661  46.9903899
  46.9495211  -1.4223278  46.3253404  49.7275839  -0.6214810  47.8961202
  50.6522387  -0.8271949  47.7585653  49.5591143  -0.8698409  48.8050543
  49.5171156  -0.1029143  43.2523293  49.6908033  -0.6682720  42.4997146
  50.0100047   0.6971752  43.0702783  50.5046328  -0.7862378  40.3520192
  51.1997233  -0.1655685  40.5707506  50.8469478  -1.6367027  40.6272570
  52.4037751  -3.3362673  41.8807522  52.9289075  -2.9975400  41.1556843
  52.3160104  -4.2715657  41.6970657  44.0657800   0.5771401  54.0097399
  44.3744926   0.3320548  54.8820099  44.8633282   0.7818040  53.5216269
  44.0878412   2.7309311  46.2402776  43.6483402   2.2385689  46.9335632
  44.8386529   2.1882278  45.9994851  36.5670751  -1.0779148  46.2427404
  37.3928771  -1.3775377  45.8626047  36.2164803  -1.8471526  46.6917192
  41.5352284  -1.7252680  48.3125077  40.9132293  -2.3881975  48.0127305
  42.2057151  -1.6991548  47.6298725  34.7679356  -3.1592822  47.2016337
  33.9311264  -3.5870648  47.0200339  34.7403001  -2.9660379  48.1387129
  52.0931657  -2.7029769  57.1858720  51.3027201  -2.7205630  56.6463220
  51.8565012  -2.1641475  57.9407757  41.0965791  -3.1748757  41.7883538
  41.2453911  -2.4913293  41.1350211  41.9032234  -3.1943667  42.3032994
  53.7147729  -3.4340361  54.7433471  53.4232537  -3.0710381  55.5796931
  53.1019860  -4.1473353  54.5646803  38.8518424  -7.1483579  42.7944607
  38.6064466  -8.0521249  42.9924817  39.0214339  -7.1466429  41.8524085
  44.5961197  -0.6800626  39.2595285  44.0235164  -0.0610439  38.8065757
  45.1693990  -0.1301265  39.7935207  47.8158456  -0.3963476  40.3903868
  48.7489129  -0.4617915  40.5936743  47.7281669   0.4392791  39.9318400
  50.4446473  -1.0797606  37.3507815  50.3660105  -1.4137742  38.2443573
  51.2656140  -0.5875838  37.3499288  44.8646688  -5.2922068  58.0611995
  45.7849697  -5.1143469  58.2552041  44.8296271  -6.2366022  57.9091694
  37.8608760  -7.3821033  50.7034776  38.0794770  -6.4503925  50.7222810
  38.2734534  -7.7413058  51.4889580  42.5967896  -8.3790688  58.9102587
  42.1134977  -7.5790328  59.1166476  42.6828835  -8.3682743  57.9570031
  35.8653855  -6.5462309  46.8324406  35.8424543  -6.4474621  45.8806289
  36.1754492  -5.6997158  47.1541572  38.5241233  -4.4886154  50.9471020
  39.4784487  -4.5202211  50.8800952  38.3253757  -4.9495530  51.7621246
  39.1140615  -5.9185038  53.5141818  39.9333504  -5.4240959  53.5376655
  39.3877423  -6.8353069  53.4859385  36.8791462   1.0533466  47.9641218
  36.7445930   0.2933867  47.3979216  36.4623524   1.7774366  47.4970007
  48.0150425  -3.7629611  36.9717793  48.7186275  -3.5579608  37.5875449
  47.2913074  -3.1952849  37.2366877  40.0360588   1.9502783  48.1759661
  39.9192972   2.8948215  48.0738351  39.2153034   1.6476344  48.5645460
  49.9237122  -3.3247081  39.0216254  50.7582726  -3.7565883  38.8393728
  49.7621465  -3.4965068  39.9493148  49.5783014  -6.8214968  40.3872593
  49.5231818  -6.9870697  39.4461037  48.9529070  -6.1138935  40.5434783
  46.8928922  -4.5166056  59.7126156  47.7620081  -4.3425404  59.3512791
  46.4135673  -3.6971639  59.5901885  41.0615102   2.6031045  51.3915589
  41.9642348   2.6354655  51.7082084  40.8352472   1.6731496  51.4061925
  42.8168704   1.3562031  48.0525668  41.8664335   1.3563893  47.9390040
  43.1201190   0.6094766  47.5361703  58.5521397   7.1922570  49.1171430
  59.1899807   7.0729317  48.4134770  58.4342240   8.1403414  49.1759382
  55.3611104   7.1449998  49.0532955  55.0229615   7.0291063  48.1653490
  56.2300872   6.7441163  49.0333961  51.2197919   8.9985474  45.0429846
  50.6562784   8.9075411  44.2746134  51.1050314   8.1785379  45.5232338
  55.8430887   8.2984850  55.0119160  55.8319527   7.9037648  54.1399664
  56.0051526   7.5650922  55.6052932  48.7662351  10.4936666  47.8814066
  49.5583643  10.1527490  47.4660366  49.0059001  10.6031641  48.8016220
  56.7997478  12.6656442  40.3544311  56.1485458  13.2510522  39.9678325
  57.5941841  13.1962637  40.4139348  50.7253105   9.7545579  40.7531445
  51.4983981   9.2074566  40.6144321  51.0778504  10.6189828  40.9645907
  52.5638148  11.0821961  53.9598344  52.2728014  11.9867592  53.8445011
  53.1995132  11.1238489  54.6742414  53.4894355   8.4598810  50.5499704
  54.0857927   8.2354832  49.8356667  53.5469326   7.7183555  51.1525152
  53.0619383   5.9138245  38.3849895  53.3144904   5.3919766  37.6233358
  52.1243942   5.7504391  38.4876579  58.1062666   4.9174024  46.1924638
  58.8925755   4.4993447  45.8415055  58.3701370   5.8220116  46.3606287
  58.2772743  10.3546874  40.8913295  57.6418576  10.4281500  41.6034200
  57.9470150  10.9440473  40.2132374  63.5071093   4.8549257  47.0957617
  64.2396265   4.2848474  47.3295446  62.7510449   4.4670857  47.5364122
  52.7815672   7.8166351  40.5874270  52.6651930   7.1411255  41.2555354
  52.8917932   7.3298725  39.7706423  55.1247213   7.2776498  44.2920959
  54.7605420   6.7507119  45.0033881  55.9814329   6.8874967  44.1187445
  61.0296513  -1.4329169  51.5552225  60.6979838  -0.5633758  51.3313440
  60.4342127  -1.7492885  52.2346256  54.7652700   2.3066398  39.2882308
  54.9327102   3.1746634  39.6552779  54.5749869   2.4693680  38.3643597
  57.5228033  10.7683377  50.9548138  57.2228756  11.6708416  50.8463945
  57.1779092  10.5015560  51.8069291  50.9740514   7.2197174  46.9884843
  50.0491011   7.0873388  47.1962534  51.2224927   7.9991393  47.4854785
  60.9225177   3.2865917  48.6345575  60.0142054   3.2181326  48.3404336
  60.8712772   3.7637862  49.4627401  54.7441920   4.7624055  40.2728975
  54.6241546   5.2081106  41.1114455  54.0494509   5.1109373  39.7142513
  48.3349325   6.8630447  47.8228632  48.4641706   7.1164926  48.7368043
  47.6546777   7.4558155  47.5033287  52.5048813  17.5327697  43.9219106
  52.4272842  18.4835522  44.0007586  51.9010456  17.1873570  44.5794032
  54.9966042   4.7055563  56.5780473  54.2199376   5.2649483  56.5683337
  55.6356605   5.1912346  57.0995343  62.7886823   1.4882355  50.4123449
  62.1461203   1.7814889  49.7663244  62.2841752   1.3735276  51.2176646
  60.4426987   5.2345529  41.1009309  61.3544843   5.4672915  40.9257006
  59.9336634   5.8182573  40.5384387  53.2512415   7.5141016  56.1398440
  53.9927099   8.0526060  55.8633263  52.5449400   8.1407305  56.2969992
  58.7267754   9.6570156  54.7370601  59.1351110   9.2152567  53.9925234
  58.0045016   9.0822784  54.9904794  55.0798824   4.5942763  52.1104158
  55.9260020   5.0182177  52.2538807  55.0197462   3.9376388  52.8042721
  59.0496569  10.2171347  48.4922890  58.4205431  10.3817061  47.7898958
  58.6622231  10.6312957  49.2633854  62.9285801  11.1525785  45.8467254
  62.2436839  11.5324686  45.2964287  63.0129650  11.7621112  46.5799202
  58.2298270   2.2547132  53.7685332  57.9859202   3.0089192  53.2319608
  58.5058200   2.6332479  54.6032579  60.1836732   8.7985744  52.4462597
  60.3953628   9.4417504  51.7696978  60.1366481   7.9648061  51.9784527
  57.7862961   1.4103565  49.3499170  56.9247440   1.7084818  49.6415907
  57.8125396   1.6273964  48.4180202  54.6024531   9.9545755  45.7572975
  55.0662876  10.2333458  44.9677598  54.3381329   9.0529200  45.5746066
  51.4948612   9.5017237  48.6952738  52.0649969   9.9304505  48.0570223
  52.0856724   9.2199821  49.3936924  53.5393417   6.0768908  42.5662540
  54.2417460   6.5289951  43.0336467  53.2074045   5.4352726  43.1942433
  51.9873778   4.6680664  56.9413750  51.3572439   5.3496945  57.1749147
  51.8809866   4.5563746  55.9966888  47.2818751   4.3352460  47.8679674
  46.4917805   4.5909989  47.3919785  47.7729998   5.1500798  47.9731714
  61.2982560  11.6757699  50.6184955  62.1200004  11.2737887  50.3367636
  61.2944963  11.5725934  51.5701071  49.2333496   4.6997039  44.8263151
  48.4364660   4.8115734  45.3446646  49.0059088   5.0383692  43.9604041
  55.0639164  11.2241743  52.7745665  55.1283596  11.6862150  53.6103837
  54.3550088  10.5939108  52.9027975  45.5656454   4.5882951  50.2994665
  45.8164492   5.4729961  50.5652241  46.1016002   4.4087552  49.5269757
  69.3888553   8.0196448  46.9669926  68.6352262   7.4503846  46.8113931
  69.5236095   7.9859112  47.9140561  54.7787181  12.8909850  42.6424646
  54.6432856  13.7361386  43.0709493  55.3196994  13.0929128  41.8790579
  51.2654521  -1.0298570  59.3039001  50.8721467  -1.5832371  59.9786645
  52.0820661  -0.7187991  59.6945518  48.2316579  10.4085288  43.2152571
  48.7441099  11.2028538  43.3658135  48.8839292   9.7111579  43.1486172
  50.0411464  13.5251045  45.2975324  50.2178092  14.4469009  45.1096308
  50.8368297  13.2109464  45.7269704  54.1822482   0.3859309  56.8959257
  54.9232196   0.9866462  56.8163720  54.4140405  -0.3563053  56.3377300
  49.3263820   5.5715676  55.1737487  49.2117335   4.6700934  55.4744586
  48.4708338   5.8179373  54.8222304  56.4055658  13.5133417  56.7724988
  55.9619512  12.7269795  56.4545892  57.0672871  13.7012567  56.1068878
  51.1642779  15.0429218  51.2985666  51.7150204  14.9146282  50.5262660
  50.3254255  15.3424107  50.9480559  58.5036896  13.7936217  54.8006389
  58.4855371  14.6145098  54.3086658  59.4256816  13.6690292  55.0256530
  54.9609950  11.3080346  55.6429897  55.4938287  10.5468634  55.4129205
  54.4324031  11.0153998  56.3854052  58.1279645  -3.5859588  51.1723539
  57.7843914  -2.6957946  51.0962650  58.4958608  -3.7757930  50.3093124
  46.1965496   8.7373943  43.9912141  47.0340718   9.1470951  43.7745849
  46.3743763   7.7973385  43.9612335  58.0929928   6.4049023  39.6795974
  57.5776551   7.1753628  39.9184362  57.8207236   5.7314159  40.3029036
  55.6777039   1.2498724  44.7381213  54.8218635   0.8605574  44.5586851
  56.0903991   1.3290685  43.8780998  57.2076185  -1.2154933  49.1372772
  56.7040981  -1.2524798  48.3240578  57.5006792  -0.3062190  49.1969429
  53.4519071  -1.1316203  48.1438954  54.3172068  -1.3273394  47.7844844
  53.5196580  -1.3605851  49.0708311  63.0664202   9.1581378  41.6149148
  62.2893645   8.8192537  41.1704310  63.7455683   9.1634001  40.9404113
  57.8816231   4.2776115  41.5055755  57.5766367   4.5922264  42.3565899
  58.8346673   4.3557535  41.5483088  56.3262663  10.4366339  43.1548709
  55.7984024   9.7019098  42.8421947  55.8250166  11.2141015  42.9088678
  61.3055509   8.6315359  48.2715756  60.6479183   9.3214620  48.3595884
  62.1095908   9.0211791  48.6149742  51.0581390   1.0986005  45.5155321
  51.6325142   0.8761186  44.7828514  51.6452373   1.1674699  46.2683922
  60.1160968   6.9859732  46.3219697  60.6292849   7.6189724  46.8241407
  60.7662192   6.3860927  45.9563057  51.3850978   3.1290466  39.5351206
  50.5488290   3.4665152  39.8560481  51.2455747   2.9939446  38.5978343
  53.3604058  -2.0272746  44.2430390  52.7068470  -2.3423729  43.6187005
  53.3184532  -2.6497006  44.9690213  54.4715263   8.2546549  36.1583682
  53.5642325   8.0235802  36.3574831  54.9686295   7.4584168  36.3457664
  57.3783342  16.9644056  39.0780369  56.7045041  17.2675753  39.6865326
  57.7649164  17.7673136  38.7285826  56.5941798   4.4609187  48.5678038
  55.6764360   4.6824134  48.4099726  57.0101942   4.5355498  47.7089745
  57.3776846   5.8600603  43.6980718  58.1248665   6.3722000  43.3887840
  57.6468436   5.5384656  44.5585112  55.6503496   8.3559144  40.6807672
  54.7414716   8.0718177  40.7780142  55.6798580   8.7758222  39.8210979
  60.8822764  11.9665733  44.4498840  60.4285091  11.1256643  44.5064030
  60.2516731  12.6027132  44.7873620  59.8255683   2.8957719  45.6799507
  59.0878440   2.3835105  46.0109750  60.0782457   2.4558101  44.8682784
  59.3255703  13.8042230  45.3848658  59.6178677  14.3647287  44.6661024
  59.8354324  14.0970791  46.1401817  46.2191667   6.0764658  44.6622875
  46.0216067   5.4834019  43.9373941  45.6638331   5.7716868  45.3798813
  54.1988390   5.9687764  46.7817468  54.2537000   5.0161601  46.7059944
  53.3879592   6.1247203  47.2658766  55.3479584   9.8967887  38.0195751
  54.9099014   9.1803746  37.5601388  56.0890025  10.1244002  37.4580842
  52.1380750   4.5864824  44.5407847  51.3248616   4.8858995  44.9473039
  52.6339745   4.1920513  45.2582329  54.2889328  14.5822581  46.4742111
  54.2465507  14.8083427  45.5450643  55.2052027  14.3485956  46.6227913
  57.7354962   5.0506649  53.3722741  58.0904350   5.2778122  54.2317206
  58.3827093   5.3825025  52.7499996  63.4652699   8.1725084  44.0772070
  63.3270598   8.3626680  43.1493259  63.1088918   8.9344467  44.5340121
  51.6294825   2.1583180  50.1569082  52.2694204   2.0171939  49.4592045
  50.7972356   1.8717693  49.7807684  63.4922079  10.2401611  49.0883341
  63.9258585  10.1476901  49.9366395  64.2053659  10.2159112  48.4503357
  52.4055129  11.4585610  46.2704074  53.1995728  10.9635930  46.0686649
  51.6946821  10.9303473  45.9071780  57.2249974  13.8403706  50.6216442
  57.2786996  14.4094642  51.3894158  56.3564755  14.0105591  50.2570479
  48.7137893   5.6028692  42.3463827  47.7835481   5.5413147  42.5633789
  48.8095365   5.0804645  41.5500468  48.6323442   2.1283505  44.9342068
  48.8930259   3.0428838  44.8251229  49.4540614   1.6607947  45.0838681
  50.1048367   3.5421262  52.1040893  50.7771420   3.3338624  51.4553542
  49.2778153   3.3443348  51.6646125  64.3537628  10.2825312  51.6216227
  64.5473518  11.1871123  51.8675501  64.2538246   9.8232731  52.4554812
  56.0073939   0.1683203  54.1206554  55.3601854   0.8673152  54.0271030
  56.7774954   0.6019347  54.4882802  59.4152737  10.4332055  57.1957107
  59.2638243  10.2042607  56.2787191  59.4057416  11.3902656  57.2088452
  56.1838073   8.0063968  52.1803374  57.1130133   8.1575127  52.0072341
  55.7629103   8.0947988  51.3252020  54.9826405  12.0314632  49.9501911
  54.8437491  11.6633416  50.8227849  54.1941001  12.5462271  49.7785869
  55.5774557  17.1323728  41.2927448  55.7526313  16.6611772  42.1073070
  54.8907345  17.7589495  41.5208708  56.5331620  11.4096235  47.3390749
  56.1981453  11.3697005  48.2348399  56.0335566  10.7440951  46.8661159
  50.5075864   6.8163865  52.8643330  50.3695662   6.0844104  53.4654869
  51.4180788   6.7272765  52.5827518  59.4690812   8.7552269  37.6127809
  58.8519982   8.0299097  37.5160861  59.0007300   9.5161629  37.2694883
  53.1358165   6.5283824  52.3527010  53.8457783   5.8877016  52.3113628
  53.0927473   6.7796719  53.2753191  61.1244944  13.4651177  55.2733589
  61.0657490  12.7810398  54.6064172  61.5264462  14.2070167  54.8214215
  51.8487099   3.5149042  54.1722649  51.3124456   3.0639780  54.8244246
  51.2603807   3.6494951  53.4293114  50.1435642  20.2813091  48.0667308
  50.3832241  20.9131615  48.7446326  49.3004839  19.9301131  48.3532667
  51.2589358   2.9737693  36.7349113  50.3818824   2.8526494  36.3711360
  51.7347111   2.1823772  36.4828002  61.1262351  11.4290761  53.5047569
  60.2389130  11.0916683  53.6273968  61.6960902  10.6973793  53.7416334
  42.7791498   7.7614853  46.8290620  43.4662538   7.4476583  46.2411635
  42.6239627   8.6656218  46.5557871  47.5826220   2.6505050  51.2575644
  47.4984409   2.0430719  50.5226054  46.7608926   3.1414068  51.2585140
  54.6563504  16.0892214  50.4708812  54.5833676  16.8947185  50.9828116
  54.2140897  16.2884179  49.6456833  54.4453284  15.3263984  43.9811633
  53.6620806  15.8685664  44.0749858  55.1446029  15.8437963  44.3805875
  57.7549934   1.1358613  46.6245839  58.2518633   0.3828575  46.3046909
  56.9836915   1.1722930  46.0589048  65.6079691   6.8398979  48.2664130
  65.5969568   7.7223694  47.8958063  64.7397071   6.4870530  48.0718667
  57.1162188  15.9879048  52.6266971  57.8290160  16.6226513  52.5542872
  56.6252216  16.0842914  51.8106972  58.8379715   9.8930300  44.1984262
  57.9035993  10.0131763  44.0288967  59.0156383   8.9902767  43.9344272
  54.3384903   3.2775996  46.3517523  53.9682690   2.7247037  47.0398429
  54.8343995   2.6734130  45.7992523  62.2252266   5.7347620  44.7334296
  62.6912718   6.5675611  44.6594599  62.6759766   5.2692601  45.4379555
  52.1674101  13.7373491  53.4472541  52.8683561  14.3709974  53.6001936
  51.6969216  14.0788223  52.6868181  60.2928497  12.0791441  41.7320448
  60.5688341  11.9648036  42.6414322  59.4232996  11.6808926  41.6932621
  60.1968929  -1.8971793  48.7725198  59.2832008  -1.6667566  48.9407405
  60.6262030  -1.8133349  49.6239230  59.9675387   6.2918099  51.2725092
  59.3146837   6.5394006  50.6177544  60.3455767   5.4782237  50.9387569
  56.9282561  16.3277792  45.3753262  57.1104956  15.5099448  45.8381014
  57.7515547  16.5445484  44.9378152  57.2624727  15.2545977  42.6368310
  57.7912493  14.7438432  42.0238473  57.5252946  14.9388507  43.5013843
  56.0162960   7.0337910  57.7591129  55.3403597   6.9332039  58.4293504
  56.8390594   6.8777123  58.2227126  47.7641819  13.2709846  50.3803644
  48.3495256  12.5253534  50.5131548  47.5666658  13.5813803  51.2640308
  50.6180475  16.3061094  45.3966086  49.9490850  16.7907221  44.9130126
  50.4793344  16.5530314  46.3109465  42.3559474   5.8415446  49.1008087
  42.3943574   5.3079037  49.8945205  41.8499767   5.3150652  48.4819064
  54.7585743  18.3404837  51.9948745  55.3104051  18.5036459  52.7597830
  55.0991937  18.9309275  51.3228770  49.7350236   0.6879987  52.5970629
  49.7991563   1.5494818  52.1848027  49.6717357   0.0753989  51.8642988
  49.2102509   2.7603119  56.2443664  49.8374548   2.3780197  56.8581188
  48.3530428   2.5417321  56.6099356  59.6096617  13.1666095  57.8497399
  60.1536521  13.7796053  57.3552354  59.0283462  13.7245673  58.3664412
  45.9868052   4.5679549  42.1762019  46.2821493   3.6590227  42.1229072
  45.0856087   4.5467288  41.8543021  57.8954130  16.2886813  48.9812427
  57.7705270  15.4876553  48.4723372  58.5533221  16.7833006  48.4926397
  49.5162299   2.6435545  48.1589567  48.7948884   3.2571513  48.0197040
  50.3055554   3.1793310  48.0806213  59.9589039  14.0895833  50.6091977
  59.0119374  13.9701184  50.5370304  60.3071812  13.2018331  50.6918238
  52.3188612  -0.0210028  54.4330219  52.8423014   0.2252268  55.1956528
  52.1000945   0.8110006  54.0133356  47.7155893   2.2493646  42.3001344
  47.3868599   1.3691025  42.1176450  48.0695264   2.1941315  43.1877733
  56.9635472  13.8848549  46.8096329  56.8160434  12.9565256  46.9903899
  57.7888966  13.9068640  46.3253404  50.8297716   2.5366616  42.6676821
  51.1693789   3.0652537  41.9455430  51.2769837   2.8747022  43.4435388
  60.5669594  14.7077108  47.8961202  61.4916141  14.5019969  47.7585653
  60.3984897  14.4593509  48.8050543  53.5241157   0.9203667  52.1179889
  53.1837978   0.1211480  52.5200569  52.8180163   1.2205378  51.5456723
  54.1757629  -1.9947021  50.5707212  54.9983698  -2.4686543  50.4486103
  54.4195693  -1.2156537  51.0705899  52.8165863   1.0341238  40.8670114
  53.5374226   1.4122490  40.3633831  52.1931168   1.7530114  40.9705092
  56.9596986   1.7386387  41.8028446  57.1760601   2.6211024  41.5017275
  56.4791054   1.3472600  41.0734088  51.6996208   4.6972100  48.3799191
  51.5540788   5.0112403  49.2723473  51.2221411   5.3157000  47.8270090
  53.5592591   1.6874648  48.4280081  53.5454159   0.7915741  48.0912379
  54.2765019   1.6945312  49.0618367  55.4118721   2.1211988  50.4733208
  55.1536499   3.0429059  50.4717538  54.8803762   1.7242423  51.1633672
  60.3564910  15.2262775  43.2523293  60.5301788  14.6609198  42.4997146
  60.8493801  16.0263670  43.0702783  46.1741870   7.2377444  51.3186852
  45.6295338   8.0137252  51.4507127  47.0521220   7.5848249  51.1605974
  52.9629487   0.5689028  43.6967651  53.0845398  -0.3594326  43.8958538
  52.6731529   0.5827714  42.7845966  55.8320677  -1.7456061  46.8334371
  55.8542374  -1.6816728  45.8786350  56.2488736  -2.5851553  47.0274877
  66.2104301   7.9899198  44.8713593  66.6535447   7.2406523  44.4732716
  65.3330812   7.9809334  44.4887325  61.3440083  14.5429540  40.3520192
  62.0390987  15.1636232  40.5707506  61.6863233  13.6924891  40.6272570
  46.9607892   6.3647340  54.2117009  46.2189628   6.5129976  54.7981640
  46.6400636   6.6255606  53.3483759  63.2431506  11.9929245  41.8807522
  63.7682830  12.3316518  41.1556843  63.1553858  11.0576260  41.6970657
  54.9051554  15.9063319  54.0097399  55.2138681  15.6612465  54.8820099
  55.7027036  16.1109957  53.5216269  54.9272166  18.0601228  46.2402776
  54.4877157  17.5677607  46.9335632  55.6780283  17.5174196  45.9994851
  47.4064505  14.2512769  46.2427404  48.2322525  13.9516541  45.8626047
  47.0558557  13.4820392  46.6917192  52.3746039  13.6039237  48.3125077
  51.7526048  12.9409942  48.0127305  53.0450906  13.6300369  47.6298725
  45.6073110  12.1699096  47.2016337  44.7705019  11.7421270  47.0200339
  45.5796756  12.3631539  48.1387129  52.4470566   2.0821025  57.9057583
  52.4958722   2.9583148  57.5235353  52.9893080   1.5398419  57.3329227
  62.9325412  12.6262149  57.1858720  62.1420955  12.6086288  56.6463220
  62.6958766  13.1650442  57.9407757  63.0523287   9.4754615  54.4991449
  63.1021292   9.3104623  55.4406972  62.9437210   8.6081874  54.1089330
  51.9359546  12.1543161  41.7883538  52.0847666  12.8378625  41.1350211
  52.7425989  12.1348251  42.3032994  60.3427049   5.4585543  55.8150756
  61.2436912   5.3192008  55.5234753  60.4175024   5.6239998  56.7548933
  54.6769855   2.8352398  54.6603942  53.8073164   3.1285964  54.3886531
  54.9129335   3.4192843  55.3811206  64.5541484  11.8951557  54.7433471
  64.2626292  12.2581537  55.5796931  63.9413615  11.1818565  54.5646803
  65.7537166   9.4604436  47.2636041  66.5884057   9.8994240  47.4273601
  65.8896295   8.9843090  46.4444287  62.8028672   7.0184171  53.2113529
  63.2782793   7.2111818  52.4032380  61.8794237   7.0743357  52.9656912
  49.6912179   8.1808338  42.7944607  49.4458220   7.2770668  42.9924817
  49.8608093   8.1825489  41.8524085  57.3808888  -0.9467985  52.1769362
  57.8990832  -0.2106958  51.8515851  57.0264021  -0.6403992  53.0116122
  48.9607826   3.9136696  40.2930768  48.2677071   3.9881051  39.6370804
  48.7159578   3.1497040  40.8152285  55.4354951  14.6491291  39.2595285
  54.8628918  15.2681478  38.8065757  56.0087745  15.1990653  39.7935207
  61.5030341   3.8949931  51.4441834  62.4547764   3.9948029  51.4654058
  61.3333791   3.1028200  51.9539918  59.5244720   0.9805515  51.6301235
  58.9294652   1.2610527  50.9347724  59.2394417   1.4699415  52.4017976
  58.6552211  14.9328441  40.3903868  59.5882884  14.8674003  40.5936743
  58.5675424  15.7684708  39.9318400  61.2840228  14.2494312  37.3507815
  61.2053859  13.9154175  38.2443573  62.1049894  14.7416080  37.3499288
  63.9818419   7.1156051  50.5584134  63.9494739   6.1772052  50.7443818
  64.5919042   7.1940088  49.8249959  55.8201750   5.9852104  36.6011338
  56.7660854   5.8558312  36.6699756  55.4415995   5.2466766  37.0780766
  64.1312907   3.9067094  50.6042417  63.6151956   3.1225551  50.4172346
  65.0152856   3.5785811  50.7688936  61.7923634  -2.3491890  46.5638230
  61.5948455  -2.6576802  47.4481562  62.4023340  -1.6230251  46.6936159
  69.7994969   8.1772058  49.6990171  70.5298357   7.9157346  50.2597874
  69.1901914   7.4400780  49.7392239  67.8810266   6.3179920  50.2964622
  67.1543429   6.1835885  49.6881113  67.4657553   6.6256749  51.1021340
  55.7040442  10.0369850  58.0611995  56.6243452  10.2148449  58.2552041
  55.6690025   9.0925895  57.9091694  54.0044667   3.9102080  36.5366223
  53.0976122   3.6135193  36.6128937  54.2820648   3.6131898  35.6700509
  44.9222607   5.2308444  46.9865269  44.6025391   4.3773752  46.6939643
  44.3756035   5.4457022  47.7423237  48.7002515   7.9470885  50.7034776
  48.9188524   8.8787993  50.7222810  49.1128288   7.5878859  51.4889580
  55.6206732  -1.5461030  42.6910464  54.8107461  -1.8913945  43.0665710
  56.3091149  -1.8553486  43.2798076  57.5497281  -2.4682983  44.3134761
  58.1028319  -2.0487530  44.9724784  57.7867367  -3.3947235  44.3557717
  53.5730380   3.5204091  60.0937525  53.4727107   4.4698447  60.0249616
  53.3551922   3.1922329  59.2213595  52.7743451   0.7689016  36.6778202
  53.6362615   1.0943914  36.9374020  52.9593795  -0.0179489  36.1651268
  44.7910867   8.8511355  48.9558391  44.0974339   8.4365308  48.4428345
  45.5383858   8.8931892  48.3591810  60.9276088  -0.3582458  43.8213425
  60.3474757   0.3002346  43.4391478  60.6612020  -1.1805113  43.4100843
  59.3779654  -0.9577400  46.0234746  59.8779433  -0.8460866  45.2149064
  60.0215262  -1.2616347  46.6635554  53.4361650   6.9501229  58.9102587
  52.9528732   7.7501589  59.1166476  53.5222589   6.9609174  57.9570031
  46.7047610   8.7829609  46.8324406  46.6818298   8.8817296  45.8806289
  47.0148246   9.6294760  47.1541572  49.3634987  10.8405764  50.9471020
  50.3178241  10.8089706  50.8800952  49.1647511  10.3796388  51.7621246
  49.9534370   9.4106880  53.5141818  50.7727259   9.9050959  53.5376655
  50.2271177   8.4938848  53.4859385  59.7100966   1.8017632  42.8769774
  58.8226821   2.0867283  42.6589968  60.1254955   1.6411396  42.0297050
  63.0615502   1.8264153  46.5924113  63.8375892   2.3160606  46.8648730
  62.3363636   2.2522208  47.0495982  65.4988061   2.5391773  47.6498053
  66.0932551   2.2987509  46.9391362  65.5714644   1.8198903  48.2771590
  47.7185216  16.3825384  47.9641218  47.5839684  15.6225784  47.3979216
  47.3017279  17.1066283  47.4970007  58.8544179  11.5662307  36.9717793
  59.5580029  11.7712310  37.5875449  58.1306828  12.1339069  37.2366877
  59.6841990   7.3172168  43.0920064  59.6277191   7.7740720  42.2527696
  60.2370332   6.5562853  42.9142906  63.4946795   3.1061900  43.9170183
  63.2383730   2.7058536  44.7478391  62.8699664   3.8205694  43.7920322
  67.8059133   5.8457973  46.4241475  67.2458691   5.9151163  47.1973037
  67.2002637   5.6698958  45.7040971  50.8754342  17.2794701  48.1759661
  50.7586726  18.2240133  48.0738351  50.0546788  16.9768262  48.5645460
  60.7630877  12.0044836  39.0216254  61.5976481  11.5726035  38.8393728
  60.6015220  11.8326850  39.9493148  60.4176769   8.5076950  40.3872593
  60.3625573   8.3421221  39.4461037  59.7922824   9.2152983  40.5434783
  45.2069284   3.7445014  54.2134015  45.8528147   3.2343968  54.7021240
  44.9986435   4.4813696  54.7877440  57.7322676  10.8125861  59.7126156
  58.6013836  10.9866514  59.3512791  57.2529428  11.6320278  59.5901885
  53.7272894  -1.9914941  39.9657911  53.7151564  -1.0473101  40.1226182
  54.6196316  -2.1744796  39.6717372  51.9008856  17.9322962  51.3915589
  52.8036103  17.9646573  51.7082084  51.6746226  17.0023413  51.4061925
  53.6562458  16.6853949  48.0525668  52.7058089  16.6855811  47.9390040
  53.9594944  15.9386684  47.5361703  49.5466775   0.8912631  58.3109029
  50.4098236   0.5349436  58.5212354  48.9732186   0.5526526  58.9984434
  69.3915152  22.5214487  49.1171430  70.0293562  22.4021235  48.4134770
  69.2735995  23.4695331  49.1759382  66.2004858  22.4741916  49.0532955
  65.8623370  22.3582980  48.1653490  67.0694626  22.0733081  49.0333961
  62.0591674  24.3277392  45.0429846  61.4956539  24.2367329  44.2746134
  61.9444069  23.5077296  45.5232338  66.6824641  23.6276767  55.0119160
  66.6713282  23.2329566  54.1399664  66.8445281  22.8942840  55.6052932
  59.6056106  25.8228584  47.8814066  60.3977398  25.4819408  47.4660366
  59.8452756  25.9323559  48.8016220  67.6391232  27.9948360  40.3544311
  66.9879212  28.5802440  39.9678325  68.4335595  28.5254555  40.4139348
  61.5646860  25.0837497  40.7531445  62.3377736  24.5366484  40.6144321
  61.9172259  25.9481746  40.9645907  63.4031902  26.4113879  53.9598344
  63.1121768  27.3159510  53.8445011  64.0388887  26.4530407  54.6742414
  64.3288109  23.7890728  50.5499704  64.9251681  23.5646750  49.8356667
  64.3863081  23.0475473  51.1525152  63.9013137  21.2430163  38.3849895
  64.1538658  20.7211684  37.6233358  62.9637697  21.0796308  38.4876579
  68.9456420  20.2465941  46.1924638  69.7319510  19.8285364  45.8415055
  69.2095125  21.1512033  46.3606287  69.1166498  25.6838792  40.8913295
  68.4812331  25.7573418  41.6034200  68.7863904  26.2732390  40.2132374
  74.3464847  20.1841174  47.0957617  75.0790019  19.6140391  47.3295446
  73.5904203  19.7962775  47.5364122  63.6209426  23.1458269  40.5874270
  63.5045684  22.4703172  41.2555354  63.7311686  22.6590643  39.7706423
  65.9640967  22.6068416  44.2920959  65.5999174  22.0799037  45.0033881
  66.8208083  22.2166885  44.1187445  71.8690268  13.8962749  51.5552225
  71.5373593  14.7658160  51.3313440  71.2735881  13.5799033  52.2346256
  65.6046454  17.6358316  39.2882308  65.7720856  18.5038552  39.6552779
  65.4143623  17.7985597  38.3643597  68.3621787  26.0975295  50.9548138
  68.0622510  27.0000333  50.8463945  68.0172847  25.8307478  51.8069291
  61.8134269  22.5489091  46.9884843  60.8884765  22.4165306  47.1962534
  62.0618682  23.3283311  47.4854785  71.7618931  18.6157835  48.6345575
  70.8535808  18.5473243  48.3404336  71.7106527  19.0929780  49.4627401
  65.5835675  20.0915973  40.2728975  65.4635300  20.5373024  41.1114455
  64.8888263  20.4401291  39.7142513  59.1743080  22.1922365  47.8228632
  59.3035461  22.4456844  48.7368043  58.4940531  22.7850073  47.5033287
  63.3442567  32.8619615  43.9219106  63.2666597  33.8127440  44.0007586
  62.7404211  32.5165487  44.5794032  65.8359797  20.0347480  56.5780473
  65.0593131  20.5941400  56.5683337  66.4750360  20.5204263  57.0995343
  73.6280577  16.8174273  50.4123449  72.9854958  17.1106806  49.7663244
  73.1235506  16.7027193  51.2176646  71.2820741  20.5637446  41.1009309
  72.1938597  20.7964833  40.9257006  70.7730388  21.1474491  40.5384387
  64.0906169  22.8432934  56.1398440  64.8320854  23.3817978  55.8633263
  63.3843155  23.4699222  56.2969992  69.5661509  24.9862074  54.7370601
  69.9744865  24.5444485  53.9925234  68.8438770  24.4114702  54.9904794
  65.9192579  19.9234681  52.1104158  66.7653774  20.3474094  52.2538807
  65.8591217  19.2668305  52.8042721  69.8890323  25.5463265  48.4922890
  69.2599186  25.7108979  47.7898958  69.5015986  25.9604874  49.2633854
  69.0692024  17.5839049  53.7685332  68.8252956  18.3381110  53.2319608
  69.3451955  17.9624397  54.6032579  71.0230487  24.1277662  52.4462597
  71.2347382  24.7709422  51.7696978  70.9760235  23.2939978  51.9784527
  68.6256716  16.7395482  49.3499170  67.7641195  17.0376736  49.6415907
  68.6519151  16.9565881  48.4180202  65.4418285  25.2837673  45.7572975
  65.9056631  25.5625376  44.9677598  65.1775083  24.3821117  45.5746066
  62.3342366  24.8309154  48.6952738  62.9043723  25.2596423  48.0570223
  62.9250478  24.5491739  49.3936924  64.3787171  21.4060825  42.5662540
  65.0811215  21.8581869  43.0336467  64.0467800  20.7644644  43.1942433
  62.8267533  19.9972582  56.9413750  62.1966193  20.6788863  57.1749147
  62.7203621  19.8855663  55.9966888  58.1212505  19.6644378  47.8679674
  57.3311559  19.9201906  47.3919785  58.6123753  20.4792716  47.9731714
  72.1376315  27.0049617  50.6184955  72.9593759  26.6029804  50.3367636
  72.1338718  26.9017851  51.5701071  60.0727251  20.0288957  44.8263151
  59.2758414  20.1407651  45.3446646  59.8452843  20.3675609  43.9604041
  65.9032918  26.5533660  52.7745665  65.9677351  27.0154068  53.6103837
  65.1943842  25.9231025  52.9027975  56.4050208  19.9174868  50.2994665
  56.6558247  20.8021878  50.5652241  56.9409757  19.7379470  49.5269757
  65.6180936  28.2201768  42.6424646  65.4826611  29.0653304  43.0709493
  66.1590748  28.4221046  41.8790579  62.1048276  14.2993348  59.3039001
  61.7115221  13.7459546  59.9786645  62.9214416  14.6103926  59.6945518
  59.0710333  25.7377206  43.2152571  59.5834854  26.5320456  43.3658135
  59.7233046  25.0403496  43.1486172  60.8805218  28.8542962  45.2975324
  61.0571846  29.7760927  45.1096308  61.6762052  28.5401381  45.7269704
  65.0216237  15.7151227  56.8959257  65.7625950  16.3158380  56.8163720
  65.2534159  14.9728865  56.3377300  60.1657575  20.9007594  55.1737487
  60.0511090  19.9992851  55.4744586  59.3102092  21.1471291  54.8222304
  67.2449412  28.8425334  56.7724988  66.8013267  28.0561713  56.4545892
  67.9066626  29.0304485  56.1068878  62.0036534  30.3721136  51.2985666
  62.5543959  30.2438199  50.5262660  61.1648009  30.6716025  50.9480559
  69.3430650  29.1228134  54.8006389  69.3249126  29.9437015  54.3086658
  70.2650570  28.9982210  55.0256530  65.8003705  26.6372264  55.6429897
  66.3332041  25.8760552  55.4129205  65.2717786  26.3445916  56.3854052
  68.9673400  11.7432330  51.1723539  68.6237669  12.6333971  51.0962650
  69.3352362  11.5533987  50.3093124  57.0359250  24.0665860  43.9912141
  57.8734472  24.4762869  43.7745849  57.2137518  23.1265302  43.9612335
  68.9323682  21.7340941  39.6795974  68.4170306  22.5045545  39.9184362
  68.6600991  21.0606077  40.3029036  66.5170793  16.5790642  44.7381213
  65.6612390  16.1897492  44.5586851  66.9297745  16.6582602  43.8780998
  68.0469940  14.1136985  49.1372772  67.5434736  14.0767120  48.3240578
  68.3400547  15.0229728  49.1969429  64.2912826  14.1975715  48.1438954
  65.1565823  14.0018523  47.7844844  64.3590335  13.9686066  49.0708311
  68.7209985  19.6068033  41.5055755  68.4160121  19.9214182  42.3565899
  69.6740428  19.6849453  41.5483088  67.1656417  25.7658256  43.1548709
  66.6377779  25.0311016  42.8421947  66.6643920  26.5432933  42.9088678
  61.8975145  16.4277923  45.5155321  62.4718897  16.2053104  44.7828514
  62.4846127  16.4966617  46.2683922  70.9554722  22.3151649  46.3219697
  71.4686604  22.9481641  46.8241407  71.6055946  21.7152845  45.9563057
  62.2244732  18.4582384  39.5351206  61.3882044  18.7957070  39.8560481
  62.0849502  18.3231363  38.5978343  64.1997813  13.3019171  44.2430390
  63.5462225  12.9868189  43.6187005  64.1578287  12.6794912  44.9690213
  65.3109017  23.5838467  36.1583682  64.4036079  23.3527720  36.3574831
  65.8080049  22.7876086  36.3457664  67.4335553  19.7901105  48.5678038
  66.5158114  20.0116052  48.4099726  67.8495697  19.8647415  47.7089745
  68.2170601  21.1892521  43.6980718  68.9642420  21.7013918  43.3887840
  68.4862190  20.8676573  44.5585112  66.4897251  23.6851061  40.6807672
  65.5808470  23.4010094  40.7780142  66.5192335  24.1050140  39.8210979
  70.6649438  18.2249637  45.6799507  69.9272195  17.7127023  46.0109750
  70.9176211  17.7850019  44.8682784  70.7661065  11.0025889  46.2741277
  71.0719942  10.1423252  45.9867192  71.4913670  11.5943509  46.0740271
  57.0585421  21.4056576  44.6622875  56.8609821  20.8125936  43.9373941
  56.5032085  21.1008786  45.3798813  65.0382145  21.2979682  46.7817468
  65.0930755  20.3453518  46.7059944  64.2273347  21.4539121  47.2658766
  66.1873339  25.2259805  38.0195751  65.7492769  24.5095664  37.5601388
  66.9283780  25.4535920  37.4580842  62.9774505  19.9156742  44.5407847
  62.1642370  20.2150912  44.9473039  63.4733499  19.5212431  45.2582329
  65.1283083  29.9114499  46.4742111  65.0859262  30.1375345  45.5450643
  66.0445782  29.6777873  46.6227913  68.5748717  20.3798566  53.3722741
  68.9298104  20.6070039  54.2317206  69.2220848  20.7116943  52.7499996
  62.4688580  17.4875097  50.1569082  63.1087959  17.3463856  49.4592045
  61.6366110  17.2009611  49.7807684  63.2448884  26.7877528  46.2704074
  64.0389482  26.2927848  46.0686649  62.5340576  26.2595391  45.9071780
  68.0643728  29.1695623  50.6216442  68.1180750  29.7386560  51.3894158
  67.1958509  29.3397508  50.2570479  59.5531647  20.9320609  42.3463827
  58.6229235  20.8705065  42.5633789  59.6489119  20.4096562  41.5500468
  59.4717196  17.4575422  44.9342068  59.7324013  18.3720756  44.8251229
  60.2934368  16.9899865  45.0838681  60.9442121  18.8713179  52.1040893
  61.6165175  18.6630542  51.4553542  60.1171908  18.6735265  51.6646125
  75.1931383  25.6117230  51.6216227  75.3867273  26.5163040  51.8675501
  75.0932001  25.1524649  52.4554812  66.8467693  15.4975120  54.1206554
  66.1995608  16.1965070  54.0271030  67.6168709  15.9311264  54.4882802
  70.2546491  25.7623973  57.1957107  70.1031998  25.5334524  56.2787191
  70.2451171  26.7194574  57.2088452  67.0231828  23.3355885  52.1803374
  67.9523888  23.4867045  52.0072341  66.6022858  23.4239906  51.3252020
  65.8220160  27.3606550  49.9501911  65.6831245  26.9925334  50.8227849
  65.0334756  27.8754189  49.7785869  67.3725375  26.7388152  47.3390749
  67.0375207  26.6988922  48.2348399  66.8729320  26.0732868  46.8661159
  61.3469619  22.1455782  52.8643330  61.2089417  21.4136021  53.4654869
  62.2574542  22.0564683  52.5827518  70.3084566  24.0844187  37.6127809
  69.6913737  23.3591015  37.5160861  69.8401055  24.8453547  37.2694883
  63.9751919  21.8575742  52.3527010  64.6851538  21.2168934  52.3113628
  63.9321227  22.1088637  53.2753191  71.9638698  28.7943095  55.2733589
  71.9051244  28.1102315  54.6064172  72.3658216  29.5362085  54.8214215
  62.6880853  18.8440960  54.1722649  62.1518210  18.3931698  54.8244246
  62.0997562  18.9786868  53.4293114  60.9829397  35.6105009  48.0667308
  61.2225995  36.2423533  48.7446326  60.1398593  35.2593049  48.3532667
  62.0983112  18.3029611  36.7349113  61.2212579  18.1818412  36.3711360
  62.5740865  17.5115689  36.4828002  71.9656105  26.7582679  53.5047569
  71.0782884  26.4208601  53.6273968  72.5354656  26.0265710  53.7416334
  53.6185252  23.0906771  46.8290620  54.3056292  22.7768501  46.2411635
  53.4633381  23.9948135  46.5557871  58.4219975  17.9796967  51.2575644
  58.3378163  17.3722637  50.5226054  57.6002681  18.4705986  51.2585140
  65.4957259  31.4184131  50.4708812  65.4227430  32.2239103  50.9828116
  65.0534652  31.6176097  49.6456833  68.5943688  16.4650531  46.6245839
  69.0912388  15.7120493  46.3046909  67.8230670  16.5014847  46.0589048
  76.4473446  22.1690896  48.2664130  76.4363322  23.0515612  47.8958063
  75.5790825  21.8162447  48.0718667  67.9555942  31.3170965  52.6266971
  68.6683914  31.9518430  52.5542872  67.4645971  31.4134831  51.8106972
  65.1778657  18.6067914  46.3517523  64.8076445  18.0538954  47.0398429
  65.6737750  18.0026047  45.7992523  73.0646020  21.0639537  44.7334296
  73.5306473  21.8967529  44.6594599  73.5153521  20.5984519  45.4379555
  63.0067856  29.0665409  53.4472541  63.7077315  29.7001892  53.6001936
  62.5362971  29.4080140  52.6868181  71.0362683  13.4320124  48.7725198
  70.1225763  13.6624351  48.9407405  71.4655785  13.5158568  49.6239230
  70.8069142  21.6210016  51.2725092  70.1540592  21.8685924  50.6177544
  71.1849522  20.8074154  50.9387569  66.8556715  22.3629827  57.7591129
  66.1797352  22.2623957  58.4293504  67.6784349  22.2069041  58.2227126
  58.6035574  28.6001764  50.3803644  59.1889011  27.8545452  50.5131548
  58.4060412  28.9105721  51.2640308  61.4574229  31.6353011  45.3966086
  60.7884604  32.1199139  44.9130126  61.3187099  31.8822232  46.3109465
  53.1953229  21.1707364  49.1008087  53.2337328  20.6370955  49.8945205
  52.6893521  20.6442570  48.4819064  65.5979498  33.6696755  51.9948745
  66.1497806  33.8328376  52.7597830  65.9385691  34.2601193  51.3228770
  60.5743991  16.0171905  52.5970629  60.6385317  16.8786736  52.1848027
  60.5111111  15.4045906  51.8642988  60.0496263  18.0895037  56.2443664
  60.6768302  17.7072114  56.8581188  59.1924182  17.8709239  56.6099356
  70.4490372  28.4958012  57.8497399  70.9930276  29.1087971  57.3552354
  69.8677217  29.0537591  58.3664412  56.8261806  19.8971466  42.1762019
  57.1215247  18.9882145  42.1229072  55.9249842  19.8759206  41.8543021
  68.7347885  31.6178730  48.9812427  68.6099024  30.8168470  48.4723372
  69.3926976  32.1124924  48.4926397  60.3556053  17.9727463  48.1589567
  59.6342639  18.5863431  48.0197040  61.1449309  18.5085228  48.0806213
  70.7982793  29.4187750  50.6091977  69.8513129  29.2993102  50.5370304
  71.1465566  28.5310248  50.6918238  63.1582367  15.3081889  54.4330219
  63.6816768  15.5544186  55.1956528  62.9394700  16.1401924  54.0133356
  58.5549648  17.5785564  42.3001344  58.2262354  16.6982943  42.1176450
  58.9089018  17.5233233  43.1877733  61.6691471  17.8658534  42.6676821
  62.0087543  18.3944455  41.9455430  62.1163591  18.2038940  43.4435388
  64.3634912  16.2495584  52.1179889  64.0231732  15.4503398  52.5200569
  63.6573918  16.5497295  51.5456723  65.0151383  13.3344897  50.5707212
  65.8377453  12.8605375  50.4486103  65.2589447  14.1135381  51.0705899
  63.6559618  16.3633155  40.8670114  64.3767980  16.7414408  40.3633831
  63.0324922  17.0822032  40.9705092  67.7990741  17.0678304  41.8028446
  68.0154355  17.9502942  41.5017275  67.3184808  16.6764518  41.0734088
  62.5389962  20.0264018  48.3799191  62.3934543  20.3404321  49.2723473
  62.0615166  20.6448918  47.8270090  64.3986345  17.0166565  48.4280081
  64.3847914  16.1207659  48.0912379  65.1158773  17.0237229  49.0618367
  66.2512476  17.4503906  50.4733208  65.9930254  18.3720976  50.4717538
  65.7197516  17.0534340  51.1633672  57.0135624  22.5669362  51.3186852
  56.4689092  23.3429170  51.4507127  57.8914974  22.9140166  51.1605974
  63.8023241  15.8980946  43.6967651  63.9239152  14.9697592  43.8958538
  63.5125283  15.9119632  42.7845966  66.6714431  13.5835856  46.8334371
  66.6936128  13.6475189  45.8786350  67.0882490  12.7440365  47.0274877
  57.8001646  21.6939258  54.2117009  57.0583382  21.8421894  54.7981640
  57.4794391  21.9547524  53.3483759  65.7445309  31.2355236  54.0097399
  66.0532435  30.9904383  54.8820099  66.5420791  31.4401875  53.5216269
  65.7665921  33.3893146  46.2402776  65.3270911  32.8969525  46.9335632
  66.5174038  32.8466114  45.9994851  58.2458260  29.5804687  46.2427404
  59.0716280  29.2808459  45.8626047  57.8952312  28.8112309  46.6917192
  63.2139793  28.9331155  48.3125077  62.5919802  28.2701860  48.0127305
  63.8844660  28.9592287  47.6298725  56.4466865  27.4991013  47.2016337
  55.6098773  27.0713188  47.0200339  56.4190510  27.6923457  48.1387129
  63.2864321  17.4112943  57.9057583  63.3352476  18.2875066  57.5235353
  63.8286835  16.8690336  57.3329227  73.7719166  27.9554066  57.1858720
  72.9814710  27.9378205  56.6463220  73.5352521  28.4942360  57.9407757
  73.8917041  24.8046533  54.4991449  73.9415046  24.6396540  55.4406972
  73.7830965  23.9373792  54.1089330  62.7753300  27.4835078  41.7883538
  62.9241420  28.1670543  41.1350211  63.5819743  27.4640169  42.3032994
  71.1820804  20.7877461  55.8150756  72.0830666  20.6483926  55.5234753
  71.2568778  20.9531916  56.7548933  65.5163609  18.1644316  54.6603942
  64.6466918  18.4577882  54.3886531  65.7523089  18.7484761  55.3811206
  75.3935238  27.2243474  54.7433471  75.1020046  27.5873455  55.5796931
  74.7807369  26.5110483  54.5646803  73.6422426  22.3476089  53.2113529
  74.1176548  22.5403735  52.4032380  72.7187992  22.4035275  52.9656912
  60.5305933  23.5100256  42.7944607  60.2851975  22.6062586  42.9924817
  60.7001848  23.5117407  41.8524085  68.2202643  14.3823932  52.1769362
  68.7384587  15.1184959  51.8515851  67.8657776  14.6887926  53.0116122
  59.8001581  19.2428614  40.2930768  59.1070825  19.3172969  39.6370804
  59.5553332  18.4788957  40.8152285  68.4715237  10.8024215  47.6970259
  68.7516991  10.1347404  48.3230686  69.2565844  10.9953311  47.1844923
  66.2748706  29.9783209  39.2595285  65.7022673  30.5973396  38.8065757
  66.8481499  30.5282571  39.7935207  72.3424095  19.2241849  51.4441834
  73.2941518  19.3239947  51.4654058  72.1727546  18.4320118  51.9539918
  70.3638475  16.3097432  51.6301235  69.7688407  16.5902445  50.9347724
  70.0788172  16.7991333  52.4017976  74.8212173  22.4447969  50.5584134
  74.7888493  21.5063969  50.7443818  75.4312797  22.5232005  49.8249959
  66.6595504  21.3144022  36.6011338  67.6054609  21.1850230  36.6699756
  66.2809749  20.5758684  37.0780766  74.9706662  19.2359012  50.6042417
  74.4545710  18.4517469  50.4172346  75.8546610  18.9077729  50.7688936
  72.6317389  12.9800028  46.5638230  72.4342210  12.6715116  47.4481562
  73.2417094  13.7061667  46.6936159  78.7204020  21.6471838  50.2964622
  77.9937184  21.5127803  49.6881113  78.3051307  21.9548667  51.1021340
  66.5434197  25.3661768  58.0611995  67.4637206  25.5440367  58.2552041
  66.5083780  24.4217813  57.9091694  64.8438421  19.2393998  36.5366223
  63.9369877  18.9427111  36.6128937  65.1214402  18.9423816  35.6700509
  55.7616362  20.5600361  46.9865269  55.4419146  19.7065670  46.6939643
  55.2149790  20.7748940  47.7423237  59.5396269  23.2762802  50.7034776
  59.7582279  24.2079910  50.7222810  59.9522043  22.9170777  51.4889580
  66.4600487  13.7830888  42.6910464  65.6501215  13.4377973  43.0665710
  67.1484904  13.4738431  43.2798076  68.3891035  12.8608935  44.3134761
  68.9422074  13.2804388  44.9724784  68.6261122  11.9344683  44.3557717
  64.4124134  18.8496008  60.0937525  64.3120861  19.7990365  60.0249616
  64.1945676  18.5214247  59.2213595  63.6137206  16.0980933  36.6778202
  64.4756370  16.4235832  36.9374020  63.7987550  15.3112429  36.1651268
  55.6304622  24.1803273  48.9558391  54.9368093  23.7657226  48.4428345
  56.3777613  24.2223809  48.3591810  71.7669842  14.9709460  43.8213425
  71.1868511  15.6294264  43.4391478  71.5005775  14.1486804  43.4100843
  70.2173409  14.3714517  46.0234746  70.7173187  14.4831052  45.2149064
  70.8609017  14.0675570  46.6635554  64.2755404  22.2793147  58.9102587
  63.7922486  23.0793507  59.1166476  64.3616344  22.2901092  57.9570031
  57.5441364  24.1121527  46.8324406  57.5212052  24.2109214  45.8806289
  57.8542001  24.9586678  47.1541572  60.2028742  26.1697682  50.9471020
  61.1571996  26.1381624  50.8800952  60.0041266  25.7088305  51.7621246
  60.7928124  24.7398798  53.5141818  61.6121013  25.2342876  53.5376655
  61.0664932  23.8230766  53.4859385  70.5494720  17.1309550  42.8769774
  69.6620575  17.4159201  42.6589968  70.9648709  16.9703313  42.0297050
  73.9009256  17.1556071  46.5924113  74.6769647  17.6452524  46.8648730
  73.1757391  17.5814125  47.0495982  76.3381815  17.8683690  47.6498053
  76.9326306  17.6279426  46.9391362  76.4108399  17.1490821  48.2771590
  58.5578971  31.7117301  47.9641218  58.4233439  30.9517702  47.3979216
  58.1411033  32.4358201  47.4970007  69.6937934  26.8954225  36.9717793
  70.3973784  27.1004227  37.5875449  68.9700583  27.4630987  37.2366877
  70.5235744  22.6464086  43.0920064  70.4670945  23.1032637  42.2527696
  71.0764087  21.8854771  42.9142906  74.3340550  18.4353818  43.9170183
  74.0777484  18.0350454  44.7478391  73.7093418  19.1497612  43.7920322
  78.6452888  21.1749891  46.4241475  78.0852446  21.2443080  47.1973037
  78.0396391  20.9990876  45.7040971  61.7148097  32.6086618  48.1759661
  61.5980481  33.5532051  48.0738351  60.8940543  32.3060180  48.5645460
  71.2570523  23.8368867  40.3872593  71.2019327  23.6713139  39.4461037
  70.6316579  24.5444900  40.5434783  56.0463038  19.0736932  54.2134015
  56.6921902  18.5635886  54.7021240  55.8380189  19.8105613  54.7877440
  68.5716431  26.1417779  59.7126156  69.4407590  26.3158431  59.3512791
  68.0923182  26.9612196  59.5901885  64.5666649  13.3376976  39.9657911
  64.5545319  14.2818816  40.1226182  65.4590071  13.1547122  39.6717372
  62.7402611  33.2614880  51.3915589  63.6429857  33.2938490  51.7082084
  62.5139981  32.3315331  51.4061925  64.4956213  32.0145867  48.0525668
  63.5451844  32.0147728  47.9390040  64.7988699  31.2678601  47.5361703
  68.3818768   9.9319753  44.2203848  67.6151164   9.3778240  44.3660530
  68.7929473  10.0041622  45.0818000  60.3860529  16.2204549  58.3109029
  61.2491991  15.8641354  58.5212354  59.8125940  15.8818444  58.9984434
  73.6661287  35.3264500  56.9413750  73.0359948  36.0080780  57.1749147
  73.5597375  35.2147581  55.9966888  68.9606260  34.9936296  47.8679674
  68.1705314  35.2493824  47.3919785  69.4517507  35.8084633  47.9731714
  67.2443963  35.2466786  50.2994665  67.4952001  36.1313796  50.5652241
  67.7803511  35.0671388  49.5269757  72.9442030  29.6285265  59.3039001
  72.5508976  29.0751464  59.9786645  73.7608170  29.9395844  59.6945518
  75.8609991  31.0443144  56.8959257  76.6019704  31.6450298  56.8163720
  76.0927914  30.3020782  56.3377300  71.0051329  36.2299512  55.1737487
  70.8904844  35.3284769  55.4744586  70.1495847  36.4763209  54.8222304
  78.0843167  44.1717252  56.7724988  77.6407021  43.3853631  56.4545892
  78.7460380  44.3596403  56.1068878  76.6397459  41.9664181  55.6429897
  77.1725796  41.2052470  55.4129205  76.1111540  41.6737833  56.3854052
  71.7835876  34.2005097  52.1040893  72.4558929  33.9922459  51.4553542
  70.9565662  34.0027183  51.6646125  72.1863373  37.4747700  52.8643330
  72.0483171  36.7427939  53.4654869  73.0968297  37.3856600  52.5827518
  73.5274608  34.1732877  54.1722649  72.9911965  33.7223616  54.8244246
  72.9391316  34.3078786  53.4293114  69.2613729  33.3088885  51.2575644
  69.1771918  32.7014555  50.5226054  68.4396435  33.7997903  51.2585140
  64.0346983  36.4999282  49.1008087  64.0731083  35.9662872  49.8945205
  63.5287276  35.9734487  48.4819064  71.4137745  31.3463822  52.5970629
  71.4779072  32.2078653  52.1848027  71.3504866  30.7337824  51.8642988
  70.8890018  33.4186955  56.2443664  71.5162057  33.0364032  56.8581188
  70.0317937  33.2001157  56.6099356  71.1949808  33.3019381  48.1589567
  70.4736393  33.9155348  48.0197040  71.9843063  33.8377145  48.0806213
  73.9976121  30.6373807  54.4330219  74.5210523  30.8836104  55.1956528
  73.7788454  31.4693842  54.0133356  75.2028666  31.5787502  52.1179889
  74.8625487  30.7795315  52.5200569  74.4967672  31.8789213  51.5456723
  75.8545138  28.6636815  50.5707212  76.6771207  28.1897293  50.4486103
  76.0983202  29.4427298  51.0705899  67.8529379  37.8961280  51.3186852
  67.3082847  38.6721088  51.4507127  68.7308729  38.2432084  51.1605974
  68.6395401  37.0231176  54.2117009  67.8977137  37.1713811  54.7981640
  68.3188145  37.2839441  53.3483759  74.1258075  32.7404861  57.9057583
  74.1746231  33.6166984  57.5235353  74.6680589  32.1982254  57.3329227
  75.2517889  34.1787926  60.0937525  75.1514616  35.1282283  60.0249616
  75.0339431  33.8506165  59.2213595  75.1149159  37.6085065  58.9102587
  74.6316241  38.4085425  59.1166476  75.2010098  37.6193010  57.9570031
  71.6321879  40.0690715  53.5141818  72.4514768  40.5634794  53.5376655
  71.9058686  39.1522684  53.4859385  66.8856793  34.4028849  54.2134015
  67.5315656  33.8927803  54.7021240  66.6773944  35.1397531  54.7877440
  79.4110185  41.4709697  59.7126156  80.2801345  41.6450349  59.3512791
  78.9316937  42.2904114  59.5901885  71.2254284  31.5496466  58.3109029
  72.0885745  31.1933271  58.5212354  70.6519694  31.2110361  58.9984434
  91.0702661  53.1798323  49.1171430  91.7081071  53.0605070  48.4134770
  90.9523504  54.1279167  49.1759382  87.8792367  53.1325751  49.0532955
  87.5410879  53.0166816  48.1653490  88.7482135  52.7316916  49.0333961
  83.7379183  54.9861227  45.0429846  83.1744048  54.8951164  44.2746134
  83.6231578  54.1661132  45.5232338  88.3612150  54.2860603  55.0119160
  88.3500791  53.8913401  54.1399664  88.5232790  53.5526675  55.6052932
  81.2843615  56.4812419  47.8814066  82.0764907  56.1403244  47.4660366
  81.5240265  56.5907394  48.8016220  89.3178741  58.6532195  40.3544311
  88.6666721  59.2386275  39.9678325  90.1123104  59.1838390  40.4139348
  85.0819411  57.0697714  53.9598344  84.7909277  57.9743345  53.8445011
  85.7176396  57.1114242  54.6742414  86.0075618  54.4474563  50.5499704
  86.6039190  54.2230585  49.8356667  86.0650590  53.7059308  51.1525152
  90.6243929  50.9049777  46.1924638  91.4107018  50.4869200  45.8415055
  90.8882634  51.8095869  46.3606287  90.7954007  56.3422627  40.8913295
  90.1599840  56.4157253  41.6034200  90.4651413  56.9316226  40.2132374
  96.0252356  50.8425010  47.0957617  96.7577528  50.2724227  47.3295446
  95.2691712  50.4546610  47.5364122  87.6428476  53.2652251  44.2920959
  87.2786683  52.7382872  45.0033881  88.4995592  52.8750720  44.1187445
  93.5477777  44.5546584  51.5552225  93.2161102  45.4241995  51.3313440
  92.9523390  44.2382868  52.2346256  90.0409296  56.7559130  50.9548138
  89.7410019  57.6584169  50.8463945  89.6960356  56.4891313  51.8069291
  83.4921778  53.2072927  46.9884843  82.5672274  53.0749141  47.1962534
  83.7406191  53.9867146  47.4854785  93.4406440  49.2741670  48.6345575
  92.5323317  49.2057079  48.3404336  93.3894036  49.7513615  49.4627401
  80.8530589  52.8506200  47.8228632  80.9822970  53.1040679  48.7368043
  80.1728040  53.4433908  47.5033287  85.0230076  63.5203450  43.9219106
  84.9454106  64.4711275  44.0007586  84.4191720  63.1749323  44.5794032
  87.5147306  50.6931316  56.5780473  86.7380640  51.2525236  56.5683337
  88.1537869  51.1788099  57.0995343  95.3068086  47.4758108  50.4123449
  94.6642467  47.7690642  49.7663244  94.8023015  47.3611029  51.2176646
  92.9608250  51.2221282  41.1009309  93.8726106  51.4548668  40.9257006
  92.4517897  51.8058326  40.5384387  85.7693678  53.5016769  56.1398440
  86.5108363  54.0401813  55.8633263  85.0630664  54.1283058  56.2969992
  91.2449018  55.6445910  54.7370601  91.6532374  55.2028320  53.9925234
  90.5226279  55.0698537  54.9904794  87.5980088  50.5818516  52.1104158
  88.4441283  51.0057930  52.2538807  87.5378725  49.9252141  52.8042721
  91.5677832  56.2047100  48.4922890  90.9386695  56.3692814  47.7898958
  91.1803495  56.6188710  49.2633854  95.4467064  57.1401538  45.8467254
  94.7618102  57.5200439  45.2964287  95.5310914  57.7496865  46.5799202
  90.7479533  48.2422885  53.7685332  90.5040465  48.9964945  53.2319608
  91.0239464  48.6208232  54.6032579  92.7017996  54.7861497  52.4462597
  92.9134891  55.4293257  51.7696978  92.6547744  53.9523814  51.9784527
  90.3044225  47.3979318  49.3499170  89.4428704  47.6960571  49.6415907
  90.3306660  47.6149717  48.4180202  87.1205794  55.9421508  45.7572975
  87.5844140  56.2209211  44.9677598  86.8562592  55.0404953  45.5746066
  84.0129875  55.4892990  48.6952738  84.5831232  55.9180258  48.0570223
  84.6037987  55.2075574  49.3936924  86.0574680  52.0644661  42.5662540
  86.7598724  52.5165704  43.0336467  85.7255309  51.4228479  43.1942433
  84.5055042  50.6556417  56.9413750  83.8753702  51.3372698  57.1749147
  84.3991130  50.5439499  55.9966888  79.8000014  50.3228213  47.8679674
  79.0099068  50.5785742  47.3919785  80.2911262  51.1376551  47.9731714
  93.8163824  57.6633452  50.6184955  94.6381268  57.2613640  50.3367636
  93.8126227  57.5601687  51.5701071  87.5820427  57.2117496  52.7745665
  87.6464860  57.6737903  53.6103837  86.8731351  56.5814861  52.9027975
  78.0837717  50.5758704  50.2994665  78.3345756  51.4605714  50.5652241
  78.6197266  50.3963305  49.5269757 101.9069817  54.0072201  46.9669926
 101.1533525  53.4379599  46.8113931 102.0417358  53.9734865  47.9140561
  87.2968445  58.8785603  42.6424646  87.1614120  59.7237139  43.0709493
  87.8378257  59.0804881  41.8790579  83.7835785  44.9577183  59.3039001
  83.3902730  44.4043382  59.9786645  84.6001925  45.2687762  59.6945518
  86.7003746  46.3735062  56.8959257  87.4413459  46.9742215  56.8163720
  86.9321668  45.6312700  56.3377300  81.8445084  51.5591429  55.1737487
  81.7298599  50.6576687  55.4744586  80.9889601  51.8055126  54.8222304
  88.9236921  59.5009170  56.7724988  88.4800776  58.7145548  56.4545892
  89.5854135  59.6888320  56.1068878  83.6824043  61.0304971  51.2985666
  84.2331468  60.9022035  50.5262660  82.8435518  61.3299860  50.9480559
  91.0218159  59.7811970  54.8006389  91.0036635  60.6020851  54.3086658
  91.9438079  59.6566045  55.0256530  87.4791214  57.2956099  55.6429897
  88.0119550  56.5344387  55.4129205  86.9505295  57.0029751  56.3854052
  90.6111191  52.3924776  39.6795974  90.0957815  53.1629381  39.9184362
  90.3388500  51.7189912  40.3029036  95.5845465  55.1457131  41.6149148
  94.8074908  54.8068290  41.1704310  96.2636946  55.1509754  40.9404113
  90.3997494  50.2651868  41.5055755  90.0947630  50.5798017  42.3565899
  91.3527937  50.3433288  41.5483088  88.8443926  56.4242092  43.1548709
  88.3165288  55.6894851  42.8421947  88.3431429  57.2016768  42.9088678
  93.8236772  54.6191112  48.2715756  93.1660447  55.3090374  48.3595884
  94.6277172  55.0087544  48.6149742  92.6342231  52.9735485  46.3219697
  93.1474113  53.6065477  46.8241407  93.2843455  52.3736680  45.9563057
  89.8964605  62.9519809  39.0780369  89.2226304  63.2551506  39.6865326
  90.2830427  63.7548889  38.7285826  89.1123062  50.4484940  48.5678038
  88.1945623  50.6699887  48.4099726  89.5283206  50.5231251  47.7089745
  89.8958110  51.8476356  43.6980718  90.6429929  52.3597753  43.3887840
  90.1649699  51.5260409  44.5585112  88.1684760  54.3434897  40.6807672
  87.2595979  54.0593930  40.7780142  88.1979844  54.7633975  39.8210979
  93.4004027  57.9541486  44.4498840  92.9466354  57.1132396  44.5064030
  92.7697994  58.5902885  44.7873620  92.3436947  48.8833472  45.6799507
  91.6059704  48.3710858  46.0109750  92.5963720  48.4433854  44.8682784
  91.8436967  59.7917983  45.3848658  92.1359941  60.3523040  44.6661024
  92.3535587  60.0846544  46.1401817  78.7372930  52.0640411  44.6622875
  78.5397330  51.4709772  43.9373941  78.1819594  51.7592621  45.3798813
  86.7169654  51.9563517  46.7817468  86.7718264  51.0037354  46.7059944
  85.9060856  52.1122956  47.2658766  87.8660848  55.8843640  38.0195751
  87.4280278  55.1679499  37.5601388  88.6071289  56.1119755  37.4580842
  84.6562014  50.5740577  44.5407847  83.8429879  50.8734748  44.9473039
  85.1521008  50.1796266  45.2582329  86.8070592  60.5698334  46.4742111
  86.7646771  60.7959180  45.5450643  87.7233291  60.3361709  46.6227913
  90.2536226  51.0382402  53.3722741  90.6085613  51.2653875  54.2317206
  90.9008357  51.3700778  52.7499996  95.9833962  54.1600837  44.0772070
  95.8451861  54.3502433  43.1493259  95.6270181  54.9220220  44.5340121
  96.0103342  56.2277364  49.0883341  96.4439849  56.1352654  49.9366395
  96.7234923  56.2034865  48.4503357  84.9236393  57.4461363  46.2704074
  85.7176991  56.9511683  46.0686649  84.2128085  56.9179226  45.9071780
  89.7431237  59.8279459  50.6216442  89.7968259  60.3970395  51.3894158
  88.8746018  59.9981344  50.2570479  82.6229630  49.5297015  52.1040893
  83.2952684  49.3214377  51.4553542  81.7959417  49.3319101  51.6646125
  96.8718892  56.2701065  51.6216227  97.0654782  57.1746876  51.8675501
  96.7719510  55.8108484  52.4554812  91.9334000  56.4207808  57.1957107
  91.7819507  56.1918360  56.2787191  91.9238680  57.3778409  57.2088452
  88.7019337  53.9939721  52.1803374  89.6311397  54.1450880  52.0072341
  88.2810367  54.0823741  51.3252020  87.5007669  58.0190385  49.9501911
  87.3618754  57.6509169  50.8227849  86.7122265  58.5338024  49.7785869
  88.0955820  63.1199481  41.2927448  88.2707576  62.6487525  42.1073070
  87.4088609  63.7465248  41.5208708  89.0512884  57.3971988  47.3390749
  88.7162716  57.3572758  48.2348399  88.5516829  56.7316704  46.8661159
  83.0257128  52.8039618  52.8643330  82.8876926  52.0719857  53.4654869
  83.9362051  52.7148518  52.5827518  91.9872075  54.7428022  37.6127809
  91.3701246  54.0174850  37.5160861  91.5188564  55.5037382  37.2694883
  85.6539428  52.5159577  52.3527010  86.3639047  51.8752769  52.3113628
  85.6108736  52.7672472  53.2753191  93.6426207  59.4526930  55.2733589
  93.5838753  58.7686151  54.6064172  94.0445725  60.1945920  54.8214215
  82.6616906  66.2688844  48.0667308  82.9013504  66.9007368  48.7446326
  81.8186102  65.9176884  48.3532667  93.6443614  57.4166514  53.5047569
  92.7570393  57.0792436  53.6273968  94.2142165  56.6849546  53.7416334
  80.1007484  48.6380803  51.2575644  80.0165672  48.0306472  50.5226054
  79.2790190  49.1289821  51.2585140  87.1744768  62.0767967  50.4708812
  87.1014939  62.8822938  50.9828116  86.7322161  62.2759933  49.6456833
  86.9634547  61.3139737  43.9811633  86.1802069  61.8561417  44.0749858
  87.6627292  61.8313716  44.3805875  98.1260955  52.8274732  48.2664130
  98.1150831  53.7099447  47.8958063  97.2578334  52.4746283  48.0718667
  89.6343451  61.9754801  52.6266971  90.3471423  62.6102266  52.5542872
  89.1433480  62.0718667  51.8106972  91.3560978  55.8806053  44.1984262
  90.4217257  56.0007516  44.0288967  91.5337647  54.9778520  43.9344272
  86.8566166  49.2651749  46.3517523  86.4863954  48.7122790  47.0398429
  87.3525259  48.6609883  45.7992523  94.7433529  51.7223373  44.7334296
  95.2093982  52.5551364  44.6594599  95.1941030  51.2568354  45.4379555
  84.6855365  59.7249244  53.4472541  85.3864824  60.3585727  53.6001936
  84.2150480  60.0663976  52.6868181  92.8109761  58.0667194  41.7320448
  93.0869604  57.9523789  42.6414322  91.9414259  57.6684679  41.6932621
  92.4856651  52.2793852  51.2725092  91.8328101  52.5269759  50.6177544
  92.8637031  51.4657990  50.9387569  89.4463825  62.3153545  45.3753262
  89.6286219  61.4975201  45.8381014  90.2696811  62.5321237  44.9378152
  89.7805990  61.2421730  42.6368310  90.3093756  60.7314185  42.0238473
  90.0434210  60.9264260  43.5013843  88.5344224  53.0213663  57.7591129
  87.8584861  52.9207792  58.4293504  89.3571858  52.8652876  58.2227126
  83.1361738  62.2936847  45.3966086  82.4672113  62.7782974  44.9130126
  82.9974608  62.5406067  46.3109465  87.2767007  64.3280590  51.9948745
  87.8285315  64.4912212  52.7597830  87.6173200  64.9185028  51.3228770
  81.7283772  48.7478873  56.2443664  82.3555811  48.3655950  56.8581188
  80.8711691  48.5293074  56.6099356  92.1277881  59.1541848  57.8497399
  92.6717785  59.7671806  57.3552354  91.5464726  59.7121426  58.3664412
  90.4135394  62.2762566  48.9812427  90.2886533  61.4752306  48.4723372
  91.0714485  62.7708759  48.4926397  82.0343562  48.6311298  48.1589567
  81.3130148  49.2447266  48.0197040  82.8236818  49.1669063  48.0806213
  92.4770302  60.0771586  50.6091977  91.5300638  59.9576937  50.5370304
  92.8253075  59.1894084  50.6918238  89.4816736  59.8724302  46.8096329
  89.3341698  58.9441009  46.9903899  90.3070229  59.8944393  46.3253404
  93.0850857  60.6952861  47.8961202  94.0097405  60.4895722  47.7585653
  92.9166161  60.4469262  48.8050543  84.2177471  50.6847853  48.3799191
  84.0722052  50.9988156  49.2723473  83.7402675  51.3032753  47.8270090
  86.0773854  47.6750401  48.4280081  86.0635423  46.7791494  48.0912379
  86.7946282  47.6821065  49.0618367  87.9299985  48.1087741  50.4733208
  87.6717763  49.0304812  50.4717538  87.3985025  47.7118176  51.1633672
  92.8746174  61.2138528  43.2523293  93.0483051  60.6484951  42.4997146
  93.3675065  62.0139423  43.0702783  98.7285565  53.9774951  44.8713593
  99.1716711  53.2282276  44.4732716  97.8512075  53.9685087  44.4887325
  93.8621346  60.5305293  40.3520192  94.5572251  61.1511985  40.5707506
  94.2044496  59.6800644  40.6272570  95.7612769  57.9804998  41.8807522
  96.2864093  58.3192271  41.1556843  95.6735122  57.0452013  41.6970657
  87.4232818  61.8939072  54.0097399  87.7319944  61.6488219  54.8820099
  88.2208300  62.0985710  53.5216269  87.4453430  64.0476981  46.2402776
  87.0058420  63.5553360  46.9335632  88.1961547  63.5049949  45.9994851
  84.8927302  59.5914990  48.3125077  84.2707311  58.9285695  48.0127305
  85.5632169  59.6176122  47.6298725  84.9651830  48.0696778  57.9057583
  85.0139985  48.9458901  57.5235353  85.5074344  47.5274172  57.3329227
  95.5704550  55.4630368  54.4991449  95.6202555  55.2980376  55.4406972
  95.4618474  54.5957627  54.1089330  92.8608313  51.4461296  55.8150756
  93.7618175  51.3067761  55.5234753  92.9356287  51.6115751  56.7548933
  97.0722747  57.8827310  54.7433471  96.7807555  58.2457290  55.5796931
  96.4594878  57.1694318  54.5646803  98.2718429  55.4480189  47.2636041
  99.1065321  55.8869993  47.4273601  98.4077558  54.9718843  46.4444287
  95.3209935  53.0059924  53.2113529  95.7964057  53.1987571  52.4032380
  94.3975501  53.0619110  52.9656912  87.9536215  60.6367044  39.2595285
  87.3810182  61.2557231  38.8065757  88.5269008  61.1866406  39.7935207
  94.0211604  49.8825684  51.4441834  94.9729027  49.9823782  51.4654058
  93.8515055  49.0903953  51.9539918  92.0425984  46.9681268  51.6301235
  91.4475916  47.2486280  50.9347724  91.7575681  47.4575168  52.4017976
  91.1733474  60.9204194  40.3903868  92.1064147  60.8549756  40.5936743
  91.0856687  61.7560461  39.9318400  93.8021491  60.2370065  37.3507815
  93.7235123  59.9029928  38.2443573  94.6231158  60.7291833  37.3499288
  96.4999682  53.1031804  50.5584134  96.4676002  52.1647805  50.7443818
  97.1100306  53.1815841  49.8249959  88.3383013  51.9727857  36.6011338
  89.2842118  51.8434065  36.6699756  87.9597258  51.2342519  37.0780766
  96.6494171  49.8942847  50.6042417  96.1333219  49.1101304  50.4172346
  97.5334119  49.5661564  50.7688936 102.3176232  54.1647811  49.6990171
 103.0479620  53.9033099  50.2597874 101.7083177  53.4276533  49.7392239
 100.3991529  52.3055673  50.2964622  99.6724693  52.1711638  49.6881113
  99.9838816  52.6132502  51.1021340  88.2221706  56.0245603  58.0611995
  89.1424715  56.2024202  58.2552041  88.1871289  55.0801648  57.9091694
  81.2183778  53.9346638  50.7034776  81.4369788  54.8663746  50.7222810
  81.6309552  53.5754612  51.4889580  86.0911643  49.5079844  60.0937525
  85.9908370  50.4574201  60.0249616  85.8733185  49.1798082  59.2213595
  85.9542913  52.9376982  58.9102587  85.4709995  53.7377343  59.1166476
  86.0403853  52.9484927  57.9570031  95.5796765  47.8139906  46.5924113
  96.3557156  48.3036359  46.8648730  94.8544900  48.2397961  47.0495982
  98.0169324  48.5267526  47.6498053  98.6113815  48.2863262  46.9391362
  98.0895908  47.8074656  48.2771590  80.2366480  62.3701137  47.9641218
  80.1020948  61.6101537  47.3979216  79.8198542  63.0942036  47.4970007
  91.3725443  57.5538060  36.9717793  92.0761293  57.7588063  37.5875449
  90.6488092  58.1214822  37.2366877  92.2023253  53.3047921  43.0920064
  92.1458454  53.7616473  42.2527696  92.7551595  52.5438606  42.9142906
  96.0128059  49.0937653  43.9170183  95.7564993  48.6934289  44.7478391
  95.3880927  49.8081447  43.7920322 100.3240397  51.8333727  46.4241475
  99.7639955  51.9026916  47.1973037  99.7183900  51.6574711  45.7040971
  83.3935606  63.2670454  48.1759661  83.2767990  64.2115886  48.0738351
  82.5728052  62.9644015  48.5645460  93.2812140  57.9920589  39.0216254
  94.1157744  57.5601788  38.8393728  93.1196483  57.8202603  39.9493148
  92.9358032  54.4952703  40.3872593  92.8806836  54.3296974  39.4461037
  92.3104088  55.2028736  40.5434783  90.2503940  56.8001614  59.7126156
  91.1195099  56.9742267  59.3512791  89.7710691  57.6196031  59.5901885
  84.4190120  63.9198716  51.3915589  85.3217366  63.9522326  51.7082084
  84.1927490  62.9899166  51.4061925  86.1743722  62.6729702  48.0525668
  85.2239353  62.6731564  47.9390040  86.4776208  61.9262437  47.5361703
  82.0648038  46.8788384  58.3109029  82.9279500  46.5225189  58.5212354
  81.4913449  46.5402279  58.9984434 101.9096415  68.5090240  49.1171430
 102.5474825  68.3896988  48.4134770 101.7917258  69.4571084  49.1759382
  98.7186122  68.4617669  49.0532955  98.3804633  68.3458733  48.1653490
  99.5875890  68.0608834  49.0333961  94.5772937  70.3153145  45.0429846
  94.0137802  70.2243082  44.2746134  94.4625332  69.4953049  45.5232338
  99.2005905  69.6152520  55.0119160  99.1894545  69.2205319  54.1399664
  99.3626544  68.8818593  55.6052932  92.1237369  71.8104337  47.8814066
  92.9158661  71.4695161  47.4660366  92.3634019  71.9199312  48.8016220
 100.1572496  73.9824113  40.3544311  99.5060476  74.5678193  39.9678325
 100.9516859  74.5130308  40.4139348  94.0828123  71.0713250  40.7531445
  94.8558999  70.5242237  40.6144321  94.4353522  71.9357499  40.9645907
  95.9213166  72.3989632  53.9598344  95.6303032  73.3035263  53.8445011
  96.5570150  72.4406160  54.6742414  96.8469373  69.7766481  50.5499704
  97.4432945  69.5522503  49.8356667  96.9044344  69.0351226  51.1525152
  96.4194401  67.2305916  38.3849895  96.6719922  66.7087437  37.6233358
  95.4818960  67.0672061  38.4876579 101.4637684  66.2341694  46.1924638
 102.2500773  65.8161117  45.8415055 101.7276388  67.1387786  46.3606287
 101.6347761  71.6714545  40.8913295 100.9993594  71.7449171  41.6034200
 101.3045168  72.2608143  40.2132374 106.8646111  66.1716927  47.0957617
 107.5971283  65.6016144  47.3295446 106.1085467  65.7838528  47.5364122
  96.1390690  69.1334022  40.5874270  96.0226948  68.4578925  41.2555354
  96.2492950  68.6466396  39.7706423  98.4822231  68.5944169  44.2920959
  98.1180438  68.0674790  45.0033881  99.3389347  68.2042638  44.1187445
 104.3871531  59.8838502  51.5552225 104.0554856  60.7533913  51.3313440
 103.7917145  59.5674786  52.2346256  98.1227718  63.6234069  39.2882308
  98.2902120  64.4914305  39.6552779  97.9324887  63.7861350  38.3643597
 100.8803051  72.0851048  50.9548138 100.5803774  72.9876086  50.8463945
 100.5354110  71.8183231  51.8069291  94.3315532  68.5364844  46.9884843
  93.4066029  68.4041059  47.1962534  94.5799945  69.3159064  47.4854785
 104.2800195  64.6033588  48.6345575 103.3717072  64.5348996  48.3404336
 104.2287790  65.0805533  49.4627401  98.1016938  66.0791726  40.2728975
  97.9816564  66.5248777  41.1114455  97.4069527  66.4277044  39.7142513
  91.6924343  68.1798118  47.8228632  91.8216724  68.4332597  48.7368043
  91.0121795  68.7725826  47.5033287  95.8623831  78.8495368  43.9219106
  95.7847860  79.8003193  44.0007586  95.2585474  78.5041240  44.5794032
 106.1461841  62.8050026  50.4123449 105.5036221  63.0982559  49.7663244
 105.6416769  62.6902947  51.2176646 103.8002005  66.5513199  41.1009309
 104.7119861  66.7840586  40.9257006 103.2911652  67.1350244  40.5384387
  96.6087433  68.8308687  56.1398440  97.3502117  69.3693731  55.8633263
  95.9024418  69.4574975  56.2969992 102.0842772  70.9737827  54.7370601
 102.4926128  70.5320238  53.9925234 101.3620034  70.3990455  54.9904794
  98.4373842  65.9110434  52.1104158  99.2835038  66.3349848  52.2538807
  98.3772480  65.2544058  52.8042721 102.4071587  71.5339018  48.4922890
 101.7780449  71.6984732  47.7898958 102.0197249  71.9480627  49.2633854
 106.2860819  72.4693456  45.8467254 105.6011857  72.8492357  45.2964287
 106.3704668  73.0788782  46.5799202 101.5873288  63.5714802  53.7685332
 101.3434220  64.3256863  53.2319608 101.8633218  63.9500150  54.6032579
 103.5411750  70.1153415  52.4462597 103.7528646  70.7585175  51.7696978
 103.4941499  69.2815731  51.9784527 101.1437979  62.7271235  49.3499170
 100.2822458  63.0252489  49.6415907 101.1700414  62.9441634  48.4180202
  97.9599549  71.2713426  45.7572975  98.4237894  71.5501129  44.9677598
  97.6956347  70.3696870  45.5746066  94.8523630  70.8184907  48.6952738
  95.4224987  71.2472176  48.0570223  95.4431742  70.5367492  49.3936924
  96.8968435  67.3936578  42.5662540  97.5992478  67.8457622  43.0336467
  96.5649063  66.7520397  43.1942433  95.3448796  65.9848335  56.9413750
  94.7147457  66.6664616  57.1749147  95.2384884  65.8731417  55.9966888
  90.6393769  65.6520131  47.8679674  89.8492823  65.9077659  47.3919785
  91.1305016  66.4668469  47.9731714 104.6557578  72.9925370  50.6184955
 105.4775022  72.5905557  50.3367636 104.6519981  72.8893604  51.5701071
  92.5908514  66.0164710  44.8263151  91.7939677  66.1283404  45.3446646
  92.3634106  66.3551362  43.9604041  98.4214182  72.5409413  52.7745665
  98.4858614  73.0029821  53.6103837  97.7125106  71.9106778  52.9027975
  88.9231472  65.9050621  50.2994665  89.1739510  66.7897631  50.5652241
  89.4591020  65.7255223  49.5269757 112.7463571  69.3364119  46.9669926
 111.9927280  68.7671517  46.8113931 112.8811113  69.3026783  47.9140561
  98.1362199  74.2077521  42.6424646  98.0007874  75.0529057  43.0709493
  98.6772012  74.4096799  41.8790579  94.6229539  60.2869101  59.3039001
  94.2296485  59.7335299  59.9786645  95.4395679  60.5979679  59.6945518
  91.5891597  71.7252959  43.2152571  92.1016117  72.5196209  43.3658135
  92.2414310  71.0279249  43.1486172  93.3986482  74.8418715  45.2975324
  93.5753110  75.7636680  45.1096308  94.1943315  74.5277134  45.7269704
  92.6838838  66.8883347  55.1737487  92.5692353  65.9868604  55.4744586
  91.8283356  67.1347044  54.8222304  99.7630676  74.8301087  56.7724988
  99.3194530  74.0437466  56.4545892 100.4247889  75.0180238  56.1068878
  94.5217797  76.3596889  51.2985666  95.0725222  76.2313952  50.5262660
  93.6829273  76.6591778  50.9480559 101.8611914  75.1103887  54.8006389
 101.8430389  75.9312768  54.3086658 102.7831834  74.9857963  55.0256530
  98.3184968  72.6248017  55.6429897  98.8513305  71.8636305  55.4129205
  97.7899049  72.3321669  56.3854052 101.4854663  57.7308083  51.1723539
 101.1418932  58.6209724  51.0962650 101.8533626  57.5409740  50.3093124
  89.5540514  70.0541613  43.9912141  90.3915736  70.4638622  43.7745849
  89.7318781  69.1141055  43.9612335 101.4504946  67.7216694  39.6795974
 100.9351569  68.4921299  39.9184362 101.1782254  67.0481830  40.3029036
  99.0352057  62.5666395  44.7381213  98.1793653  62.1773245  44.5586851
  99.4479009  62.6458355  43.8780998 100.5651203  60.1012738  49.1372772
 100.0615999  60.0642873  48.3240578 100.8581810  61.0105481  49.1969429
  96.8094089  60.1851468  48.1438954  97.6747086  59.9894276  47.7844844
  96.8771598  59.9561819  49.0708311 106.4239220  70.4749049  41.6149148
 105.6468663  70.1360208  41.1704310 107.1030701  70.4801672  40.9404113
 101.2391249  65.5943786  41.5055755 100.9341385  65.9089935  42.3565899
 102.1921691  65.6725206  41.5483088  99.6837681  71.7534009  43.1548709
  99.1559042  71.0186769  42.8421947  99.1825183  72.5308686  42.9088678
 104.6630527  69.9483030  48.2715756 104.0054201  70.6382291  48.3595884
 105.4670926  70.3379462  48.6149742  94.4156408  62.4153676  45.5155321
  94.9900160  62.1928857  44.7828514  95.0027391  62.4842370  46.2683922
 103.4735986  68.3027402  46.3219697 103.9867867  68.9357394  46.8241407
 104.1237209  67.7028598  45.9563057  94.7425995  64.4458137  39.5351206
  93.9063308  64.7832823  39.8560481  94.6030765  64.3107116  38.5978343
  96.7179076  59.2894924  44.2430390  96.0643488  58.9743942  43.6187005
  96.6759550  58.6670665  44.9690213  97.8290281  69.5714220  36.1583682
  96.9217343  69.3403473  36.3574831  98.3261313  68.7751839  36.3457664
 100.7358360  78.2811727  39.0780369 100.0620059  78.5843424  39.6865326
 101.1224182  79.0840807  38.7285826  99.9516816  65.7776858  48.5678038
  99.0339378  65.9991805  48.4099726 100.3676960  65.8523169  47.7089745
 100.7351864  67.1768274  43.6980718 101.4823683  67.6889671  43.3887840
 101.0043454  66.8552326  44.5585112  99.0078514  69.6726814  40.6807672
  98.0989734  69.3885847  40.7780142  99.0373598  70.0925893  39.8210979
 104.2397782  73.2833404  44.4498840 103.7860109  72.4424314  44.5064030
 103.6091749  73.9194802  44.7873620 103.1830701  64.2125390  45.6799507
 102.4453458  63.7002776  46.0109750 103.4357475  63.7725772  44.8682784
 102.6830721  75.1209901  45.3848658 102.9753695  75.6814958  44.6661024
 103.1929342  75.4138462  46.1401817 103.2842329  56.9901642  46.2741277
 103.5901205  56.1299005  45.9867192 104.0094934  57.5819262  46.0740271
  89.5766685  67.3932329  44.6622875  89.3791085  66.8001689  43.9373941
  89.0213349  67.0884539  45.3798813  97.5563408  67.2855435  46.7817468
  97.6112018  66.3329271  46.7059944  96.7454610  67.4414874  47.2658766
  98.7054602  71.2135558  38.0195751  98.2674032  70.4971417  37.5601388
  99.4465043  71.4411673  37.4580842  95.4955768  65.9032495  44.5407847
  94.6823634  66.2026665  44.9473039  95.9914763  65.5088184  45.2582329
  97.6464346  75.8990252  46.4742111  97.6040525  76.1251098  45.5450643
  98.5627045  75.6653626  46.6227913 101.0929980  66.3674319  53.3722741
 101.4479368  66.5945792  54.2317206 101.7402111  66.6992696  52.7499996
 106.8227717  69.4892755  44.0772070 106.6845616  69.6794351  43.1493259
 106.4663936  70.2512138  44.5340121  94.9869843  63.4750850  50.1569082
  95.6269222  63.3339609  49.4592045  94.1547374  63.1885364  49.7807684
 106.8497097  71.5569282  49.0883341 107.2833603  71.4644571  49.9366395
 107.5628677  71.5326783  48.4503357  95.7630147  72.7753281  46.2704074
  96.5570746  72.2803601  46.0686649  95.0521839  72.2471144  45.9071780
 100.5824991  75.1571376  50.6216442 100.6362014  75.7262313  51.3894158
  99.7139773  75.3273261  50.2570479  92.0712910  66.9196362  42.3463827
  91.1410499  66.8580818  42.5633789  92.1670382  66.3972315  41.5500468
  91.9898460  63.4451175  44.9342068  92.2505277  64.3596509  44.8251229
  92.8115632  62.9775618  45.0838681  93.4623385  64.8588932  52.1040893
  94.1346438  64.6506295  51.4553542  92.6353171  64.6611018  51.6646125
 107.7112646  71.5992983  51.6216227 107.9048536  72.5038793  51.8675501
 107.6113264  71.1400402  52.4554812  99.3648957  61.4850873  54.1206554
  98.7176872  62.1840823  54.0271030 100.1349972  61.9187017  54.4882802
 102.7727755  71.7499726  57.1957107 102.6213261  71.5210277  56.2787191
 102.7632434  72.7070327  57.2088452  99.5413091  69.3231638  52.1803374
 100.4705151  69.4742798  52.0072341  99.1204121  69.4115659  51.3252020
  98.3401423  73.3482303  49.9501911  98.2012509  72.9801087  50.8227849
  97.5516019  73.8629942  49.7785869  98.9349575  78.4491399  41.2927448
  99.1101331  77.9779442  42.1073070  98.2482363  79.0757165  41.5208708
  99.8906638  72.7263905  47.3390749  99.5556471  72.6864675  48.2348399
  99.3910584  72.0608621  46.8661159  93.8650882  68.1331535  52.8643330
  93.7270680  67.4011774  53.4654869  94.7755806  68.0440436  52.5827518
 102.8265830  70.0719940  37.6127809 102.2095000  69.3466768  37.5160861
 102.3582318  70.8329300  37.2694883  96.4933183  67.8451495  52.3527010
  97.2032801  67.2044687  52.3113628  96.4502491  68.0964390  53.2753191
 104.4819961  74.7818848  55.2733589 104.4232508  74.0978068  54.6064172
 104.8839480  75.5237838  54.8214215  95.2062117  64.8316713  54.1722649
  94.6699474  64.3807451  54.8244246  94.6178825  64.9662621  53.4293114
  93.5010660  81.5980762  48.0667308  93.7407258  82.2299286  48.7446326
  92.6579857  81.2468802  48.3532667  94.6164376  64.2905364  36.7349113
  93.7393842  64.1694165  36.3711360  95.0922129  63.4991442  36.4828002
 104.4837369  72.7458432  53.5047569 103.5964147  72.4084354  53.6273968
 105.0535920  72.0141463  53.7416334  86.1366516  69.0782524  46.8290620
  86.8237556  68.7644254  46.2411635  85.9814645  69.9823888  46.5557871
  90.9401238  63.9672720  51.2575644  90.8559427  63.3598390  50.5226054
  90.1183944  64.4581739  51.2585140  98.0138522  77.4059884  50.4708812
  97.9408694  78.2114856  50.9828116  97.5715915  77.6051850  49.6456833
  97.8028302  76.6431654  43.9811633  97.0195824  77.1853335  44.0749858
  98.5021047  77.1605634  44.3805875 101.1124952  62.4526284  46.6245839
 101.6093651  61.6996246  46.3046909 100.3411933  62.4890601  46.0589048
 108.9654709  68.1566649  48.2664130 108.9544586  69.0391365  47.8958063
 108.0972089  67.8038200  48.0718667 100.4737206  77.3046718  52.6266971
 101.1865178  77.9394183  52.5542872  99.9827234  77.4010584  51.8106972
 102.1954733  71.2097971  44.1984262 101.2611011  71.3299434  44.0288967
 102.3731401  70.3070438  43.9344272  97.6959921  64.5943667  46.3517523
  97.3257708  64.0414707  47.0398429  98.1919013  63.9901800  45.7992523
 105.5827284  67.0515290  44.7334296 106.0487736  67.8843282  44.6594599
 106.0334784  66.5860272  45.4379555  95.5249119  75.0541162  53.4472541
  96.2258579  75.6877645  53.6001936  95.0544234  75.3955893  52.6868181
 103.6503515  73.3959112  41.7320448 103.9263359  73.2815706  42.6414322
 102.7808014  72.9976597  41.6932621 103.5543947  59.4195877  48.7725198
 102.6407026  59.6500104  48.9407405 103.9837048  59.5034321  49.6239230
 103.3250405  67.6085769  51.2725092 102.6721855  67.8561677  50.6177544
 103.7030785  66.7949908  50.9387569 100.2857579  77.6445463  45.3753262
 100.4679974  76.8267118  45.8381014 101.1090565  77.8613155  44.9378152
 100.6199745  76.5713648  42.6368310 101.1487511  76.0606102  42.0238473
 100.8827964  76.2556178  43.5013843  99.3737978  68.3505580  57.7591129
  98.6978615  68.2499710  58.4293504 100.1965612  68.1944794  58.2227126
  91.1216837  74.5877517  50.3803644  91.7070274  73.8421205  50.5131548
  90.9241676  74.8981474  51.2640308  93.9755492  77.6228764  45.3966086
  93.3065868  78.1074892  44.9130126  93.8368362  77.8697985  46.3109465
  85.7134492  67.1583117  49.1008087  85.7518591  66.6246708  49.8945205
  85.2074785  66.6318323  48.4819064  98.1160761  79.6572508  51.9948745
  98.6679069  79.8204129  52.7597830  98.4566955  80.2476946  51.3228770
  93.0925254  62.0047658  52.5970629  93.1566581  62.8662489  52.1848027
  93.0292375  61.3921659  51.8642988  92.5677527  64.0770790  56.2443664
  93.1949566  63.6947867  56.8581188  91.7105446  63.8584992  56.6099356
 102.9671635  74.4833765  57.8497399 103.5111539  75.0963724  57.3552354
 102.3858480  75.0413344  58.3664412  89.3443070  65.8847219  42.1762019
  89.6396511  64.9757898  42.1229072  88.4431105  65.8634959  41.8543021
 101.2529148  77.6054483  48.9812427 101.1280288  76.8044223  48.4723372
 101.9108239  78.1000677  48.4926397  92.8737317  63.9603216  48.1589567
  92.1523902  64.5739184  48.0197040  93.6630572  64.4960981  48.0806213
 103.3164057  75.4063503  50.6091977 102.3694392  75.2868855  50.5370304
 103.6646830  74.5186001  50.6918238  95.6763630  61.2957642  54.4330219
  96.1998032  61.5419939  55.1956528  95.4575963  62.1277677  54.0133356
  91.0730911  63.5661317  42.3001344  90.7443617  62.6858696  42.1176450
  91.4270282  63.5108986  43.1877733 100.3210490  75.2016220  46.8096329
 100.1735452  74.2732927  46.9903899 101.1463984  75.2236310  46.3253404
  94.1872734  63.8534287  42.6676821  94.5268807  64.3820208  41.9455430
  94.6344855  64.1914693  43.4435388 103.9244612  76.0244778  47.8961202
 104.8491159  75.8187640  47.7585653 103.7559915  75.7761180  48.8050543
  96.8816175  62.2371337  52.1179889  96.5412995  61.4379151  52.5200569
  96.1755181  62.5373048  51.5456723  97.5332647  59.3220650  50.5707212
  98.3558716  58.8481128  50.4486103  97.7770710  60.1011134  51.0705899
  96.1740881  62.3508908  40.8670114  96.8949244  62.7290161  40.3633831
  95.5506186  63.0697785  40.9705092 100.3172004  63.0554057  41.8028446
 100.5335619  63.9378695  41.5017275  99.8366071  62.6640271  41.0734088
  95.0571226  66.0139771  48.3799191  94.9115806  66.3280074  49.2723473
  94.5796429  66.6324671  47.8270090  96.9167609  63.0042319  48.4280081
  96.9029177  62.1083412  48.0912379  97.6340037  63.0112982  49.0618367
  98.7693739  63.4379659  50.4733208  98.5111517  64.3596729  50.4717538
  98.2378780  63.0410093  51.1633672 103.7139928  76.5430446  43.2523293
 103.8876806  75.9776868  42.4997146 104.2068819  77.3431341  43.0702783
  89.5316888  68.5545115  51.3186852  88.9870356  69.3304923  51.4507127
  90.4096238  68.9015919  51.1605974  96.3204505  61.8856699  43.6967651
  96.4420416  60.9573345  43.8958538  96.0306547  61.8995385  42.7845966
  99.1895695  59.5711609  46.8334371  99.2117392  59.6350942  45.8786350
  99.6063754  58.7316118  47.0274877 109.5679319  69.3066869  44.8713593
 110.0110465  68.5574194  44.4732716 108.6905830  69.2977005  44.4887325
 104.7015101  75.8597210  40.3520192 105.3966005  76.4803903  40.5707506
 105.0438251  75.0092561  40.6272570  90.3182910  67.6815011  54.2117009
  89.5764646  67.8297647  54.7981640  89.9975654  67.9423277  53.3483759
 106.6006524  73.3096916  41.8807522 107.1257848  73.6484189  41.1556843
 106.5128876  72.3743931  41.6970657  98.2626572  77.2230989  54.0097399
  98.5713699  76.9780136  54.8820099  99.0602054  77.4277628  53.5216269
  98.2847184  79.3768899  46.2402776  97.8452175  78.8845278  46.9335632
  99.0355301  78.8341867  45.9994851  90.7639523  75.5680440  46.2427404
  91.5897543  75.2684212  45.8626047  90.4133575  74.7988062  46.6917192
  95.7321057  74.9206908  48.3125077  95.1101066  74.2577613  48.0127305
  96.4025923  74.9468040  47.6298725  88.9648128  73.4866766  47.2016337
  88.1280037  73.0588941  47.0200339  88.9371774  73.6799210  48.1387129
  95.8045584  63.3988696  57.9057583  95.8533740  64.2750819  57.5235353
  96.3468098  62.8566089  57.3329227 106.2900430  73.9429819  57.1858720
 105.4995973  73.9253958  56.6463220 106.0533784  74.4818113  57.9407757
 106.4098305  70.7922286  54.4991449 106.4596310  70.6272293  55.4406972
 106.3012228  69.9249545  54.1089330  95.2934563  73.4710831  41.7883538
  95.4422684  74.1546296  41.1350211  96.1001007  73.4515922  42.3032994
 103.7002067  66.7753214  55.8150756 104.6011930  66.6359679  55.5234753
 103.7750042  66.9407669  56.7548933  98.0344873  64.1520069  54.6603942
  97.1648182  64.4453635  54.3886531  98.2704353  64.7360514  55.3811206
 107.9116502  73.2119227  54.7433471 107.6201310  73.5749208  55.5796931
 107.2988633  72.4986236  54.5646803 109.1112184  70.7772107  47.2636041
 109.9459075  71.2161911  47.4273601 109.2471313  70.3010760  46.4444287
 106.1603690  68.3351842  53.2113529 106.6357811  68.5279488  52.4032380
 105.2369255  68.3911028  52.9656912  93.0487196  69.4976009  42.7944607
  92.8033238  68.5938339  42.9924817  93.2183111  69.4993160  41.8524085
 100.7383906  60.3699686  52.1769362 101.2565850  61.1060712  51.8515851
 100.3839039  60.6763679  53.0116122  92.3182844  65.2304367  40.2930768
  91.6252089  65.3048722  39.6370804  92.0734596  64.4664710  40.8152285
 100.9896501  56.7899968  47.6970259 101.2698254  56.1223157  48.3230686
 101.7747107  56.9829064  47.1844923  98.7929969  75.9658962  39.2595285
  98.2203936  76.5849149  38.8065757  99.3662763  76.5158324  39.7935207
 104.8605359  65.2117602  51.4441834 105.8122782  65.3115700  51.4654058
 104.6908809  64.4195871  51.9539918 102.8819738  62.2973185  51.6301235
 102.2869670  62.5778198  50.9347724 102.5969435  62.7867086  52.4017976
 102.0127229  76.2496112  40.3903868 102.9457902  76.1841674  40.5936743
 101.9250442  77.0852379  39.9318400 104.6415245  75.5661982  37.3507815
 104.5628877  75.2321846  38.2443573 105.4624912  76.0583750  37.3499288
 107.3393437  68.4323722  50.5584134 107.3069757  67.4939722  50.7443818
 107.9494060  68.5107758  49.8249959  99.1776768  67.3019775  36.6011338
 100.1235872  67.1725983  36.6699756  98.7991012  66.5634437  37.0780766
 107.4887925  65.2234765  50.6042417 106.9726974  64.4393222  50.4172346
 108.3727874  64.8953482  50.7688936 105.1498652  58.9675781  46.5638230
 104.9523473  58.6590869  47.4481562 105.7598358  59.6937420  46.6936159
 113.1569986  69.4939729  49.6990171 113.8873375  69.2325017  50.2597874
 112.5476932  68.7568450  49.7392239 111.2385284  67.6347591  50.2964622
 110.5118447  67.5003556  49.6881113 110.8232570  67.9424420  51.1021340
  99.0615460  71.3537521  58.0611995  99.9818470  71.5316120  58.2552041
  99.0265043  70.4093566  57.9091694  97.3619685  65.2269751  36.5366223
  96.4551140  64.9302864  36.6128937  97.6395666  64.9299569  35.6700509
  88.2797625  66.5476114  46.9865269  87.9600409  65.6941423  46.6939643
  87.7331053  66.7624693  47.7423237  92.0577533  69.2638555  50.7034776
  92.2763542  70.1955663  50.7222810  92.4703306  68.9046530  51.4889580
  98.9781750  59.7706641  42.6910464  98.1682479  59.4253726  43.0665710
  99.6666167  59.4614185  43.2798076 100.9072299  58.8484688  44.3134761
 101.4603337  59.2680141  44.9724784 101.1442385  57.9220436  44.3557717
  96.9305398  64.8371761  60.0937525  96.8302125  65.7866118  60.0249616
  96.7126940  64.5090000  59.2213595  96.1318469  62.0856686  36.6778202
  96.9937633  62.4111585  36.9374020  96.3168813  61.2988182  36.1651268
  88.1485885  70.1679026  48.9558391  87.4549356  69.7532979  48.4428345
  88.8958876  70.2099562  48.3591810 104.2851106  60.9585213  43.8213425
 103.7049775  61.6170017  43.4391478 104.0187038  60.1362557  43.4100843
 102.7354672  60.3590270  46.0234746 103.2354450  60.4706805  45.2149064
 103.3790280  60.0551323  46.6635554  96.7936668  68.2668900  58.9102587
  96.3103750  69.0669260  59.1166476  96.8797607  68.2776845  57.9570031
  90.0622628  70.0997280  46.8324406  90.0393316  70.1984967  45.8806289
  90.3723264  70.9462431  47.1541572  92.7210005  72.1573435  50.9471020
  93.6753259  72.1257377  50.8800952  92.5222529  71.6964059  51.7621246
  93.3109388  70.7274551  53.5141818  94.1302277  71.2218630  53.5376655
  93.5846195  69.8106519  53.4859385 103.0675984  63.1185303  42.8769774
 102.1801839  63.4034954  42.6589968 103.4829973  62.9579067  42.0297050
 106.4190520  63.1431824  46.5924113 107.1950910  63.6328277  46.8648730
 105.6938654  63.5689878  47.0495982 108.8563079  63.8559443  47.6498053
 109.4507569  63.6155179  46.9391362 108.9289662  63.1366574  48.2771590
  91.0760234  77.6993054  47.9641218  90.9414702  76.9393455  47.3979216
  90.6592297  78.4233954  47.4970007 102.2119197  72.8829978  36.9717793
 102.9155047  73.0879980  37.5875449 101.4881846  73.4506740  37.2366877
 103.0417008  68.6339839  43.0920064 102.9852209  69.0908390  42.2527696
 103.5945350  67.8730524  42.9142906 106.8521813  64.4229571  43.9170183
 106.5958748  64.0226207  44.7478391 106.2274681  65.1373365  43.7920322
 111.1634151  67.1625644  46.4241475 110.6033709  67.2318834  47.1973037
 110.5577655  66.9866629  45.7040971  94.2329360  78.5962371  48.1759661
  94.1161744  79.5407804  48.0738351  93.4121806  78.2935933  48.5645460
 104.1205895  73.3212507  39.0216254 104.9551499  72.8893705  38.8393728
 103.9590238  73.1494521  39.9493148 103.7751787  69.8244620  40.3872593
 103.7200591  69.6588892  39.4461037 103.1497842  70.5320653  40.5434783
  88.5644302  65.0612685  54.2134015  89.2103165  64.5511639  54.7021240
  88.3561453  65.7981366  54.7877440 101.0897694  72.1293532  59.7126156
 101.9588854  72.3034184  59.3512791 100.6104445  72.9487949  59.5901885
  97.0847912  59.3252729  39.9657911  97.0726582  60.2694569  40.1226182
  97.9771334  59.1422875  39.6717372  95.2583874  79.2490633  51.3915589
  96.1611121  79.2814243  51.7082084  95.0321244  78.3191084  51.4061925
  97.0137476  78.0021620  48.0525668  96.0633107  78.0023481  47.9390040
  97.3169962  77.2554354  47.5361703 100.9000032  55.9195506  44.2203848
 100.1332428  55.3653993  44.3660530 101.3110737  55.9917375  45.0818000
  92.9041793  62.2080302  58.3109029  93.7673254  61.8517107  58.5212354
  92.3307203  61.8694197  58.9984434 112.7490170  83.8382158  49.1171430
 113.3868580  83.7188905  48.4134770 112.6311013  84.7863002  49.1759382
 109.5579876  83.7909586  49.0532955 109.2198388  83.6750651  48.1653490
 110.4269644  83.3900751  49.0333961 105.4166692  85.6445063  45.0429846
 104.8531557  85.5535000  44.2746134 105.3019087  84.8244967  45.5232338
 110.0399659  84.9444438  55.0119160 110.0288300  84.5497236  54.1399664
 110.2020298  84.2110511  55.6052932 102.9631124  87.1396254  47.8814066
 103.7552416  86.7987079  47.4660366 103.2027774  87.2491229  48.8016220
 110.9966250  89.3116030  40.3544311 110.3454230  89.8970111  39.9678325
 111.7910613  89.8422225  40.4139348 104.9221878  86.4005167  40.7531445
 105.6952754  85.8534155  40.6144321 105.2747276  87.2649417  40.9645907
 106.7606920  87.7281550  53.9598344 106.4696786  88.6327181  53.8445011
 107.3963905  87.7698077  54.6742414 107.6863127  85.1058398  50.5499704
 108.2826699  84.8814421  49.8356667 107.7438099  84.3643144  51.1525152
 107.2588155  82.5597834  38.3849895 107.5113676  82.0379355  37.6233358
 106.3212715  82.3963979  38.4876579 112.3031438  81.5633612  46.1924638
 113.0894527  81.1453035  45.8415055 112.5670143  82.4679704  46.3606287
 112.4741516  87.0006462  40.8913295 111.8387349  87.0741089  41.6034200
 112.1438922  87.5900061  40.2132374 117.7039865  81.5008845  47.0957617
 118.4365037  80.9308062  47.3295446 116.9479221  81.1130446  47.5364122
 106.9784444  84.4625940  40.5874270 106.8620702  83.7870843  41.2555354
 107.0886704  83.9758313  39.7706423 109.3215985  83.9236087  44.2920959
 108.9574192  83.3966708  45.0033881 110.1783101  83.5334556  44.1187445
 115.2265286  75.2130419  51.5552225 114.8948610  76.0825830  51.3313440
 114.6310899  74.8966703  52.2346256 108.9621472  78.9525986  39.2882308
 109.1295874  79.8206223  39.6552779 108.7718641  79.1153268  38.3643597
 111.7196805  87.4142965  50.9548138 111.4197528  88.3168004  50.8463945
 111.3747865  87.1475148  51.8069291 105.1709287  83.8656762  46.9884843
 104.2459783  83.7332976  47.1962534 105.4193700  84.6450981  47.4854785
 115.1193949  79.9325505  48.6345575 114.2110826  79.8640914  48.3404336
 115.0681545  80.4097450  49.4627401 108.9410693  81.4083644  40.2728975
 108.8210318  81.8540695  41.1114455 108.2463281  81.7568962  39.7142513
 102.5318098  83.5090036  47.8228632 102.6610479  83.7624515  48.7368043
 101.8515549  84.1017744  47.5033287 106.7017585  94.1787286  43.9219106
 106.6241615  95.1295111  44.0007586 106.0979229  93.8333158  44.5794032
 109.1934815  81.3515151  56.5780473 108.4168149  81.9109071  56.5683337
 109.8325378  81.8371934  57.0995343 116.9855595  78.1341944  50.4123449
 116.3429976  78.4274477  49.7663244 116.4810524  78.0194864  51.2176646
 114.6395759  81.8805117  41.1009309 115.5513615  82.1132504  40.9257006
 114.1305406  82.4642161  40.5384387 107.4481187  84.1600604  56.1398440
 108.1895871  84.6985648  55.8633263 106.7418173  84.7866893  56.2969992
 112.9236527  86.3029745  54.7370601 113.3319883  85.8612155  53.9925234
 112.2013788  85.7282372  54.9904794 109.2767597  81.2402352  52.1104158
 110.1228792  81.6641765  52.2538807 109.2166234  80.5835976  52.8042721
 113.2465341  86.8630935  48.4922890 112.6174204  87.0276650  47.7898958
 112.8591003  87.2772545  49.2633854 117.1254573  87.7985373  45.8467254
 116.4405611  88.1784275  45.2964287 117.2098423  88.4080700  46.5799202
 112.4267042  78.9006720  53.7685332 112.1827974  79.6548781  53.2319608
 112.7026973  79.2792068  54.6032579 114.3805505  85.4445332  52.4462597
 114.5922400  86.0877092  51.7696978 114.3335253  84.6107649  51.9784527
 111.9831734  78.0563153  49.3499170 111.1216213  78.3544407  49.6415907
 112.0094169  78.2733552  48.4180202 108.7993303  86.6005344  45.7572975
 109.2631649  86.8793047  44.9677598 108.5350101  85.6988788  45.5746066
 105.6917384  86.1476825  48.6952738 106.2618741  86.5764093  48.0570223
 106.2825496  85.8659410  49.3936924 107.7362189  82.7228496  42.5662540
 108.4386233  83.1749540  43.0336467 107.4042818  82.0812315  43.1942433
 106.1842551  81.3140253  56.9413750 105.5541211  81.9956533  57.1749147
 106.0778639  81.2023334  55.9966888 101.4787523  80.9812049  47.8679674
 100.6886577  81.2369577  47.3919785 101.9698771  81.7960386  47.9731714
 115.4951333  88.3217288  50.6184955 116.3168777  87.9197475  50.3367636
 115.4913736  88.2185522  51.5701071 103.4302269  81.3456628  44.8263151
 102.6333432  81.4575322  45.3446646 103.2027861  81.6843280  43.9604041
 109.2607936  87.8701331  52.7745665 109.3252369  88.3321738  53.6103837
 108.5518860  87.2398696  52.9027975  99.7625226  81.2342539  50.2994665
 100.0133265  82.1189549  50.5652241 100.2984775  81.0547141  49.5269757
 108.9755954  89.5369439  42.6424646 108.8401629  90.3820974  43.0709493
 109.5165766  89.7388716  41.8790579 105.4623294  75.6161018  59.3039001
 105.0690239  75.0627217  59.9786645 106.2789434  75.9271597  59.6945518
 102.4285351  87.0544877  43.2152571 102.9409872  87.8488127  43.3658135
 103.0808064  86.3571167  43.1486172 104.2380236  90.1710633  45.2975324
 104.4146864  91.0928598  45.1096308 105.0337070  89.8569052  45.7269704
 108.3791255  77.0318898  56.8959257 109.1200968  77.6326051  56.8163720
 108.6109177  76.2896535  56.3377300 103.5232593  82.2175265  55.1737487
 103.4086108  81.3160522  55.4744586 102.6677110  82.4638962  54.8222304
 110.6024430  90.1593005  56.7724988 110.1588285  89.3729384  56.4545892
 111.2641644  90.3472156  56.1068878 105.3611552  91.6888807  51.2985666
 105.9118977  91.5605870  50.5262660 104.5223027  91.9883696  50.9480559
 112.7005668  90.4395805  54.8006389 112.6824144  91.2604686  54.3086658
 113.6225588  90.3149880  55.0256530 109.1578723  87.9539935  55.6429897
 109.6907059  87.1928223  55.4129205 108.6292804  87.6613586  56.3854052
 112.3248418  73.0600000  51.1723539 111.9812687  73.9501642  51.0962650
 112.6927380  72.8701658  50.3093124 100.3934268  85.3833531  43.9912141
 101.2309490  85.7930539  43.7745849 100.5712536  84.4432973  43.9612335
 112.2898700  83.0508612  39.6795974 111.7745324  83.8213216  39.9184362
 112.0176009  82.3773748  40.3029036 109.8745811  77.8958312  44.7381213
 109.0187408  77.5065163  44.5586851 110.2872763  77.9750273  43.8780998
 111.4044958  75.4304656  49.1372772 110.9009754  75.3934791  48.3240578
 111.6975565  76.3397398  49.1969429 107.6487844  75.5143385  48.1438954
 108.5140841  75.3186194  47.7844844 107.7165353  75.2853737  49.0708311
 117.2632974  85.8040966  41.6149148 116.4862417  85.4652126  41.1704310
 117.9424455  85.8093589  40.9404113 112.0785003  80.9235704  41.5055755
 111.7735139  81.2381853  42.3565899 113.0315446  81.0017124  41.5483088
 110.5231435  87.0825927  43.1548709 109.9952797  86.3478687  42.8421947
 110.0218938  87.8600603  42.9088678 115.5024281  85.2774947  48.2715756
 114.8447956  85.9674209  48.3595884 116.3064680  85.6671379  48.6149742
 105.2550163  77.7445593  45.5155321 105.8293915  77.5220775  44.7828514
 105.8421145  77.8134288  46.2683922 114.3129740  83.6319320  46.3219697
 114.8261622  84.2649312  46.8241407 114.9630964  83.0320516  45.9563057
 105.5819750  79.7750054  39.5351206 104.7457062  80.1124741  39.8560481
 105.4424520  79.6399034  38.5978343 107.5572831  74.6186842  44.2430390
 106.9037243  74.3035859  43.6187005 107.5153305  73.9962583  44.9690213
 108.6684035  84.9006137  36.1583682 107.7611097  84.6695391  36.3574831
 109.1655067  84.1043756  36.3457664 111.5752114  93.6103644  39.0780369
 110.9013813  93.9135341  39.6865326 111.9617936  94.4132725  38.7285826
 110.7910571  81.1068776  48.5678038 109.8733132  81.3283723  48.4099726
 111.2070715  81.1815086  47.7089745 111.5745619  82.5060191  43.6980718
 112.3217438  83.0181589  43.3887840 111.8437208  82.1844244  44.5585112
 109.8472269  85.0018732  40.6807672 108.9383488  84.7177765  40.7780142
 109.8767353  85.4217811  39.8210979 115.0791536  88.6125322  44.4498840
 114.6253863  87.7716231  44.5064030 114.4485503  89.2486720  44.7873620
 114.0224456  79.5417308  45.6799507 113.2847213  79.0294694  46.0109750
 114.2751229  79.1017689  44.8682784 113.5224476  90.4501818  45.3848658
 113.8147450  91.0106875  44.6661024 114.0323096  90.7430379  46.1401817
 114.1236083  72.3193560  46.2741277 114.4294960  71.4590923  45.9867192
 114.8488688  72.9111180  46.0740271 100.4160439  82.7224246  44.6622875
 100.2184839  82.1293607  43.9373941  99.8607103  82.4176456  45.3798813
 108.3957163  82.6147353  46.7817468 108.4505773  81.6621189  46.7059944
 107.5848365  82.7706792  47.2658766 109.5448357  86.5427476  38.0195751
 109.1067787  85.8263335  37.5601388 110.2858798  86.7703591  37.4580842
 106.3349523  81.2324412  44.5407847 105.5217388  81.5318583  44.9473039
 106.8308517  80.8380101  45.2582329 108.4858101  91.2282169  46.4742111
 108.4434280  91.4543016  45.5450643 109.4020800  90.9945544  46.6227913
 111.9323735  81.6966237  53.3722741 112.2873122  81.9237710  54.2317206
 112.5795866  82.0284614  52.7499996 117.6621471  84.8184673  44.0772070
 117.5239370  85.0086269  43.1493259 117.3057690  85.5804056  44.5340121
 105.8263598  78.8042768  50.1569082 106.4662977  78.6631527  49.4592045
 104.9941128  78.5177281  49.7807684 117.6890851  86.8861200  49.0883341
 118.1227358  86.7936489  49.9366395 118.4022432  86.8618700  48.4503357
 106.6023902  88.1045198  46.2704074 107.3964500  87.6095519  46.0686649
 105.8915594  87.5763062  45.9071780 111.4218746  90.4863294  50.6216442
 111.4755768  91.0554230  51.3894158 110.5533527  90.6565179  50.2570479
 102.9106665  82.2488280  42.3463827 101.9804253  82.1872736  42.5633789
 103.0064137  81.7264233  41.5500468 102.8292214  78.7743093  44.9342068
 103.0899031  79.6888426  44.8251229 103.6509386  78.3067536  45.0838681
 104.3017139  80.1880850  52.1040893 104.9740193  79.9798212  51.4553542
 103.4746926  79.9902936  51.6646125 118.5506401  86.9284900  51.6216227
 118.7442291  87.8330711  51.8675501 118.4507019  86.4692320  52.4554812
 110.2042711  76.8142791  54.1206554 109.5570626  77.5132741  54.0271030
 110.9743727  77.2478935  54.4882802 113.6121509  87.0791643  57.1957107
 113.4607016  86.8502195  56.2787191 113.6026189  88.0362245  57.2088452
 110.3806846  84.6523556  52.1803374 111.3098906  84.8034716  52.0072341
 109.9597876  84.7407577  51.3252020 109.1795178  88.6774220  49.9501911
 109.0406263  88.3093005  50.8227849 108.3909774  89.1921860  49.7785869
 109.7743329  93.7783317  41.2927448 109.9495085  93.3071360  42.1073070
 109.0876118  94.4049083  41.5208708 110.7300393  88.0555823  47.3390749
 110.3950225  88.0156593  48.2348399 110.2304338  87.3900539  46.8661159
 104.7044637  83.4623453  52.8643330 104.5664435  82.7303692  53.4654869
 105.6149560  83.3732353  52.5827518 113.6659584  85.4011857  37.6127809
 113.0488755  84.6758686  37.5160861 113.1976073  86.1621218  37.2694883
 107.3326937  83.1743412  52.3527010 108.0426556  82.5336605  52.3113628
 107.2896245  83.4256307  53.2753191 115.3213716  90.1110766  55.2733589
 115.2626262  89.4269986  54.6064172 115.7233234  90.8529756  54.8214215
 106.0455871  80.1608630  54.1722649 105.5093228  79.7099369  54.8244246
 105.4572580  80.2954539  53.4293114 104.3404415  96.9272680  48.0667308
 104.5801013  97.5591204  48.7446326 103.4973611  96.5760720  48.3532667
 105.4558130  79.6197282  36.7349113 104.5787597  79.4986083  36.3711360
 105.9315883  78.8283360  36.4828002 115.3231123  88.0750350  53.5047569
 114.4357902  87.7376271  53.6273968 115.8929674  87.3433381  53.7416334
  96.9760270  84.4074441  46.8290620  97.6631310  84.0936171  46.2411635
  96.8208399  85.3115806  46.5557871 101.7794992  79.2964638  51.2575644
 101.6953181  78.6890308  50.5226054 100.9577699  79.7873656  51.2585140
 108.8532277  92.7351802  50.4708812 108.7802448  93.5406774  50.9828116
 108.4109670  92.9343768  49.6456833 108.6422056  91.9723572  43.9811633
 107.8589578  92.5145252  44.0749858 109.3414801  92.4897552  44.3805875
 111.9518706  77.7818202  46.6245839 112.4487406  77.0288164  46.3046909
 111.1805688  77.8182518  46.0589048 119.8048464  83.4858567  48.2664130
 119.7938340  84.3683283  47.8958063 118.9365843  83.1330118  48.0718667
 111.3130960  92.6338636  52.6266971 112.0258932  93.2686101  52.5542872
 110.8220989  92.7302502  51.8106972 113.0348487  86.5389889  44.1984262
 112.1004766  86.6591351  44.0288967 113.2125156  85.6362356  43.9344272
 108.5353675  79.9235585  46.3517523 108.1651463  79.3706625  47.0398429
 109.0312768  79.3193718  45.7992523 116.4221038  82.3807208  44.7334296
 116.8881491  83.2135200  44.6594599 116.8728539  81.9152190  45.4379555
 106.3642874  90.3833080  53.4472541 107.0652333  91.0169563  53.6001936
 105.8937989  90.7247811  52.6868181 114.4897270  88.7251029  41.7320448
 114.7657113  88.6107624  42.6414322 113.6201768  88.3268514  41.6932621
 114.3937701  74.7487795  48.7725198 113.4800781  74.9792022  48.9407405
 114.8230803  74.8326239  49.6239230 114.1644160  82.9377687  51.2725092
 113.5115610  83.1853594  50.6177544 114.5424540  82.1241825  50.9387569
 111.1251334  92.9737380  45.3753262 111.3073728  92.1559036  45.8381014
 111.9484320  93.1905072  44.9378152 111.4593499  91.9005565  42.6368310
 111.9881265  91.3898020  42.0238473 111.7221719  91.5848096  43.5013843
 110.2131733  83.6797498  57.7591129 109.5372370  83.5791627  58.4293504
 111.0359367  83.5236712  58.2227126 101.9610592  89.9169435  50.3803644
 102.5464029  89.1713123  50.5131548 101.7635430  90.2273391  51.2640308
 104.8149247  92.9520682  45.3966086 104.1459622  93.4366810  44.9130126
 104.6762117  93.1989902  46.3109465  96.5528246  82.4875035  49.1008087
  96.5912346  81.9538626  49.8945205  96.0468539  81.9610240  48.4819064
 108.9554516  94.9864426  51.9948745 109.5072824  95.1496047  52.7597830
 109.2960709  95.5768863  51.3228770 103.9319009  77.3339575  52.5970629
 103.9960335  78.1954406  52.1848027 103.8686129  76.7213577  51.8642988
 103.4071281  79.4062708  56.2443664 104.0343320  79.0239785  56.8581188
 102.5499200  79.1876910  56.6099356 113.8065390  89.8125683  57.8497399
 114.3505294  90.4255641  57.3552354 113.2252235  90.3705261  58.3664412
 100.1836824  81.2139137  42.1762019 100.4790265  80.3049815  42.1229072
  99.2824860  81.1926876  41.8543021 112.0922903  92.9346401  48.9812427
 111.9674042  92.1336141  48.4723372 112.7501994  93.4292594  48.4926397
 103.7131071  79.2895134  48.1589567 102.9917657  79.9031101  48.0197040
 104.5024327  79.8252898  48.0806213 114.1557811  90.7355421  50.6091977
 113.2088147  90.6160772  50.5370304 114.5040584  89.8477919  50.6918238
 106.5157385  76.6249560  54.4330219 107.0391786  76.8711857  55.1956528
 106.2969718  77.4569595  54.0133356 101.9124666  78.8953235  42.3001344
 101.5837372  78.0150614  42.1176450 102.2664036  78.8400903  43.1877733
 111.1604245  90.5308137  46.8096329 111.0129207  89.6024845  46.9903899
 111.9857738  90.5528228  46.3253404 105.0266489  79.1826204  42.6676821
 105.3662561  79.7112126  41.9455430 105.4738609  79.5206611  43.4435388
 114.7638366  91.3536696  47.8961202 115.6884914  91.1479557  47.7585653
 114.5953670  91.1053097  48.8050543 107.7209930  77.5663255  52.1179889
 107.3806750  76.7671068  52.5200569 107.0148936  77.8664966  51.5456723
 108.3726401  74.6512568  50.5707212 109.1952471  74.1773046  50.4486103
 108.6164465  75.4303051  51.0705899 107.0134636  77.6800826  40.8670114
 107.7342998  78.0582079  40.3633831 106.3899940  78.3989703  40.9705092
 111.1565759  78.3845975  41.8028446 111.3729373  79.2670613  41.5017275
 110.6759826  77.9932188  41.0734088 105.8964980  81.3431688  48.3799191
 105.7509561  81.6571991  49.2723473 105.4190184  81.9616589  47.8270090
 107.7561363  78.3334236  48.4280081 107.7422932  77.4375330  48.0912379
 108.4733791  78.3404900  49.0618367 109.6087494  78.7671576  50.4733208
 109.3505272  79.6888647  50.4717538 109.0772534  78.3702011  51.1633672
 114.5533683  91.8722364  43.2523293 114.7270560  91.3068786  42.4997146
 115.0462574  92.6723258  43.0702783 100.3710642  83.8837033  51.3186852
  99.8264110  84.6596841  51.4507127 101.2489992  84.2307837  51.1605974
 107.1598259  77.2148616  43.6967651 107.2814170  76.2865263  43.8958538
 106.8700301  77.2287302  42.7845966 110.0289449  74.9003527  46.8334371
 110.0511146  74.9642860  45.8786350 110.4457508  74.0608036  47.0274877
 120.4073074  84.6358786  44.8713593 120.8504220  83.8866112  44.4732716
 119.5299584  84.6268923  44.4887325 115.5408855  91.1889128  40.3520192
 116.2359760  91.8095821  40.5707506 115.8832005  90.3384479  40.6272570
 101.1576664  83.0106929  54.2117009 100.4158400  83.1589564  54.7981640
 100.8369409  83.2715194  53.3483759 117.4400278  88.6388833  41.8807522
 117.9651602  88.9776106  41.1556843 117.3522631  87.7035849  41.6970657
 109.1020327  92.5522907  54.0097399 109.4107453  92.3072054  54.8820099
 109.8995809  92.7569546  53.5216269 109.1240939  94.7060817  46.2402776
 108.6845929  94.2137195  46.9335632 109.8749056  94.1633784  45.9994851
 101.6033278  90.8972358  46.2427404 102.4291298  90.5976129  45.8626047
 101.2527330  90.1279980  46.6917192 106.5714811  90.2498826  48.3125077
 105.9494820  89.5869531  48.0127305 107.2419678  90.2759958  47.6298725
  99.8041883  88.8158684  47.2016337  98.9673791  88.3880858  47.0200339
  99.7765528  89.0091127  48.1387129 106.6439339  78.7280614  57.9057583
 106.6927494  79.6042737  57.5235353 107.1861853  78.1858007  57.3329227
 117.1294184  89.2721737  57.1858720 116.3389728  89.2545876  56.6463220
 116.8927539  89.8110031  57.9407757 117.2492059  86.1214203  54.4991449
 117.2990064  85.9564211  55.4406972 117.1405983  85.2541462  54.1089330
 106.1328318  88.8002749  41.7883538 106.2816438  89.4838214  41.1350211
 106.9394761  88.7807839  42.3032994 114.5395822  82.1045131  55.8150756
 115.4405684  81.9651596  55.5234753 114.6143796  82.2699586  56.7548933
 108.8738627  79.4811986  54.6603942 108.0041936  79.7745552  54.3886531
 109.1098107  80.0652431  55.3811206 118.7510256  88.5411145  54.7433471
 118.4595064  88.9041126  55.5796931 118.1382387  87.8278153  54.5646803
 119.9505938  86.1064025  47.2636041 120.7852830  86.5453829  47.4273601
 120.0865067  85.6302678  46.4444287 116.9997444  83.6643760  53.2113529
 117.4751566  83.8571406  52.4032380 116.0763010  83.7202945  52.9656912
 103.8880951  84.8267927  42.7944607 103.6426993  83.9230257  42.9924817
 104.0576865  84.8285077  41.8524085 111.5777661  75.6991603  52.1769362
 112.0959605  76.4352630  51.8515851 111.2232794  76.0055596  53.0116122
 103.1576598  80.5596284  40.2930768 102.4645843  80.6340639  39.6370804
 102.9128350  79.7956628  40.8152285 111.8290255  72.1191886  47.6970259
 112.1092009  71.4515075  48.3230686 112.6140862  72.3120981  47.1844923
 109.6323724  91.2950880  39.2595285 109.0597691  91.9141067  38.8065757
 110.2056517  91.8450241  39.7935207 115.6999113  80.5409520  51.4441834
 116.6516536  80.6407617  51.4654058 115.5302564  79.7487788  51.9539918
 113.7213493  77.6265103  51.6301235 113.1263425  77.9070116  50.9347724
 113.4363190  78.1159004  52.4017976 112.8520983  91.5788030  40.3903868
 113.7851656  91.5133591  40.5936743 112.7644196  92.4144297  39.9318400
 115.4809000  90.8953900  37.3507815 115.4022631  90.5613764  38.2443573
 116.3018667  91.3875668  37.3499288 118.1787191  83.7615639  50.5584134
 118.1463511  82.8231640  50.7443818 118.7887815  83.8399676  49.8249959
 110.0170522  82.6311692  36.6011338 110.9629627  82.5017900  36.6699756
 109.6384767  81.8926354  37.0780766 118.3281680  80.5526683  50.6042417
 117.8120728  79.7685139  50.4172346 119.2121628  80.2245399  50.7688936
 115.9892407  74.2967698  46.5638230 115.7917228  73.9882787  47.4481562
 116.5992112  75.0229337  46.6936159 109.9009215  86.6829438  58.0611995
 110.8212224  86.8608038  58.2552041 109.8658798  85.7385484  57.9091694
 108.2013439  80.5561669  36.5366223 107.2944895  80.2594781  36.6128937
 108.4789420  80.2591487  35.6700509  99.1191380  81.8768032  46.9865269
  98.7994164  81.0233340  46.6939643  98.5724808  82.0916610  47.7423237
 102.8971287  84.5930473  50.7034776 103.1157297  85.5247581  50.7222810
 103.3097061  84.2338448  51.4889580 109.8175505  75.0998558  42.6910464
 109.0076233  74.7545643  43.0665710 110.5059922  74.7906102  43.2798076
 111.7466053  74.1776605  44.3134761 112.2997092  74.5972059  44.9724784
 111.9836140  73.2512353  44.3557717 107.7699152  80.1663679  60.0937525
 107.6695879  81.1158036  60.0249616 107.5520694  79.8381918  59.2213595
 106.9712224  77.4148604  36.6778202 107.8331388  77.7403502  36.9374020
 107.1562568  76.6280100  36.1651268  98.9879640  85.4970944  48.9558391
  98.2943111  85.0824896  48.4428345  99.7352631  85.5391480  48.3591810
 115.1244860  76.2877130  43.8213425 114.5443529  76.9461934  43.4391478
 114.8580793  75.4654475  43.4100843 113.5748427  75.6882188  46.0234746
 114.0748205  75.7998723  45.2149064 114.2184035  75.3843241  46.6635554
 107.6330422  83.5960818  58.9102587 107.1497504  84.3961178  59.1166476
 107.7191361  83.6068763  57.9570031 100.9016382  85.4289197  46.8324406
 100.8787070  85.5276885  45.8806289 101.2117019  86.2754348  47.1541572
 103.5603760  87.4865352  50.9471020 104.5147013  87.4549295  50.8800952
 103.3616284  87.0255976  51.7621246 104.1503142  86.0566469  53.5141818
 104.9696031  86.5510547  53.5376655 104.4239950  85.1398437  53.4859385
 113.9069738  78.4477221  42.8769774 113.0195593  78.7326871  42.6589968
 114.3223727  78.2870984  42.0297050 117.2584274  78.4723742  46.5924113
 118.0344665  78.9620194  46.8648730 116.5332409  78.8981796  47.0495982
 119.6956833  79.1851361  47.6498053 120.2901324  78.9447097  46.9391362
 119.7683417  78.4658492  48.2771590 101.9153989  93.0284972  47.9641218
 101.7808457  92.2685373  47.3979216 101.4986051  93.7525872  47.4970007
 113.0512952  88.2121895  36.9717793 113.7548802  88.4171898  37.5875449
 112.3275601  88.7798657  37.2366877 113.8810762  83.9631757  43.0920064
 113.8245963  84.4200308  42.2527696 114.4339104  83.2022441  42.9142906
 117.6915568  79.7521489  43.9170183 117.4352502  79.3518124  44.7478391
 117.0668436  80.4665283  43.7920322 105.0723115  93.9254289  48.1759661
 104.9555499  94.8699721  48.0738351 104.2515561  93.6227851  48.5645460
 114.9599649  88.6504425  39.0216254 115.7945253  88.2185623  38.8393728
 114.7983992  88.4786438  39.9493148 114.6145541  85.1536538  40.3872593
 114.5594345  84.9880809  39.4461037 113.9891597  85.8612571  40.5434783
  99.4038056  80.3904602  54.2134015 100.0496920  79.8803556  54.7021240
  99.1955207  81.1273284  54.7877440 111.9291449  87.4585450  59.7126156
 112.7982608  87.6326102  59.3512791 111.4498200  88.2779867  59.5901885
 107.9241667  74.6544647  39.9657911 107.9120337  75.5986487  40.1226182
 108.8165089  74.4714792  39.6717372 106.0977629  94.5782551  51.3915589
 107.0004875  94.6106161  51.7082084 105.8714999  93.6483002  51.4061925
 107.8531231  93.3313537  48.0525668 106.9026862  93.3315399  47.9390040
 108.1563717  92.5846272  47.5361703 111.7393786  71.2487424  44.2203848
 110.9726182  70.6945910  44.3660530 112.1504491  71.3209292  45.0818000
 103.7435547  77.5372219  58.3109029 104.6067009  77.1809024  58.5212354
 103.1700958  77.1986114  58.9984434 120.3973631  99.1201504  49.0532955
 120.0592142  99.0042569  48.1653490 121.2663399  98.7192669  49.0333961
 116.2560446 100.9736980  45.0429846 115.6925311 100.8826917  44.2746134
 116.1412841 100.1536885  45.5232338 120.8793414 100.2736356  55.0119160
 120.8682054  99.8789154  54.1399664 121.0414053  99.5402428  55.6052932
 113.8024878 102.4688172  47.8814066 114.5946170 102.1278997  47.4660366
 114.0421528 102.5783147  48.8016220 115.7615632 101.7297085  40.7531445
 116.5346508 101.1826072  40.6144321 116.1141031 102.5941334  40.9645907
 117.6000675 103.0573467  53.9598344 117.3090541 103.9619098  53.8445011
 118.2357659 103.0989995  54.6742414 118.5256882 100.4350316  50.5499704
 119.1220454 100.2106338  49.8356667 118.5831853  99.6935061  51.1525152
 118.0981910  97.8889751  38.3849895 118.3507431  97.3671273  37.6233358
 117.1606469  97.7255897  38.4876579 117.8178199  99.7917857  40.5874270
 117.7014457  99.1162761  41.2555354 117.9280459  99.3050231  39.7706423
 120.1609740  99.2528004  44.2920959 119.7967947  98.7258625  45.0033881
 121.0176855  98.8626473  44.1187445 119.8015227  94.2817904  39.2882308
 119.9689629  95.1498140  39.6552779 119.6112396  94.4445186  38.3643597
 116.0103041  99.1948680  46.9884843 115.0853538  99.0624894  47.1962534
 116.2587454  99.9742899  47.4854785 119.7804447  96.7375562  40.2728975
 119.6604073  97.1832612  41.1114455 119.0857036  97.0860879  39.7142513
 113.3711852  98.8381953  47.8228632 113.5004233  99.0916432  48.7368043
 112.6909304  99.4309661  47.5033287 120.0328569  96.6807069  56.5780473
 119.2561903  97.2400989  56.5683337 120.6719132  97.1663852  57.0995343
 118.2874942  99.4892522  56.1398440 119.0289626 100.0277566  55.8633263
 117.5811927 100.1158811  56.2969992 120.1161351  96.5694269  52.1104158
 120.9622546  96.9933683  52.2538807 120.0559989  95.9127894  52.8042721
 119.6387058 101.9297261  45.7572975 120.1025403 102.2084964  44.9677598
 119.3743856 101.0280706  45.5746066 116.5311139 101.4768743  48.6952738
 117.1012496 101.9056011  48.0570223 117.1219251 101.1951327  49.3936924
 118.5755944  98.0520414  42.5662540 119.2779987  98.5041457  43.0336467
 118.2436572  97.4104232  43.1942433 117.0236305  96.6432170  56.9413750
 116.3934966  97.3248451  57.1749147 116.9172393  96.5315252  55.9966888
 112.3181278  96.3103966  47.8679674 111.5280332  96.5661495  47.3919785
 112.8092525  97.1252304  47.9731714 114.2696023  96.6748546  44.8263151
 113.4727186  96.7867240  45.3446646 114.0421615  97.0135198  43.9604041
 120.1001691 103.1993249  52.7745665 120.1646123 103.6613656  53.6103837
 119.3912615 102.5690614  52.9027975 110.6018981  96.5634457  50.2994665
 110.8527019  97.4481467  50.5652241 111.1378529  96.3839058  49.5269757
 116.3017048  90.9452936  59.3039001 115.9083994  90.3919135  59.9786645
 117.1183188  91.2563515  59.6945518 113.2679106 102.3836794  43.2152571
 113.7803626 103.1780045  43.3658135 113.9201819 101.6863085  43.1486172
 115.0773991 105.5002551  45.2975324 115.2540619 106.4220515  45.1096308
 115.8730824 105.1860970  45.7269704 119.2185009  92.3610815  56.8959257
 119.9594722  92.9617968  56.8163720 119.4502932  91.6188453  56.3377300
 114.3626347  97.5467182  55.1737487 114.2479862  96.6452440  55.4744586
 113.5070865  97.7930879  54.8222304 116.2005306 107.0180724  51.2985666
 116.7512731 106.8897788  50.5262660 115.3616782 107.3175613  50.9480559
 119.9972477 103.2831852  55.6429897 120.5300814 102.5220140  55.4129205
 119.4686558 102.9905504  56.3854052 111.2328023 100.7125449  43.9912141
 112.0703245 101.1222457  43.7745849 111.4106290  99.7724891  43.9612335
 120.7139566  93.2250230  44.7381213 119.8581162  92.8357080  44.5586851
 121.1266518  93.3042191  43.8780998 118.4881598  90.8435303  48.1438954
 119.3534595  90.6478112  47.7844844 118.5559107  90.6145655  49.0708311
 121.3625190 102.4117845  43.1548709 120.8346551 101.6770604  42.8421947
 120.8612692 103.1892521  42.9088678 116.0943917  93.0737511  45.5155321
 116.6687669  92.8512692  44.7828514 116.6814900  93.1426205  46.2683922
 116.4213504  95.1041972  39.5351206 115.5850817  95.4416659  39.8560481
 116.2818274  94.9690952  38.5978343 118.3966585  89.9478760  44.2430390
 117.7430997  89.6327777  43.6187005 118.3547059  89.3254500  44.9690213
 119.5077790 100.2298055  36.1583682 118.6004852  99.9987308  36.3574831
 120.0048822  99.4335674  36.3457664 120.6866023 100.3310650  40.6807672
 119.7777243 100.0469683  40.7780142 120.7161107 100.7509728  39.8210979
 111.2554194  98.0516164  44.6622875 111.0578594  97.4585525  43.9373941
 110.7000858  97.7468374  45.3798813 119.2350917  97.9439270  46.7817468
 119.2899527  96.9913107  46.7059944 118.4242119  98.0998709  47.2658766
 120.3842111 101.8719393  38.0195751 119.9461541 101.1555252  37.5601388
 121.1252552 102.0995508  37.4580842 117.1743277  96.5616330  44.5407847
 116.3611143  96.8610501  44.9473039 117.6702272  96.1672019  45.2582329
 116.6657352  94.1334686  50.1569082 117.3056731  93.9923445  49.4592045
 115.8334883  93.8469199  49.7807684 117.4417656 103.4337116  46.2704074
 118.2358254 102.9387436  46.0686649 116.7309348 102.9054979  45.9071780
 113.7500419  97.5780198  42.3463827 112.8198008  97.5164653  42.5633789
 113.8457891  97.0556151  41.5500468 113.6685969  94.1035011  44.9342068
 113.9292786  95.0180344  44.8251229 114.4903141  93.6359453  45.0838681
 115.1410894  95.5172768  52.1040893 115.8133947  95.3090130  51.4553542
 114.3140680  95.3194854  51.6646125 120.0188932 104.0066138  49.9501911
 119.8800018 103.6384922  50.8227849 119.2303528 104.5213777  49.7785869
 121.5694147 103.3847741  47.3390749 121.2343980 103.3448511  48.2348399
 121.0698093 102.7192457  46.8661159 115.5438391  98.7915371  52.8643330
 115.4058189  98.0595610  53.4654869 116.4543315  98.7024271  52.5827518
 118.1720692  98.5035330  52.3527010 118.8820310  97.8628522  52.3113628
 118.1290000  98.7548225  53.2753191 116.8849626  95.4900548  54.1722649
 116.3486983  95.0391286  54.8244246 116.2966334  95.6246457  53.4293114
 116.2951885  94.9489199  36.7349113 115.4181351  94.8278000  36.3711360
 116.7709638  94.1575278  36.4828002 107.8154025  99.7366359  46.8290620
 108.5025065  99.4228089  46.2411635 107.6602154 100.6407724  46.5557871
 112.6188747  94.6256556  51.2575644 112.5346936  94.0182225  50.5226054
 111.7971453  95.1165574  51.2585140 119.3747430  95.2527502  46.3517523
 119.0045217  94.6998543  47.0398429 119.8706522  94.6485636  45.7992523
 117.2036628 105.7124997  53.4472541 117.9046088 106.3461480  53.6001936
 116.7331743 106.0539729  52.6868181 112.8004346 105.2461352  50.3803644
 113.3857783 104.5005040  50.5131548 112.6029185 105.5565309  51.2640308
 107.3922001  97.8166952  49.1008087 107.4306100  97.2830543  49.8945205
 106.8862294  97.2902158  48.4819064 114.7712763  92.6631493  52.5970629
 114.8354090  93.5246324  52.1848027 114.7079884  92.0505495  51.8642988
 114.2465036  94.7354626  56.2443664 114.8737075  94.3531703  56.8581188
 113.3892955  94.5168827  56.6099356 111.0230579  96.5431055  42.1762019
 111.3184020  95.6341733  42.1229072 110.1218614  96.5218794  41.8543021
 114.5524826  94.6187051  48.1589567 113.8311411  95.2323019  48.0197040
 115.3418081  95.1544816  48.0806213 117.3551139  91.9541478  54.4330219
 117.8785541  92.2003774  55.1956528 117.1363472  92.7861513  54.0133356
 112.7518420  94.2245152  42.3001344 112.4231126  93.3442531  42.1176450
 113.1057791  94.1692821  43.1877733 115.8660243  94.5118122  42.6676821
 116.2056316  95.0404043  41.9455430 116.3132364  94.8498528  43.4435388
 118.5603684  92.8955173  52.1179889 118.2200504  92.0962986  52.5200569
 117.8542690  93.1956884  51.5456723 119.2120156  89.9804485  50.5707212
 120.0346225  89.5064963  50.4486103 119.4558219  90.7594969  51.0705899
 117.8528390  93.0092744  40.8670114 118.5736753  93.3873996  40.3633831
 117.2293695  93.7281621  40.9705092 116.7358735  96.6723606  48.3799191
 116.5903315  96.9863909  49.2723473 116.2583938  97.2908506  47.8270090
 118.5955118  93.6626154  48.4280081 118.5816686  92.7667247  48.0912379
 119.3127546  93.6696818  49.0618367 120.4481248  94.0963494  50.4733208
 120.1899026  95.0180565  50.4717538 119.9166289  93.6993929  51.1633672
 111.2104397  99.2128950  51.3186852 110.6657865  99.9888758  51.4507127
 112.0883747  99.5599755  51.1605974 117.9992014  92.5440534  43.6967651
 118.1207925  91.6157180  43.8958538 117.7094056  92.5579220  42.7845966
 120.8683204  90.2295445  46.8334371 120.8904901  90.2934778  45.8786350
 121.2851263  89.3899953  47.0274877 111.9970419  98.3398847  54.2117009
 111.2552155  98.4881482  54.7981640 111.6763163  98.6007112  53.3483759
 112.4427032 106.2264275  46.2427404 113.2685052 105.9268047  45.8626047
 112.0921084 105.4571898  46.6917192 117.4108566 105.5790743  48.3125077
 116.7888575 104.9161449  48.0127305 118.0813432 105.6051875  47.6298725
 110.6435637 104.1450602  47.2016337 109.8067546 103.7172776  47.0200339
 110.6159283 104.3383045  48.1387129 117.4833093  94.0572532  57.9057583
 117.5321249  94.9334654  57.5235353 118.0255607  93.5149925  57.3329227
 116.9722072 104.1294667  41.7883538 117.1210193 104.8130131  41.1350211
 117.7788516 104.1099757  42.3032994 119.7132381  94.8103904  54.6603942
 118.8435691  95.1037470  54.3886531 119.9491862  95.3944349  55.3811206
 114.7274705 100.1559844  42.7944607 114.4820747  99.2522174  42.9924817
 114.8970620 100.1576995  41.8524085 113.9970353  95.8888202  40.2930768
 113.3039598  95.9632557  39.6370804 113.7522105  95.1248546  40.8152285
 119.0407194  95.8853586  36.5366223 118.1338649  95.5886699  36.6128937
 119.3183175  95.5883405  35.6700509 109.9585134  97.2059950  46.9865269
 109.6387918  96.3525258  46.6939643 109.4118562  97.4208528  47.7423237
 113.7365042  99.9222391  50.7034776 113.9551051 100.8539499  50.7222810
 114.1490815  99.5630365  51.4889580 120.6569259  90.4290476  42.6910464
 119.8469988  90.0837561  43.0665710 121.3453676  90.1198020  43.2798076
 118.6092907  95.4955597  60.0937525 118.5089634  96.4449954  60.0249616
 118.3914449  95.1673835  59.2213595 117.8105978  92.7440522  36.6778202
 118.6725142  93.0695420  36.9374020 117.9956322  91.9572018  36.1651268
 109.8273394 100.8262861  48.9558391 109.1336865 100.4116814  48.4428345
 110.5746385 100.8683398  48.3591810 118.4724177  98.9252735  58.9102587
 117.9891259  99.7253096  59.1166476 118.5585116  98.9360680  57.9570031
 111.7410137 100.7581115  46.8324406 111.7180825 100.8568802  45.8806289
 112.0510773 101.6046266  47.1541572 114.3997514 102.8157270  50.9471020
 115.3540768 102.7841212  50.8800952 114.2010038 102.3547894  51.7621246
 114.9896897 101.3858386  53.5141818 115.8089786 101.8802465  53.5376655
 115.2633704 100.4690354  53.4859385 112.7547743 108.3576890  47.9641218
 112.6202211 107.5977291  47.3979216 112.3379805 109.0817789  47.4970007
 110.2431811  95.7196520  54.2134015 110.8890674  95.2095474  54.7021240
 110.0348962  96.4565202  54.7877440 118.7635421  89.9836565  39.9657911
 118.7514091  90.9278405  40.1226182 119.6558843  89.8006710  39.6717372
 114.5829302  92.8664137  58.3109029 115.4460763  92.5100942  58.5212354
 114.0094712  92.5278032  58.9984434  52.5048814  -5.4610180  30.6464413
  52.4272844  -4.5102355  30.7252893  51.9010457  -5.8064308  31.3039339
  50.1435644  -2.7124786  34.7912615  50.3832242  -2.0806262  35.4691633
  49.3004840  -3.0636746  35.0777974  50.6180476  -6.6876784  32.1211393
  49.9490851  -6.2030656  31.6375433  50.4793345  -6.4407563  33.0354772
  54.7585744  -4.6533040  38.7194051  55.3104052  -4.4901419  39.4843137
  55.0991938  -4.0628602  38.0474076  47.7185218  -6.6112494  34.6886525
  47.5839685  -7.3712093  34.1224523  47.3017280  -5.8871594  34.2215314
  50.8754343  -5.7143177  34.9004967  50.7586728  -4.7697744  34.7983658
  50.0546790  -6.0169615  35.2890767  51.9008858  -5.0614915  38.1160896
  52.8036104  -5.0291305  38.4327391  51.6746228  -5.9914464  38.1307232
  66.2004859  -0.5195962  35.7778262  65.8623371  -0.6354897  34.8898796
  67.0694628  -0.9204797  35.7579268  62.0591675   1.3339515  31.7675153
  61.4956540   1.2429451  30.9991440  61.9444070   0.5139419  32.2477645
  66.6824642   0.6338890  41.7364467  66.6713283   0.2391688  40.8644971
  66.8445282  -0.0995038  42.3298239  59.6056107   2.8290706  34.6059373
  60.3977399   2.4881531  34.1905672  59.8452757   2.9385681  35.5261526
  67.6391234   5.0010482  27.0789617  66.9879213   5.5864563  26.6923631
  68.4335597   5.5316677  27.1384655  61.5646861   2.0899619  27.4776752
  62.3377737   1.5428606  27.3389628  61.9172260   2.9543869  27.6891213
  63.4031903   3.4176002  40.6843651  63.1121769   4.3221632  40.5690317
  64.0388888   3.4592529  41.3987721  64.3288110   0.7952850  37.2745011
  64.9251683   0.5708873  36.5601974  64.3863082   0.0537596  37.8770459
  69.1166499   2.6900914  27.6158602  68.4812332   2.7635541  28.3279506
  68.7863905   3.2794513  26.9377681  63.6209427   0.1520391  27.3119577
  63.5045686  -0.5234705  27.9800661  63.7311687  -0.3347235  26.4951730
  65.9640968  -0.3869461  31.0166266  65.5999176  -0.9138840  31.7279187
  66.8208084  -0.7770992  30.8432751  68.3621789   3.1037417  37.6793445
  68.0622512   4.0062456  37.5709252  68.0172848   2.8369600  38.5314598
  61.8134270  -0.4448786  33.7130149  60.8884766  -0.5772572  33.9207841
  62.0618683   0.3345433  34.2100092  59.1743081  -0.8015512  34.5473938
  59.3035462  -0.5481034  35.4613350  58.4940532  -0.2087804  34.2278593
  63.3442568   9.8681738  30.6464413  63.2666598  10.8189563  30.7252893
  62.7404212   9.5227610  31.3039339  64.0906170  -0.1504944  42.8643746
  64.8320855   0.3880100  42.5878570  63.3843156   0.4761345  43.0215298
  69.5661510   1.9924197  41.4615908  69.9744866   1.5506607  40.7170540
  68.8438772   1.4176824  41.7150101  69.8890325   2.5525387  35.2168197
  69.2599187   2.7171102  34.5144265  69.5015987   2.9666997  35.9879161
  73.7679557   3.4879825  32.5712561  73.0830595   3.8678727  32.0209594
  73.8523406   4.0975152  33.3044508  71.0230488   1.1339784  39.1707904
  71.2347383   1.7771544  38.4942285  70.9760236   0.3002101  38.7029834
  65.4418287   2.2899795  32.4818282  65.9056632   2.5687498  31.6922904
  65.1775085   1.3883240  32.2991373  62.3342368   1.8371277  35.4198045
  62.9043725   2.2658545  34.7815530  62.9250479   1.5553862  36.1182231
  58.1212507  -3.3293499  34.5924981  57.3311561  -3.0735971  34.1165091
  58.6123754  -2.5145162  34.6977021  72.1376316   4.0111740  37.3430261
  72.9593760   3.6091927  37.0612943  72.1338719   3.9079974  38.2946377
  60.0727252  -2.9648920  31.5508457  59.2758415  -2.8530226  32.0691953
  59.8452844  -2.6262268  30.6849348  65.9032920   3.5595783  39.4990972
  65.9677352   4.0216190  40.3349144  65.1943843   2.9293148  39.6273282
  56.4050210  -3.0763009  37.0239971  56.6558248  -2.1915999  37.2897547
  56.9409758  -3.2558408  36.2515063  65.6180937   5.2263890  29.3669952
  65.4826612   6.0715426  29.7954800  66.1590750   5.4283168  28.6035886
  59.0710335   2.7439329  29.9397877  59.5834855   3.5382579  30.0903442
  59.7233047   2.0465619  29.8731479  60.8805219   5.8605085  32.0220630
  61.0571848   6.7823049  31.8341614  61.6762053   5.5463504  32.4515010
  60.1657576  -2.0930283  41.8982794  60.0511091  -2.9945026  42.1989893
  59.3102094  -1.8466587  41.5467610  67.2449414   5.8487457  43.4970294
  66.8013268   5.0623836  43.1791199  67.9066627   6.0366607  42.8314185
  62.0036535   7.3783259  38.0230973  62.5543960   7.2500322  37.2507967
  61.1648011   7.6778148  37.6725866  69.3430652   6.1290257  41.5251696
  69.3249127   6.9499138  41.0331965  70.2650572   6.0044332  41.7501837
  65.8003706   3.6434386  42.3675204  66.3332043   2.8822675  42.1374512
  65.2717787   3.3508038  43.1099358  57.0359251   1.0727983  30.7157448
  57.8734473   1.4824991  30.4991156  57.2137519   0.1327425  30.6857642
  67.1656419   2.7720379  29.8794016  66.6377780   2.0373138  29.5667253
  66.6643921   3.5495055  29.6333984  72.1449265   0.9669399  34.9961062
  71.4872939   1.6568661  35.0841191  72.9489664   1.3565831  35.3395049
  65.3109019   0.5900589  22.8828989  64.4036080   0.3589843  23.0820138
  65.8080051  -0.2061792  23.0702971  68.2177098   9.2998096  25.8025675
  67.5438796   9.6029793  26.4110633  68.6042920  10.1027177  25.4531132
  66.4897252   0.6913184  27.4052979  65.5808471   0.4072217  27.5025449
  66.5192336   1.1112263  26.5456286  71.7216520   4.3019773  31.1744147
  71.2678847   3.4610683  31.2309337  71.0910486   4.9381172  31.5118927
  70.1649459   6.1396270  32.1093965  70.4572433   6.7001327  31.3906330
  70.6748079   6.4324831  32.8647124  57.0585423  -1.5881302  31.3868181
  56.8609822  -2.1811941  30.6619248  56.5032087  -1.8929092  32.1044120
  66.1873340   2.2321928  24.7441058  65.7492770   1.5157787  24.2846695
  66.9283781   2.4598042  24.1826149  65.1283084   6.9176621  33.1987418
  65.0859263   7.1437468  32.2695950  66.0445783   6.6839996  33.3473219
  74.3315834   2.5755652  35.8128648  74.7652341   2.4830941  36.6611702
  75.0447415   2.5513152  35.1748664  63.2448885   3.7939650  32.9949381
  64.0389483   3.2989970  32.7931956  62.5340577   3.2657513  32.6317086
  68.0643729   6.1757746  37.3461748  68.1180752   6.7448682  38.1139464
  67.1958511   6.3459631  36.9815785  59.5531648  -2.0617268  29.0709133
  58.6229236  -2.1232812  29.2879096  59.6489120  -2.5841315  28.2745775
  75.1931384   2.6179352  38.3461533  75.3867274   3.5225163  38.5920808
  75.0932002   2.1586771  39.1800118  70.2546493   2.7686095  43.9202414
  70.1031999   2.5396647  43.0032497  70.2451172   3.7256697  43.9333759
  67.0231829   0.3418008  38.9048680  67.9523889   0.4929167  38.7317648
  66.6022859   0.4302029  38.0497327  65.8220161   4.3668672  36.6747218
  65.6831246   3.9987457  37.5473156  65.0334757   4.8816312  36.5031176
  66.4168313   9.4677769  28.0172754  66.5920068   8.9965812  28.8318377
  65.7301101  10.0943535  28.2454015  67.3725376   3.7450275  34.0636056
  67.0375209   3.7051045  34.9593705  66.8729322   3.0794991  33.5906466
  61.3469620  -0.8482095  39.5888637  61.2089418  -1.5801856  40.1900176
  62.2574543  -0.9373195  39.3072825  70.3084568   1.0906309  24.3373115
  69.6913738   0.3653137  24.2406168  69.8401056   1.8515670  23.9940190
  63.9751921  -1.1362136  39.0772316  64.6851539  -1.7768943  39.0358935
  63.9321229  -0.8849241  39.9998497  71.9638699   5.8005218  41.9978896
  71.9051245   5.1164438  41.3309479  72.3658218   6.5424208  41.5459522
  60.9829398  12.6167132  34.7912615  61.2225996  13.2485656  35.4691633
  60.1398595  12.2655172  35.0777974  71.9656107   3.7644802  40.2292875
  71.0782885   3.4270723  40.3519274  72.5354658   3.0327833  40.4661641
  53.6185254   0.0968893  33.5535927  54.3056293  -0.2169377  32.9656942
  53.4633382   1.0010258  33.2803178  65.4957260   8.4246254  37.1954119
  65.4227431   9.2301225  37.7073423  65.0534653   8.6238220  36.3702140
  65.2847040   7.6618024  30.7056940  64.5014561   8.2039704  30.7995165
  65.9839785   8.1792004  31.1051181  67.9555943   8.3233088  39.3512277
  68.6683916   8.9580553  39.2788179  67.4645972   8.4196954  38.5352279
  69.6773470   2.2284341  30.9229569  68.7429749   2.3485803  30.7534273
  69.8550139   1.3256807  30.6589579  63.0067857   6.0727531  40.1717848
  63.7077316   6.7064014  40.3247242  62.5362972   6.4142263  39.4113487
  71.1322253   4.4145481  28.4565755  71.4082097   4.3002076  29.3659629
  70.2626752   4.0162966  28.4177928  67.7676317   8.6631832  32.0998569
  67.9498711   7.8453488  32.5626321  68.5909303   8.8799524  31.6623459
  68.1018482   7.5900017  29.3613617  68.6306249   7.0792472  28.7483779
  68.3646702   7.2742547  30.2259150  66.8556716  -0.6308050  44.4836435
  66.1797353  -0.7313921  45.1538811  67.6784350  -0.7868836  44.9472433
  58.6035575   5.6063886  37.1048951  59.1889012   4.8607574  37.2376855
  58.4060413   5.9167843  37.9885615  61.4574230   8.6415134  32.1211393
  60.7884606   9.1261262  31.6375433  61.3187100   8.8884354  33.0354772
  53.1953230  -1.8230513  35.8253394  53.2337329  -2.3566923  36.6190512
  52.6893523  -2.3495308  35.2064371  65.5979499  10.6758877  38.7194051
  66.1497807  10.8390499  39.4843137  65.9385692  11.2663315  38.0474076
  70.4490373   5.5020135  44.5742706  70.9930277   6.1150093  44.0797661
  69.8677218   6.0599713  45.0909719  56.8261807  -3.0966411  28.9007325
  57.1215248  -4.0055733  28.8474379  55.9249843  -3.1178672  28.5788328
  68.7347886   8.6240853  35.7057734  68.6099026   7.8230593  35.1968679
  69.3926977   9.1187046  35.2171704  70.7982795   6.4249873  37.3337284
  69.8513130   6.3055224  37.2615610  71.1465568   5.5372371  37.4163545
  67.8029228   6.2202589  33.5341636  67.6554190   5.2919297  33.7149206
  68.6282721   6.2422680  33.0498711  71.4063350   7.0431148  34.6206509
  72.3309897   6.8374009  34.4830960  71.2378653   6.7947549  35.5295850
  71.1958666   7.5616815  29.9768600  71.3695543   6.9963238  29.2242453
  71.6887557   8.3617710  29.7948090  57.0135626  -0.4268516  38.0432159
  56.4689094   0.3491292  38.1752433  57.8914976  -0.0797711  37.8851280
  72.1833838   6.8783580  27.0765498  72.8784743   7.4990272  27.2952813
  72.5256988   6.0278931  27.3517876  57.8001648  -1.2998619  40.9362316
  57.0583384  -1.1515984  41.5226946  57.4794392  -1.0390354  40.0729065
  74.0825261   4.3283285  28.6052829  74.6076586   4.6670558  27.8802149
  73.9947614   3.3930301  28.4215964  65.7445310   8.2417359  40.7342706
  66.0532437   7.9966506  41.6065405  66.5420792   8.4463997  40.2461576
  65.7665922  10.3955269  32.9648082  65.3270913   9.9031647  33.6580939
  66.5174039   9.8528236  32.7240158  58.2458261   6.5866809  32.9672710
  59.0716281   6.2870581  32.5871354  57.8952313   5.8174432  33.4162499
  63.2139794   5.9393278  35.0370384  62.5919804   5.2763983  34.7372612
  63.8844661   5.9654410  34.3544032  56.4466866   4.5053136  33.9261644
  55.6098775   4.0775310  33.7445645  56.4190512   4.6985579  34.8632435
  73.7719168   4.9616189  43.9104027  72.9814711   4.9440328  43.3708527
  73.5352522   5.5004483  44.6653064  62.7753301   4.4897201  28.5128845
  62.9241422   5.1732665  27.8595517  63.5819745   4.4702291  29.0278300
  75.3935239   4.2305597  41.4678777  75.1020048   4.5935577  42.3042238
  74.7807371   3.5172605  41.2892109  60.5305934   0.5162379  29.5189913
  60.2851976  -0.3875291  29.7170124  60.7001849   0.5179529  28.5769391
  66.2748707   6.9845331  25.9840592  65.7022674   7.6035519  25.5311064
  66.8481500   7.5344693  26.5180514  69.4945967   7.2682482  27.1149174
  70.4276640   7.2028043  27.3182050  69.4069179   8.1038748  26.6563707
  72.1233983   6.5848352  24.0753122  72.0447615   6.2508216  24.9688880
  72.9443650   7.0770120  24.0744594  66.5434198   2.3723890  44.7857301
  67.4637207   2.5502489  44.9797348  66.5083781   1.4279936  44.6337001
  55.7616363  -2.4337516  33.7110576  55.4419147  -3.2872208  33.4184950
  55.2149791  -2.2188938  34.4668543  59.5396270   0.2824925  37.4280083
  59.7582280   1.2142033  37.4468116  59.9522044  -0.0767101  38.2134886
  55.6304623   1.1865396  35.6803698  54.9368094   0.7719348  35.1673652
  56.3777614   1.2285932  35.0837117  64.2755406  -0.7144730  45.6347893
  63.7922487   0.0855630  45.8411782  64.3616345  -0.7036785  44.6815337
  57.5441365   1.1183649  33.5569713  57.5212053   1.2171337  32.6051596
  57.8542002   1.9648800  33.8786879  60.2028743   3.1759804  37.6716327
  61.1571997   3.1443747  37.6046259  60.0041267   2.7150428  38.4866553
  60.7928125   1.7460920  40.2387125  61.6121014   2.2404999  40.2621962
  61.0664933   0.8292889  40.2104692  58.5578972   8.7179424  34.6886525
  58.4233440   7.9579825  34.1224523  58.1411034   9.4420324  34.2215314
  69.6937935   3.9016347  23.6963100  70.3973785   4.1066350  24.3120756
  68.9700584   4.4693109  23.9612184  61.7148098   9.6148741  34.9004967
  61.5980482  10.5594173  34.7983658  60.8940544   9.3122302  35.2890767
  71.6024632   4.3398877  25.7461560  72.4370236   3.9080075  25.5639035
  71.4408975   4.1680890  26.6738455  71.2570525   0.8430990  27.1117899
  71.2019328   0.6775261  26.1706344  70.6316580   1.5507023  27.2680089
  56.0463040  -3.9200946  40.9379322  56.6921903  -4.4301992  41.4266547
  55.8380191  -3.1832264  41.5122747  68.5716432   3.1479902  46.4371462
  69.4407591   3.3220554  46.0758097  68.0923183   3.9674319  46.3147192
  62.7402612  10.2677003  38.1160896  63.6429859  10.3000613  38.4327391
  62.5139982   9.3377454  38.1307232  64.4956214   9.0207989  34.7770975
  63.5451845   9.0209851  34.6635347  64.7988700   8.2740724  34.2607009
  80.2308908  14.8568528  35.8416737  80.8687317  14.7375275  35.1380077
  80.1129750  15.8049372  35.9004689  77.0398614  14.8095956  35.7778262
  76.7017125  14.6937020  34.8898796  77.9088382  14.4087121  35.7579268
  72.8985430  16.6631432  31.7675153  72.3350295  16.5721369  30.9991440
  72.7837825  15.8431337  32.2477645  77.5218397  15.9630808  41.7364467
  77.5107038  15.5683606  40.8644971  77.6839036  15.2296880  42.3298239
  70.4449861  18.1582624  34.6059373  71.2371153  17.8173448  34.1905672
  70.6846512  18.2677599  35.5261526  78.4784988  20.3302400  27.0789617
  77.8272968  20.9156480  26.6923631  79.2729351  20.8608595  27.1384655
  72.4040615  17.4191537  27.4776752  73.1771491  16.8720524  27.3389628
  72.7566014  18.2835786  27.6891213  74.2425658  18.7467919  40.6843651
  73.9515524  19.6513550  40.5690317  74.8782642  18.7884447  41.3987721
  75.1681865  16.1244768  37.2745011  75.7645437  15.9000790  36.5601974
  75.2256836  15.3829513  37.8770459  74.7406893  13.5784203  25.1095202
  74.9932414  13.0565724  24.3478665  73.8031452  13.4150349  25.2121885
  79.7850176  12.5819982  32.9169945  80.5713265  12.1639405  32.5660362
  80.0488880  13.4866074  33.0851593  79.9560253  18.0192832  27.6158602
  79.3206086  18.0927458  28.3279506  79.6257660  18.6086431  26.9377681
  85.1858603  12.5195215  33.8202923  85.9183775  11.9494432  34.0540753
  84.4297959  12.1316815  34.2609429  74.4603182  15.4812309  27.3119577
  74.3439440  14.8057213  27.9800661  74.5705442  14.9944683  26.4951730
  76.8034723  14.9422456  31.0166266  76.4392930  14.4153077  31.7279187
  77.6601839  14.5520925  30.8432751  82.7084023   6.2316789  38.2797532
  82.3767348   7.1012200  38.0558747  82.1129637   5.9153073  38.9591562
  76.4440210   9.9712356  26.0127614  76.6114612  10.8392592  26.3798085
  76.2537379  10.1339638  25.0888904  79.2015543  18.4329335  37.6793445
  78.9016266  19.3354374  37.5709252  78.8566603  18.1661518  38.5314598
  72.6528025  14.8843132  33.7130149  71.7278521  14.7519346  33.9207841
  72.9012438  15.6637351  34.2100092  82.6012687  10.9511875  35.3590882
  81.6929564  10.8827283  35.0649643  82.5500283  11.4283820  36.1872708
  76.4229431  12.4270013  26.9974281  76.3029056  12.8727064  27.8359762
  75.7282019  12.7755331  26.4387819  70.0136836  14.5276405  34.5473938
  70.1429217  14.7810884  35.4613350  69.3334287  15.1204113  34.2278593
  74.1836323  25.1973655  30.6464413  74.1060353  26.1481480  30.7252893
  73.5797966  24.8519528  31.3039339  76.6753553  12.3701521  43.3025779
  75.8986887  12.9295441  43.2928644  77.3144116  12.8558304  43.8240650
  84.4674333   9.1528313  37.1368756  83.8248713   9.4460847  36.4908551
  83.9629262   9.0381234  37.9421953  82.1214497  12.8991487  27.8254615
  83.0332353  13.1318873  27.6502313  81.6124144  13.4828531  27.2629694
  74.9299925  15.1786974  42.8643746  75.6714609  15.7172018  42.5878570
  74.2236910  15.8053263  43.0215298  80.4055265  17.3216114  41.4615908
  80.8138621  16.8798525  40.7170540  79.6832526  16.7468742  41.7150101
  76.7586335  12.2588721  38.8349465  77.6047530  12.6828135  38.9784114
  76.6984972  11.6022346  39.5288028  80.7284079  17.8817305  35.2168197
  80.0992942  18.0463019  34.5144265  80.3409741  18.2958915  35.9879161
  84.6073311  18.8171743  32.5712561  83.9224349  19.1970644  32.0209594
  84.6917160  19.4267070  33.3044508  79.9085780   9.9193090  40.4930638
  79.6646712  10.6735150  39.9564914  80.1845710  10.2978437  41.3277886
  81.8624243  16.4631702  39.1707904  82.0741138  17.1063462  38.4942285
  81.8153991  15.6294018  38.7029834  79.4650472   9.0749523  36.0744476
  78.6034951   9.3730776  36.3661214  79.4912906   9.2919921  35.1425509
  76.2812041  17.6191713  32.4818282  76.7450387  17.8979416  31.6922904
  76.0168839  16.7175158  32.2991373  73.1736122  17.1663195  35.4198045
  73.7437479  17.5950463  34.7815530  73.7644234  16.8845779  36.1182231
  75.2180927  13.7414866  29.2907847  75.9204970  14.1935909  29.7581773
  74.8861556  13.0998684  29.9187740  73.6661289  12.3326622  43.6659056
  73.0359949  13.0142903  43.8994453  73.5597377  12.2209704  42.7212195
  68.9606261  11.9998418  34.5924981  68.1705315  12.2555947  34.1165091
  69.4517508  12.8146756  34.6977021  82.9770071  19.3403657  37.3430261
  83.7987514  18.9383845  37.0612943  82.9732474  19.2371892  38.2946377
  70.9121006  12.3642997  31.5508457  70.1152170  12.4761692  32.0691953
  70.6846599  12.7029650  30.6849348  76.7426674  18.8887701  39.4990972
  76.8071107  19.3508108  40.3349144  76.0337598  18.2585066  39.6273282
  67.2443964  12.2528909  37.0239971  67.4952002  13.1375919  37.2897547
  67.7803512  12.0733510  36.2515063  91.0676064  15.6842406  33.6915233
  90.3139772  15.1149804  33.5359237  91.2023605  15.6505070  34.6385868
  76.4574692  20.5555808  29.3669952  76.3220367  21.4007344  29.7954800
  76.9984504  20.7575086  28.6035886  72.9442031   6.6347388  46.0284307
  72.5508977   6.0813587  46.7031952  73.7608172   6.9457966  46.4190825
  69.9104089  18.0731246  29.9397877  70.4228610  18.8674496  30.0903442
  70.5626802  17.3757537  29.8731479  71.7198974  21.1897002  32.0220630
  71.8965602  22.1114967  31.8341614  72.5155807  20.8755422  32.4515010
  75.8609992   8.0505267  43.6204564  76.6019706   8.6512420  43.5409026
  76.0927915   7.3082905  43.0622607  71.0051330  13.2361634  41.8982794
  70.8904846  12.3346892  42.1989893  70.1495848  13.4825331  41.5467610
  78.0843168  21.1779375  43.4970294  77.6407022  20.3915753  43.1791199
  78.7460382  21.3658525  42.8314185  72.8430289  22.7075176  38.0230973
  73.3937714  22.5792240  37.2507967  72.0041765  23.0070065  37.6725866
  80.1824406  21.4582175  41.5251696  80.1642882  22.2791056  41.0331965
  81.1044326  21.3336250  41.7501837  76.6397460  18.9726304  42.3675204
  77.1725797  18.2114592  42.1374512  76.1111541  18.6799956  43.1099358
  79.8067155   4.0786370  37.8968846  79.4631425   4.9688012  37.8207956
  80.1746118   3.8888028  37.0338431  67.8753006  16.4019900  30.7157448
  68.7128228  16.8116909  30.4991156  68.0531274  15.4619343  30.6857642
  79.7717438  14.0694981  26.4041281  79.2564061  14.8399586  26.6429668
  79.4994746  13.3960117  27.0274342  77.3564549   8.9144682  31.4626519
  76.5006145   8.5251532  31.2832158  77.7691501   8.9936643  30.6026305
  78.8863696   6.4491025  35.8618079  78.3828491   6.4121160  35.0485884
  79.1794303   7.3583768  35.9214736  75.1306582   6.5329755  34.8684261
  75.9959578   6.3372564  34.5090150  75.1984090   6.3040107  35.7953617
  84.7451712  16.8227336  28.3394454  83.9681155  16.4838495  27.8949616
  85.4243193  16.8279959  27.6649419  79.5603741  11.9422073  28.2301062
  79.2553877  12.2568222  29.0811205  80.5134183  12.0203493  28.2728395
  78.0050173  18.1012297  29.8794016  77.4771535  17.3665056  29.5667253
  77.5037676  18.8786973  29.6333984  82.9843019  16.2961317  34.9961062
  82.3266694  16.9860578  35.0841191  83.7883418  16.6857749  35.3395049
  72.7368901   8.7631963  32.2400627  73.3112653   8.5407144  31.5073820
  73.3239883   8.8320657  32.9929229  81.7948478  14.6505690  33.0465004
  82.3080360  15.2835682  33.5486714  82.4449702  14.0506885  32.6808364
  73.0638488  10.7936424  26.2596513  72.2275800  11.1311110  26.5805787
  72.9243257  10.6585404  25.3223650  75.0391568   5.6373212  30.9675697
  74.3855981   5.3222229  30.3432312  74.9972043   5.0148952  31.6935520
  76.1502773  15.9192507  22.8828989  75.2429835  15.6881760  23.0820138
  76.6473805  15.1230126  23.0702971  79.0570852  24.6290014  25.8025675
  78.3832551  24.9321711  26.4110633  79.4436674  25.4319094  25.4531132
  78.2729309  12.1255145  35.2923345  77.3551870  12.3470092  35.1345033
  78.6889452  12.2001456  34.4335052  79.0564356  13.5246561  30.4226025
  79.8036175  14.0367958  30.1133147  79.3255946  13.2030614  31.2830418
  77.3291007  16.0205102  27.4052979  76.4202226  15.7364134  27.5025449
  77.3586090  16.4404180  26.5456286  82.5610274  19.6311691  31.1744147
  82.1072601  18.7902601  31.2309337  81.9304241  20.2673090  31.5118927
  81.5043194  10.5603677  32.4044814  80.7665950  10.0481063  32.7355057
  81.7569967  10.1204059  31.5928091  81.0043213  21.4688188  32.1093965
  81.2966188  22.0293245  31.3906330  81.5141834  21.7616749  32.8647124
  67.8979177  13.7410616  31.3868181  67.7003577  13.1479977  30.6619248
  67.3425841  13.4362826  32.1044120  75.8775901  13.6333722  33.5062774
  75.9324510  12.6807559  33.4305251  75.0667103  13.7893161  33.9904073
  77.0267094  17.5613845  24.7441058  76.5886524  16.8449704  24.2846695
  77.7677535  17.7889960  24.1826149  73.8168261  12.2510782  31.2653153
  73.0036126  12.5504953  31.6718345  74.3127255  11.8566471  31.9827636
  75.9676839  22.2468539  33.1987418  75.9253017  22.4729385  32.2695950
  76.8839537  22.0131914  33.3473219  79.4142472  12.7152606  40.0968047
  79.7691860  12.9424080  40.9562513  80.0614604  13.0470983  39.4745303
  85.1440209  15.8371042  30.8017376  85.0058108  16.0272638  29.8738565
  84.7876428  16.5990425  31.2585427  73.3082335   9.8229138  36.8814388
  73.9481715   9.6817897  36.1837352  72.4759866   9.5363651  36.5052990
  85.1709589  17.9047569  35.8128648  85.6046096  17.8122858  36.6611702
  85.8841170  17.8805070  35.1748664  74.0842639  19.1231568  32.9949381
  74.8783238  18.6281888  32.7931956  73.3734332  18.5949431  32.6317086
  78.9037484  21.5049663  37.3461748  78.9574506  22.0740600  38.1139464
  78.0352265  21.6751549  36.9815785  70.3925403  13.2674650  29.0709133
  69.4622991  13.2059105  29.2879096  70.4882875  12.7450602  28.2745775
  70.3110952   9.7929463  31.6587375  70.5717769  10.7074796  31.5496536
  71.1328124   9.3253905  31.8083988  71.7835877  11.2067220  38.8286200
  72.4558931  10.9984582  38.1798849  70.9565664  11.0089306  38.3891432
  86.0325138  17.9471270  38.3461533  86.2261029  18.8517081  38.5920808
  85.9325757  17.4878689  39.1800118  77.6861449   7.8329161  40.8451860
  77.0389364   8.5319110  40.7516337  78.4562465   8.2665305  41.2128109
  81.0940247  18.0978013  43.9202414  80.9425754  17.8688564  43.0032497
  81.0844927  19.0548614  43.9333759  77.8625584  15.6709926  38.9048680
  78.7917644  15.8221085  38.7317648  77.4416614  15.7593946  38.0497327
  76.6613915  19.6960590  36.6747218  76.5225001  19.3279374  37.5473156
  75.8728512  20.2108229  36.5031176  77.2562067  24.7969686  28.0172754
  77.4313823  24.3257730  28.8318377  76.5694855  25.4235453  28.2454015
  78.2119130  19.0742193  34.0636056  77.8768963  19.0342963  34.9593705
  77.7123076  18.4086909  33.5906466  72.1863374  14.4809823  39.5888637
  72.0483172  13.7490062  40.1900176  73.0968298  14.3918723  39.3072825
  81.1478322  16.4198227  24.3373115  80.5307493  15.6945055  24.2406168
  80.6794811  17.1807587  23.9940190  74.8145675  14.1929782  39.0772316
  75.5245294  13.5522974  39.0358935  74.7714983  14.4442677  39.9998497
  73.5274609  11.1795000  40.8967956  72.9911966  10.7285738  41.5489552
  72.9391317  11.3140909  40.1538420  71.8223153  27.9459049  34.7912615
  72.0619751  28.5777573  35.4691633  70.9792349  27.5947089  35.0777974
  72.9376868  10.6383651  23.4594420  72.0606334  10.5172452  23.0956666
  73.4134621   9.8469730  23.2073308  82.8049861  19.0936719  40.2292875
  81.9176640  18.7562641  40.3519274  83.3748412  18.3619751  40.4661641
  64.4579008  15.4260811  33.5535927  65.1450048  15.1122541  32.9656942
  64.3027137  16.3302176  33.2803178  69.2613730  10.3151008  37.9820950
  69.1771919   9.7076677  37.2471360  68.4396437  10.8060026  37.9830447
  76.3351014  23.7538172  37.1954119  76.2621186  24.5593143  37.7073423
  75.8928408  23.9530137  36.3702140  76.1240794  22.9909942  30.7056940
  75.3408316  23.5331622  30.7995165  76.8233539  23.5083921  31.1051181
  79.4337444   8.8004571  33.3491145  79.9306144   8.0474533  33.0292216
  78.6624426   8.8368888  32.7834355  87.2867202  14.5044937  34.9909437
  87.2757078  15.3869652  34.6203370  86.4184581  14.1516487  34.7963974
  78.7949698  23.6525006  39.3512277  79.5077670  24.2872470  39.2788179
  78.3039727  23.7488872  38.5352279  80.5167225  17.5576258  30.9229569
  79.5823504  17.6777721  30.7534273  80.6943893  16.6548725  30.6589579
  76.0172413  10.9421954  33.0762830  75.6470200  10.3892994  33.7643736
  76.5131505  10.3380088  32.5237830  83.9039776  13.3993578  31.4579603
  84.3700228  14.2321569  31.3839906  84.3547277  12.9338559  32.1624861
  73.8461611  21.4019449  40.1717848  74.5471071  22.0355932  40.3247242
  73.3756726  21.7434181  39.4113487  81.9716007  19.7437399  28.4565755
  82.2475851  19.6293993  29.3659629  81.1020506  19.3454884  28.4177928
  81.8756439   5.7674165  35.4970504  80.9619519   5.9978391  35.6652711
  82.3049540   5.8512609  36.3484537  81.6462897  13.9564057  37.9970398
  80.9934348  14.2039964  37.3422851  82.0243277  13.1428195  37.6632876
  78.6070071  23.9923750  32.0998569  78.7892466  23.1745406  32.5626321
  79.4303057  24.2091442  31.6623459  78.9412237  22.9191935  29.3613617
  79.4700003  22.4084389  28.7483779  79.2040456  22.6034465  30.2259150
  77.6950470  14.6983868  44.4836435  77.0191107  14.5977997  45.1538811
  78.5178104  14.5423081  44.9472433  69.4429330  20.9355804  37.1048951
  70.0282766  20.1899492  37.2376855  69.2454168  21.2459761  37.9885615
  72.2967985  23.9707052  32.1211393  71.6278360  24.4553179  31.6375433
  72.1580854  24.2176272  33.0354772  64.0346984  13.5061404  35.8253394
  64.0731084  12.9724995  36.6190512  63.5287277  12.9796610  35.2064371
  71.4137747   8.3525945  39.3215936  71.4779073   9.2140776  38.9093334
  71.3504867   7.7399947  38.5888295  70.8890019  10.4249077  42.9688970
  71.5162058  10.0426155  43.5826495  70.0317938  10.2063279  43.3344663
  67.6655562  12.2325507  28.9007325  67.9609003  11.3236185  28.8474379
  66.7643598  12.2113246  28.5788328  71.1949809  10.3081503  34.8834874
  70.4736395  10.9217471  34.7442347  71.9843065  10.8439268  34.8051520
  73.9976122   7.6435930  41.1575526  74.5210524   7.8898226  41.9201835
  73.7788456   8.4755964  40.7378663  69.3943403   9.9139604  29.0246650
  69.0656110   9.0336983  28.8421756  69.7482774   9.8587273  29.9123040
  78.6422982  21.5494507  33.5341636  78.4947945  20.6211214  33.7149206
  79.4676476  21.5714598  33.0498711  72.5085227  10.2012574  29.3922128
  72.8481299  10.7298495  28.6700736  72.9557347  10.5392980  30.1680695
  75.2028667   8.5849625  38.8425196  74.8625488   7.7857438  39.2445876
  74.4967674   8.8851336  38.2702029  75.8545139   5.6698937  37.2952519
  76.6771209   5.1959415  37.1731409  76.0983203   6.4489421  37.7951205
  74.4953374   8.6987196  27.5915421  75.2161736   9.0768448  27.0879138
  73.8718678   9.4176072  27.6950399  78.6384497   9.4032345  28.5273753
  78.8548111  10.2856982  28.2262581  78.1578564   9.0118558  27.7979395
  73.3783718  12.3618058  35.1044498  73.2328299  12.6758361  35.9968779
  72.9008922  12.9802958  34.5515396  75.2380101   9.3520606  35.1525387
  75.2241670   8.4561699  34.8157685  75.9552529   9.3591270  35.7863673
  77.0906232   9.7857946  37.1978515  76.8324009  10.7075017  37.1962845
  76.5591272   9.3888381  37.8878979  82.0352420  22.8908733  29.9768600
  82.2089298  22.3255156  29.2242453  82.5281312  23.6909628  29.7948090
  67.8529380  14.9023402  38.0432159  67.3082848  15.6783210  38.1752433
  68.7308730  15.2494207  37.8851280  74.6416997   8.2334986  30.4212957
  74.7632908   7.3051632  30.6203845  74.3519039   8.2473672  29.5091273
  77.5108187   5.9189896  33.5579677  77.5329884   5.9829230  32.6031657
  77.9276246   5.0794405  33.7520183  87.8891812  15.6545156  31.5958900
  88.3322958  14.9052481  31.1978023  87.0118322  15.6455292  31.2132632
  83.0227593  22.2075497  27.0765498  83.7178497  22.8282190  27.2952813
  83.3650743  21.3570849  27.3517876  68.6395402  14.0293298  40.9362316
  67.8977138  14.1775934  41.5226946  68.3188146  14.2901564  40.0729065
  84.9219016  19.6575203  28.6052829  85.4470340  19.9962476  27.8802149
  84.8341369  18.7222218  28.4215964  76.6059677  25.7247186  32.9648082
  76.1664667  25.2323565  33.6580939  77.3567794  25.1820154  32.7240158
  69.0852016  21.9158727  32.9672710  69.9110036  21.6162499  32.5871354
  68.7346068  21.1466350  33.4162499  74.0533549  21.2685195  35.0370384
  73.4313558  20.6055900  34.7372612  74.7238416  21.2946327  34.3544032
  67.2860621  19.8345054  33.9261644  66.4492529  19.4067228  33.7445645
  67.2584266  20.0277497  34.8632435  74.1258076   9.7466983  44.6302890
  74.1746232  10.6229106  44.2480660  74.6680591   9.2044376  44.0574533
  84.7310797  17.1400573  41.2236756  84.7808802  16.9750580  42.1652278
  84.6224720  16.2727832  40.8334636  73.6147056  19.8189119  28.5128845
  73.7635176  20.5024583  27.8595517  74.4213499  19.7994209  29.0278300
  82.0214559  13.1231501  42.5396062  82.9224422  12.9837966  42.2480060
  82.0962534  13.2885956  43.4794240  76.3557365  10.4998356  41.3849249
  75.4860674  10.7931922  41.1131837  76.5916845  11.0838801  42.1056512
  86.2328994  19.5597515  41.4678777  85.9413802  19.9227495  42.3042238
  85.6201125  18.8464523  41.2892109  87.4324676  17.1250394  33.9881347
  88.2671568  17.5640198  34.1518908  87.5683805  16.6489048  33.1689593
  84.4816182  14.6830129  39.9358835  84.9570304  14.8757775  39.1277687
  83.5581748  14.7389315  39.6902219  71.3699689  15.8454296  29.5189913
  71.1245731  14.9416626  29.7170124  71.5395603  15.8471447  28.5769391
  79.0596399   6.7177973  38.9014669  79.5778342   7.4539000  38.5761158
  78.7051531   7.0241966  39.7361428  70.6395336  11.5782654  27.0176075
  69.9464581  11.6527009  26.3616111  70.3947088  10.8142998  27.5397592
  77.1142461  22.3137249  25.9840592  76.5416428  22.9327436  25.5311064
  77.6875255  22.8636611  26.5180514  83.1817851  11.5595889  38.1687141
  84.1335274  11.6593987  38.1899365  83.0121302  10.7674158  38.6785225
  81.2032231   8.6451472  38.3546542  80.6082163   8.9256485  37.6593030
  80.9181927   9.1345373  39.1263283  80.3339721  22.5974399  27.1149174
  81.2670394  22.5319961  27.3182050  80.2462934  23.4330666  26.6563707
  82.9627738  21.9140270  24.0753122  82.8841369  21.5800133  24.9688880
  83.7837405  22.4062038  24.0744594  85.6605929  14.7802009  37.2829440
  85.6282249  13.8418010  37.4689124  86.2706553  14.8586046  36.5495265
  77.4989260  13.6498062  23.3256644  78.4448365  13.5204270  23.3945062
  77.1203505  12.9112724  23.8026073  85.8100417  11.5713052  37.3287724
  85.2939466  10.7871509  37.1417652  86.6940366  11.2431769  37.4934243
  83.4711144   5.3154068  33.2883536  83.2735965   5.0069156  34.1726868
  84.0810850   6.0415707  33.4181466  91.4782479  15.8418016  36.4235477
  92.2085867  15.5803304  36.9843181  90.8689424  15.1046738  36.4637545
  89.5597776  13.9825878  37.0209928  88.8330939  13.8481843  36.4126420
  89.1445063  14.2902707  37.8266646  77.3827952  17.7015808  44.7857301
  78.3030962  17.8794407  44.9797348  77.3477535  16.7571853  44.6337001
  75.6832177  11.5748038  23.2611530  74.7763632  11.2781151  23.3374243
  75.9608158  11.2777856  22.3945816  66.6010117  12.8954402  33.7110576
  66.2812902  12.0419710  33.4184950  66.0543546  13.1102980  34.4668543
  70.3790025  15.6116843  37.4280083  70.5976035  16.5433951  37.4468116
  70.7915799  15.2524817  38.2134886  77.2994243   6.1184928  29.4155771
  76.4894971   5.7732013  29.7911017  77.9878660   5.8092472  30.0043383
  79.2284791   5.1962975  31.0380068  79.7815830   5.6158428  31.6970091
  79.4654877   4.2698723  31.0803024  75.2517890  11.1850048  46.8182832
  75.1514617  12.1344405  46.7494923  75.0339432  10.8568287  45.9458902
  74.4530962   8.4334974  23.4023509  75.3150126   8.7589872  23.6619326
  74.6381306   7.6466469  22.8896575  66.4698377  16.5157313  35.6803698
  65.7761849  16.1011266  35.1673652  67.2171368  16.5577850  35.0837117
  82.6063598   7.3063500  30.5458732  82.0262267   7.9648304  30.1636784
  82.3399531   6.4840845  30.1346149  81.0567164   6.7068558  32.7480052
  81.5566943   6.8185092  31.9394371  81.7002772   6.4029611  33.3880861
  75.1149160  14.6147187  45.6347893  74.6316242  15.4147547  45.8411782
  75.2010099  14.6255132  44.6815337  68.3835120  16.4475567  33.5569713
  68.3605808  16.5463254  32.6051596  68.6935756  17.2940718  33.8786879
  71.0422498  18.5051722  37.6716327  71.9965751  18.4735664  37.6046259
  70.8435021  18.0442346  38.4866553  71.6321880  17.0752838  40.2387125
  72.4514769  17.5696917  40.2621962  71.9058688  16.1584806  40.2104692
  81.3888476   9.4663590  29.6015080  80.5014331   9.7513241  29.3835275
  81.8042465   9.3057354  28.7542357  84.7403012   9.4910111  33.3169419
  85.5163402   9.9806564  33.5894036  84.0151146   9.9168166  33.7741289
  87.1775571  10.2037731  34.3743360  87.7720062   9.9633467  33.6636668
  87.2502155   9.4844861  35.0016896  69.3972727  24.0471342  34.6886525
  69.2627194  23.2871742  34.1224523  68.9804789  24.7712241  34.2215314
  80.5331690  19.2308265  23.6963100  81.2367540  19.4358268  24.3120756
  79.8094338  19.7985027  23.9612184  81.3629500  14.9818126  29.8165370
  81.3064701  15.4386678  28.9773003  81.9157842  14.2208811  29.6388213
  85.1734306  10.7707858  30.6415490  84.9171240  10.3704494  31.4723697
  84.5487174  11.4851652  30.5165629  89.4846644  13.5103931  33.1486781
  88.9246202  13.5797121  33.9218343  88.8790147  13.3344916  32.4286277
  72.5541852  24.9440659  34.9004967  72.4374237  25.8886091  34.7983658
  71.7334299  24.6414220  35.2890767  82.4418387  19.6690794  25.7461560
  83.2763991  19.2371993  25.5639035  82.2802730  19.4972808  26.6738455
  82.0964279  16.1722908  27.1117899  82.0413083  16.0067179  26.1706344
  81.4710334  16.8798940  27.2680089  66.8856794  11.4090972  40.9379322
  67.5315658  10.8989926  41.4266547  66.6773945  12.1459654  41.5122747
  79.4110186  18.4771819  46.4371462  80.2801346  18.6512472  46.0758097
  78.9316938  19.2966236  46.3147192  75.4060405   5.6731017  26.6903218
  75.3939074   6.6172856  26.8471489  76.2983826   5.4901162  26.3962679
  75.3349969  24.3499907  34.7770975  74.3845600  24.3501769  34.6635347
  75.6382455  23.6032642  34.2607009  71.2254285   8.5558589  45.0354336
  72.0885747   8.1995394  45.2457660  70.6519696   8.2172484  45.7229740
  83.2434370  32.7483455  27.4776752  84.0165246  32.2012442  27.3389628
  83.5959769  33.6127704  27.6891213  85.5800648  28.9076121  25.1095202
  85.8326168  28.3857642  24.3478665  84.6425207  28.7442266  25.2121885
  96.0252358  27.8487132  33.8202923  96.7577530  27.2786349  34.0540753
  95.2691713  27.4608733  34.2609429  85.2996936  30.8104227  27.3119577
  85.1833195  30.1349130  27.9800661  85.4099196  30.3236601  26.4951730
  87.2833964  25.3004274  26.0127614  87.4508367  26.1684510  26.3798085
  87.0931133  25.4631555  25.0888904  92.9608251  28.2283404  27.8254615
  93.8726107  28.4610791  27.6502313  92.4517898  28.8120448  27.2629694
 101.9069818  31.0134324  33.6915233 101.1533527  30.4441722  33.5359237
 102.0417359  30.9796988  34.6385868  90.6460910  19.4078288  37.8968846
  90.3025179  20.2979929  37.8207956  91.0139872  19.2179945  37.0338431
  90.6111193  29.3986899  26.4041281  90.0957816  30.1691503  26.6429668
  90.3388501  28.7252035  27.0274342  89.7257450  21.7782943  35.8618079
  89.2222246  21.7413078  35.0485884  90.0188057  22.6875686  35.9214736
  85.9700336  21.8621673  34.8684261  86.8353333  21.6664481  34.5090150
  86.0377845  21.6332024  35.7953617  95.5845467  32.1519253  28.3394454
  94.8074909  31.8130413  27.8949616  96.2636948  32.1571877  27.6649419
  83.5762655  24.0923881  32.2400627  84.1506407  23.8699062  31.5073820
  84.1633638  24.1612575  32.9929229  83.9032242  26.1228342  26.2596513
  83.0669555  26.4603028  26.5805787  83.7637012  25.9877321  25.3223650
  85.8785323  20.9665129  30.9675697  85.2249735  20.6514147  30.3432312
  85.8365797  20.3440870  31.6935520  86.9896528  31.2484424  22.8828989
  86.0823589  31.0173678  23.0820138  87.4867560  30.4522044  23.0702971
  88.1684761  31.3497019  27.4052979  87.2595980  31.0656052  27.5025449
  88.1979845  31.7696098  26.5456286  92.4448575  18.6671847  32.9986583
  92.7507452  17.8069210  32.7112498  93.1701180  19.2589467  32.7985577
  87.8660849  32.8905763  24.7441058  87.4280279  32.1741622  24.2846695
  88.6071290  33.1181878  24.1826149  95.9833964  31.1662960  30.8017376
  95.8451862  31.3564556  29.8738565  95.6270183  31.9282343  31.2585427
  81.2319157  28.5966567  29.0709133  80.3016745  28.5351023  29.2879096
  81.3276629  28.0742520  28.2745775  81.1504706  25.1221380  31.6587375
  81.4111524  26.0366713  31.5496536  81.9721879  24.6545823  31.8083988
  91.9872077  31.7490145  24.3373115  91.3701247  31.0236973  24.2406168
  91.5188565  32.5099505  23.9940190  83.7770622  25.9675569  23.4594420
  82.9000089  25.8464370  23.0956666  84.2528376  25.1761647  23.2073308
  98.1260956  29.8336854  34.9909437  98.1150832  30.7161570  34.6203370
  97.2578335  29.4808405  34.7963974  94.7433531  28.7285495  31.4579603
  95.2093983  29.5613487  31.3839906  95.1941031  28.2630477  32.1624861
  92.7150193  21.0966082  35.4970504  91.8013273  21.3270309  35.6652711
  93.1443295  21.1804526  36.3484537  78.5049316  27.5617424  28.9007325
  78.8002757  26.6528103  28.8474379  77.6037352  27.5405164  28.5788328
  80.2337158  25.2431522  29.0246650  79.9049864  24.3628901  28.8421756
  80.5876529  25.1879191  29.9123040  83.3478981  25.5304492  29.3922128
  83.6875054  26.0590413  28.6700736  83.7951102  25.8684898  30.1680695
  86.6938894  20.9990855  37.2952519  87.5164963  20.5251333  37.1731409
  86.9376957  21.7781339  37.7951205  85.3347128  24.0279113  27.5915421
  86.0555491  24.4060366  27.0879138  84.7112432  24.7467990  27.6950399
  85.4810751  23.5626904  30.4212957  85.6026662  22.6343550  30.6203845
  85.1912794  23.5765590  29.5091273  88.3501942  21.2481814  33.5579677
  88.3723639  21.3121147  32.6031657  88.7670001  20.4086323  33.7520183
  98.7285566  30.9837074  31.5958900  99.1716712  30.2344399  31.1978023
  97.8512076  30.9747210  31.2132632  93.8621347  37.5367415  27.0765498
  94.5572252  38.1574108  27.2952813  94.2044497  36.6862766  27.3517876
  81.4789091  26.9074572  27.0176075  80.7858336  26.9818927  26.3616111
  81.2340843  26.1434915  27.5397592  90.1502747  18.4670173  34.4215566
  90.4304501  17.7993362  35.0475992  90.9353354  18.6599269  33.9090229
  93.8021492  37.2432187  24.0753122  93.7235124  36.9092051  24.9688880
  94.6231159  37.7353955  24.0744594  88.3383014  28.9789980  23.3256644
  89.2842119  28.8496188  23.3945062  87.9597259  28.2404642  23.8026073
  96.6494172  26.9004970  37.3287724  96.1333221  26.1163427  37.1417652
  97.5334120  26.5723687  37.4934243  94.3104899  20.6445986  33.2883536
  94.1129720  20.3361074  34.1726868  94.9204604  21.3707625  33.4181466
 102.3176233  31.1709933  36.4235477 103.0479622  30.9095222  36.9843181
 101.7083179  30.4338655  36.4637545  86.5225931  26.9039956  23.2611530
  85.6157387  26.6073069  23.3374243  86.8001912  26.6069774  22.3945816
  88.1387997  21.4476846  29.4155771  87.3288725  21.1023931  29.7911017
  88.8272414  21.1384389  30.0043383  90.0678545  20.5254893  31.0380068
  90.6209584  20.9450346  31.6970091  90.3048632  19.5990641  31.0803024
  85.2924716  23.7626891  23.4023509  86.1543880  24.0881790  23.6619326
  85.4775060  22.9758387  22.8896575  93.4457353  22.6355418  30.5458732
  92.8656022  23.2940222  30.1636784  93.1793285  21.8132762  30.1346149
  91.8960919  22.0360475  32.7480052  92.3960697  22.1477010  31.9394371
  92.5396527  21.7321528  33.3880861  95.5796767  24.8202029  33.3169419
  96.3557157  25.3098481  33.5894036  94.8544901  25.2460083  33.7741289
  98.0169325  25.5329648  34.3743360  98.6113816  25.2925384  33.6636668
  98.0895909  24.8136779  35.0016896  91.3725444  34.5600183  23.6963100
  92.0761294  34.7650185  24.3120756  90.6488093  35.1276945  23.9612184
  96.0128060  26.0999776  30.6415490  95.7564994  25.6996412  31.4723697
  95.3880928  26.8143570  30.5165629 100.3240398  28.8395849  33.1486781
  99.7639956  28.9089038  33.9218343  99.7183901  28.6636834  32.4286277
  93.2812141  34.9982712  25.7461560  94.1157745  34.5663910  25.5639035
  93.1196484  34.8264726  26.6738455  92.9358034  31.5014825  27.1117899
  92.8806837  31.3359097  26.1706344  92.3104089  32.2090858  27.2680089
  86.2454159  21.0022934  26.6903218  86.2332829  21.9464774  26.8471489
  87.1377581  20.8193080  26.3962679  90.0606279  17.5965711  30.9449155
  89.2938674  17.0424198  31.0905837  90.4716983  17.6687580  31.8063306
 101.9096417  45.5152363  35.8416737 102.5474826  45.3959110  35.1380077
 101.7917259  46.4633207  35.9004689  98.7186123  45.4679791  35.7778262
  98.3804634  45.3520856  34.8898796  99.5875891  45.0670956  35.7579268
  94.5772938  47.3215268  31.7675153  94.0137804  47.2305204  30.9991440
  94.4625334  46.5015172  32.2477645  99.2005906  46.6214643  41.7364467
  99.1894547  46.2267441  40.8644971  99.3626545  45.8880715  42.3298239
  92.1237370  48.8166459  34.6059373  92.9158662  48.4757284  34.1905672
  92.3634021  48.9261434  35.5261526 100.1572497  50.9886235  27.0789617
  99.5060477  51.5740316  26.6923631 100.9516860  51.5192430  27.1384655
  94.0828124  48.0775372  27.4776752  94.8559000  47.5304359  27.3389628
  94.4353523  48.9419622  27.6891213  95.9213167  49.4051755  40.6843651
  95.6303033  50.3097386  40.5690317  96.5570151  49.4468282  41.3987721
  96.8469374  46.7828603  37.2745011  97.4432946  46.5584626  36.5601974
  96.9044345  46.0413349  37.8770459  96.4194402  44.2368039  25.1095202
  96.6719923  43.7149560  24.3478665  95.4818961  44.0734184  25.2121885
 101.4637685  43.2403817  32.9169945 102.2500774  42.8223240  32.5660362
 101.7276389  44.1449909  33.0851593 101.6347762  48.6776667  27.6158602
 100.9993595  48.7511294  28.3279506 101.3045169  49.2670266  26.9377681
 106.8646112  43.1779050  33.8202923 107.5971284  42.6078267  34.0540753
 106.1085468  42.7900651  34.2609429  96.1390691  46.1396144  27.3119577
  96.0226949  45.4641048  27.9800661  96.2492951  45.6528518  26.4951730
  98.4822232  45.6006292  31.0166266  98.1180439  45.0736913  31.7279187
  99.3389348  45.2104761  30.8432751 104.3871532  36.8900624  38.2797532
 104.0554857  37.7596035  38.0558747 103.7917146  36.5736908  38.9591562
  98.1227719  40.6296191  26.0127614  98.2902121  41.4976428  26.3798085
  97.9324888  40.7923473  25.0888904 100.8803052  49.0913170  37.6793445
 100.5803775  49.9938209  37.5709252 100.5354112  48.8245353  38.5314598
  94.3315533  45.5426967  33.7130149  93.4066030  45.4103181  33.9207841
  94.5799947  46.3221186  34.2100092 104.2800196  41.6095710  35.3590882
 103.3717073  41.5411119  35.0649643 104.2287792  42.0867655  36.1872708
  98.1016940  43.0853849  26.9974281  97.9816565  43.5310900  27.8359762
  97.4069528  43.4339166  26.4387819  95.8623832  55.8557491  30.6464413
  95.7847862  56.8065316  30.7252893  95.2585475  55.5103363  31.3039339
 106.1461842  39.8112149  37.1368756 105.5036222  40.1044682  36.4908551
 105.6416771  39.6965069  37.9421953 103.8002006  43.5575322  27.8254615
 104.7119862  43.7902709  27.6502313 103.2911653  44.1412366  27.2629694
  96.6087434  45.8370809  42.8643746  97.3502118  46.3755853  42.5878570
  95.9024419  46.4637098  43.0215298 102.0842774  47.9799950  41.4615908
 102.4926130  47.5382360  40.7170540 101.3620035  47.4052577  41.7150101
 102.4071588  48.5401140  35.2168197 101.7780451  48.7046855  34.5144265
 102.0197250  48.9542750  35.9879161 106.2860820  49.4755578  32.5712561
 105.6011858  49.8554480  32.0209594 106.3704669  50.0850905  33.3044508
 103.5411752  47.1215537  39.1707904 103.7528647  47.7647297  38.4942285
 103.4941500  46.2877854  38.7029834  97.9599550  48.2775549  32.4818282
  98.4237896  48.5563251  31.6922904  97.6956348  47.3758993  32.2991373
  94.8523631  47.8247030  35.4198045  95.4224988  48.2534298  34.7815530
  95.4431743  47.5429615  36.1182231  96.8968436  44.3998701  29.2907847
  97.5992479  44.8519745  29.7581773  96.5649065  43.7582520  29.9187740
 104.6557580  49.9987493  37.3430261 105.4775023  49.5967680  37.0612943
 104.6519982  49.8955727  38.2946377  98.4214183  49.5471536  39.4990972
  98.4858616  50.0091943  40.3349144  97.7125107  48.9168901  39.6273282
 112.7463573  46.3426241  33.6915233 111.9927281  45.7733639  33.5359237
 112.8811114  46.3088906  34.6385868  98.1362201  51.2139643  29.3669952
  98.0007876  52.0591179  29.7954800  98.6772013  51.4158921  28.6035886
  91.5891598  48.7315082  29.9397877  92.1016119  49.5258332  30.0903442
  92.2414311  48.0341372  29.8731479  93.3986483  51.8480838  32.0220630
  93.5753111  52.7698803  31.8341614  94.1943316  51.5339257  32.4515010
  99.7630677  51.8363210  43.4970294  99.3194531  51.0499589  43.1791199
 100.4247891  52.0242361  42.8314185  94.5217798  53.3659012  38.0230973
  95.0725223  53.2376075  37.2507967  93.6829274  53.6653901  37.6725866
 101.8611915  52.1166010  41.5251696 101.8430391  52.9374891  41.0331965
 102.7831835  51.9920085  41.7501837  98.3184969  49.6310139  42.3675204
  98.8513306  48.8698428  42.1374512  97.7899050  49.3383791  43.1099358
  89.5540515  47.0603736  30.7157448  90.3915737  47.4700744  30.4991156
  89.7318783  46.1203178  30.6857642 101.4504947  44.7278816  26.4041281
 100.9351570  45.4983421  26.6429668 101.1782255  44.0543953  27.0274342
  99.0352058  39.5728517  31.4626519  98.1793654  39.1835368  31.2832158
  99.4479010  39.6520478  30.6026305 106.4239221  47.4811171  28.3394454
 105.6468664  47.1422331  27.8949616 107.1030702  47.4863794  27.6649419
 101.2391250  42.6005909  28.2301062 100.9341386  42.9152058  29.0811205
 102.1921692  42.6787328  28.2728395  99.6837682  48.7596132  29.8794016
  99.1559044  48.0248891  29.5667253  99.1825185  49.5370808  29.6333984
 104.6630528  46.9545152  34.9961062 104.0054202  47.6444414  35.0841191
 105.4670927  47.3441584  35.3395049 103.4735987  45.3089525  33.0465004
 103.9867869  45.9419517  33.5486714 104.1237211  44.7090721  32.6808364
  94.7425997  41.4520259  26.2596513  93.9063309  41.7894946  26.5805787
  94.6030766  41.3169239  25.3223650  97.8290282  46.5776342  22.8828989
  96.9217344  46.3465596  23.0820138  98.3261314  45.7813961  23.0702971
 100.7358361  55.2873849  25.8025675 100.0620060  55.5905546  26.4110633
 101.1224183  56.0902930  25.4531132  99.9516818  42.7838981  35.2923345
  99.0339379  43.0053928  35.1345033 100.3676961  42.8585291  34.4335052
 100.7351865  44.1830396  30.4226025 101.4823684  44.6951794  30.1133147
 101.0043455  43.8614449  31.2830418  99.0078516  46.6788937  27.4052979
  98.0989735  46.3947970  27.5025449  99.0373599  47.0988016  26.5456286
 104.2397783  50.2895527  31.1744147 103.7860110  49.4486436  31.2309337
 103.6091750  50.9256925  31.5118927 103.1830703  41.2187513  32.4044814
 102.4453459  40.7064899  32.7355057 103.4357476  40.7787894  31.5928091
 102.6830722  52.1272023  32.1093965 102.9753697  52.6877080  31.3906330
 103.1929343  52.4200584  32.8647124 103.2842330  33.9963765  32.9986583
 103.5901207  33.1361128  32.7112498 104.0094935  34.5881385  32.7985577
  97.5563410  44.2917558  33.5062774  97.6112019  43.3391394  33.4305251
  96.7454612  44.4476997  33.9904073  98.7054603  48.2197681  24.7441058
  98.2674033  47.5033540  24.2846695  99.4465044  48.4473796  24.1826149
  95.4955770  42.9094617  31.2653153  94.6823635  43.2088788  31.6718345
  95.9914764  42.5150306  31.9827636  97.6464347  52.9052374  33.1987418
  97.6040526  53.1313221  32.2695950  98.5627046  52.6715749  33.3473219
 101.0929981  43.3736442  40.0968047 101.4479369  43.6007915  40.9562513
 101.7402113  43.7054819  39.4745303 106.8227718  46.4954878  30.8017376
 106.6845617  46.6856474  29.8738565 106.4663937  47.2574261  31.2585427
 106.8497098  48.5631405  35.8128648 107.2833605  48.4706694  36.6611702
 107.5628679  48.5388905  35.1748664  95.7630148  49.7815403  32.9949381
  96.5570747  49.2865723  32.7931956  95.0521841  49.2533266  32.6317086
 100.5824993  52.1633499  37.3461748 100.6362015  52.7324435  38.1139464
  99.7139774  52.3335384  36.9815785  92.0712912  43.9258485  29.0709133
  91.1410500  43.8642941  29.2879096  92.1670384  43.4034438  28.2745775
 107.7112647  48.6055105  38.3461533 107.9048537  49.5100916  38.5920808
 107.6113266  48.1462524  39.1800118 102.7727756  48.7561848  43.9202414
 102.6213262  48.5272400  43.0032497 102.7632436  49.7132450  43.9333759
  99.5413092  46.3293761  38.9048680 100.4705152  46.4804920  38.7317648
  99.1204123  46.4177782  38.0497327  98.3401424  50.3544425  36.6747218
  98.2012510  49.9863210  37.5473156  97.5516020  50.8692065  36.5031176
  98.9349576  55.4553522  28.0172754  99.1101332  54.9841565  28.8318377
  98.2482364  56.0819288  28.2454015  99.8906639  49.7326028  34.0636056
  99.5556472  49.6926798  34.9593705  99.3910585  49.0670744  33.5906466
 102.8265831  47.0782062  24.3373115 102.2095002  46.3528891  24.2406168
 102.3582320  47.8391423  23.9940190 104.4819963  51.7880971  41.9978896
 104.4232509  51.1040191  41.3309479 104.8839481  52.5299961  41.5459522
  93.5010662  58.6042885  34.7912615  93.7407260  59.2361409  35.4691633
  92.6579858  58.2530925  35.0777974  94.6164377  41.2967487  23.4594420
  93.7393843  41.1756287  23.0956666  95.0922130  40.5053565  23.2073308
 104.4837370  49.7520555  40.2292875 103.5964149  49.4146476  40.3519274
 105.0535921  49.0203586  40.4661641  98.0138523  54.4122007  37.1954119
  97.9408695  55.2176978  37.7073423  97.5715916  54.6113973  36.3702140
  97.8028303  53.6493777  30.7056940  97.0195825  54.1915457  30.7995165
  98.5021048  54.1667757  31.1051181 101.1124953  39.4588406  33.3491145
 101.6093653  38.7058369  33.0292216 100.3411935  39.4952723  32.7834355
 108.9654711  45.1628772  34.9909437 108.9544587  46.0453487  34.6203370
 108.0972090  44.8100323  34.7963974 100.4737207  54.3108841  39.3512277
 101.1865179  54.9456306  39.2788179  99.9827236  54.4072707  38.5352279
 102.1954734  48.2160094  30.9229569 101.2611013  48.3361556  30.7534273
 102.3731402  47.3132560  30.6589579  97.6959922  41.6005789  33.0762830
  97.3257709  41.0476830  33.7643736  98.1919014  40.9963923  32.5237830
 105.5827285  44.0577413  31.4579603 106.0487737  44.8905405  31.3839906
 106.0334786  43.5922395  32.1624861  95.5249120  52.0603284  40.1717848
  96.2258580  52.6939767  40.3247242  95.0544235  52.4018016  39.4113487
 103.6503516  50.4021234  28.4565755 103.9263360  50.2877829  29.3659629
 102.7808015  50.0038719  28.4177928 103.5543948  36.4258000  35.4970504
 102.6407028  36.6562227  35.6652711 103.9837049  36.5096444  36.3484537
 103.3250406  44.6147892  37.9970398 102.6721857  44.8623799  37.3422851
 103.7030786  43.8012030  37.6632876 100.2857580  54.6507585  32.0998569
 100.4679975  53.8329241  32.5626321 101.1090566  54.8675277  31.6623459
 100.6199746  53.5775770  29.3613617 101.1487512  53.0668225  28.7483779
 100.8827965  53.2618300  30.2259150  99.3737979  45.3567703  44.4836435
  98.6978616  45.2561832  45.1538811 100.1965613  45.2006917  44.9472433
  91.1216839  51.5939640  37.1048951  91.7070275  50.8483327  37.2376855
  90.9241677  51.9043596  37.9885615  93.9755494  54.6290887  32.1211393
  93.3065869  55.1137015  31.6375433  93.8368363  54.8760107  33.0354772
  98.1160762  56.6634630  38.7194051  98.6679070  56.8266252  39.4843137
  98.4566956  57.2539068  38.0474076 102.9671637  51.4895888  44.5742706
 103.5111541  52.1025846  44.0797661 102.3858481  52.0475466  45.0909719
 101.2529150  54.6116606  35.7057734 101.1280289  53.8106346  35.1968679
 101.9108241  55.1062799  35.2171704 103.3164058  52.4125626  37.3337284
 102.3694394  52.2930977  37.2615610 103.6646831  51.5248124  37.4163545
 100.3210491  52.2078342  33.5341636 100.1735454  51.2795050  33.7149206
 101.1463985  52.2298433  33.0498711  94.1872736  40.8596409  29.3922128
  94.5268808  41.3882331  28.6700736  94.6344856  41.1976815  30.1680695
 103.9244613  53.0306901  34.6206509 104.8491161  52.8249762  34.4830960
 103.7559916  52.7823302  35.5295850  96.1740883  39.3571031  27.5915421
  96.8949245  39.7352284  27.0879138  95.5506187  40.0759908  27.6950399
 100.3172006  40.0616180  28.5273753 100.5335620  40.9440818  28.2262581
  99.8366073  39.6702393  27.7979395 103.7139929  53.5492568  29.9768600
 103.8876807  52.9838991  29.2242453 104.2068821  54.3493463  29.7948090
 109.5679320  46.3128991  31.5958900 110.0110467  45.5636317  31.1978023
 108.6905831  46.3039128  31.2132632 104.7015102  52.8659333  27.0765498
 105.3966006  53.4866026  27.2952813 105.0438252  52.0154684  27.3517876
 106.6006525  50.3159038  28.6052829 107.1257849  50.6546311  27.8802149
 106.5128877  49.3806054  28.4215964  98.2626574  54.2293112  40.7342706
  98.5713700  53.9842259  41.6065405  99.0602056  54.4339750  40.2461576
  98.2847186  56.3831022  32.9648082  97.8452176  55.8907400  33.6580939
  99.0355303  55.8403989  32.7240158  90.7639525  52.5742563  32.9672710
  91.5897545  52.2746334  32.5871354  90.4133577  51.8050185  33.4162499
  95.7321058  51.9269031  35.0370384  95.1101067  51.2639736  34.7372612
  96.4025925  51.9530163  34.3544032  88.9648130  50.4928889  33.9261644
  88.1280038  50.0651063  33.7445645  88.9371775  50.6861332  34.8632435
 106.2900431  50.9491942  43.9104027 105.4995975  50.9316081  43.3708527
 106.0533786  51.4880236  44.6653064 106.4098306  47.7984408  41.2236756
 106.4596311  47.6334416  42.1652278 106.3012229  46.9311667  40.8334636
  95.2934565  50.4772954  28.5128845  95.4422685  51.1608418  27.8595517
  96.1001008  50.4578044  29.0278300 103.7002068  43.7815336  42.5396062
 104.6011931  43.6421801  42.2480060 103.7750043  43.9469791  43.4794240
 107.9116503  50.2181350  41.4678777 107.6201311  50.5811330  42.3042238
 107.2988634  49.5048358  41.2892109 109.1112185  47.7834230  33.9881347
 109.9459077  48.2224034  34.1518908 109.2471314  47.3072883  33.1689593
 106.1603691  45.3413965  39.9358835 106.6357813  45.5341611  39.1277687
 105.2369256  45.3973150  39.6902219  93.0487198  46.5038132  29.5189913
  92.8033240  45.6000462  29.7170124  93.2183112  46.5055282  28.5769391
  92.3182845  42.2366489  27.0176075  91.6252090  42.3110844  26.3616111
  92.0734597  41.4726833  27.5397592  98.7929970  52.9721085  25.9840592
  98.2203937  53.5911272  25.5311064  99.3662764  53.5220446  26.5180514
 104.8605360  42.2179725  38.1687141 105.8122783  42.3177822  38.1899365
 104.6908811  41.4257993  38.6785225 102.0127230  53.2558235  27.1149174
 102.9457903  53.1903796  27.3182050 101.9250443  54.0914502  26.6563707
 104.6415247  52.5724105  24.0753122 104.5628878  52.2383969  24.9688880
 105.4624914  53.0645873  24.0744594 107.3393438  45.4385844  37.2829440
 107.3069758  44.5001845  37.4689124 107.9494062  45.5169881  36.5495265
  99.1776769  44.3081897  23.3256644 100.1235873  44.1788105  23.3945062
  98.7991014  43.5696559  23.8026073 107.4887926  42.2296888  37.3287724
 106.9726975  41.4455344  37.1417652 108.3727875  41.9015604  37.4934243
 105.1498653  35.9737903  33.2883536 104.9523474  35.6652991  34.1726868
 105.7598359  36.6999542  33.4181466 113.1569988  46.5001851  36.4235477
 113.8873376  46.2387139  36.9843181 112.5476933  45.7630573  36.4637545
 111.2385285  44.6409714  37.0209928 110.5118448  44.5065679  36.4126420
 110.8232572  44.9486542  37.8266646  99.0615461  48.3599643  44.7857301
  99.9818471  48.5378242  44.9797348  99.0265044  47.4155689  44.6337001
  97.3619686  42.2331874  23.2611530  96.4551141  41.9364986  23.3374243
  97.6395667  41.9361692  22.3945816 100.9072300  35.8546810  31.0380068
 101.4603339  36.2742264  31.6970091 101.1442386  34.9282558  31.0803024
  96.1318471  39.0918809  23.4023509  96.9937635  39.4173707  23.6619326
  96.3168815  38.3050305  22.8896575 104.2851107  37.9647335  30.5458732
 103.7049776  38.6232139  30.1636784 104.0187040  37.1424680  30.1346149
 102.7354673  37.3652393  32.7480052 103.2354452  37.4768928  31.9394371
 103.3790281  37.0613446  33.3880861  96.7936669  45.2731023  45.6347893
  96.3103751  46.0731383  45.8411782  96.8797608  45.2838968  44.6815337
  90.0622629  47.1059402  33.5569713  90.0393317  47.2047090  32.6051596
  90.3723265  47.9524553  33.8786879  92.7210007  49.1635557  37.6716327
  93.6753260  49.1319500  37.6046259  92.5222530  48.7026181  38.4866553
 103.0675985  40.1247426  29.6015080 102.1801840  40.4097076  29.3835275
 103.4829974  39.9641189  28.7542357 106.4190521  40.1493947  33.3169419
 107.1950911  40.6390399  33.5894036 105.6938655  40.5752001  33.7741289
 108.8563080  40.8621566  34.3743360 109.4507571  40.6217302  33.6636668
 108.9289664  40.1428697  35.0016896  91.0760235  54.7055177  34.6886525
  90.9414703  53.9455578  34.1224523  90.6592298  55.4296077  34.2215314
 102.2119199  49.8892100  23.6963100 102.9155049  50.0942103  24.3120756
 101.4881847  50.4568862  23.9612184 103.0417009  45.6401962  29.8165370
 102.9852210  46.0970513  28.9773003 103.5945351  44.8792646  29.6388213
 106.8521815  41.4291694  30.6415490 106.5958749  41.0288329  31.4723697
 106.2274683  42.1435487  30.5165629 111.1634153  44.1687767  33.1486781
 110.6033711  44.2380956  33.9218343 110.5577656  43.9928751  32.4286277
  94.2329361  55.6024494  34.9004967  94.1161746  56.5469926  34.7983658
  93.4121808  55.2998055  35.2890767 104.1205896  50.3274630  25.7461560
 104.9551500  49.8955828  25.5639035 103.9590239  50.1556643  26.6738455
 103.7751788  46.8306743  27.1117899 103.7200592  46.6651014  26.1706344
 103.1497843  47.5382776  27.2680089 101.0897695  49.1355655  46.4371462
 101.9588855  49.3096307  46.0758097 100.6104447  49.9550072  46.3147192
  97.0847914  36.3314852  26.6903218  97.0726583  37.2756692  26.8471489
  97.9771335  36.1484997  26.3962679  95.2583875  56.2552756  38.1160896
  96.1611122  56.2876366  38.4327391  95.0321246  55.3253207  38.1307232
  97.0137478  55.0083742  34.7770975  96.0633109  55.0085604  34.6635347
  97.3169964  54.2616477  34.2607009 100.9000033  32.9257629  30.9449155
 100.1332429  32.3716115  31.0905837 101.3110738  32.9979497  31.8063306
 112.7490171  60.8444281  35.8416737 113.3868581  60.7251028  35.1380077
 112.6311014  61.7925125  35.9004689 109.5579877  60.7971709  35.7778262
 109.2198389  60.6812774  34.8898796 110.4269645  60.3962874  35.7579268
 105.4166693  62.6507185  31.7675153 104.8531558  62.5597122  30.9991440
 105.3019088  61.8307090  32.2477645 110.0399660  61.9506561  41.7364467
 110.0288301  61.5559359  40.8644971 110.2020300  61.2172633  42.3298239
 102.9631125  64.1458377  34.6059373 103.7552417  63.8049201  34.1905672
 103.2027775  64.2553352  35.5261526 110.9966252  66.3178153  27.0789617
 110.3454231  66.9032233  26.6923631 111.7910615  66.8484348  27.1384655
 104.9221879  63.4067290  27.4776752 105.6952755  62.8596277  27.3389628
 105.2747278  64.2711539  27.6891213 106.7606921  64.7343672  40.6843651
 106.4696787  65.6389303  40.5690317 107.3963906  64.7760200  41.3987721
 107.6863128  62.1120521  37.2745011 108.2826701  61.8876543  36.5601974
 107.7438100  61.3705266  37.8770459 107.2588157  59.5659956  25.1095202
 107.5113677  59.0441477  24.3478665 106.3212716  59.4026102  25.2121885
 112.3031439  58.5695735  32.9169945 113.0894529  58.1515158  32.5660362
 112.5670144  59.4741827  33.0851593 112.4741517  64.0068585  27.6158602
 111.8387350  64.0803211  28.3279506 112.1438923  64.5962184  26.9377681
 117.7039867  58.5070968  33.8202923 118.4365039  57.9370185  34.0540753
 116.9479222  58.1192568  34.2609429 106.9784445  61.4688062  27.3119577
 106.8620704  60.7932966  27.9800661 107.0886705  60.9820436  26.4951730
 109.3215986  60.9298209  31.0166266 108.9574194  60.4028830  31.7279187
 110.1783102  60.5396678  30.8432751 115.2265287  52.2192542  38.2797532
 114.8948612  53.0887953  38.0558747 114.6310900  51.9028826  38.9591562
 108.9621473  55.9588109  26.0127614 109.1295876  56.8268345  26.3798085
 108.7718642  56.1215391  25.0888904 111.7196806  64.4205088  37.6793445
 111.4197530  65.3230127  37.5709252 111.3747866  64.1537271  38.5314598
 105.1709288  60.8718885  33.7130149 104.2459784  60.7395099  33.9207841
 105.4193701  61.6513104  34.2100092 115.1193950  56.9387628  35.3590882
 114.2110828  56.8703036  35.0649643 115.0681546  57.4159573  36.1872708
 108.9410694  58.4145766  26.9974281 108.8210319  58.8602817  27.8359762
 108.2463283  58.7631084  26.4387819 102.5318099  60.5152158  34.5473938
 102.6610480  60.7686637  35.4613350 101.8515550  61.1079866  34.2278593
 106.7017586  71.1849408  30.6464413 106.6241616  72.1357233  30.7252893
 106.0979230  70.8395281  31.3039339 109.1934816  58.3577274  43.3025779
 108.4168150  58.9171194  43.2928644 109.8325379  58.8434057  43.8240650
 116.9855597  55.1404066  37.1368756 116.3429977  55.4336600  36.4908551
 116.4810525  55.0256987  37.9421953 114.6395760  58.8867240  27.8254615
 115.5513616  59.1194626  27.6502313 114.1305407  59.4704284  27.2629694
 107.4481188  61.1662727  42.8643746 108.1895873  61.7047771  42.5878570
 106.7418174  61.7929016  43.0215298 112.9236528  63.3091867  41.4615908
 113.3319884  62.8674278  40.7170540 112.2013790  62.7344495  41.7150101
 109.2767598  58.2464474  38.8349465 110.1228793  58.6703888  38.9784114
 109.2166236  57.5898099  39.5288028 113.2465343  63.8693058  35.2168197
 112.6174205  64.0338772  34.5144265 112.8591005  64.2834668  35.9879161
 117.1254575  64.8047496  32.5712561 116.4405613  65.1846397  32.0209594
 117.2098424  65.4142823  33.3044508 112.4267043  55.9068843  40.4930638
 112.1827975  56.6610903  39.9564914 112.7026974  56.2854190  41.3277886
 114.3805506  62.4507455  39.1707904 114.5922401  63.0939215  38.4942285
 114.3335254  61.6169772  38.7029834 111.9831735  55.0625276  36.0744476
 111.1216214  55.3606529  36.3661214 112.0094170  55.2795675  35.1425509
 108.7993305  63.6067466  32.4818282 109.2631650  63.8855169  31.6922904
 108.5350103  62.7050911  32.2991373 105.6917386  63.1538948  35.4198045
 106.2618743  63.5826216  34.7815530 106.2825497  62.8721532  36.1182231
 107.7362191  59.7290619  29.2907847 108.4386234  60.1811662  29.7581773
 107.4042819  59.0874437  29.9187740 106.1842552  58.3202375  43.6659056
 105.5541213  59.0018656  43.8994453 106.0778640  58.2085457  42.7212195
 101.4787525  57.9874171  34.5924981 100.6886579  58.2431700  34.1165091
 101.9698772  58.8022509  34.6977021 115.4951334  65.3279410  37.3430261
 116.3168778  64.9259598  37.0612943 115.4913737  65.2247645  38.2946377
 103.4302270  58.3518750  31.5508457 102.6333433  58.4637445  32.0691953
 103.2027862  58.6905403  30.6849348 109.2607938  64.8763454  39.4990972
 109.3252370  65.3383861  40.3349144 108.5518861  64.2460819  39.6273282
  99.7625228  58.2404662  37.0239971 100.0133266  59.1251672  37.2897547
 100.2984776  58.0609263  36.2515063 108.9755955  66.5431561  29.3669952
 108.8401630  67.3883097  29.7954800 109.5165768  66.7450839  28.6035886
 105.4623295  52.6223141  46.0284307 105.0690240  52.0689340  46.7031952
 106.2789435  52.9333719  46.4190825 102.4285353  64.0606999  29.9397877
 102.9409873  64.8550249  30.0903442 103.0808065  63.3633290  29.8731479
 104.2380237  67.1772755  32.0220630 104.4146866  68.0990720  31.8341614
 105.0337071  66.8631175  32.4515010 108.3791256  54.0381020  43.6204564
 109.1200969  54.6388173  43.5409026 108.6109179  53.2958658  43.0622607
 103.5232594  59.2237387  41.8982794 103.4086109  58.3222645  42.1989893
 102.6677112  59.4701084  41.5467610 110.6024432  67.1655128  43.4970294
 110.1588286  66.3791506  43.1791199 111.2641645  67.3534278  42.8314185
 105.3611553  68.6950929  38.0230973 105.9118978  68.5667993  37.2507967
 104.5223029  68.9945818  37.6725866 112.7005670  67.4457928  41.5251696
 112.6824145  68.2666809  41.0331965 113.6225590  67.3212003  41.7501837
 109.1578724  64.9602057  42.3675204 109.6907061  64.1990345  42.1374512
 108.6292805  64.6675709  43.1099358 112.3248419  50.0662123  37.8968846
 111.9812688  50.9563765  37.8207956 112.6927381  49.8763781  37.0338431
 100.3934269  62.3895654  30.7157448 101.2309491  62.7992662  30.4991156
 100.5712537  61.4495096  30.6857642 112.2898702  60.0570734  26.4041281
 111.7745325  60.8275339  26.6429668 112.0176010  59.3835870  27.0274342
 109.8745813  54.9020435  31.4626519 109.0187409  54.5127285  31.2832158
 110.2872764  54.9812396  30.6026305 111.4044959  52.4366778  35.8618079
 110.9009755  52.3996913  35.0485884 111.6975566  53.3459521  35.9214736
 107.6487845  52.5205508  34.8684261 108.5140842  52.3248317  34.5090150
 107.7165354  52.2915860  35.7953617 117.2632976  62.8103089  28.3394454
 116.4862418  62.4714248  27.8949616 117.9424457  62.8155712  27.6649419
 112.0785005  57.9297826  28.2301062 111.7735140  58.2443975  29.0811205
 113.0315447  58.0079246  28.2728395 110.5231437  64.0888050  29.8794016
 109.9952798  63.3540809  29.5667253 110.0218939  64.8662726  29.6333984
 115.5024283  62.2837070  34.9961062 114.8447957  62.9736331  35.0841191
 116.3064682  62.6733502  35.3395049 105.2550164  54.7507716  32.2400627
 105.8293916  54.5282897  31.5073820 105.8421147  54.8196410  32.9929229
 114.3129741  60.6381443  33.0465004 114.8261623  61.2711435  33.5486714
 114.9630965  60.0382638  32.6808364 105.5819751  56.7812177  26.2596513
 104.7457063  57.1186863  26.5805787 105.4424521  56.6461157  25.3223650
 107.5572832  51.6248965  30.9675697 106.9037244  51.3097982  30.3432312
 107.5153306  51.0024705  31.6935520 108.6684037  61.9068260  22.8828989
 107.7611098  61.6757513  23.0820138 109.1655069  61.1105879  23.0702971
 111.5752116  70.6165767  25.8025675 110.9013814  70.9197464  26.4110633
 111.9617938  71.4194847  25.4531132 110.7910572  58.1130898  35.2923345
 109.8733134  58.3345845  35.1345033 111.2070716  58.1877209  34.4335052
 111.5745620  59.5122314  30.4226025 112.3217439  60.0243711  30.1133147
 111.8437210  59.1906367  31.2830418 109.8472270  62.0080855  27.4052979
 108.9383489  61.7239888  27.5025449 109.8767354  62.4279933  26.5456286
 115.0791538  65.6187444  31.1744147 114.6253865  64.7778354  31.2309337
 114.4485504  66.2548843  31.5118927 114.0224457  56.5479430  32.4044814
 113.2847214  56.0356816  32.7355057 114.2751231  56.1079812  31.5928091
 113.5224477  67.4563941  32.1093965 113.8147451  68.0168998  31.3906330
 114.0323097  67.7492502  32.8647124 114.1236084  49.3255682  32.9986583
 114.4294961  48.4653046  32.7112498 114.8488689  49.9173302  32.7985577
 100.4160441  59.7286369  31.3868181 100.2184840  59.1355730  30.6619248
  99.8607105  59.4238579  32.1044120 108.3957164  59.6209475  33.5062774
 108.4505774  58.6683312  33.4305251 107.5848366  59.7768914  33.9904073
 109.5448358  63.5489598  24.7441058 109.1067788  62.8325457  24.2846695
 110.2858799  63.7765713  24.1826149 106.3349524  58.2386535  31.2653153
 105.5217390  58.5380706  31.6718345 106.8308518  57.8442224  31.9827636
 108.4858102  68.2344292  33.1987418 108.4434281  68.4605138  32.2695950
 109.4020801  68.0007667  33.3473219 111.9323736  58.7028360  40.0968047
 112.2873124  58.9299833  40.9562513 112.5795867  59.0346736  39.4745303
 117.6621473  61.8246795  30.8017376 117.5239371  62.0148391  29.8738565
 117.3057692  62.5866178  31.2585427 105.8263599  55.8104891  36.8814388
 106.4662978  55.6693650  36.1837352 104.9941129  55.5239404  36.5052990
 117.6890852  63.8923322  35.8128648 118.1227359  63.7998612  36.6611702
 118.4022433  63.8680823  35.1748664 106.6023903  65.1107321  32.9949381
 107.3964501  64.6157641  32.7931956 105.8915595  64.5825184  32.6317086
 111.4218747  67.4925417  37.3461748 111.4755770  68.0616353  38.1139464
 110.5533529  67.6627302  36.9815785 102.9106666  59.2550403  29.0709133
 101.9804254  59.1934858  29.2879096 103.0064138  58.7326355  28.2745775
 102.8292215  55.7805216  31.6587375 103.0899033  56.6950549  31.5496536
 103.6509388  55.3129658  31.8083988 104.3017141  57.1942973  38.8286200
 104.9740194  56.9860335  38.1798849 103.4746927  56.9965059  38.3891432
 118.5506402  63.9347023  38.3461533 118.7442292  64.8392834  38.5920808
 118.4507020  63.4754442  39.1800118 110.2042713  53.8204914  40.8451860
 109.5570628  54.5194863  40.7516337 110.9743728  54.2541058  41.2128109
 113.6121511  64.0853766  43.9202414 113.4607017  63.8564318  43.0032497
 113.6026190  65.0424367  43.9333759 110.3806847  61.6585679  38.9048680
 111.3098907  61.8096838  38.7317648 109.9597877  61.7469699  38.0497327
 109.1795179  65.6836343  36.6747218 109.0406264  65.3155127  37.5473156
 108.3909775  66.1983982  36.5031176 109.7743331  70.7845439  28.0172754
 109.9495086  70.3133483  28.8318377 109.0876119  71.4111206  28.2454015
 110.7300394  65.0617946  34.0636056 110.3950227  65.0218716  34.9593705
 110.2304340  64.3962662  33.5906466 104.7044638  60.4685576  39.5888637
 104.5664436  59.7365815  40.1900176 105.6149561  60.3794476  39.3072825
 113.6659586  62.4073980  24.3373115 113.0488756  61.6820808  24.2406168
 113.1976074  63.1683340  23.9940190 107.3326939  60.1805535  39.0772316
 108.0426557  59.5398727  39.0358935 107.2896247  60.4318430  39.9998497
 115.3213717  67.1172888  41.9978896 115.2626263  66.4332109  41.3309479
 115.7233236  67.8591878  41.5459522 106.0455873  57.1670753  40.8967956
 105.5093230  56.7161491  41.5489552 105.4572581  57.3016662  40.1538420
 104.3404416  73.9334802  34.7912615 104.5801014  74.5653326  35.4691633
 103.4973612  73.5822842  35.0777974 105.4558131  56.6259404  23.4594420
 104.5787598  56.5048205  23.0956666 105.9315885  55.8345483  23.2073308
 115.3231124  65.0812472  40.2292875 114.4357903  64.7438394  40.3519274
 115.8929676  64.3495504  40.4661641  96.9760272  61.4136564  33.5535927
  97.6631311  61.0998294  32.9656942  96.8208400  62.3177929  33.2803178
 101.7794994  56.3026761  37.9820950 101.6953182  55.6952430  37.2471360
 100.9577700  56.7935779  37.9830447 108.8532278  69.7413925  37.1954119
 108.7802449  70.5468896  37.7073423 108.4109671  69.9405890  36.3702140
 108.6422057  68.9785695  30.7056940 107.8589579  69.5207375  30.7995165
 109.3414803  69.4959674  31.1051181 111.9518708  54.7880324  33.3491145
 112.4487407  54.0350286  33.0292216 111.1805689  54.8244641  32.7834355
 119.8048465  60.4920690  34.9909437 119.7938341  61.3745405  34.6203370
 118.9365844  60.1392241  34.7963974 111.3130961  69.6400759  39.3512277
 112.0258934  70.2748224  39.2788179 110.8220990  69.7364625  38.5352279
 113.0348488  63.5452011  30.9229569 112.1004767  63.6653474  30.7534273
 113.2125157  62.6424478  30.6589579 108.5353676  56.9297707  33.0762830
 108.1651464  56.3768748  33.7643736 109.0312769  56.3255841  32.5237830
 116.4221040  59.3869331  31.4579603 116.8881492  60.2197322  31.3839906
 116.8728540  58.9214312  32.1624861 106.3642875  67.3895202  40.1717848
 107.0652334  68.0231685  40.3247242 105.8937990  67.7309934  39.4113487
 114.4897271  65.7313152  28.4565755 114.7657115  65.6169747  29.3659629
 113.6201770  65.3330637  28.4177928 114.3937702  51.7549918  35.4970504
 113.4800782  51.9854144  35.6652711 114.8230804  51.8388362  36.3484537
 114.1644161  59.9439810  37.9970398 113.5115611  60.1915717  37.3422851
 114.5424541  59.1303948  37.6632876 111.1251335  69.9799503  32.0998569
 111.3073729  69.1621159  32.5626321 111.9484321  70.1967195  31.6623459
 111.4593500  68.9067688  29.3613617 111.9881267  68.3960142  28.7483779
 111.7221720  68.5910218  30.2259150 110.2131734  60.6859621  44.4836435
 109.5372371  60.5853750  45.1538811 111.0359368  60.5298834  44.9472433
 101.9610593  66.9231557  37.1048951 102.5464030  66.1775245  37.2376855
 101.7635431  67.2335514  37.9885615 104.8149248  69.9582805  32.1211393
 104.1459623  70.4428932  31.6375433 104.6762118  70.2052025  33.0354772
  96.5528248  59.4937157  35.8253394  96.5912347  58.9600748  36.6190512
  96.0468541  58.9672363  35.2064371 108.9554517  71.9926548  38.7194051
 109.5072825  72.1558170  39.4843137 109.2960710  72.5830986  38.0474076
 103.9319010  54.3401698  39.3215936 103.9960337  55.2016529  38.9093334
 103.8686130  53.7275700  38.5888295 103.4071283  56.4124830  42.9688970
 104.0343321  56.0301908  43.5826495 102.5499201  56.1939032  43.3344663
 113.8065391  66.8187806  44.5742706 114.3505295  67.4317764  44.0797661
 113.2252236  67.3767384  45.0909719 100.1836825  58.2201260  28.9007325
 100.4790266  57.3111938  28.8474379  99.2824861  58.1988999  28.5788328
 112.0922904  69.9408524  35.7057734 111.9674044  69.1398263  35.1968679
 112.7501995  70.4354717  35.2171704 103.7131072  56.2957256  34.8834874
 102.9917658  56.9093224  34.7442347 104.5024328  56.8315021  34.8051520
 114.1557812  67.7417544  37.3337284 113.2088148  67.6222895  37.2615610
 114.5040586  66.8540042  37.4163545 106.5157386  53.6311683  41.1575526
 107.0391788  53.8773979  41.9201835 106.2969719  54.4631717  40.7378663
 101.9124667  55.9015357  29.0246650 101.5837373  55.0212736  28.8421756
 102.2664038  55.8463026  29.9123040 111.1604246  67.5370260  33.5341636
 111.0129208  66.6086967  33.7149206 111.9857739  67.5590351  33.0498711
 105.0266490  56.1888327  29.3922128 105.3662563  56.7174248  28.6700736
 105.4738611  56.5268733  30.1680695 114.7638368  68.3598819  34.6206509
 115.6884915  68.1541680  34.4830960 114.5953671  68.1115220  35.5295850
 107.7209931  54.5725378  38.8425196 107.3806751  53.7733191  39.2445876
 107.0148937  54.8727089  38.2702029 108.3726403  51.6574690  37.2952519
 109.1952472  51.1835168  37.1731409 108.6164466  52.4365174  37.7951205
 107.0134637  54.6862949  27.5915421 107.7343000  55.0644201  27.0879138
 106.3899941  55.4051825  27.6950399 111.1565760  55.3908098  28.5273753
 111.3729374  56.2732735  28.2262581 110.6759827  54.9994311  27.7979395
 105.8964981  58.3493811  35.1044498 105.7509562  58.6634114  35.9968779
 105.4190185  58.9678711  34.5515396 107.7561364  55.3396359  35.1525387
 107.7422933  54.4437452  34.8157685 108.4733792  55.3467023  35.7863673
 109.6087495  55.7733699  37.1978515 109.3505273  56.6950770  37.1962845
 109.0772535  55.3764134  37.8878979 114.5533684  68.8784486  29.9768600
 114.7270561  68.3130909  29.2242453 115.0462575  69.6785381  29.7948090
 100.3710644  60.8899155  38.0432159  99.8264112  61.6658963  38.1752433
 101.2489993  61.2369960  37.8851280 107.1598260  54.2210739  30.4212957
 107.2814171  53.2927385  30.6203845 106.8700303  54.2349425  29.5091273
 110.0289451  51.9065650  33.5579677 110.0511147  51.9704983  32.6031657
 110.4457510  51.0670158  33.7520183 120.4073075  61.6420909  31.5958900
 120.8504221  60.8928234  31.1978023 119.5299585  61.6331045  31.2132632
 115.5408856  68.1951251  27.0765498 116.2359761  68.8157943  27.2952813
 115.8832006  67.3446602  27.3517876 101.1576665  60.0169051  40.9362316
 100.4158402  60.1651687  41.5226946 100.8369410  60.2777317  40.0729065
 117.4400279  65.6450956  28.6052829 117.9651604  65.9838229  27.8802149
 117.3522632  64.7097971  28.4215964 109.1020328  69.5585030  40.7342706
 109.4107455  69.3134176  41.6065405 109.8995810  69.7631668  40.2461576
 109.1240940  71.7122939  32.9648082 108.6845930  71.2199318  33.6580939
 109.8749057  71.1695907  32.7240158 101.6033279  67.9034480  32.9672710
 102.4291299  67.6038252  32.5871354 101.2527331  67.1342103  33.4162499
 106.5714812  67.2560948  35.0370384 105.9494822  66.5931653  34.7372612
 107.2419679  67.2822080  34.3544032  99.8041884  65.8220807  33.9261644
  98.9673793  65.3942981  33.7445645  99.7765530  66.0153250  34.8632435
 106.6439340  55.7342736  44.6302890 106.6927495  56.6104859  44.2480660
 107.1861854  55.1920129  44.0574533 117.1294185  66.2783860  43.9104027
 116.3389729  66.2607999  43.3708527 116.8927540  66.8172153  44.6653064
 117.2492061  63.1276326  41.2236756 117.2990065  62.9626334  42.1652278
 117.1405984  62.2603585  40.8334636 106.1328319  65.8064872  28.5128845
 106.2816440  66.4900336  27.8595517 106.9394763  65.7869962  29.0278300
 114.5395823  59.1107254  42.5396062 115.4405686  58.9713719  42.2480060
 114.6143797  59.2761709  43.4794240 108.8738628  56.4874109  41.3849249
 108.0041938  56.7807675  41.1131837 109.1098109  57.0714554  42.1056512
 118.7510257  65.5473268  41.4678777 118.4595066  65.9103248  42.3042238
 118.1382389  64.8340276  41.2892109 119.9505940  63.1126147  33.9881347
 120.7852831  63.5515951  34.1518908 120.0865068  62.6364801  33.1689593
 116.9997446  60.6705882  39.9358835 117.4751567  60.8633529  39.1277687
 116.0763011  60.7265068  39.6902219 103.8880952  61.8330049  29.5189913
 103.6426994  60.9292379  29.7170124 104.0576867  61.8347200  28.5769391
 111.5777662  52.7053726  38.9014669 112.0959606  53.4414753  38.5761158
 111.2232795  53.0117719  39.7361428 103.1576600  57.5658407  27.0176075
 102.4645845  57.6402762  26.3616111 102.9128352  56.8018751  27.5397592
 111.8290256  49.1254008  34.4215566 112.1092010  48.4577197  35.0475992
 112.6140863  49.3183104  33.9090229 109.6323725  68.3013002  25.9840592
 109.0597692  68.9203189  25.5311064 110.2056518  68.8512364  26.5180514
 115.6999115  57.5471642  38.1687141 116.6516538  57.6469740  38.1899365
 115.5302565  56.7549911  38.6785225 113.7213494  54.6327226  38.3546542
 113.1263426  54.9132238  37.6593030 113.4363191  55.1221126  39.1263283
 112.8520985  68.5850152  27.1149174 113.7851658  68.5195714  27.3182050
 112.7644197  69.4206419  26.6563707 115.4809001  67.9016023  24.0753122
 115.4022633  67.5675886  24.9688880 116.3018668  68.3937791  24.0744594
 118.1787192  60.7677762  37.2829440 118.1463513  59.8293763  37.4689124
 118.7887816  60.8461799  36.5495265 110.0170523  59.6373815  23.3256644
 110.9629628  59.5080023  23.3945062 109.6384768  58.8988477  23.8026073
 118.3281681  57.5588805  37.3287724 117.8120730  56.7747262  37.1417652
 119.2121629  57.2307522  37.4934243 115.9892408  51.3029821  33.2883536
 115.7917229  50.9944909  34.1726868 116.5992113  52.0291460  33.4181466
 109.9009216  63.6891561  44.7857301 110.8212225  63.8670160  44.9797348
 109.8658799  62.7447606  44.6337001 108.2013440  57.5623791  23.2611530
 107.2944896  57.2656904  23.3374243 108.4789421  57.2653609  22.3945816
  99.1191381  58.8830155  33.7110576  98.7994165  58.0295463  33.4184950
  98.5724809  59.0978733  34.4668543 102.8971288  61.5992596  37.4280083
 103.1157298  62.5309704  37.4468116 103.3097062  61.2400570  38.2134886
 109.8175506  52.1060681  29.4155771 109.0076234  51.7607766  29.7911017
 110.5059923  51.7968225  30.0043383 111.7466054  51.1838728  31.0380068
 112.2997093  51.6034181  31.6970091 111.9836141  50.2574476  31.0803024
 107.7699154  57.1725802  46.8182832 107.6695881  58.1220158  46.7494923
 107.5520696  56.8444040  45.9458902 106.9712225  54.4210727  23.4023509
 107.8331389  54.7465625  23.6619326 107.1562569  53.6342222  22.8896575
  98.9879641  62.5033066  35.6803698  98.2943112  62.0887019  35.1673652
  99.7352632  62.5453603  35.0837117 115.1244862  53.2939253  30.5458732
 114.5443531  53.9524057  30.1636784 114.8580794  52.4716598  30.1346149
 113.5748428  52.6944311  32.7480052 114.0748206  52.8060845  31.9394371
 114.2184036  52.3905364  33.3880861 107.6330424  60.6022940  45.6347893
 107.1497505  61.4023300  45.8411782 107.7191363  60.6130885  44.6815337
 100.9016383  62.4351320  33.5569713 100.8787071  62.5339007  32.6051596
 101.2117020  63.2816471  33.8786879 103.5603761  64.4927475  37.6716327
 104.5147015  64.4611417  37.6046259 103.3616285  64.0318099  38.4866553
 104.1503143  63.0628591  40.2387125 104.9696032  63.5572670  40.2621962
 104.4239951  62.1460559  40.2104692 113.9069740  55.4539343  29.6015080
 113.0195595  55.7388994  29.3835275 114.3223729  55.2933107  28.7542357
 117.2584276  55.4785864  33.3169419 118.0344666  55.9682317  33.5894036
 116.5332410  55.9043919  33.7741289 119.6956834  56.1913484  34.3743360
 120.2901325  55.9509220  33.6636668 119.7683418  55.4720614  35.0016896
 101.9153990  70.0347095  34.6886525 101.7808458  69.2747495  34.1224523
 101.4986052  70.7587994  34.2215314 113.0512953  65.2184018  23.6963100
 113.7548803  65.4234021  24.3120756 112.3275602  65.7860780  23.9612184
 113.8810763  60.9693879  29.8165370 113.8245965  61.4262431  28.9773003
 114.4339106  60.2084564  29.6388213 117.6915569  56.7583611  30.6415490
 117.4352503  56.3580247  31.4723697 117.0668437  57.4727405  30.5165629
 105.0723116  70.9316412  34.9004967 104.9555500  71.8761844  34.7983658
 104.2515562  70.6289973  35.2890767 114.9599650  65.6566547  25.7461560
 115.7945254  65.2247746  25.5639035 114.7983993  65.4848561  26.6738455
 114.6145543  62.1598661  27.1117899 114.5594346  61.9942932  26.1706344
 113.9891598  62.8674693  27.2680089  99.4038058  57.3966725  40.9379322
 100.0496921  56.8865679  41.4266547  99.1955209  58.1335407  41.5122747
 111.9291450  64.4647572  46.4371462 112.7982609  64.6388225  46.0758097
 111.4498201  65.2841989  46.3147192 107.9241668  51.6606770  26.6903218
 107.9120338  52.6048610  26.8471489 108.8165090  51.4776915  26.3962679
 106.0977630  71.5844673  38.1160896 107.0004877  71.6168284  38.4327391
 105.8715000  70.6545124  38.1307232 107.8531232  70.3375660  34.7770975
 106.9026863  70.3377522  34.6635347 108.1563718  69.5908395  34.2607009
 111.7393787  48.2549546  30.9449155 110.9726183  47.7008033  31.0905837
 112.1504492  48.3271415  31.8063306 103.7435549  54.5434342  45.0354336
 104.6067010  54.1871147  45.2457660 103.1700959  54.2048237  45.7229740
 120.3973632  76.1263627  35.7778262 120.0592143  76.0104691  34.8898796
 121.2663400  75.7254792  35.7579268 116.2560447  77.9799103  31.7675153
 115.6925313  77.8889040  30.9991440 116.1412843  77.1599007  32.2477645
 120.8793415  77.2798478  41.7364467 120.8682056  76.8851276  40.8644971
 121.0414054  76.5464551  42.3298239 113.8024879  79.4750295  34.6059373
 114.5946171  79.1341119  34.1905672 114.0421530  79.5845270  35.5261526
 115.7615633  78.7359208  27.4776752 116.5346509  78.1888195  27.3389628
 116.1141032  79.6003457  27.6891213 117.6000676  80.0635590  40.6843651
 117.3090542  80.9681221  40.5690317 118.2357660  80.1052118  41.3987721
 118.5256883  77.4412439  37.2745011 119.1220455  77.2168461  36.5601974
 118.5831854  76.6997184  37.8770459 118.0981911  74.8951874  25.1095202
 118.3507432  74.3733395  24.3478665 117.1606470  74.7318019  25.2121885
 117.8178200  76.7979980  27.3119577 117.7014458  76.1224883  27.9800661
 117.9280460  76.3112354  26.4951730 120.1609741  76.2590127  31.0166266
 119.7967948  75.7320748  31.7279187 121.0176857  75.8688596  30.8432751
 119.8015228  71.2880027  26.0127614 119.9689630  72.1560263  26.3798085
 119.6112397  71.4507308  25.0888904 116.0103042  76.2010802  33.7130149
 115.0853539  76.0687016  33.9207841 116.2587456  76.9805022  34.2100092
 119.7804449  73.7437684  26.9974281 119.6604074  74.1894735  27.8359762
 119.0857037  74.0923002  26.4387819 113.3711854  75.8444076  34.5473938
 113.5004235  76.0978555  35.4613350 112.6909305  76.4371784  34.2278593
 117.5411341  86.5141326  30.6464413 117.4635370  87.4649151  30.7252893
 116.9372984  86.1687198  31.3039339 120.0328571  73.6869191  43.3025779
 119.2561905  74.2463111  43.2928644 120.6719134  74.1725974  43.8240650
 118.2874943  76.4954645  42.8643746 119.0289627  77.0339689  42.5878570
 117.5811928  77.1220933  43.0215298 120.1161353  73.5756392  38.8349465
 120.9622548  73.9995805  38.9784114 120.0559990  72.9190016  39.5288028
 119.6387059  78.9359384  32.4818282 120.1025405  79.2147087  31.6922904
 119.3743857  78.0342828  32.2991373 116.5311140  78.4830865  35.4198045
 117.1012497  78.9118134  34.7815530 117.1219252  78.2013450  36.1182231
 118.5755945  75.0582536  29.2907847 119.2779988  75.5103580  29.7581773
 118.2436574  74.4166355  29.9187740 117.0236307  73.6494293  43.6659056
 116.3934967  74.3310574  43.8994453 116.9172394  73.5377374  42.7212195
 112.3181279  73.3166089  34.5924981 111.5280333  73.5723617  34.1165091
 112.8092526  74.1314427  34.6977021 114.2696024  73.6810668  31.5508457
 113.4727188  73.7929362  32.0691953 114.0421617  74.0197320  30.6849348
 120.1001692  80.2055371  39.4990972 120.1646125  80.6675779  40.3349144
 119.3912616  79.5752736  39.6273282 110.6018982  73.5696579  37.0239971
 110.8527020  74.4543589  37.2897547 111.1378530  73.3901181  36.2515063
 119.8149710  81.8723479  29.3669952 119.6795384  82.7175015  29.7954800
 120.3559522  82.0742756  28.6035886 116.3017049  67.9515059  46.0284307
 115.9083995  67.3981257  46.7031952 117.1183190  68.2625637  46.4190825
 113.2679107  79.3898917  29.9397877 113.7803628  80.1842167  30.0903442
 113.9201820  78.6925207  29.8731479 115.0773992  82.5064673  32.0220630
 115.2540620  83.4282638  31.8341614 115.8730825  82.1923092  32.4515010
 119.2185010  69.3672938  43.6204564 119.9594724  69.9680091  43.5409026
 119.4502933  68.6250576  43.0622607 114.3626348  74.5529305  41.8982794
 114.2479863  73.6514562  42.1989893 113.5070866  74.7993002  41.5467610
 116.2005307  84.0242847  38.0230973 116.7512732  83.8959910  37.2507967
 115.3616783  84.3237736  37.6725866 119.9972478  80.2893975  42.3675204
 120.5300815  79.5282263  42.1374512 119.4686559  79.9967627  43.1099358
 111.2328024  77.7187571  30.7157448 112.0703246  78.1284580  30.4991156
 111.4106292  76.7787013  30.6857642 120.7139567  70.2312353  31.4626519
 119.8581163  69.8419203  31.2832158 121.1266519  70.3104313  30.6026305
 118.4881600  67.8497426  34.8684261 119.3534596  67.6540234  34.5090150
 118.5559108  67.6207777  35.7953617 121.3625191  79.4179967  29.8794016
 120.8346553  78.6832727  29.5667253 120.8612694  80.1954644  29.6333984
 116.0943919  70.0799634  32.2400627 116.6687671  69.8574815  31.5073820
 116.6814901  70.1488328  32.9929229 116.4213506  72.1104095  26.2596513
 115.5850818  72.4478781  26.5805787 116.2818275  71.9753074  25.3223650
 118.3966586  66.9540882  30.9675697 117.7430999  66.6389900  30.3432312
 118.3547060  66.3316623  31.6935520 119.5077791  77.2360178  22.8828989
 118.6004853  77.0049431  23.0820138 120.0048823  76.4397797  23.0702971
 120.6866025  77.3372772  27.4052979 119.7777244  77.0531805  27.5025449
 120.7161108  77.7571851  26.5456286 111.2554195  75.0578287  31.3868181
 111.0578595  74.4647647  30.6619248 110.7000859  74.7530497  32.1044120
 119.2350919  74.9501393  33.5062774 119.2899528  73.9975229  33.4305251
 118.4242121  75.1060832  33.9904073 120.3842112  78.8781516  24.7441058
 119.9461542  78.1617375  24.2846695 121.1252553  79.1057631  24.1826149
 117.1743279  73.5678453  31.2653153 116.3611144  73.8672623  31.6718345
 117.6702273  73.1734141  31.9827636 119.3251856  83.5636210  33.1987418
 119.2828035  83.7897056  32.2695950 120.2414555  83.3299584  33.3473219
 116.6657353  71.1396808  36.8814388 117.3056733  70.9985567  36.1837352
 115.8334884  70.8531322  36.5052990 117.4417657  80.4399239  32.9949381
 118.2358256  79.9449559  32.7931956 116.7309350  79.9117102  32.6317086
 113.7500421  74.5842320  29.0709133 112.8198009  74.5226776  29.2879096
 113.8457893  74.0618273  28.2745775 113.6685970  71.1097133  31.6587375
 113.9292787  72.0242466  31.5496536 114.4903142  70.6421576  31.8083988
 115.1410895  72.5234890  38.8286200 115.8133949  72.3152253  38.1798849
 114.3140682  72.3256976  38.3891432 120.0188933  81.0128261  36.6747218
 119.8800019  80.6447045  37.5473156 119.2303529  81.5275900  36.5031176
 120.6137085  86.1137357  28.0172754 120.7888841  85.6425400  28.8318377
 119.9269873  86.7403123  28.2454015 121.5694148  80.3909863  34.0636056
 121.2343981  80.3510633  34.9593705 121.0698094  79.7254579  33.5906466
 115.5438392  75.7977493  39.5888637 115.4058190  75.0657732  40.1900176
 116.4543316  75.7086393  39.3072825 118.1720693  75.5097453  39.0772316
 118.8820312  74.8690645  39.0358935 118.1290001  75.7610348  39.9998497
 116.8849627  72.4962671  40.8967956 116.3486984  72.0453409  41.5489552
 116.2966335  72.6308579  40.1538420 115.1798171  89.2626720  34.7912615
 115.4194769  89.8945244  35.4691633 114.3367367  88.9114760  35.0777974
 116.2951886  71.9551322  23.4594420 115.4181352  71.8340123  23.0956666
 116.7709639  71.1637400  23.2073308 107.8154026  76.7428482  33.5535927
 108.5025066  76.4290212  32.9656942 107.6602155  77.6469846  33.2803178
 112.6188748  71.6318678  37.9820950 112.5346937  71.0244348  37.2471360
 111.7971455  72.1227697  37.9830447 119.6926032  85.0705842  37.1954119
 119.6196204  85.8760814  37.7073423 119.2503425  85.2697808  36.3702140
 119.4815812  84.3077612  30.7056940 118.6983334  84.8499293  30.7995165
 120.1808557  84.8251592  31.1051181 119.3747431  72.2589625  33.0762830
 119.0045218  71.7060665  33.7643736 119.8706523  71.6547758  32.5237830
 117.2036629  82.7187120  40.1717848 117.9046089  83.3523603  40.3247242
 116.7331744  83.0601851  39.4113487 112.8004347  82.2523475  37.1048951
 113.3857784  81.5067163  37.2376855 112.6029186  82.5627432  37.9885615
 115.6543003  85.2874722  32.1211393 114.9853378  85.7720850  31.6375433
 115.5155872  85.5343943  33.0354772 107.3922002  74.8229075  35.8253394
 107.4306102  74.2892666  36.6190512 106.8862295  74.2964281  35.2064371
 119.7948271  87.3218466  38.7194051 120.3466579  87.4850087  39.4843137
 120.1354465  87.9122904  38.0474076 114.7712765  69.6693616  39.3215936
 114.8354091  70.5308446  38.9093334 114.7079885  69.0567617  38.5888295
 114.2465037  71.7416748  42.9688970 114.8737076  71.3593825  43.5826495
 113.3892956  71.5230950  43.3344663 111.0230580  73.5493177  28.9007325
 111.3184021  72.6403856  28.8474379 110.1218616  73.5280917  28.5788328
 114.5524827  71.6249174  34.8834874 113.8311413  72.2385142  34.7442347
 115.3418083  72.1606939  34.8051520 117.3551140  68.9603600  41.1575526
 117.8785542  69.2065897  41.9201835 117.1363474  69.7923635  40.7378663
 112.7518421  71.2307275  29.0246650 112.4231128  70.3504654  28.8421756
 113.1057792  71.1754944  29.9123040 115.8660245  71.5180245  29.3922128
 116.2056317  72.0466166  28.6700736 116.3132365  71.8560651  30.1680695
 118.5603685  69.9017295  38.8425196 118.2200506  69.1025108  39.2445876
 117.8542692  70.2019006  38.2702029 119.2120157  66.9866608  37.2952519
 120.0346227  66.5127086  37.1731409 119.4558221  67.7657092  37.7951205
 117.8528392  70.0154866  27.5915421 118.5736754  70.3936119  27.0879138
 117.2293696  70.7343743  27.6950399 116.7358736  73.6785728  35.1044498
 116.5903317  73.9926032  35.9968779 116.2583940  74.2970629  34.5515396
 118.5955119  70.6688276  35.1525387 118.5816688  69.7729370  34.8157685
 119.3127547  70.6758940  35.7863673 120.4481250  71.1025617  37.1978515
 120.1899027  72.0242687  37.1962845 119.9166290  70.7056051  37.8878979
 111.2104398  76.2191073  38.0432159 110.6657866  76.9950881  38.1752433
 112.0883748  76.5661877  37.8851280 117.9992015  69.5502657  30.4212957
 118.1207926  68.6219303  30.6203845 117.7094057  69.5641343  29.5091273
 120.8683205  67.2357567  33.5579677 120.8904902  67.2996900  32.6031657
 121.2851264  66.3962076  33.7520183 111.9970420  75.3460969  40.9362316
 111.2552156  75.4943605  41.5226946 111.6763164  75.6069235  40.0729065
 119.9414083  84.8876947  40.7342706 120.2501209  84.6426094  41.6065405
 120.7389565  85.0923586  40.2461576 119.9634695  87.0414857  32.9648082
 119.5239685  86.5491236  33.6580939 120.7142812  86.4987825  32.7240158
 112.4427034  83.2326398  32.9672710 113.2685054  82.9330170  32.5871354
 112.0921086  82.4634020  33.4162499 117.4108567  82.5852866  35.0370384
 116.7888576  81.9223571  34.7372612 118.0813434  82.6113998  34.3544032
 110.6435639  81.1512724  33.9261644 109.8067547  80.7234899  33.7445645
 110.6159284  81.3445168  34.8632435 117.4833094  71.0634654  44.6302890
 117.5321250  71.9396777  44.2480660 118.0255609  70.5212047  44.0574533
 116.9722074  81.1356789  28.5128845 117.1210194  81.8192254  27.8595517
 117.7788517  81.1161879  29.0278300 119.7132383  71.8166027  41.3849249
 118.8435692  72.1099593  41.1131837 119.9491863  72.4006472  42.1056512
 114.7274707  77.1621967  29.5189913 114.4820749  76.2584297  29.7170124
 114.8970621  77.1639118  28.5769391 113.9970354  72.8950325  27.0176075
 113.3039599  72.9694680  26.3616111 113.7522106  72.1310668  27.5397592
 120.4717479  83.6304920  25.9840592 119.8991446  84.2495107  25.5311064
 121.0450273  84.1804282  26.5180514 119.0407195  72.8915709  23.2611530
 118.1338650  72.5948822  23.3374243 119.3183176  72.5945527  22.3945816
 109.9585135  74.2122072  33.7110576 109.6387920  73.3587381  33.4184950
 109.4118563  74.4270651  34.4668543 113.7365043  76.9284513  37.4280083
 113.9551053  77.8601621  37.4468116 114.1490817  76.5692488  38.2134886
 120.6569261  67.4352599  29.4155771 119.8469989  67.0899684  29.7911017
 121.3453678  67.1260142  30.0043383 118.6092908  72.5017719  46.8182832
 118.5089635  73.4512076  46.7494923 118.3914450  72.1735958  45.9458902
 117.8105980  69.7502644  23.4023509 118.6725144  70.0757543  23.6619326
 117.9956324  68.9634140  22.8896575 109.8273395  77.8324984  35.6803698
 109.1336867  77.4178937  35.1673652 110.5746386  77.8745520  35.0837117
 118.4724178  75.9314858  45.6347893 117.9891260  76.7315218  45.8411782
 118.5585117  75.9422803  44.6815337 111.7410138  77.7643238  33.5569713
 111.7180826  77.8630925  32.6051596 112.0510774  78.6108389  33.8786879
 114.3997516  79.8219393  37.6716327 115.3540769  79.7903335  37.6046259
 114.2010039  79.3610016  38.4866553 114.9896898  78.3920509  40.2387125
 115.8089787  78.8864587  40.2621962 115.2633706  77.4752477  40.2104692
 112.7547744  85.3639012  34.6886525 112.6202212  84.6039413  34.1224523
 112.3379807  86.0879912  34.2215314 115.9116870  86.2608329  34.9004967
 115.7949254  87.2053762  34.7983658 115.0909317  85.9581891  35.2890767
 110.2431812  72.7258643  40.9379322 110.8890676  72.2157597  41.4266547
 110.0348963  73.4627324  41.5122747 118.7635423  66.9898687  26.6903218
 118.7514092  67.9340527  26.8471489 119.6558844  66.8068833  26.3962679
 116.9371384  86.9136591  38.1160896 117.8398631  86.9460201  38.4327391
 116.7108755  85.9837042  38.1307232 118.6924986  85.6667578  34.7770975
 117.7420618  85.6669439  34.6635347 118.9957473  84.9200312  34.2607009
 114.5829303  69.8726260  45.0354336 115.4460765  69.5163065  45.2457660
 114.0094714  69.5340155  45.7229740 118.6547781  92.0720399  33.5535927
 119.3418820  91.7582129  32.9656942 118.4995909  92.9761764  33.2803178
 118.2315757  90.1520993  35.8253394 118.2699856  89.6184583  36.6190512
 117.7256050  89.6256198  35.2064371 121.4829393  96.4804642  33.9261644
 120.6461301  96.0526816  33.7445645 121.4553039  96.6737085  34.8632435
 120.7978890  89.5413990  33.7110576 120.4781674  88.6879298  33.4184950
 120.2512318  89.7562568  34.4668543 120.6667150  93.1616902  35.6803698
 119.9730621  92.7470854  35.1673652 121.4140141  93.2037438  35.0837117
  74.1836324   2.2035778  17.3709719  74.1060354   3.1543603  17.4498200
  73.5797968   1.8581650  18.0284645  71.8223154   4.9521172  21.5157921
  72.0619752   5.5839696  22.1936940  70.9792350   4.6009212  21.8023280
  72.2967986   0.9769174  18.8456700  71.6278361   1.4615302  18.3620740
  72.1580856   1.2238395  19.7600078  76.4373255   3.0112918  25.4439358
  76.9891563   3.1744539  26.2088443  76.7779448   3.6017356  24.7719383
  69.3972728   1.0533464  21.4131831  69.2627196   0.2933865  20.8469830
  68.9804790   1.7774364  20.9460620  72.5541854   1.9502781  21.6250274
  72.4374238   2.8948214  21.5228964  71.7334300   1.6476343  22.0136073
  73.5796368   2.6031043  24.8406203  74.4823614   2.6354653  25.1572697
  73.3533738   1.6731494  24.8552538  87.8792370   7.1449996  22.5023568
  87.5410881   7.0291061  21.6144103  88.7482138   6.7441161  22.4824574
  83.7379185   8.9985472  18.4920459  83.1744050   8.9075409  17.7236747
  83.6231580   8.1785377  18.9722952  88.3612153   8.2984848  28.4609774
  88.3500793   7.9037646  27.5890277  88.5232792   7.5650920  29.0543545
  81.2843617  10.4936664  21.3304680  82.0764909  10.1527489  20.9150979
  81.5240267  10.6031639  22.2506833  89.3178744  12.6656440  13.8034924
  88.6666724  13.2510521  13.4168938  90.1123107  13.1962635  13.8629962
  83.2434371   9.7545577  14.2022058  84.0165247   9.2074564  14.0634934
  83.5959770  10.6189827  14.4136520  85.0819414  11.0821960  27.4088958
  84.7909280  11.9867590  27.2935624  85.7176398  11.1238487  28.1233027
  86.0075621   8.4598808  23.9990317  86.6039193   8.2354831  23.2847280
  86.0650592   7.7183554  24.6015765  85.2996938   7.8166349  14.0364883
  85.1833196   7.1411253  14.7045968  85.4099198   7.3298723  13.2197036
  87.6428479   7.2776497  17.7411573  87.2786686   6.7507117  18.4524494
  88.4995595   6.8874966  17.5678058  90.0409299  10.7683375  24.4038751
  89.7410022  11.6708414  24.2954559  89.6960358  10.5015558  25.2559904
  83.4921780   7.2197172  20.4375456  82.5672277   7.0873386  20.6453148
  83.7406193   7.9991391  20.9345398  80.8530591   6.8630445  21.2719245
  80.9822972   7.1164924  22.1858657  80.1728043   7.4558153  20.9523900
  85.0230079  17.5327695  17.3709719  84.9454108  18.4835521  17.4498200
  84.4191722  17.1873568  18.0284645  85.7693681   7.5141014  29.5889053
  86.5108365   8.0526058  29.3123877  85.0630666   8.1407303  29.7460605
  91.2449020   9.6570155  28.1861215  91.6532376   9.2152565  27.4415847
  90.5226282   9.0822782  28.4395407  91.5677835  10.2171345  21.9413503
  90.9386697  10.3817059  21.2389571  91.1803497  10.6312955  22.7124467
  95.4467067  11.1525783  19.2957867  94.7618105  11.5324685  18.7454900
  95.5310916  11.7621110  20.0289815  92.7017998   8.7985742  25.8953211
  92.9134894   9.4417502  25.2187592  92.6547747   7.9648059  25.4275141
  87.1205797   9.9545753  19.2063589  87.5844142  10.2333456  18.4168211
  86.8562595   9.0529198  19.0236679  84.0129878   9.5017235  22.1443352
  84.5831235   9.9304503  21.5060836  84.6037990   9.2199820  22.8427537
  79.8000017   4.3352458  21.3170287  79.0099071   4.5909987  20.8410398
  80.2911264   5.1500796  21.4222328  93.8163826  11.6757698  24.0675568
  94.6381270  11.2737885  23.7858250  93.8126229  11.5725932  25.0191684
  81.7514762   4.6997038  18.2753764  80.9545925   4.8115732  18.7937260
  81.5240354   5.0383690  17.4094654  87.5820430  11.2241741  26.2236279
  87.6464862  11.6862148  27.0594450  86.8731354  10.5939106  26.3518588
  78.0837720   4.5882949  23.7485278  78.3345758   5.4729959  24.0142854
  78.6197268   4.4087550  22.9760370  87.2968447  12.8909848  16.0915259
  87.1614122  13.7361384  16.5200107  87.8378260  13.0929126  15.3281193
  80.7497845  10.4085286  16.6643184  81.2622365  11.2028537  16.8148749
  81.4020558   9.7111577  16.5976785  82.5592730  13.5251043  18.7465937
  82.7359358  14.4469007  18.5586921  83.3549563  13.2109462  19.1760317
  81.8445086   5.5715675  28.6228100  81.7298601   4.6700932  28.9235199
  80.9889604   5.8179371  28.2712917  88.9236924  13.5133415  30.2215601
  88.4800778  12.7269793  29.9036505  89.5854137  13.7012565  29.5559492
  83.6824045  15.0429217  24.7476279  84.2331470  14.9146280  23.9753273
  82.8435521  15.3424106  24.3971172  91.0218162  13.7936215  28.2497002
  91.0036637  14.6145096  27.7577271  91.9438082  13.6690290  28.4747143
  87.4791216  11.3080344  29.0920511  88.0119553  10.5468633  28.8619819
  86.9505297  11.0153996  29.8344665  78.7146762   8.7373941  17.4402754
  79.5521984   9.1470949  17.2236462  78.8925029   7.7973383  17.4102948
  88.8443929  10.4366337  16.6039323  88.3165290   9.7019096  16.2912560
  88.3431432  11.2141013  16.3579291  93.8236775   8.6315357  21.7206369
  93.1660449   9.3214619  21.8086498  94.6277174   9.0211789  22.0640355
  89.8964608  16.9644054  12.5270982  89.2226307  17.2675751  13.1355940
  90.2830430  17.7673135  12.1776439  93.4004030  11.9665731  17.8989453
  92.9466357  11.1256641  17.9554644  92.7697997  12.6027130  18.2364233
  91.8436969  13.8042228  18.8339271  92.1359943  14.3647285  18.1151637
  92.3535590  14.0970789  19.5892431  78.7372933   6.0764656  18.1113488
  78.5397333   5.4834017  17.3864555  78.1819597   5.7716866  18.8289427
  86.8070594  14.5822579  19.9232725  86.7646773  14.8083426  18.9941257
  87.7233293  14.3485954  20.0718526  96.0103345  10.2401610  22.5373954
  96.4439851  10.1476899  23.3857008  96.7234925  10.2159110  21.8993970
  84.9236395  11.4585608  19.7194687  85.7176994  10.9635928  19.5177262
  84.2128087  10.9303471  19.3562393  89.7431240  13.8403704  24.0707055
  89.7968262  14.4094640  24.8384771  88.8746021  14.0105589  23.7061092
  81.2319159   5.6028690  15.7954440  80.3016747   5.5413145  16.0124402
  81.3276630   5.0804643  14.9991081  96.8718894  10.2825310  25.0706840
  97.0654784  11.1871121  25.3166115  96.7719512   9.8232729  25.9045425
  91.9334003  10.4332053  30.6447720  91.7819509  10.2042605  29.7277804
  91.9238682  11.3902654  30.6579065  88.7019339   8.0063966  25.6293987
  89.6311399   8.1575125  25.4562954  88.2810369   8.0947987  24.7742633
  87.5007671  12.0314630  23.3992524  87.3618757  11.6633415  24.2718463
  86.7122267  12.5462270  23.2276482  88.0955823  17.1323727  14.7418061
  88.2707579  16.6611770  15.5563684  87.4088611  17.7589493  14.9699322
  89.0512886  11.4096233  20.7881362  88.7162719  11.3697003  21.6839012
  88.5516832  10.7440949  20.3151772  83.0257130   6.8163863  26.3133943
  82.8876928   6.0844102  26.9145482  83.9362054   6.7272763  26.0318131
  85.6539431   6.5283822  25.8017623  86.3639049   5.8877014  25.7604241
  85.6108739   6.7796717  26.7243804  93.6426209  13.4651176  28.7224202
  93.5838756  12.7810396  28.0554785  94.0445728  14.2070166  28.2704828
  82.6616908  20.2813089  21.5157921  82.9013507  20.9131614  22.1936940
  81.8186105  19.9301129  21.8023280  93.6443617  11.4290760  26.9538182
  92.7570396  11.0916681  27.0764581  94.2142168  10.6973791  27.1906947
  75.2972764   7.7614851  20.2781233  75.9843804   7.4476581  19.6902249
  75.1420893   8.6656216  20.0048485  87.1744770  16.0892212  23.9199425
  87.1014942  16.8947183  24.4318730  86.7322163  16.2884178  23.0947447
  86.9634550  15.3263982  17.4302247  86.1802072  15.8685662  17.5240471
  87.6627295  15.8437962  17.8296488  89.6343454  15.9879046  26.0757584
  90.3471426  16.6226511  26.0033485  89.1433482  16.0842912  25.2597586
  91.3560981   9.8930299  17.6474875  90.4217259  10.0131761  17.4779580
  91.5337649   8.9902765  17.3834885  84.6855367  13.7373489  26.8963155
  85.3864827  14.3709972  27.0492549  84.2150482  14.0788221  26.1358794
  89.4463827  16.3277790  18.8243875  89.6286222  15.5099446  19.2871628
  90.2696813  16.5445482  18.3868765  89.7805993  15.2545975  16.0858924
  90.3093759  14.7438430  15.4729086  90.0434212  14.9388505  16.9504457
  88.5344226   7.0337908  31.2081742  87.8584863   6.9332037  31.8784117
  89.3571860   6.8777122  31.6717739  80.2823085  13.2709844  23.8294257
  80.8676522  12.5253532  23.9622162  80.0847924  13.5813801  24.7130921
  83.1361740  16.3061092  18.8456700  82.4672116  16.7907219  18.3620740
  82.9974610  16.5530312  19.7600078  74.8740740   5.8415445  22.5498700
  74.9124840   5.3079035  23.3435819  74.3681033   5.3150650  21.9309678
  87.2767009  18.3404835  25.4439358  87.8285317  18.5036457  26.2088443
  87.6173203  18.9309273  24.7719383  92.1277883  13.1666093  31.2988012
  92.6717787  13.7796051  30.8042967  91.5464728  13.7245671  31.8155025
  78.5049318   4.5679547  15.6252632  78.8002759   3.6590225  15.5719686
  77.6037353   4.5467286  15.3033634  90.4135396  16.2886811  22.4303040
  90.2886536  15.4876551  21.9213986  91.0714487  16.7833004  21.9417010
  92.4770305  14.0895831  24.0582590  91.5300640  13.9701182  23.9860917
  92.8253078  13.2018329  24.1408852  89.4816738  13.8848547  20.2586943
  89.3341700  12.9565255  20.4394513  90.3070232  13.9068638  19.7744018
  93.0850860  14.7077106  21.3451815  94.0097407  14.5019967  21.2076266
  92.9166163  14.4593507  22.2541157  92.8746176  15.2262773  16.7013907
  93.0483054  14.6609196  15.9487759  93.3675067  16.0263668  16.5193397
  78.6923136   7.2377442  24.7677466  78.1476604   8.0137250  24.8997740
  79.5702486   7.5848247  24.6096587  79.4789158   6.3647339  27.6607622
  78.7370894   6.5129974  28.2472253  79.1581902   6.6255604  26.7974372
  87.4232820  15.9063317  27.4588012  87.7319947  15.6612464  28.3310712
  88.2208302  16.1109955  26.9706883  87.4453432  18.0601227  19.6893389
  87.0058423  17.5677605  20.3826246  88.1961549  17.5174194  19.4485464
  79.9245771  14.2512767  19.6918017  80.7503791  13.9516539  19.3116661
  79.5739823  13.4820390  20.1407806  84.8927305  13.6039236  21.7615691
  84.2707314  12.9409941  21.4617918  85.5632172  13.6300368  21.0789338
  78.1254376  12.1699094  20.6506951  77.2886285  11.7421268  20.4690952
  78.0978022  12.3631537  21.5877742  95.4506678  12.6262147  30.6349334
  94.6602221  12.6086286  30.0953833  95.2140032  13.1650441  31.3898370
  84.4540812  12.1543159  15.2374151  84.6028932  12.8378623  14.5840824
  85.2607255  12.1348249  15.7523607  97.0722750  11.8951555  28.1924084
  96.7807558  12.2581535  29.0287545  96.4594881  11.1818563  28.0137416
  82.2093444   8.1808337  16.2435220  81.9639486   7.2770667  16.4415430
  82.3789359   8.1825487  15.3014698  87.9536217  14.6491289  12.7085899
  87.3810184  15.2681477  12.2556370  88.5269011  15.1990651  13.2425821
  88.2221708  10.0369848  31.5102608  89.1424718  10.2148447  31.7042655
  88.1871291   9.0925894  31.3582307  77.4403873   5.2308442  20.4355883
  77.1206657   4.3773750  20.1430257  76.8937301   5.4457020  21.1913850
  81.2183781   7.9470883  24.1525389  81.4369790   8.8787991  24.1713423
  81.6309554   7.5878857  24.9380193  77.3092133   8.8511353  22.4049004
  76.6155604   8.4365306  21.8918959  78.0565124   8.8931890  21.8082423
  85.9542916   6.9501228  32.3593200  85.4709998   7.7501588  32.5657089
  86.0403855   6.9609172  31.4060644  79.2228876   8.7829607  20.2815019
  79.1999564   8.8817295  19.3296902  79.5329512   9.6294758  20.6032185
  81.8816253  10.8405762  24.3961634  82.8359507  10.8089705  24.3291565
  81.6828777  10.3796386  25.2111860  82.4715636   9.4106878  26.9632431
  83.2908525   9.9050957  26.9867269  82.7452443   8.4938846  26.9349999
  80.2366482  16.3825382  21.4131831  80.1020950  15.6225783  20.8469830
  79.8198545  17.1066282  20.9460620  83.3935608  17.2794699  21.6250274
  83.2767992  18.2240131  21.5228964  82.5728054  16.9768260  22.0136073
  77.7250550   3.7445012  27.6624628  78.3709413   3.2343966  28.1511854
  77.5167701   4.4813694  28.2368054  90.2503942  10.8125860  33.1616769
  91.1195102  10.9866512  32.8003404  89.7710694  11.6320277  33.0392498
  84.4190122  17.9322961  24.8406203  85.3217369  17.9646571  25.1572697
  84.1927492  17.0023412  24.8552538  86.1743724  16.6853947  21.5016281
  85.2239355  16.6855809  21.3880653  86.4776210  15.9386682  20.9852316
 101.9096418  22.5214486  22.5662044 102.5474828  22.4021233  21.8625384
 101.7917261  23.4695330  22.6249996  98.7186124  22.4741914  22.5023568
  98.3804636  22.3582978  21.6144103  99.5875892  22.0733079  22.4824574
  94.5772940  24.3277390  18.4920459  94.0137805  24.2367327  17.7236747
  94.4625335  23.5077295  18.9722952  99.2005907  23.6276765  28.4609774
  99.1894548  23.2329564  27.5890277  99.3626547  22.8942838  29.0543545
  92.1237372  25.8228582  21.3304680  92.9158664  25.4819406  20.9150979
  92.3634022  25.9323557  22.2506833 100.1572498  27.9948358  13.8034924
  99.5060478  28.5802438  13.4168938 100.9516861  28.5254553  13.8629962
  94.0828126  25.0837495  14.2022058  94.8559002  24.5366482  14.0634934
  94.4353524  25.9481744  14.4136520  95.9213168  26.4113877  27.4088958
  95.6303034  27.3159508  27.2935624  96.5570153  26.4530405  28.1233027
  96.8469375  23.7890726  23.9990317  97.4432947  23.5646748  23.2847280
  96.9044347  23.0475471  24.6015765  96.1390692  23.1458267  14.0364883
  96.0226950  22.4703170  14.7045968  96.2492952  22.6590641  13.2197036
  98.4822233  22.6068414  17.7411573  98.1180440  22.0799035  18.4524494
  99.3389349  22.2166883  17.5678058 104.3871534  13.8962747  25.0042839
 104.0554859  14.7658158  24.7804054 103.7917147  13.5799031  25.6836869
 100.8803053  26.0975293  24.4038751 100.5803776  27.0000332  24.2954559
 100.5354113  25.8307476  25.2559904  94.3315535  22.5489090  20.4375456
  93.4066031  22.4165304  20.6453148  94.5799948  23.3283309  20.9345398
 104.2800197  18.6157833  22.0836189 103.3717074  18.5473241  21.7894950
 104.2287793  19.0929778  22.9118014  91.6924346  22.1922363  21.2719245
  91.8216727  22.4456842  22.1858657  91.0121797  22.7850071  20.9523900
  95.8623833  32.8619613  17.3709719  95.7847863  33.8127438  17.4498200
  95.2585477  32.5165486  18.0284645  98.3541063  20.0347479  30.0271086
  97.5774397  20.5941399  30.0173951  98.9931626  20.5204262  30.5485956
  96.6087435  22.8432932  29.5889053  97.3502120  23.3817976  29.3123877
  95.9024421  23.4699221  29.7460605 102.0842775  24.9862072  28.1861215
 102.4926131  24.5444483  27.4415847 101.3620036  24.4114700  28.4395407
  98.4373845  19.9234679  25.5594771  99.2835040  20.3474093  25.7029420
  98.3772483  19.2668303  26.2533335 102.4071589  25.5463263  21.9413503
 101.7780452  25.7108977  21.2389571 102.0197252  25.9604873  22.7124467
 106.2860821  26.4817701  19.2957867 105.6011859  26.8616602  18.7454900
 106.3704671  27.0913028  20.0289815 101.5873290  17.5839048  27.2175945
 101.3434222  18.3381108  26.6810221 101.8633221  17.9624395  28.0523192
 103.5411753  24.1277660  25.8953211 103.7528648  24.7709420  25.2187592
 103.4941501  23.2939976  25.4275141  97.9599551  25.2837671  19.2063589
  98.4237897  25.5625374  18.4168211  97.6956349  24.3821116  19.0236679
  94.8523632  24.8309153  22.1443352  95.4224989  25.2596421  21.5060836
  95.4431744  24.5491737  22.8427537  96.8968437  21.4060823  16.0153154
  97.5992481  21.8581867  16.4827080  96.5649066  20.7644642  16.6433047
  95.3448799  19.9972580  30.3904363  94.7147459  20.6788861  30.6239760
  95.2384887  19.8855662  29.4457501  90.6393771  19.6644376  21.3170287
  89.8492825  19.9201905  20.8410398  91.1305019  20.4792714  21.4222328
 104.6557581  27.0049615  24.0675568 105.4775025  26.6029803  23.7858250
 104.6519984  26.9017849  25.0191684  92.5908517  20.0288955  18.2753764
  91.7939680  20.1407650  18.7937260  92.3634109  20.3675608  17.4094654
  98.4214184  26.5533659  26.2236279  98.4858617  27.0154066  27.0594450
  97.7125108  25.9231024  26.3518588  88.9231474  19.9174867  23.7485278
  89.1739513  20.8021876  24.0142854  89.4591023  19.7379468  22.9760370
  98.1362202  28.2201766  16.0915259  98.0007877  29.0653302  16.5200107
  98.6772014  28.4221044  15.3281193  94.6229542  14.2993346  32.7529614
  94.2296487  13.7459544  33.4277258  95.4395682  14.6103924  33.1436132
  91.5891599  25.7377204  16.6643184  92.1016120  26.5320454  16.8148749
  92.2414312  25.0403495  16.5976785  93.3986484  28.8542960  18.7465937
  93.5753112  29.7760925  18.5586921  94.1943318  28.5401380  19.1760317
  97.5397503  15.7151225  30.3449871  98.2807216  16.3158378  30.2654333
  97.7715425  14.9728863  29.7867913  92.6838841  20.9007592  28.6228100
  92.5692356  19.9992850  28.9235199  91.8283358  21.1471289  28.2712917
  99.7630678  28.8425333  30.2215601  99.3194533  28.0561711  29.9036505
 100.4247892  29.0304483  29.5559492  94.5217800  30.3721134  24.7476279
  95.0725225  30.2438198  23.9753273  93.6829275  30.6716023  24.3971172
 101.8611916  29.1228133  28.2497002 101.8430392  29.9437014  27.7577271
 102.7831836  28.9982208  28.4747143  98.3184971  26.6372262  29.0920511
  98.8513307  25.8760550  28.8619819  97.7899052  26.3445914  29.8344665
  89.5540516  24.0665858  17.4402754  90.3915738  24.4762867  17.2236462
  89.7318784  23.1265301  17.4102948 100.5651206  14.1136983  22.5863386
 100.0616002  14.0767118  21.7731191 100.8581813  15.0229726  22.6460042
  96.8094092  14.1975713  21.5929567  97.6747089  14.0018522  21.2335457
  96.8771601  13.9686065  22.5198924  99.6837683  25.7658254  16.6039323
  99.1559045  25.0311014  16.2912560  99.1825186  26.5432931  16.3579291
 104.6630529  23.9607275  21.7206369 104.0054204  24.6506536  21.8086498
 105.4670929  24.3503707  22.0640355  94.4156411  16.4277921  18.9645934
  94.9900163  16.2053102  18.2319127  95.0027393  16.4966615  19.7174535
 100.7358362  32.2935972  12.5270982 100.0620061  32.5967669  13.1355940
 101.1224184  33.0965052  12.1776439 104.2397784  27.2957649  17.8989453
 103.7860111  26.4548559  17.9554644 103.6091751  27.9319047  18.2364233
 102.6830724  29.1334146  18.8339271 102.9753698  29.6939203  18.1151637
 103.1929344  29.4262707  19.5892431  89.5766687  21.4056574  18.1113488
  89.3791087  20.8125934  17.3864555  89.0213351  21.1008784  18.8289427
  97.5563411  21.2979680  20.2308081  97.6112021  20.3453517  20.1550558
  96.7454613  21.4539119  20.7149379  95.4955771  19.9156740  17.9898460
  94.6823636  20.2150911  18.3963652  95.9914765  19.5212429  18.7072942
  97.6464349  29.9114497  19.9232725  97.6040528  30.1375343  18.9941257
  98.5627048  29.6777871  20.0718526 101.0929983  20.3798564  26.8213354
 101.4479370  20.6070038  27.6807820 101.7402114  20.7116941  26.1990609
  94.9869846  17.4875095  23.6059695  95.6269225  17.3463855  22.9082658
  94.1547376  17.2009609  23.2298297 106.8497099  25.5693527  22.5373954
 107.2833606  25.4768816  23.3857008 107.5628680  25.5451028  21.8993970
  95.7630150  26.7877526  19.7194687  96.5570748  26.2927846  19.5177262
  95.0521842  26.2595389  19.3562393 100.5824994  29.1695621  24.0707055
 100.6362016  29.7386558  24.8384771  99.7139775  29.3397506  23.7061092
  92.0712913  20.9320608  15.7954440  91.1410501  20.8705063  16.0124402
  92.1670385  20.4096560  14.9991081  91.9898462  17.4575420  18.3832682
  92.2505279  18.3720754  18.2741842  92.8115634  16.9899863  18.5329295
  93.4623387  18.8713178  25.5531506  94.1346441  18.6630540  24.9044155
  92.6353174  18.6735264  25.1136739 107.7112649  25.6117228  25.0706840
 107.9048539  26.5163038  25.3166115 107.6113267  25.1524647  25.9045425
  99.3648959  15.4975119  27.5697167  98.7176874  16.1965068  27.4761644
 100.1349975  15.9311262  27.9373415 102.7727757  25.7623971  30.6447720
 102.6213264  25.5334522  29.7277804 102.7632437  26.7194572  30.6579065
  99.5413094  23.3355883  25.6293987 100.4705154  23.4867043  25.4562954
  99.1204124  23.4239904  24.7742633  98.3401426  27.3606548  23.3992524
  98.2012511  26.9925332  24.2718463  97.5516022  27.8754187  23.2276482
  98.9349577  32.4615644  14.7418061  99.1101333  31.9903688  15.5563684
  98.2482366  33.0881411  14.9699322  99.8906641  26.7388151  20.7881362
  99.5556473  26.6988921  21.6839012  99.3910586  26.0732867  20.3151772
  93.8650885  22.1455781  26.3133943  93.7270683  21.4136019  26.9145482
  94.7755808  22.0564681  26.0318131  96.4933185  21.8575740  25.8017623
  97.2032804  21.2168932  25.7604241  96.4502493  22.1088635  26.7243804
 104.4819964  28.7943093  28.7224202 104.4232510  28.1102313  28.0554785
 104.8839482  29.5362083  28.2704828  95.2062119  18.8440958  27.6213263
  94.6699476  18.3931696  28.2734859  94.6178828  18.9786867  26.8783727
  93.5010663  35.6105007  21.5157921  93.7407261  36.2423531  22.1936940
  92.6579859  35.2593047  21.8023280 104.4837371  26.7582677  26.9538182
 103.5964150  26.4208599  27.0764581 105.0535922  26.0265708  27.1906947
  86.1366518  23.0906769  20.2781233  86.8237558  22.7768499  19.6902249
  85.9814647  23.9948134  20.0048485  90.9401241  17.9796966  24.7066257
  90.8559429  17.3722635  23.9716667  90.1183947  18.4705984  24.7075753
  98.0138525  31.4184130  23.9199425  97.9408696  32.2239101  24.4318730
  97.5715918  31.6176095  23.0947447  97.8028304  30.6555900  17.4302247
  97.0195826  31.1977580  17.5240471  98.5021049  31.1729879  17.8296488
 100.4737208  31.3170964  26.0757584 101.1865180  31.9518428  26.0033485
  99.9827237  31.4134830  25.2597586 102.1954735  25.2222216  17.6474875
 101.2611014  25.3423679  17.4779580 102.3731404  24.3194683  17.3834885
  97.6959923  18.6067912  19.8008137  97.3257711  18.0538952  20.4889042
  98.1919016  18.0026046  19.2483137  95.5249122  29.0665407  26.8963155
  96.2258581  29.7001890  27.0492549  95.0544237  29.4080139  26.1358794
 103.3250408  21.6210015  24.7215705 102.6721858  21.8685922  24.0668158
 103.7030788  20.8074153  24.3878182 100.2857582  31.6569708  18.8243875
 100.4679976  30.8391364  19.2871628 101.1090568  31.8737400  18.3868765
 100.6199747  30.5837893  16.0858924 101.1487513  30.0730347  15.4729086
 100.8827967  30.2680423  16.9504457  99.3737981  22.3629826  31.2081742
  98.6978618  22.2623955  31.8784117 100.1965615  22.2069039  31.6717739
  91.1216840  28.6001762  23.8294257  91.7070277  27.8545450  23.9622162
  90.9241678  28.9105719  24.7130921  93.9755495  31.6353010  18.8456700
  93.3065870  32.1199137  18.3620740  93.8368365  31.8822230  19.7600078
  85.7134494  21.1707362  22.5498700  85.7518594  20.6370953  23.3435819
  85.2074787  20.6442568  21.9309678  98.1160764  33.6696753  25.4439358
  98.6679072  33.8328375  26.2088443  98.4566957  34.2601191  24.7719383
  93.0925257  16.0171903  26.0461243  93.1566583  16.8786734  25.6338640
  93.0292377  15.4045904  25.3133601  92.5677529  18.0895035  29.6934277
  93.1949568  17.7072113  30.3071801  91.7105448  17.8709237  30.0589970
 102.9671638  28.4958011  31.2988012 103.5111542  29.1087969  30.8042967
 102.3858483  29.0537589  31.8155025  89.3443072  19.8971464  15.6252632
  89.6396513  18.9882143  15.5719686  88.4431108  19.8759204  15.3033634
 101.2529151  31.6178729  22.4303040 101.1280290  30.8168468  21.9213986
 101.9108242  32.1124922  21.9417010  92.8737319  17.9727461  21.6080180
  92.1523905  18.5863429  21.4687654  93.6630575  18.5085226  21.5296826
 103.3164059  29.4187749  24.0582590 102.3694395  29.2993100  23.9860917
 103.6646832  28.5310247  24.1408852  95.6763633  15.3081888  27.8820832
  96.1998034  15.5544184  28.6447141  95.4575966  16.1401922  27.4623970
  91.0730914  17.5785562  15.7491957  90.7443620  16.6982941  15.5667063
  91.4270284  17.5233231  16.6368346 100.3210493  29.2140465  20.2586943
 100.1735455  28.2857172  20.4394513 101.1463986  29.2360556  19.7744018
  94.1872737  17.8658532  16.1167435  94.5268809  18.3944453  15.3946043
  94.6344857  18.2038938  16.8926001 103.9244614  30.0369024  21.3451815
 104.8491162  29.8311885  21.2076266 103.7559918  29.7885425  22.2541157
  96.8816178  16.2495583  25.5670503  96.5412998  15.4503396  25.9691183
  96.1755184  16.5497294  24.9947336  97.5332649  13.3344895  24.0197826
  98.3558719  12.8605373  23.8976716  97.7770713  14.1135379  24.5196512
  95.0571228  20.0264016  21.8289804  94.9115809  20.3404319  22.7214086
  94.5796432  20.6448916  21.2760703  96.9167611  17.0166564  21.8770694
  96.9029180  16.1207657  21.5402992  97.6340039  17.0237227  22.5108980
  98.7693742  17.4503904  23.9223821  98.5111520  18.3720975  23.9208152
  98.2378782  17.0534338  24.6124285 103.7139931  30.5554691  16.7013907
 103.8876808  29.9901114  15.9487759 104.2068822  31.3555586  16.5193397
  89.5316890  22.5669360  24.7677466  88.9870358  23.3429168  24.8997740
  90.4096240  22.9140165  24.6096587  90.3182912  21.6939256  27.6607622
  89.5764648  21.8421892  28.2472253  89.9975657  21.9547522  26.7974372
  98.2626575  31.2355235  27.4588012  98.5713701  30.9904381  28.3310712
  99.0602057  31.4401873  26.9706883  98.2847187  33.3893144  19.6893389
  97.8452177  32.8969523  20.3826246  99.0355304  32.8466112  19.4485464
  90.7639526  29.5804685  19.6918017  91.5897546  29.2808457  19.3116661
  90.4133578  28.8112308  20.1407806  95.7321059  28.9331153  21.7615691
  95.1101068  28.2701858  21.4617918  96.4025926  28.9592285  21.0789338
  88.9648131  27.4991012  20.6506951  88.1280039  27.0713186  20.4690952
  88.9371776  27.6923455  21.5877742  95.8045587  17.4112941  31.3548197
  95.8533742  18.2875064  30.9725966  96.3468101  16.8690334  30.7819840
 106.2900432  27.9554065  30.6349334 105.4995976  27.9378203  30.0953833
 106.0533787  28.4942358  31.3898370 106.4098307  24.8046531  27.9482062
 106.4596312  24.6396538  28.8897585 106.3012231  23.9373790  27.5579943
  95.2934566  27.4835077  15.2374151  95.4422686  28.1670541  14.5840824
  96.1001009  27.4640167  15.7523607 103.7002070  20.7877459  29.2641369
 104.6011932  20.6483924  28.9725367 103.7750044  20.9531914  30.2039546
  98.0344875  18.1644314  28.1094555  97.1648184  18.4577880  27.8377144
  98.2704355  18.7484759  28.8301819 107.9116504  27.2243472  28.1924084
 107.6201312  27.5873453  29.0287545 107.2988635  26.5110481  28.0137416
 106.1603692  22.3476087  26.6604142 106.6357814  22.5403733  25.8522993
 105.2369258  22.4035273  26.4147525  93.0487199  23.5100254  16.2435220
  92.8033241  22.6062584  16.4415430  93.2183114  23.5117405  15.3014698
 100.7383909  14.3823931  25.6259976 101.2565853  15.1184958  25.3006464
 100.3839042  14.6887924  26.4606735  92.3182847  19.2428612  13.7421382
  91.6252091  19.3172967  13.0861418  92.0734598  18.4788956  14.2642898
  98.7929972  29.9783207  12.7085899  98.2203939  30.5973394  12.2556370
  99.3662765  30.5282569  13.2425821 104.8605361  19.2241847  24.8932447
 105.8122784  19.3239945  24.9144671 104.6908812  18.4320116  25.4030532
 102.8819741  16.3097430  25.0791848 102.2869673  16.5902443  24.3838337
 102.5969438  16.7991331  25.8508589 107.3393439  22.4447967  24.0074747
 107.3069759  21.5063968  24.1934431 107.9494063  22.5232004  23.2740572
  99.0615463  25.3661766  31.5102608  99.9818472  25.5440365  31.7042655
  99.0265046  24.4217811  31.3582307  88.2797628  20.5600360  20.4355883
  87.9600412  19.7065668  20.1430257  87.7331056  20.7748938  21.1913850
  92.0577535  23.2762801  24.1525389  92.2763545  24.2079908  24.1713423
  92.4703309  22.9170775  24.9380193  96.9305400  18.8496006  33.5428138
  96.8302127  19.7990363  33.4740229  96.7126942  18.5214245  32.6704208
  88.1485888  24.1803271  22.4049004  87.4549359  23.7657224  21.8918959
  88.8958879  24.2223808  21.8082423  96.7936670  22.2793145  32.3593200
  96.3103752  23.0793505  32.5657089  96.8797610  22.2901090  31.4060644
  90.0622630  24.1121525  20.2815019  90.0393318  24.2109212  19.3296902
  90.3723267  24.9586676  20.6032185  92.7210008  26.1697680  24.3961634
  93.6753262  26.1381622  24.3291565  92.5222532  25.7088304  25.2111860
  93.3109390  24.7398796  26.9632431  94.1302279  25.2342875  26.9867269
  93.5846198  23.8230764  26.9349999  91.0760237  31.7117299  21.4131831
  90.9414705  30.9517700  20.8469830  90.6592299  32.4358199  20.9460620
  94.2329363  32.6086616  21.6250274  94.1161747  33.5532049  21.5228964
  93.4121809  32.3060178  22.0136073  88.5644304  19.0736930  27.6624628
  89.2103168  18.5635884  28.1511854  88.3561455  19.8105612  28.2368054
 101.0897697  26.1417777  33.1616769 101.9588856  26.3158430  32.8003404
 100.6104448  26.9612194  33.0392498  95.2583877  33.2614878  24.8406203
  96.1611123  33.2938489  25.1572697  95.0321247  32.3315329  24.8552538
  97.0137479  32.0145865  21.5016281  96.0633110  32.0147727  21.3880653
  97.3169965  31.2678599  20.9852316  92.9041795  16.2204547  31.7599643
  93.7673257  15.8641352  31.9702967  92.3307206  15.8818442  32.4475047
 112.7490172  37.8506403  22.5662044 113.3868582  37.7313151  21.8625384
 112.6311015  38.7987247  22.6249996 109.5579879  37.8033831  22.5023568
 109.2198390  37.6874896  21.6144103 110.4269647  37.4024997  22.4824574
 105.4166694  39.6569308  18.4920459 104.8531559  39.5659245  17.7236747
 105.3019089  38.8369212  18.9722952 110.0399662  38.9568683  28.4609774
 110.0288302  38.5621481  27.5890277 110.2020301  38.2234756  29.0543545
 102.9631126  41.1520499  21.3304680 103.7552418  40.8111324  20.9150979
 103.2027776  41.2615474  22.2506833 110.9966253  43.3240276  13.8034924
 110.3454233  43.9094356  13.4168938 111.7910616  43.8546470  13.8629962
 104.9221880  40.4129413  14.2022058 105.6952756  39.8658400  14.0634934
 105.2747279  41.2773662  14.4136520 106.7606923  41.7405795  27.4088958
 106.4696789  42.6451426  27.2935624 107.3963907  41.7822323  28.1233027
 107.6863130  39.1182643  23.9990317 108.2826702  38.8938666  23.2847280
 107.7438101  38.3767389  24.6015765 106.9784447  38.4750185  14.0364883
 106.8620705  37.7995088  14.7045968 107.0886707  37.9882559  13.2197036
 109.3215988  37.9360332  17.7411573 108.9574195  37.4090953  18.4524494
 110.1783104  37.5458801  17.5678058 115.2265288  29.2254664  25.0042839
 114.8948613  30.0950075  24.7804054 114.6310902  28.9090948  25.6836869
 111.7196808  41.4267210  24.4038751 111.4197531  42.3292249  24.2954559
 111.3747867  41.1599394  25.2559904 105.1709289  37.8781007  20.4375456
 104.2459786  37.7457221  20.6453148 105.4193702  38.6575227  20.9345398
 115.1193952  33.9449751  22.0836189 114.2110829  33.8765159  21.7894950
 115.0681547  34.4221696  22.9118014 102.5318100  37.5214281  21.2719245
 102.6610481  37.7748760  22.1858657 101.8515552  38.1141989  20.9523900
 106.7017588  48.1911531  17.3709719 106.6241617  49.1419356  17.4498200
 106.0979231  47.8457403  18.0284645 109.1934817  35.3639396  30.0271086
 108.4168151  35.9233316  30.0173951 109.8325380  35.8496179  30.5485956
 107.4481190  38.1724850  29.5889053 108.1895874  38.7109894  29.3123877
 106.7418175  38.7991138  29.7460605 112.9236529  40.3153990  28.1861215
 113.3319885  39.8736401  27.4415847 112.2013791  39.7406618  28.4395407
 109.2767599  35.2526597  25.5594771 110.1228795  35.6766010  25.7029420
 109.2166237  34.5960221  26.2533335 113.2465344  40.8755181  21.9413503
 112.6174206  41.0400895  21.2389571 112.8591006  41.2896790  22.7124467
 117.1254576  41.8109619  19.2957867 116.4405614  42.1908520  18.7454900
 117.2098425  42.4204945  20.0289815 112.4267045  32.9130965  27.2175945
 112.1827977  33.6673026  26.6810221 112.7026975  33.2916313  28.0523192
 114.3805507  39.4569578  25.8953211 114.5922403  40.1001337  25.2187592
 114.3335256  38.6231894  25.4275141 111.9831736  32.0687398  22.7989783
 111.1216215  32.3668652  23.0906520 112.0094171  32.2857797  21.8670815
 108.7993306  40.6129589  19.2063589 109.2631651  40.8917292  18.4168211
 108.5350104  39.7113033  19.0236679 105.6917387  40.1601070  22.1443352
 106.2618744  40.5888339  21.5060836 106.2825499  39.8783655  22.8427537
 107.7362192  36.7352741  16.0153154 108.4386235  37.1873785  16.4827080
 107.4042820  36.0936560  16.6433047 106.1842553  35.3264498  30.3904363
 105.5541214  36.0080779  30.6239760 106.0778641  35.2147579  29.4457501
 101.4787526  34.9936294  21.3170287 100.6886580  35.2493822  20.8410398
 101.9698773  35.8084632  21.4222328 115.4951335  42.3341533  24.0675568
 116.3168779  41.9321720  23.7858250 115.4913738  42.2309767  25.0191684
 103.4302271  35.3580873  18.2753764 102.6333434  35.4699567  18.7937260
 103.2027863  35.6967525  17.4094654 109.2607939  41.8825576  26.2236279
 109.3252371  42.3445984  27.0594450 108.5518863  41.2522941  26.3518588
  99.7625229  35.2466784  23.7485278 100.0133267  36.1313794  24.0142854
 100.2984777  35.0671386  22.9760370 108.9755956  43.5493684  16.0915259
 108.8401631  44.3945219  16.5200107 109.5165769  43.7512961  15.3281193
 105.4623296  29.6285264  32.7529614 105.0690242  29.0751462  33.4277258
 106.2789436  29.9395842  33.1436132 102.4285354  41.0669122  16.6643184
 102.9409874  41.8612372  16.8148749 103.0808067  40.3695412  16.5976785
 104.2380239  44.1834878  18.7465937 104.4146867  45.1052843  18.5586921
 105.0337072  43.8693297  19.1760317 108.3791257  31.0443143  30.3449871
 109.1200970  31.6450296  30.2654333 108.6109180  30.3020781  29.7867913
 103.5232595  36.2299510  28.6228100 103.4086110  35.3284767  28.9235199
 102.6677113  36.4763207  28.2712917 110.6024433  44.1717250  30.2215601
 110.1588287  43.3853629  29.9036505 111.2641646  44.3596401  29.5559492
 105.3611554  45.7013052  24.7476279 105.9118979  45.5730115  23.9753273
 104.5223030  46.0007941  24.3971172 112.7005671  44.4520050  28.2497002
 112.6824146  45.2728931  27.7577271 113.6225591  44.3274125  28.4747143
 109.1578725  41.9664180  29.0920511 109.6907062  41.2052468  28.8619819
 108.6292806  41.6737832  29.8344665 100.3934271  39.3957776  17.4402754
 101.2309493  39.8054784  17.2236462 100.5712538  38.4557218  17.4102948
 111.4044960  29.4428901  22.5863386 110.9009756  29.4059036  21.7731191
 111.6975567  30.3521644  22.6460042 107.6487846  29.5267631  21.5929567
 108.5140843  29.3310439  21.2335457 107.7165355  29.2977982  22.5198924
 110.5231438  41.0950172  16.6039323 109.9952799  40.3602932  16.2912560
 110.0218941  41.8724849  16.3579291 115.5024284  39.2899193  21.7206369
 114.8447958  39.9798454  21.8086498 116.3064683  39.6795625  22.0640355
 105.2550165  31.7569838  18.9645934 105.8293917  31.5345020  18.2319127
 105.8421148  31.8258533  19.7174535 111.5752117  47.6227890  12.5270982
 110.9013816  47.9259586  13.1355940 111.9617939  48.4256970  12.1776439
 110.7910573  35.1193021  22.0168651 109.8733135  35.3407968  21.8590339
 111.2070717  35.1939331  21.1580359 115.0791539  42.6249567  17.8989453
 114.6253866  41.7840477  17.9554644 114.4485506  43.2610965  18.2364233
 113.5224478  44.4626063  18.8339271 113.8147452  45.0231121  18.1151637
 114.0323099  44.7554624  19.5892431 100.4160442  36.7348491  18.1113488
 100.2184842  36.1417852  17.3864555  99.8607106  36.4300702  18.8289427
 108.3957165  36.6271598  20.2308081 108.4505775  35.6745434  20.1550558
 107.5848367  36.7831037  20.7149379 106.3349525  35.2448658  17.9898460
 105.5217391  35.5442828  18.3963652 106.8308520  34.8504346  18.7072942
 108.4858103  45.2406415  19.9232725 108.4434282  45.4667261  18.9941257
 109.4020802  45.0069789  20.0718526 111.9323737  35.7090482  26.8213354
 112.2873125  35.9361955  27.6807820 112.5795868  36.0408859  26.1990609
 105.8263600  32.8167013  23.6059695 106.4662979  32.6755772  22.9082658
 104.9941131  32.5301527  23.2298297 117.6890854  40.8985445  22.5373954
 118.1227360  40.8060734  23.3857008 118.4022434  40.8742945  21.8993970
 106.6023904  42.1169444  19.7194687 107.3964503  41.6219764  19.5177262
 105.8915596  41.5887307  19.3562393 111.4218748  44.4987539  24.0707055
 111.4755771  45.0678475  24.8384771 110.5533530  44.6689424  23.7061092
 102.9106667  36.2612525  15.7954440 101.9804256  36.1996981  16.0124402
 103.0064139  35.7388478  14.9991081 102.8292217  32.7867338  18.3832682
 103.0899034  33.7012671  18.2741842 103.6509389  32.3191781  18.5329295
 104.3017142  34.2005095  25.5531506 104.9740195  33.9922457  24.9044155
 103.4746928  34.0027181  25.1136739 118.5506403  40.9409146  25.0706840
 118.7442293  41.8454956  25.3166115 118.4507021  40.4816565  25.9045425
 110.2042714  30.8267036  27.5697167 109.5570629  31.5256986  27.4761644
 110.9743729  31.2603180  27.9373415 113.6121512  41.0915888  30.6447720
 113.4607018  40.8626440  29.7277804 113.6026191  42.0486490  30.6579065
 110.3806848  38.6647801  25.6293987 111.3098908  38.8158961  25.4562954
 109.9597878  38.7531822  24.7742633 109.1795180  42.6898466  23.3992524
 109.0406266  42.3217250  24.2718463 108.3909776  43.2046105  23.2276482
 109.7743332  47.7907562  14.7418061 109.9495088  47.3195605  15.5563684
 109.0876120  48.4173328  14.9699322 110.7300395  42.0680068  20.7881362
 110.3950228  42.0280838  21.6839012 110.2304341  41.4024784  20.3151772
 104.7044639  37.4747698  26.3133943 104.5664437  36.7427937  26.9145482
 105.6149563  37.3856598  26.0318131 107.3326940  37.1867658  25.8017623
 108.0426558  36.5460850  25.7604241 107.2896248  37.4380552  26.7243804
 115.3213718  44.1235011  28.7224202 115.2626265  43.4394231  28.0554785
 115.7233237  44.8654001  28.2704828 106.0455874  34.1732876  27.6213263
 105.5093231  33.7223614  28.2734859 105.4572582  34.3078784  26.8783727
 104.3404417  50.9396925  21.5157921 104.5801015  51.5715449  22.1936940
 103.4973614  50.5884965  21.8023280 115.3231126  42.0874595  26.9538182
 114.4357905  41.7500517  27.0764581 115.8929677  41.3557626  27.1906947
  96.9760273  38.4198687  20.2781233  97.6631313  38.1060417  19.6902249
  96.8208402  39.3240051  20.0048485 101.7794995  33.3088883  24.7066257
 101.6953184  32.7014553  23.9716667 100.9577701  33.7997902  24.7075753
 108.8532279  46.7476047  23.9199425 108.7802451  47.5531019  24.4318730
 108.4109672  46.9468013  23.0947447 108.6422059  45.9847817  17.4302247
 107.8589581  46.5269497  17.5240471 109.3414804  46.5021797  17.8296488
 111.3130963  46.6462881  26.0757584 112.0258935  47.2810346  26.0033485
 110.8220991  46.7426747  25.2597586 113.0348490  40.5514134  17.6474875
 112.1004768  40.6715596  17.4779580 113.2125158  39.6486601  17.3834885
 108.5353678  33.9359830  19.8008137 108.1651465  33.3830870  20.4889042
 109.0312770  33.3317963  19.2483137 106.3642876  44.3957325  26.8963155
 107.0652336  45.0293808  27.0492549 105.8937991  44.7372056  26.1358794
 114.1644162  36.9501932  24.7215705 113.5115612  37.1977840  24.0668158
 114.5424542  36.1366070  24.3878182 111.1251336  46.9861625  18.8243875
 111.3073731  46.1683281  19.2871628 111.9484322  47.2029318  18.3868765
 111.4593502  45.9129811  16.0858924 111.9881268  45.4022265  15.4729086
 111.7221721  45.5972341  16.9504457 110.2131735  37.6921743  31.2081742
 109.5372372  37.5915873  31.8784117 111.0359369  37.5360957  31.6717739
 101.9610594  43.9293680  23.8294257 102.5464031  43.1837368  23.9622162
 101.7635433  44.2397637  24.7130921 104.8149249  46.9644927  18.8456700
 104.1459625  47.4491055  18.3620740 104.6762119  47.2114148  19.7600078
  96.5528249  36.4999280  22.5498700  96.5912348  35.9662871  23.3435819
  96.0468542  35.9734486  21.9309678 108.9554518  48.9988671  25.4439358
 109.5072826  49.1620292  26.2088443 109.2960712  49.5893109  24.7719383
 103.9319011  31.3463821  26.0461243 103.9960338  32.2078651  25.6338640
 103.8686132  30.7337822  25.3133601 103.4071284  33.4186953  29.6934277
 104.0343323  33.0364030  30.3071801 102.5499203  33.2001155  30.0589970
 113.8065392  43.8249928  31.2988012 114.3505296  44.4379886  30.8042967
 113.2252237  44.3829507  31.8155025 100.1836827  35.2263382  15.6252632
 100.4790268  34.3174061  15.5719686  99.2824862  35.2051122  15.3033634
 112.0922905  46.9470646  22.4303040 111.9674045  46.1460386  21.9213986
 112.7501996  47.4416840  21.9417010 103.7131074  33.3019379  21.6080180
 102.9917659  33.9155346  21.4687654 104.5024329  33.8377144  21.5296826
 114.1557814  44.7479666  24.0582590 113.2088149  44.6285018  23.9860917
 114.5040587  43.8602164  24.1408852 106.5157387  30.6373805  27.8820832
 107.0391789  30.8836102  28.6447141 106.2969720  31.4693840  27.4623970
 101.9124668  32.9077480  15.7491957 101.5837374  32.0274859  15.5667063
 102.2664039  32.8525149  16.6368346 111.1604247  44.5432383  20.2586943
 111.0129209  43.6149090  20.4394513 111.9857741  44.5652473  19.7744018
 105.0266491  33.1950450  16.1167435 105.3662564  33.7236371  15.3946043
 105.4738612  33.5330856  16.8926001 114.7638369  45.3660941  21.3451815
 115.6884916  45.1603803  21.2076266 114.5953672  45.1177342  22.2541157
 107.7209932  31.5787500  25.5670503 107.3806752  30.7795313  25.9691183
 107.0148938  31.8789211  24.9947336 108.3726404  28.6636813  24.0197826
 109.1952473  28.1897291  23.8976716 108.6164467  29.4427297  24.5196512
 105.8964983  35.3555933  21.8289804 105.7509563  35.6696236  22.7214086
 105.4190186  35.9740834  21.2760703 107.7561366  32.3458481  21.8770694
 107.7422934  31.4499575  21.5402992 108.4733794  32.3529145  22.5108980
 109.6087496  32.7795822  23.9223821 109.3505274  33.7012892  23.9208152
 109.0772537  32.3826256  24.6124285 114.5533685  45.8846609  16.7013907
 114.7270563  45.3193031  15.9487759 115.0462576  46.6847504  16.5193397
 100.3710645  37.8961278  24.7677466  99.8264113  38.6721086  24.8997740
 101.2489995  38.2432082  24.6096587 101.1576667  37.0231174  27.6607622
 100.4158403  37.1713809  28.2472253 100.8369411  37.2839440  26.7974372
 109.1020329  46.5647152  27.4588012 109.4107456  46.3196299  28.3310712
 109.8995811  46.7693791  26.9706883 109.1240941  48.7185062  19.6893389
 108.6845932  48.2261441  20.3826246 109.8749058  48.1758030  19.4485464
 101.6033280  44.9096603  19.6918017 102.4291300  44.6100375  19.3116661
 101.2527332  44.1404225  20.1407806 106.5714814  44.2623071  21.7615691
 105.9494823  43.5993776  21.4617918 107.2419680  44.2884203  21.0789338
  99.8041885  42.8282929  20.6506951  98.9673794  42.4005104  20.4690952
  99.7765531  43.0215373  21.5877742 106.6439341  32.7404859  31.3548197
 106.6927497  33.6166982  30.9725966 107.1861855  32.1982252  30.7819840
 117.1294187  43.2845982  30.6349334 116.3389730  43.2670121  30.0953833
 116.8927541  43.8234276  31.3898370 117.2492062  40.1338449  27.9482062
 117.2990067  39.9688456  28.8897585 117.1405985  39.2665708  27.5579943
 106.1328320  42.8126994  15.2374151 106.2816441  43.4962459  14.5840824
 106.9394764  42.7932084  15.7523607 114.5395824  36.1169377  29.2641369
 115.4405687  35.9775842  28.9725367 114.6143799  36.2823832  30.2039546
 108.8738630  33.4936231  28.1094555 108.0041939  33.7869797  27.8377144
 109.1098110  34.0776676  28.8301819 118.7510259  42.5535390  28.1924084
 118.4595067  42.9165371  29.0287545 118.1382390  41.8402398  28.0137416
 116.9997447  37.6768005  26.6604142 117.4751568  37.8695651  25.8522993
 116.0763012  37.7327191  26.4147525 103.8880953  38.8392172  16.2435220
 103.6426995  37.9354502  16.4415430 104.0576868  38.8409322  15.3014698
 111.5777663  29.7115848  25.6259976 112.0959607  30.4476875  25.3006464
 111.2232796  30.0179842  26.4606735 103.1576601  34.5720530  13.7421382
 102.4645846  34.6464885  13.0861418 102.9128353  33.8080873  14.2642898
 109.6323726  45.3075125  12.7085899 109.0597693  45.9265312  12.2556370
 110.2056520  45.8574486  13.2425821 115.6999116  34.5533765  24.8932447
 116.6516539  34.6531863  24.9144671 115.5302566  33.7612033  25.4030532
 113.7213495  31.6389348  25.0791848 113.1263427  31.9194361  24.3838337
 113.4363192  32.1283249  25.8508589 118.1787194  37.7739885  24.0074747
 118.1463514  36.8355885  24.1934431 118.7887817  37.8523921  23.2740572
 109.9009217  40.6953684  31.5102608 110.8212227  40.8732283  31.7042655
 109.8658800  39.7509729  31.3582307  99.1191382  35.8892277  20.4355883
  98.7994166  35.0357586  20.1430257  98.5724810  36.1040856  21.1913850
 102.8971290  38.6054718  24.1525389 103.1157299  39.5371826  24.1713423
 103.3097063  38.2462693  24.9380193 107.7699155  34.1787924  33.5428138
 107.6695882  35.1282281  33.4740229 107.5520697  33.8506163  32.6704208
  98.9879642  39.5095189  22.4049004  98.2943113  39.0949142  21.8918959
  99.7352633  39.5515725  21.8082423 107.6330425  37.6085063  32.3593200
 107.1497507  38.4085423  32.5657089 107.7191364  37.6193008  31.4060644
 100.9016385  39.4413443  20.2815019 100.8787073  39.5401130  19.3296902
 101.2117021  40.2878593  20.6032185 103.5603762  41.4989598  24.3961634
 104.5147016  41.4673540  24.3291565 103.3616286  41.0380221  25.2111860
 104.1503145  40.0690714  26.9632431 104.9696034  40.5634792  26.9867269
 104.4239952  39.1522682  26.9349999 101.9153991  47.0409217  21.4131831
 101.7808459  46.2809618  20.8469830 101.4986054  47.7650117  20.9460620
 105.0723117  47.9378534  21.6250274 104.9555501  48.8823967  21.5228964
 104.2515563  47.6352096  22.0136073  99.4038059  34.4028848  27.6624628
 100.0496922  33.8927802  28.1511854  99.1955210  35.1397529  28.2368054
 111.9291451  41.4709695  33.1616769 112.7982611  41.6450347  32.8003404
 111.4498202  42.2904112  33.0392498 106.0977631  48.5906796  24.8406203
 107.0004878  48.6230406  25.1572697 105.8715001  47.6607247  24.8552538
 107.8531233  47.3437783  21.5016281 106.9026864  47.3439644  21.3880653
 108.1563719  46.5970517  20.9852316 103.7435550  31.5496465  31.7599643
 104.6067011  31.1933269  31.9702967 103.1700960  31.2110359  32.4475047
 120.3973633  53.1325749  22.5023568 120.0592145  53.0166814  21.6144103
 121.2663401  52.7316914  22.4824574 116.2560449  54.9861226  18.4920459
 115.6925314  54.8951162  17.7236747 116.1412844  54.1661130  18.9722952
 120.8793416  54.2860601  28.4609774 120.8682057  53.8913399  27.5890277
 121.0414055  53.5526673  29.0543545 113.8024881  56.4812417  21.3304680
 114.5946173  56.1403242  20.9150979 114.0421531  56.5907392  22.2506833
 115.7615635  55.7421330  14.2022058 116.5346511  55.1950317  14.0634934
 116.1141033  56.6065580  14.4136520 117.6000677  57.0697713  27.4088958
 117.3090543  57.9743343  27.2935624 118.2357662  57.1114240  28.1233027
 118.5256884  54.4474561  23.9990317 119.1220456  54.2230584  23.2847280
 118.5831856  53.7059307  24.6015765 117.8178201  53.8042102  14.0364883
 117.7014459  53.1287006  14.7045968 117.9280461  53.3174476  13.2197036
 120.1609742  53.2652250  17.7411573 119.7967949  52.7382871  18.4524494
 121.0176858  52.8750719  17.5678058 116.0103044  53.2072925  20.4375456
 115.0853540  53.0749139  20.6453148 116.2587457  53.9867144  20.9345398
 113.3711855  52.8506199  21.2719245 113.5004236  53.1040677  22.1858657
 112.6909306  53.4433907  20.9523900 117.5411342  63.5203448  17.3709719
 117.4635372  64.4711274  17.4498200 116.9372986  63.1749321  18.0284645
 120.0328572  50.6931314  30.0271086 119.2561906  51.2525234  30.0173951
 120.6719135  51.1788097  30.5485956 118.2874944  53.5016767  29.5889053
 119.0289628  54.0401811  29.3123877 117.5811930  54.1283056  29.7460605
 120.1161354  50.5818515  25.5594771 120.9622549  51.0057928  25.7029420
 120.0559991  49.9252139  26.2533335 119.6387060  55.9421506  19.2063589
 120.1025406  56.2209209  18.4168211 119.3743858  55.0404951  19.0236679
 116.5311141  55.4892988  22.1443352 117.1012498  55.9180256  21.5060836
 117.1219253  55.2075573  22.8427537 118.5755946  52.0644659  16.0153154
 119.2779990  52.5165702  16.4827080 118.2436575  51.4228478  16.6433047
 117.0236308  50.6556415  30.3904363 116.3934968  51.3372696  30.6239760
 116.9172396  50.5439497  29.4457501 112.3181280  50.3228211  21.3170287
 111.5280334  50.5785740  20.8410398 112.8092528  51.1376549  21.4222328
 114.2696026  50.6872791  18.2753764 113.4727189  50.7991485  18.7937260
 114.0421618  51.0259443  17.4094654 120.1001693  57.2117494  26.2236279
 120.1646126  57.6737901  27.0594450 119.3912617  56.5814859  26.3518588
 110.6018983  50.5758702  23.7485278 110.8527022  51.4605712  24.0142854
 111.1378532  50.3963303  22.9760370 119.8149711  58.8785601  16.0915259
 119.6795386  59.7237137  16.5200107 120.3559523  59.0804879  15.3281193
 116.3017051  44.9577181  32.7529614 115.9083996  44.4043380  33.4277258
 117.1183191  45.2687760  33.1436132 113.2679108  56.3961039  16.6643184
 113.7803629  57.1904290  16.8148749 113.9201821  55.6987330  16.5976785
 115.0773993  59.5126796  18.7465937 115.2540621  60.4344760  18.5586921
 115.8730827  59.1985215  19.1760317 119.2185012  46.3735060  30.3449871
 119.9594725  46.9742214  30.2654333 119.4502934  45.6312698  29.7867913
 114.3626350  51.5591428  28.6228100 114.2479865  50.6576685  28.9235199
 113.5070867  51.8055124  28.2712917 116.2005309  61.0304970  24.7476279
 116.7512734  60.9022033  23.9753273 115.3616784  61.3299859  24.3971172
 119.9972480  57.2956097  29.0920511 120.5300816  56.5344386  28.8619819
 119.4686561  57.0029749  29.8344665 111.2328025  54.7249694  17.4402754
 112.0703247  55.1346702  17.2236462 111.4106293  53.7849136  17.4102948
 118.4881601  44.8559548  21.5929567 119.3534598  44.6602357  21.2335457
 118.5559110  44.6269900  22.5198924 121.3625192  56.4242090  16.6039323
 120.8346554  55.6894849  16.2912560 120.8612695  57.2016766  16.3579291
 116.0943920  47.0861756  18.9645934 116.6687672  46.8636938  18.2319127
 116.6814902  47.1550451  19.7174535 111.2554196  52.0640409  18.1113488
 111.0578596  51.4709770  17.3864555 110.7000860  51.7592619  18.8289427
 119.2350920  51.9563516  20.2308081 119.2899530  51.0037352  20.1550558
 118.4242122  52.1122955  20.7149379 117.1743280  50.5740575  17.9898460
 116.3611145  50.8734746  18.3963652 117.6702274  50.1796264  18.7072942
 119.3251858  60.5698332  19.9232725 119.2828037  60.7959179  18.9941257
 120.2414557  60.3361707  20.0718526 116.6657355  48.1458931  23.6059695
 117.3056734  48.0047690  22.9082658 115.8334885  47.8593444  23.2298297
 117.4417659  57.4461361  19.7194687 118.2358257  56.9511681  19.5177262
 116.7309351  56.9179224  19.3562393 113.7500422  51.5904443  15.7954440
 112.8198010  51.5288898  16.0124402 113.8457894  51.0680396  14.9991081
 113.6685971  48.1159256  18.3832682 113.9292788  49.0304589  18.2741842
 114.4903143  47.6483698  18.5329295 115.1410896  49.5297013  25.5531506
 115.8133950  49.3214375  24.9044155 114.3140683  49.3319099  25.1136739
 120.0188935  58.0190383  23.3992524 119.8800020  57.6509168  24.2718463
 119.2303531  58.5338023  23.2276482 120.6137086  63.1199480  14.7418061
 120.7888842  62.6487523  15.5563684 119.9269875  63.7465246  14.9699322
 121.5694150  57.3971986  20.7881362 121.2343982  57.3572756  21.6839012
 121.0698095  56.7316702  20.3151772 115.5438394  52.8039616  26.3133943
 115.4058192  52.0719855  26.9145482 116.4543317  52.7148516  26.0318131
 118.1720694  52.5159575  25.8017623 118.8820313  51.8752767  25.7604241
 118.1290002  52.7672470  26.7243804 116.8849628  49.5024793  27.6213263
 116.3486985  49.0515532  28.2734859 116.2966337  49.6370702  26.8783727
 115.1798172  66.2688842  21.5157921 115.4194770  66.9007367  22.1936940
 114.3367368  65.9176883  21.8023280 107.8154027  53.7490604  20.2781233
 108.5025067  53.4352334  19.6902249 107.6602156  54.6531969  20.0048485
 112.6188749  48.6380801  24.7066257 112.5346938  48.0306470  23.9716667
 111.7971456  49.1289819  24.7075753 119.6926034  62.0767965  23.9199425
 119.6196205  62.8822936  24.4318730 119.2503427  62.2759931  23.0947447
 119.4815813  61.3139735  17.4302247 118.6983335  61.8561415  17.5240471
 120.1808558  61.8313715  17.8296488 119.3747432  49.2651747  19.8008137
 119.0045220  48.7122788  20.4889042 119.8706525  48.6609881  19.2483137
 117.2036631  59.7249242  26.8963155 117.9046090  60.3585725  27.0492549
 116.7331746  60.0663974  26.1358794 112.8004349  59.2585597  23.8294257
 113.3857786  58.5129285  23.9622162 112.6029187  59.5689554  24.7130921
 115.6543004  62.2936845  18.8456700 114.9853379  62.7782972  18.3620740
 115.5155874  62.5406065  19.7600078 107.3922003  51.8291198  22.5498700
 107.4306103  51.2954788  23.3435819 106.8862296  51.3026403  21.9309678
 119.7948273  64.3280588  25.4439358 120.3466581  64.4912210  26.2088443
 120.1354466  64.9185026  24.7719383 114.7712766  46.6755738  26.0461243
 114.8354092  47.5370569  25.6338640 114.7079886  46.0629740  25.3133601
 114.2465038  48.7478871  29.6934277 114.8737077  48.3655948  30.3071801
 113.3892957  48.5293073  30.0589970 111.0230581  50.5555300  15.6252632
 111.3184022  49.6465978  15.5719686 110.1218617  50.5343039  15.3033634
 114.5524828  48.6311296  21.6080180 113.8311414  49.2447264  21.4687654
 115.3418084  49.1669061  21.5296826 117.3551142  45.9665723  27.8820832
 117.8785543  46.2128019  28.6447141 117.1363475  46.7985758  27.4623970
 112.7518423  48.2369397  15.7491957 112.4231129  47.3566776  15.5667063
 113.1057793  48.1817066  16.6368346 115.8660246  48.5242367  16.1167435
 116.2056318  49.0528289  15.3946043 116.3132366  48.8622773  16.8926001
 118.5603687  46.9079418  25.5670503 118.2200507  46.1087231  25.9691183
 117.8542693  47.2081129  24.9947336 119.2120158  43.9928730  24.0197826
 120.0346228  43.5189209  23.8976716 119.4558222  44.7719214  24.5196512
 116.7358737  50.6847851  21.8289804 116.5903318  50.9988154  22.7214086
 116.2583941  51.3032751  21.2760703 118.5955120  47.6750399  21.8770694
 118.5816689  46.7791492  21.5402992 119.3127548  47.6821063  22.5108980
 120.4481251  48.1087739  23.9223821 120.1899029  49.0304810  23.9208152
 119.9166291  47.7118174  24.6124285 111.2104399  53.2253195  24.7677466
 110.6657867  54.0013003  24.8997740 112.0883749  53.5724000  24.6096587
 111.9970421  52.3523092  27.6607622 111.2552157  52.5005727  28.2472253
 111.6763166  52.6131357  26.7974372 119.9414084  61.8939070  27.4588012
 120.2501210  61.6488217  28.3310712 120.7389566  62.0985708  26.9706883
 119.9634696  64.0476980  19.6893389 119.5239686  63.5553358  20.3826246
 120.7142813  63.5049947  19.4485464 112.4427035  60.2388520  19.6918017
 113.2685055  59.9392292  19.3116661 112.0921087  59.4696143  20.1407806
 117.4108568  59.5914989  21.7615691 116.7888577  58.9285694  21.4617918
 118.0813435  59.6176121  21.0789338 110.6435640  58.1574847  20.6506951
 109.8067548  57.7297021  20.4690952 110.6159285  58.3507290  21.5877742
 117.4833096  48.0696777  31.3548197 117.5321251  48.9458900  30.9725966
 118.0255610  47.5274170  30.7819840 116.9722075  58.1418912  15.2374151
 117.1210195  58.8254376  14.5840824 117.7788518  58.1224002  15.7523607
 119.7132384  48.8228149  28.1094555 118.8435693  49.1161715  27.8377144
 119.9491864  49.4068594  28.8301819 114.7274708  54.1684090  16.2435220
 114.4820750  53.2646420  16.4415430 114.8970623  54.1701240  15.3014698
 113.9970355  49.9012447  13.7421382 113.3039600  49.9756802  13.0861418
 113.7522107  49.1372791  14.2642898 120.4717481  60.6367042  12.7085899
 119.8991448  61.2557230  12.2556370 121.0450274  61.1866404  13.2425821
 109.9585137  51.2184195  20.4355883 109.6387921  50.3649503  20.1430257
 109.4118565  51.4332773  21.1913850 113.7365044  53.9346636  24.1525389
 113.9551054  54.8663744  24.1713423 114.1490818  53.5754610  24.9380193
 118.6092909  49.5079842  33.5428138 118.5089636  50.4574199  33.4740229
 118.3914451  49.1798081  32.6704208 109.8273397  54.8387107  22.4049004
 109.1336868  54.4241059  21.8918959 110.5746388  54.8807643  21.8082423
 118.4724179  52.9376981  32.3593200 117.9891261  53.7377341  32.5657089
 118.5585118  52.9484925  31.4060644 111.7410139  54.7705360  20.2815019
 111.7180827  54.8693048  19.3296902 112.0510776  55.6170511  20.6032185
 114.3997517  56.8281515  24.3961634 115.3540770  56.7965458  24.3291565
 114.2010041  56.3672139  25.2111860 114.9896899  55.3982631  26.9632431
 115.8089788  55.8926710  26.9867269 115.2633707  54.4814600  26.9349999
 112.7547746  62.3701135  21.4131831 112.6202214  61.6101536  20.8469830
 112.3379808  63.0942035  20.9460620 115.9116872  63.2670452  21.6250274
 115.7949256  64.2115884  21.5228964 115.0909318  62.9644013  22.0136073
 110.2431813  49.7320765  27.6624628 110.8890677  49.2219719  28.1511854
 110.0348964  50.4689447  28.2368054 116.9371386  63.9198714  24.8406203
 117.8398632  63.9522324  25.1572697 116.7108756  62.9899165  24.8552538
 118.6924988  62.6729700  21.5016281 117.7420619  62.6731562  21.3880653
 118.9957474  61.9262435  20.9852316 114.5829304  46.8788382  31.7599643
 115.4460766  46.5225187  31.9702967 114.0094715  46.5402277  32.4475047
 118.6547782  69.0782522  20.2781233 119.3418822  68.7644252  19.6902249
 118.4995911  69.9823887  20.0048485 118.2315758  67.1583115  22.5498700
 118.2699857  66.6246706  23.3435819 117.7256051  66.6318321  21.9309678
 121.4829394  73.4866765  20.6506951 120.6461303  73.0588939  20.4690952
 121.4553040  73.6799208  21.5877742 120.7978891  66.5476113  20.4355883
 120.4781675  65.6941421  20.1430257 120.2512319  66.7624691  21.1913850
 120.6667151  70.1679024  22.4049004 119.9730622  69.7532977  21.8918959
 121.4140142  70.2099561  21.8082423   4.3526021  54.0072204 100.0688697
   3.5989730  53.4379603  99.9132701   4.4873563  53.9734869 101.0159331
   0.7174634  55.4480193 100.3654811   1.5521525  55.8869997 100.5292371
   0.8533763  54.9718846  99.5463057   4.7632437  54.1647814 102.8008941
   5.4935825  53.9033103 103.3616644   4.1539382  53.4276536 102.8411009
   2.8447734  52.3055677 103.3983392   2.1180897  52.1711642 102.7899884
   2.4295021  52.6132506 104.2040110   0.4625529  48.5267529 100.7516824
   1.0570019  48.2863265 100.0410132   0.5352112  47.8074660 101.3790360
   2.7696601  51.8333730  99.5260245   2.2096159  51.9026919 100.2991807
   2.1640105  51.6574715  98.8059741   4.3552620  68.5090244 102.2190201
   4.9931030  68.3896991 101.5153541   4.2373463  69.4571088 102.2778153
   1.1642326  68.4617672 102.1551725   0.8260838  68.3458737 101.2672260
   2.0332094  68.0608837 102.1352731   2.6028701  73.9824116  93.4563081
   1.9516680  74.5678197  93.0697095   3.3973063  74.5130311  93.5158119
   3.9093888  66.2341698  99.2943409   4.6956978  65.8161121  98.9433826
   4.1732593  67.1387790  99.4625057   4.0803966  71.6714548  93.9932066
   3.4449799  71.7449175  94.7052970   3.7501372  72.2608147  93.3151145
   9.3102315  66.1716931 100.1976387  10.0427487  65.6016148 100.4314217
   8.5541671  65.7838531 100.6382893   0.9278435  68.5944173  97.3939730
   0.5636642  68.0674794  98.1052651   1.7845551  68.2042642  97.2206215
   6.8327736  59.8838505 104.6570996   6.5011061  60.7533916 104.4332211
   6.2373349  59.5674789 105.3365026   3.3259255  72.0851051 104.0566909
   3.0259978  72.9876090 103.9482716   2.9810315  71.8183234 104.9088061
   6.7256399  64.6033591 101.7364346   5.8173276  64.5349000 101.4423107
   6.6743995  65.0805536 102.5646171   8.5918046  62.8050030 103.5142220
   7.9492426  63.0982563 102.8682014   8.0872974  62.6902950 104.3195416
   6.2458209  66.5513203  94.2028079   7.1576065  66.7840590  94.0275777
   5.7367856  67.1350247  93.6403158   0.8830047  65.9110438 105.2122929
   1.7291242  66.3349851 105.3557578   0.8228685  65.2544062 105.9061492
   4.8527791  71.5339021 101.5941661   4.2236654  71.6984736 100.8917728
   4.4653454  71.9480631 102.3652625   8.7317023  72.4693459  98.9486024
   8.0468062  72.8492361  98.3983058   8.8160873  73.0788786  99.6817972
   4.0329492  63.5714806 106.8704102   3.7890424  64.3256866 106.3338378
   4.3089423  63.9500153 107.7051349   5.9867955  70.1153418 105.5481368
   6.1984850  70.7585178 104.8715749   5.9397703  69.2815735 105.0803298
   3.5894184  62.7271239 102.4517940   2.7278663  63.0252492 102.7434678
   3.6156619  62.9441638 101.5198973   7.1013783  72.9925374 103.7203725
   7.9231227  72.5905561 103.4386407   7.0976186  72.8893608 104.6719841
  15.1919776  69.3364122 100.0688697  14.4383484  68.7671520  99.9132701
  15.3267317  69.3026787 101.0159331   0.5818404  74.2077524  95.7443416
   0.4464079  75.0529060  96.1728264   1.1228217  74.4096802  94.9809350
   3.9310868  57.7308086 104.2742309   3.5875137  58.6209728 104.1981420
   4.2989830  57.5409744 103.4111894   3.8961150  67.7216697  92.7814745
   3.3807774  68.4921302  93.0203132   3.6238459  67.0481834  93.4047806
   1.4808261  62.5666398  97.8399983   0.6249858  62.1773249  97.6605622
   1.8935213  62.6458359  96.9799768   3.0107408  60.1012741 102.2391543
   2.5072204  60.0642877 101.4259348   3.3038015  61.0105484 102.2988199
   8.8695424  70.4749052  94.7167918   8.0924867  70.1360212  94.2723080
   9.5486905  70.4801675  94.0422883   3.6847453  65.5943790  94.6074526
   3.3797589  65.9089939  95.4584669   4.6377896  65.6725209  94.6501859
   2.1293885  71.7534013  96.2567480   1.6015247  71.0186772  95.9440717
   1.6281388  72.5308689  96.0107448   7.1086731  69.9483033 101.3734526
   6.4510406  70.6382295 101.4614655   7.9127131  70.3379465 101.7168512
   5.9192190  68.3027406  99.4238468   6.4324072  68.9357398  99.9260177
   6.5693414  67.7028602  99.0581828   3.1814564  78.2811730  92.1799139
   2.5076263  78.5843427  92.7884097   3.5680386  79.0840811  91.8304596
   2.3973021  65.7776862 101.6696808   1.4795582  65.9991809 101.5118496
   2.8133165  65.8523172 100.8108516   3.1808069  67.1768277  96.7999489
   3.9279888  67.6889674  96.4906611   3.4499658  66.8552330  97.6603882
   1.4534719  69.6726818  93.7826443   0.5445938  69.3885851  93.8798913
   1.4829803  70.0925897  92.9229750   6.6853986  73.2833407  97.5517610
   6.2316313  72.4424317  97.6082801   6.0547953  73.9194806  97.8892391
   5.6286906  64.2125394  98.7818278   4.8909663  63.7002780  99.1128520
   5.8813679  63.7725775  97.9701555   5.1286926  75.1209904  98.4867429
   5.4209900  75.6814961  97.7679794   5.6385546  75.4138465  99.2420588
   5.7298533  56.9901646  99.3760047   6.0357410  56.1299009  99.0885962
   6.4551138  57.5819266  99.1759041   1.1510807  71.2135562  91.1214521
   0.7130237  70.4971421  90.6620159   1.8921248  71.4411676  90.5599613
   3.5386185  66.3674323 106.4741511   3.8935572  66.5945796 107.3335977
   4.1858316  66.6992700 105.8518766   9.2683922  69.4892759  97.1790840
   9.1301820  69.6794355  96.2512029   8.9120140  70.2512142  97.6358891
   9.2953301  71.5569286 102.1902111   9.7289808  71.4644575 103.0385166
  10.0084882  71.5326786 101.5522127  10.1568851  71.5992986 104.7234997
  10.3504741  72.5038797 104.9694272  10.0569469  71.1400405 105.5573582
   1.8105161  61.4850877 107.2225324   1.1633076  62.1840827 107.1289801
   2.5806177  61.9187021 107.5901572   1.9869296  69.3231642 105.2822144
   2.9161356  69.4742801 105.1091111   1.5660326  69.4115663 104.4270790
   1.3805780  78.4491403  94.3946218   1.5557535  77.9779446  95.2091841
   0.6938568  79.0757169  94.6227479   2.3362843  72.7263909 100.4409519
   2.0012675  72.6864679 101.3367169   1.8366788  72.0608625  99.9679930
   5.2722034  70.0719943  90.7146579   4.6551205  69.3466771  90.6179632
   4.8038523  70.8329304  90.3713653   6.9293573  72.7458436 106.6066339
   6.0420352  72.4084357 106.7292738   7.4992124  72.0141467 106.8435104
   3.5581156  62.4526287  99.7264609   4.0549856  61.6996250  99.4065679
   2.7868138  62.4890604  99.1607818  11.4110914  68.1566653 101.3682901
  11.4000790  69.0391368 100.9976834  10.5428293  67.8038204 101.1737438
   4.6410937  71.2097975  97.3003033   3.7067216  71.3299437  97.1307737
   4.8187606  70.3070441  97.0363042   8.0283488  67.0515294  97.8353067
   8.4943941  67.8843286  97.7613369   8.4790989  66.5860276  98.5398325
   6.0959720  73.3959115  94.8339219   6.3719563  73.2815710  95.7433093
   5.2264218  72.9976600  94.7951392   6.0000151  59.4195881 101.8743968
   5.0863231  59.6500108 102.0426175   6.4293253  59.5034325 102.7258000
   5.7706610  67.6085773 104.3743862   5.1178060  67.8561680 103.7196315
   6.1486990  66.7949911 104.0406339   2.7313784  77.6445466  98.4772032
   2.9136178  76.8267122  98.9399785   3.5546770  77.8613158  98.0396922
   3.0655949  76.5713651  95.7387081   3.5943716  76.0606106  95.1257243
   3.3284169  76.2556181  96.6032614   3.6985353  77.6054487 102.0831197
   3.5736492  76.8044227 101.5742143   4.3564444  78.1000680 101.5945167
   5.7620261  75.4063507 103.7110747   4.8150597  75.2868858 103.6389074
   6.1103034  74.5186005 103.7937009   2.7666695  75.2016223  99.9115100
   2.6191657  74.2732931 100.0922670   3.5920188  75.2236314  99.4272175
   6.3700816  76.0244782 100.9979972   7.2947364  75.8187643 100.8604424
   6.2016120  75.7761183 101.9069314   2.7628209  63.0554061  94.9047217
   2.9791823  63.9378699  94.6036045   2.2822276  62.6640274  94.1752859
   1.2149944  63.4379662 103.5751978   0.9567722  64.3596733 103.5736309
   0.6834984  63.0410097 104.2652443   6.1596133  76.5430449  96.3542064
   6.3333010  75.9776872  95.6015916   6.6525024  77.3431344  96.1721554
   1.6351899  59.5711613  99.9353141   1.6573596  59.6350946  98.9805121
   2.0519958  58.7316121 100.1293647  12.0135524  69.3066872  97.9732364
  12.4566670  68.5574198  97.5751487  11.1362034  69.2977009  97.5906096
   7.1471305  75.8597214  93.4538962   7.8422210  76.4803906  93.6726277
   7.4894455  75.0092565  93.7291340   9.0462728  73.3096919  94.9826293
   9.5714052  73.6484192  94.2575613   8.9585081  72.3743935  94.7989427
   8.8554509  70.7922289 107.6010219   8.9052514  70.6272297 108.5425742
   8.7468433  69.9249548 107.2108100   6.1458272  66.7753217 108.9169526
   7.0468134  66.6359682 108.6253524   6.2206246  66.9407672 109.8567704
  10.3572706  73.2119231 107.8452241  10.0657514  73.5749211 108.6815702
   9.7444837  72.4986239 107.6665573  11.5568388  70.7772111 100.3654811
  12.3915280  71.2161915 100.5292371  11.6927517  70.3010764  99.5463057
   8.6059894  68.3351845 106.3132299   9.0814016  68.5279492 105.5051150
   7.6825460  68.3911031 106.0675683   3.1840111  60.3699689 105.2788133
   3.7022055  61.1060716 104.9534621   2.8295244  60.6763682 106.1134892
   3.4352705  56.7899972 100.7989029   3.7154459  56.1223161 101.4249456
   4.2203312  56.9829067 100.2863693   1.2386174  75.9658965  92.3614056
   0.6660141  76.5849153  91.9084528   1.8118967  76.5158327  92.8953978
   7.3061563  65.2117606 104.5460604   8.2578986  65.3115703 104.5672829
   7.1365014  64.4195874 105.0558689   5.3275943  62.2973189 104.7320005
   4.7325875  62.5778202 104.0366494   5.0425640  62.7867090 105.5036747
   4.4583433  76.2496116  93.4922638   5.3914107  76.1841677  93.6955513
   4.3706646  77.0852382  93.0337171   7.0871450  75.5661986  90.4526586
   7.0085082  75.2321850  91.3462343   7.9081117  76.0583754  90.4518058
   9.7849641  68.4323725 103.6602904   9.7525961  67.4939726 103.8462588
  10.3950265  68.5107762 102.9268729   1.6232972  67.3019778  89.7030108
   2.5692077  67.1725986  89.7718526   1.2447217  66.5634440  90.1799536
   9.9344130  65.2234769 103.7061187   9.4183178  64.4393225 103.5191116
  10.8184078  64.8953485 103.8707707   7.5954857  58.9675784  99.6657000
   7.3979678  58.6590872 100.5500332   8.2054562  59.6937423  99.7954930
  15.6026191  69.4939732 102.8008941  16.3329580  69.2325020 103.3616644
  14.9933137  68.7568454 102.8411009  13.6841488  67.6347595 103.3983392
  12.9574652  67.5003560 102.7899884  13.2688775  67.9424423 104.2040110
   1.4237955  59.7706644  95.7929235   0.6138683  59.4253729  96.1684481
   2.1122372  59.4614188  96.3816846   3.3528503  58.8484691  97.4153531
   3.9059542  59.2680145  98.0743554   3.5898590  57.9220439  97.4576487
   6.7307310  60.9585216  96.9232196   6.1505979  61.6170020  96.5410248
   6.4643243  60.1362561  96.5119613   5.1810877  60.3590274  99.1253516
   5.6810655  60.4706809  98.3167835   5.8246485  60.0551327  99.7654324
   5.5132188  63.1185307  95.9788544   4.6258043  63.4034957  95.7608739
   5.9286177  62.9579070  95.1315821   8.8646724  63.1431828  99.6942883
   9.6407115  63.6328280  99.9667500   8.1394859  63.5689882 100.1514753
  11.3019283  63.8559447 100.7516824  11.8963774  63.6155183 100.0410132
  11.3745867  63.1366577 101.3790360   4.6575402  72.8829981  90.0736564
   5.3611252  73.0879984  90.6894219   3.9338051  73.4506743  90.3385647
   5.4873212  68.6339843  96.1938834   5.4308413  69.0908394  95.3546466
   6.0401555  67.8730527  96.0161677   9.2978018  64.4229574  97.0188954
   9.0414952  64.0226210  97.8497161   8.6730886  65.1373368  96.8939093
  13.6090356  67.1625648  99.5260245  13.0489914  67.2318837 100.2991807
  13.0033859  66.9866632  98.8059741   6.5662099  73.3212511  92.1235024
   7.4007703  72.8893709  91.9412499   6.4046442  73.1494524  93.0511918
   6.2207991  69.8244624  93.4891363   6.1656795  69.6588895  92.5479807
   5.5954047  70.5320657  93.6453553   3.3456236  55.9195510  97.3222618
   2.5788632  55.3653996  97.4679301   3.7566941  55.9917378  98.1836770
  15.1946374  83.8382162 102.2190201  15.8324784  83.7188909 101.5153541
  15.0767217  84.7863006 102.2778153  12.0036081  83.7909590 102.1551725
  11.6654592  83.6750654 101.2672260  12.8725849  83.3900755 102.1352731
   7.8622896  85.6445066  98.1448616   7.2987761  85.5535003  97.3764904
   7.7475291  84.8244971  98.6251109  13.4422455  89.3116034  93.4563081
  12.7910435  89.8970114  93.0697095  14.2366818  89.8422229  93.5158119
   7.3678082  86.4005171  93.8550216   8.1408958  85.8534158  93.7163091
   7.7203481  87.2649420  94.0664677  10.1319332  85.1058402 103.6518475
  10.7282904  84.8814424 102.9375437  10.1894303  84.3643147 104.2543922
   9.7044360  82.5597837  91.4868665   9.9569881  82.0379358  90.7252128
   8.7668919  82.3963983  91.5895349  14.7487643  81.5633616  99.2943409
  15.5350732  81.1453039  98.9433826  15.0126347  82.4679708  99.4625057
  14.9197720  87.0006466  93.9932066  14.2843553  87.0741092  94.7052970
  14.5895127  87.5900065  93.3151145  20.1496070  81.5008849 100.1976387
  20.8821242  80.9308066 100.4314217  19.3935426  81.1130449 100.6382893
   9.4240649  84.4625943  93.6893040   9.3076907  83.7870847  94.3574125
   9.5342909  83.9758317  92.8725193  11.7672190  83.9236090  97.3939730
  11.4030397  83.3966711  98.1052651  12.6239306  83.5334559  97.2206215
  17.6721490  75.2130423 104.6570996  17.3404815  76.0825834 104.4332211
  17.0767104  74.8966707 105.3365026  11.4077677  78.9525990  92.3901078
  11.5752079  79.8206226  92.7571549  11.2174846  79.1153272  91.4662367
  14.1653010  87.4142969 104.0566909  13.8653733  88.3168008 103.9482716
  13.8204069  87.1475152 104.9088061   7.6165491  83.8656766 100.0903613
   6.6915988  83.7332980 100.2981305   7.8649904  84.6450985 100.5873555
  17.5650154  79.9325509 101.7364346  16.6567031  79.8640917 101.4423107
  17.5137749  80.4097454 102.5646171  11.3866897  81.4083647  93.3747745
  11.2666523  81.8540698  94.2133225  10.6919486  81.7568965  92.8161283
   9.1473790  94.1787289  97.0237876   9.0697819  95.1295114  97.1026357
   8.5435433  93.8333162  97.6812803  19.4311800  78.1341947 103.5142220
  18.7886180  78.4274481 102.8682014  18.9266729  78.0194868 104.3195416
  17.0851964  81.8805121  94.2028079  17.9969820  82.1132507  94.0275777
  16.5761611  82.4642165  93.6403158  11.7223801  81.2402355 105.2122929
  12.5684997  81.6641769 105.3557578  11.6622439  80.5835980 105.9061492
  15.6921546  86.8630939 101.5941661  15.0630408  87.0276653 100.8917728
  15.3047208  87.2772549 102.3652625  19.5710778  87.7985377  98.9486024
  18.8861816  88.1784278  98.3983058  19.6554627  88.4080704  99.6817972
  14.8723247  78.9006724 106.8704102  14.6284179  79.6548784 106.3338378
  15.1483177  79.2792071 107.7051349  16.8261709  85.4445336 105.5481368
  17.0378605  86.0877096 104.8715749  16.7791458  84.6107652 105.0803298
  14.4287938  78.0563157 102.4517940  13.5672417  78.3544410 102.7434678
  14.4550373  78.2733555 101.5198973  11.2449508  86.6005347  98.8591746
  11.7087853  86.8793050  98.0696368  10.9806306  85.6988792  98.6764836
   8.1373589  86.1476829 101.7971509   8.7074946  86.5764097 101.1588993
   8.7281701  85.8659413 102.4955695  10.1818394  82.7228500  95.6681311
  10.8842437  83.1749543  96.1355237   9.8499022  82.0812318  96.2961204
   3.9243728  80.9812052 100.9698444   3.1342782  81.2369581 100.4938555
   4.4154975  81.7960390 101.0750485  17.9407537  88.3217291 103.7203725
  18.7624981  87.9197479 103.4386407  17.9369940  88.2185526 104.6719841
   5.8758473  81.3456631  97.9281921   5.0789637  81.4575326  98.4465417
   5.6484065  81.6843284  97.0622812  26.0313530  84.6656040 100.0688697
  25.2777239  84.0963438  99.9132701  26.1661072  84.6318704 101.0159331
  11.4212159  89.5369442  95.7443416  11.2857833  90.3820978  96.1728264
  11.9621971  89.7388720  94.9809350   4.8741556  87.0544880  96.3171341
   5.3866076  87.8488130  96.4676906   5.5264269  86.3571171  96.2504943
   6.6836441  90.1710636  98.3994094   6.8603069  91.0928601  98.2115078
   7.4793274  89.8569056  98.8288474  14.7704622  73.0600004 104.2742309
  14.4268891  73.9501646 104.1981420  15.1383585  72.8701662 103.4111894
   2.8390473  85.3833534  97.0930912   3.6765695  85.7930543  96.8764619
   3.0168740  84.4432977  97.0631105  14.7354905  83.0508615  92.7814745
  14.2201528  83.8213220  93.0203132  14.4632213  82.3773751  93.4047806
  12.3202016  77.8958316  97.8399983  11.4643612  77.5065166  97.6605622
  12.7328968  77.9750277  96.9799768  13.8501162  75.4304659 102.2391543
  13.3465958  75.3934794 101.4259348  14.1431769  76.3397402 102.2988199
  10.0944048  75.5143389 101.2457724  10.9597045  75.3186198 100.8863614
  10.1621557  75.2853741 102.1727081  19.7089179  85.8040970  94.7167918
  18.9318622  85.4652129  94.2723080  20.3880660  85.8093593  94.0422883
  14.5241208  80.9235707  94.6074526  14.2191344  81.2381856  95.4584669
  15.4771650  81.0017127  94.6501859  12.9687640  87.0825931  96.2567480
  12.4409001  86.3478690  95.9440717  12.4675143  87.8600607  96.0107448
  17.9480486  85.2774951 101.3734526  17.2904160  85.9674212 101.4614655
  18.7520885  85.6671383 101.7168512   7.7006367  77.7445597  98.6174091
   8.2750119  77.5220778  97.8847284   8.2877350  77.8134291  99.3702693
  16.7585945  83.6319324  99.4238468  17.2717826  84.2649316  99.9260177
  17.4087169  83.0320519  99.0581828   8.0275955  79.7750058  92.6369976
   7.1913267  80.1124744  92.9579251   7.8880724  79.6399038  91.6997113
  10.0029035  74.6186846  97.3449161   9.3493447  74.3035863  96.7205775
   9.9609509  73.9962586  98.0708984  11.1140240  84.9006141  89.2602453
  10.2067302  84.6695394  89.4593602  11.6111272  84.1043760  89.4476434
  14.0208319  93.6103648  92.1799139  13.3470018  93.9135345  92.7884097
  14.4074141  94.4132728  91.8304596  13.2366776  81.1068779 101.6696808
  12.3189337  81.3283726 101.5118496  13.6526919  81.1815090 100.8108516
  14.0201823  82.5060195  96.7999489  14.7673642  83.0181592  96.4906611
  14.2893413  82.1844248  97.6603882  12.2928473  85.0018736  93.7826443
  11.3839693  84.7177768  93.8798913  12.3223557  85.4217814  92.9229750
  17.5247741  88.6125325  97.5517610  17.0710068  87.7716235  97.6082801
  16.8941708  89.2486724  97.8892391  16.4680660  79.5417311  98.7818278
  15.7303417  79.0294697  99.1128520  16.7207434  79.1017693  97.9701555
  15.9680680  90.4501822  98.4867429  16.2603654  91.0106879  97.7679794
  16.4779301  90.7430383  99.2420588  16.5692288  72.3193563  99.3760047
  16.8751165  71.4590927  99.0885962  17.2944893  72.9111183  99.1759041
   2.8616644  82.7224250  97.7641645   2.6641044  82.1293610  97.0392712
   2.3063308  82.4176460  98.4817584  10.8413367  82.6147356  99.8836238
  10.8961977  81.6621193  99.8078715  10.0304570  82.7706795 100.3677537
  11.9904561  86.5427479  91.1214521  11.5523991  85.8263338  90.6620159
  12.7315002  86.7703594  90.5599613   8.7805727  81.2324416  97.6426617
   7.9673593  81.5318587  98.0491809   9.2764722  80.8380105  98.3601099
  10.9314305  91.2282173  99.5760882  10.8890484  91.4543019  98.6469414
  11.8477004  90.9945548  99.7246683  14.3779939  81.6966240 106.4741511
  14.7329327  81.9237714 107.3335977  15.0252070  82.0284617 105.8518766
  20.1077676  84.8184676  97.1790840  19.9695575  85.0086272  96.2512029
  19.7513895  85.5804059  97.6358891   8.2719802  78.8042772 103.2587852
   8.9119181  78.6631531 102.5610815   7.4397333  78.5177285 102.8826454
  20.1347056  86.8861203 102.1902111  20.5683562  86.7936492 103.0385166
  20.8478636  86.8618704 101.5522127   9.0480106  88.1045202  99.3722844
   9.8420705  87.6095522  99.1705419   8.3371798  87.5763065  99.0090550
   5.3562870  82.2488284  95.4482597   4.4260458  82.1872739  95.6652559
   5.4520342  81.7264236  94.6519238   5.2748419  78.7743097  98.0360839
   5.5355236  79.6888430  97.9269999   6.0965591  78.3067539  98.1857452
  20.9962605  86.9284904 104.7234997  21.1898495  87.8330715 104.9694272
  20.8963223  86.4692323 105.5573582  12.6498916  76.8142795 107.2225324
  12.0026831  77.5132744 107.1289801  13.4199931  77.2478939 107.5901572
  12.8263050  84.6523560 105.2822144  13.7555110  84.8034719 105.1091111
  12.4054080  84.7407580 104.4270790  12.2199534  93.7783320  94.3946218
  12.3951290  93.3071364  95.2091841  11.5332322  94.4049087  94.6227479
  13.1756597  88.0555827 100.4409519  12.8406430  88.0156597 101.3367169
  12.6760543  87.3900543  99.9679930  16.1115789  85.4011861  90.7146579
  15.4944959  84.6758689  90.6179632  15.6432277  86.1621221  90.3713653
   7.9014335  79.6197285  89.8367883   7.0243801  79.4986086  89.4730130
   8.3772088  78.8283364  89.5846772  17.7687328  88.0750353 106.6066339
  16.8814107  87.7376275 106.7292738  18.3385879  87.3433384 106.8435104
  11.0878261  91.9723576  97.0830404  10.3045783  92.5145256  97.1768628
  11.7871006  92.4897555  97.4824645  14.3974911  77.7818205  99.7264609
  14.8943610  77.0288167  99.4065679  13.6261892  77.8182522  99.1607818
  22.2504668  83.4858571 101.3682901  22.2394545  84.3683286 100.9976834
  21.3822048  83.1330121 101.1737438  15.4804692  86.5389892  97.3003033
  14.5460970  86.6591355  97.1307737  15.6581360  85.6362359  97.0363042
  10.9809880  79.9235588  99.4536294  10.6107667  79.3706628 100.1417199
  11.4768972  79.3193722  98.9011294  18.8677243  82.3807212  97.8353067
  19.3337695  83.2135203  97.7613369  19.3184743  81.9152193  98.5398325
  16.9353474  88.7251033  94.8339219  17.2113318  88.6107627  95.7433093
  16.0657973  88.3268518  94.7951392  16.8393906  74.7487799 101.8743968
  15.9256985  74.9792025 102.0426175  17.2687007  74.8326243 102.7258000
  16.6100364  82.9377691 104.3743862  15.9571814  83.1853598 103.7196315
  16.9880744  82.1241829 104.0406339  13.5707538  92.9737384  98.4772032
  13.7529933  92.1559040  98.9399785  14.3940524  93.1905076  98.0396922
  13.9049704  91.9005569  95.7387081  14.4337470  91.3898023  95.1257243
  14.1677923  91.5848099  96.6032614   6.3775213  77.3339579 105.6989400
   6.4416540  78.1954410 105.2866798   6.3142334  76.7213581 104.9661758
   2.6293029  81.2139141  95.2780789   2.9246470  80.3049819  95.2247843
   1.7281064  81.1926880  94.9561791  14.5379107  92.9346405 102.0831197
  14.4130247  92.1336144 101.5742143  15.1958198  93.4292598 101.5945167
   6.1587276  79.2895137 101.2608338   5.4373861  79.9031105 101.1215811
   6.9480531  79.8252902 101.1824983  16.6014016  90.7355425 103.7110747
  15.6544351  90.6160776 103.6389074  16.9496789  89.8477923 103.7937009
   8.9613589  76.6249564 107.5348989   9.4847991  76.8711860 108.2975299
   8.7425922  77.4569598 107.1152127   4.3580870  78.8953238  95.4020114
   4.0293576  78.0150617  95.2195220   4.7120241  78.8400907  96.2896503
  13.6060449  90.5308141  99.9115100  13.4585411  89.6024848 100.0922670
  14.4313943  90.5528232  99.4272175   7.4722693  79.1826208  95.7695592
   7.8118766  79.7112129  95.0474200   7.9194814  79.5206614  96.5454158
  17.2094571  91.3536700 100.9979972  18.1341118  91.1479561 100.8604424
  17.0409874  91.1053101 101.9069314  10.1666134  77.5663259 105.2198660
   9.8262955  76.7671072 105.6219340   9.4605140  77.8664970 104.6475493
  10.8182606  74.6512571 103.6725983  11.6408675  74.1773049 103.5504873
  11.0620670  75.4303055 104.1724669   9.4590840  77.6800830  93.9688885
  10.1799203  78.0582082  93.4652601   8.8356145  78.3989706  94.0723862
  13.6021963  78.3845979  94.9047217  13.8185578  79.2670616  94.6036045
  13.1216031  77.9932192  94.1752859   8.3421185  81.3431692 101.4817961
   8.1965765  81.6571995 102.3742243   7.8646388  81.9616592 100.9288860
  10.2017568  78.3334240 101.5298851  10.1879136  77.4375333 101.1931149
  10.9189996  78.3404903 102.1637137  12.0543698  78.7671580 103.5751978
  11.7961476  79.6888651 103.5736309  11.5228739  78.3702014 104.2652443
  16.9989887  91.8722367  96.3542064  17.1726765  91.3068790  95.6015916
  17.4918778  92.6723262  96.1721554   9.6054464  77.2148620  96.7986421
   9.7270375  76.2865266  96.9977309   9.3156506  77.2287306  95.8864737
  12.4745654  74.9003530  99.9353141  12.4967351  74.9642864  98.9805121
  12.8913713  74.0608039 100.1293647  22.8529278  84.6358790  97.9732364
  23.2960424  83.8866115  97.5751487  21.9755789  84.6268926  97.5906096
  17.9865060  91.1889131  93.4538962  18.6815964  91.8095824  93.6726277
  18.3288210  90.3384483  93.7291340  19.8856483  88.6388837  94.9826293
  20.4107807  88.9776110  94.2575613  19.7978835  87.7035852  94.7989427
  19.6948264  86.1214207 107.6010219  19.7446269  85.9564214 108.5425742
  19.5862187  85.2541466 107.2108100   8.5784523  88.8002753  94.8902308
   8.7272643  89.4838217  94.2368981   9.3850966  88.7807843  95.4051764
  16.9852026  82.1045135 108.9169526  17.8861889  81.9651600 108.6253524
  17.0600001  82.2699590 109.8567704  11.3194832  79.4811990 107.7622712
  10.4498141  79.7745556 107.4905301  11.5554312  80.0652435 108.4829976
  21.1966461  88.5411149 107.8452241  20.9051269  88.9041129 108.6815702
  20.5838592  87.8278157 107.6665573  22.3962143  86.1064028 100.3654811
  23.2309034  86.5453832 100.5292371  22.5321272  85.6302682  99.5463057
  19.4453649  83.6643763 106.3132299  19.9207771  83.8571409 105.5051150
  18.5219214  83.7202949 106.0675683   6.3337156  84.8267930  95.8963377
   6.0883197  83.9230260  96.0943587   6.5033070  84.8285081  94.9542855
  14.0233865  75.6991607 105.2788133  14.5415809  76.4352634 104.9534621
  13.6688998  76.0055600 106.1134892   5.6032803  80.5596288  93.3949539
   4.9102048  80.6340643  92.7389575   5.3584555  79.7956632  93.9171056
  14.2746460  72.1191889 100.7989029  14.5548213  71.4515078 101.4249456
  15.0597066  72.3120985 100.2863693  12.0779928  91.2950883  92.3614056
  11.5053895  91.9141070  91.9084528  12.6512722  91.8450245  92.8953978
  18.1455318  80.5409523 104.5460604  19.0972741  80.6407621 104.5672829
  17.9758768  79.7487792 105.0558689  16.1669697  77.6265106 104.7320005
  15.5719629  77.9070119 104.0366494  15.8819394  78.1159007 105.5036747
  15.2977188  91.5788033  93.4922638  16.2307861  91.5133595  93.6955513
  15.2100401  92.4144300  93.0337171  17.9265205  90.8953904  90.4526586
  17.8478836  90.5613767  91.3462343  18.7474871  91.3875672  90.4518058
  20.6243396  83.7615643 103.6602904  20.5919716  82.8231644 103.8462588
  21.2344019  83.8399680 102.9268729  12.4626727  82.6311696  89.7030108
  13.4085831  82.5017904  89.7718526  12.0840972  81.8926358  90.1799536
  20.7737884  80.5526686 103.7061187  20.2576933  79.7685143 103.5191116
  21.6577833  80.2245403 103.8707707  18.4348611  74.2967702  99.6657000
  18.2373432  73.9882790 100.5500332  19.0448317  75.0229341  99.7954930
  26.4419946  84.8231650 102.8008941  27.1723334  84.5616938 103.3616644
  25.8326891  84.0860372 102.8411009  24.5235243  82.9639512 103.3983392
  23.7968406  82.8295477 102.7899884  24.1082530  83.2716341 104.2040110
  10.6469644  80.5561672  89.6384993   9.7401099  80.2594785  89.7147707
  10.9245625  80.2591490  88.7719280  12.2631709  75.0998562  95.7929235
  11.4532438  74.7545647  96.1684481  12.9516126  74.7906106  96.3816846
  14.1922258  74.1776609  97.4153531  14.7453296  74.5972062  98.0743554
  14.4292344  73.2512357  97.4576487   9.4168428  77.4148608  89.7796973
  10.2787592  77.7403506  90.0392790   9.6018772  76.6280103  89.2670038
  17.5701065  76.2877134  96.9232196  16.9899734  76.9461938  96.5410248
  17.3036997  75.4654479  96.5119613  16.0204631  75.6882192  99.1253516
  16.5204410  75.7998726  98.3167835  16.6640239  75.3843245  99.7654324
  16.3525943  78.4477224  95.9788544  15.4651798  78.7326875  95.7608739
  16.7679932  78.2870988  95.1315821  19.7040479  78.4723745  99.6942883
  20.4800869  78.9620198  99.9667500  18.9788613  78.8981800 100.1514753
  22.1413038  79.1851365 100.7516824  22.7357528  78.9447101 100.0410132
  22.2139621  78.4658495 101.3790360  15.4969156  88.2121899  90.0736564
  16.2005006  88.4171902  90.6894219  14.7731805  88.7798661  90.3385647
  16.3266967  83.9631760  96.1938834  16.2702168  84.4200312  95.3546466
  16.8795309  83.2022445  96.0161677  20.1371772  79.7521492  97.0188954
  19.8808707  79.3518128  97.8497161  19.5124641  80.4665286  96.8939093
  24.4484110  82.4917565  99.5260245  23.8883668  82.5610755 100.2991807
  23.8427614  82.3158550  98.8059741  17.4055854  88.6504428  92.1235024
  18.2401458  88.2185627  91.9412499  17.2440197  88.4786442  93.0511918
  17.0601746  85.1536542  93.4891363  17.0050550  84.9880813  92.5479807
  16.4347801  85.8612574  93.6453553  10.3697871  74.6544651  93.0676682
  10.3576541  75.5986490  93.2244952  11.2621293  74.4714796  92.7736143
  14.1849991  71.2487427  97.3222618  13.4182387  70.6945914  97.4679301
  14.5960696  71.3209296  98.1836770  26.0340129  99.1674079 102.2190201
  26.6718539  99.0480827 101.5153541  25.9160972 100.1154923 102.2778153
  22.8429835  99.1201507 102.1551725  22.5048347  99.0042572 101.2672260
  23.7119603  98.7192673 102.1352731  18.7016651 100.9736984  98.1448616
  18.1381516 100.8826921  97.3764904  18.5869046 100.1536888  98.6251109
  24.2816209 104.6407952  93.4563081  23.6304189 105.2262032  93.0697095
  25.0760572 105.1714146  93.5158119  18.2071837 101.7297089  93.8550216
  18.9802713 101.1826076  93.7163091  18.5597236 102.5941338  94.0664677
  20.9713086 100.4350320 103.6518475  21.5676658 100.2106342 102.9375437
  21.0288058  99.6935065 104.2543922  20.5438114  97.8889755  91.4868665
  20.7963635  97.3671276  90.7252128  19.6062674  97.7255900  91.5895349
  25.5881397  96.8925533  99.2943409  26.3744487  96.4744956  98.9433826
  25.8520102  97.7971625  99.4625057  25.7591475 102.3298384  93.9932066
  25.1237308 102.4033010  94.7052970  25.4288881 102.9191982  93.3151145
  30.9889824  96.8300766 100.1976387  31.7214996  96.2599983 100.4314217
  30.2329180  96.4422367 100.6382893  20.2634403  99.7917861  93.6893040
  20.1470661  99.1162764  94.3574125  20.3736663  99.3050235  92.8725193
  22.6065944  99.2528008  97.3939730  22.2424151  98.7258629  98.1052651
  23.4633060  98.8626477  97.2206215  28.5115245  90.5422341 104.6570996
  28.1798570  91.4117751 104.4332211  27.9160858  90.2258625 105.3365026
  22.2471431  94.2817908  92.3901078  22.4145833  95.1498144  92.7571549
  22.0568600  94.4445189  91.4662367  25.0046764 102.7434887 104.0566909
  24.7047487 103.6459925 103.9482716  24.6597824 102.4767070 104.9088061
  18.4559246  99.1948683 100.0903613  17.5309742  99.0624897 100.2981305
  18.7043659  99.9742903 100.5873555  28.4043908  95.2617427 101.7364346
  27.4960785  95.1932835 101.4423107  28.3531504  95.7389372 102.5646171
  22.2260652  96.7375565  93.3747745  22.1060277  97.1832616  94.2133225
  21.5313240  97.0860883  92.8161283  19.9867544 109.5079207  97.0237876
  19.9091574 110.4587032  97.1026357  19.3829188 109.1625079  97.6812803
  30.2705554  93.4633865 103.5142220  29.6279935  93.7566398 102.8682014
  29.7660483  93.3486785 104.3195416  27.9245718  97.2097038  94.2028079
  28.8363574  97.4424425  94.0275777  27.4155365  97.7934082  93.6403158
  22.5617556  96.5694273 105.2122929  23.4078751  96.9933686 105.3557578
  22.5016194  95.9127897 105.9061492  26.5315300 102.1922857 101.5941661
  25.9024163 102.3568571 100.8917728  26.1440963 102.6064466 102.3652625
  30.4104532 103.1277295  98.9486024  29.7255571 103.5076196  98.3983058
  30.4948382 103.7372621  99.6817972  25.7117001  94.2298641 106.8704102
  25.4677933  94.9840702 106.3338378  25.9876932  94.6083989 107.7051349
  27.6655464 100.7737254 105.5481368  27.8772359 101.4169013 104.8715749
  27.6185212  99.9399570 105.0803298  25.2681693  93.3855074 102.4517940
  24.4066172  93.6836328 102.7434678  25.2944128  93.6025473 101.5198973
  22.0843262 101.9297265  98.8591746  22.5481608 102.2084968  98.0696368
  21.8200060 101.0280709  98.6764836  18.9767343 101.4768746 101.7971509
  19.5468700 101.9056015 101.1588993  19.5675455 101.1951331 102.4955695
  21.0212148  98.0520417  95.6681311  21.7236192  98.5041461  96.1355237
  20.6892777  97.4104236  96.2961204  14.7637482  96.3103970 100.9698444
  13.9736536  96.5661498 100.4938555  15.2548730  97.1252308 101.0750485
  28.7801292 103.6509209 103.7203725  29.6018736 103.2489396 103.4386407
  28.7763695 103.5477443 104.6719841  16.7152228  96.6748549  97.9281921
  15.9183391  96.7867243  98.4465417  16.4877820  97.0135201  97.0622812
  36.8707285  99.9947958 100.0688697  36.1170993  99.4255356  99.9132701
  37.0054826  99.9610622 101.0159331  22.2605913 104.8661360  95.7443416
  22.1251588 105.7112896  96.1728264  22.8015726 105.0680637  94.9809350
  15.7135310 102.3836798  96.3171341  16.2259831 103.1780048  96.4676906
  16.3658023 101.6863088  96.2504943  17.5230195 105.5002554  98.3994094
  17.6996823 106.4220519  98.2115078  18.3187029 105.1860973  98.8288474
  25.6098377  88.3891922 104.2742309  25.2662646  89.2793563 104.1981420
  25.9777339  88.1993579 103.4111894  13.6784227 100.7125452  97.0930912
  14.5159449 101.1222461  96.8764619  13.8562495  99.7724894  97.0631105
  25.5748659  98.3800533  92.7814745  25.0595283  99.1505137  93.0203132
  25.3025968  97.7065669  93.4047806  23.1595770  93.2250234  97.8399983
  22.3037367  92.8357084  97.6605622  23.5722722  93.3042194  96.9799768
  24.6894917  90.7596577 102.2391543  24.1859713  90.7226712 101.4259348
  24.9825524  91.6689320 102.2988199  20.9337803  90.8435307 101.2457724
  21.7990800  90.6478115 100.8863614  21.0015312  90.6145658 102.1727081
  30.5482933 101.1332887  94.7167918  29.7712376 100.7944047  94.2723080
  31.2274414 101.1385511  94.0422883  25.3634962  96.2527625  94.6074526
  25.0585098  96.5673774  95.4584669  26.3165405  96.3309045  94.6501859
  23.8081394 102.4117848  96.2567480  23.2802756 101.6770608  95.9440717
  23.3068897 103.1892525  96.0107448  28.7874240 100.6066869 101.3734526
  28.1297915 101.2966130 101.4614655  29.5914640 100.9963301 101.7168512
  18.5400122  93.0737514  98.6174091  19.1143874  92.8512696  97.8847284
  19.1271104  93.1426209  99.3702693  27.5979699  98.9611241  99.4238468
  28.1111581  99.5941233  99.9260177  28.2480923  98.3612437  99.0581828
  18.8669709  95.1041976  92.6369976  18.0307021  95.4416662  92.9579251
  18.7274479  94.9690955  91.6997113  20.8422790  89.9478763  97.3449161
  20.1887202  89.6327781  96.7205775  20.8003264  89.3254504  98.0708984
  21.9533994 100.2298058  89.2602453  21.0461056  99.9987312  89.4593602
  22.4505026  99.4335678  89.4476434  24.8602073 108.9395566  92.1799139
  24.1863772 109.2427262  92.7884097  25.2467895 109.7424646  91.8304596
  24.0760530  96.4360697 101.6696808  23.1583091  96.6575644 101.5118496
  24.4920674  96.5107007 100.8108516  24.8595578  97.8352113  96.7999489
  25.6067397  98.3473510  96.4906611  25.1287167  97.5136165  97.6603882
  23.1322228 100.3310653  93.7826443  22.2233447 100.0469686  93.8798913
  23.1617312 100.7509732  92.9229750  28.3641495 103.9417243  97.5517610
  27.9103822 103.1008153  97.6082801  27.7335462 104.5778641  97.8892391
  27.3074415  94.8709229  98.7818278  26.5697172  94.3586615  99.1128520
  27.5601188  94.4309610  97.9701555  26.8074435 105.7793740  98.4867429
  27.0997409 106.3398797  97.7679794  27.3173055 106.0722301  99.2420588
  27.4086042  87.6485481  99.3760047  27.7144919  86.7882844  99.0885962
  28.1338647  88.2403101  99.1759041  13.7010398  98.0516167  97.7641645
  13.5034798  97.4585528  97.0392712  13.1457062  97.7468378  98.4817584
  21.6807122  97.9439274  99.8836238  21.7355732  96.9913110  99.8078715
  20.8698324  98.0998713 100.3677537  22.8298316 101.8719397  91.1214521
  22.3917746 101.1555256  90.6620159  23.5708757 102.0995512  90.5599613
  19.6199482  96.5616334  97.6426617  18.8067347  96.8610504  98.0491809
  20.1158476  96.1672022  98.3601099  21.7708060 106.5574091  99.5760882
  21.7284239 106.7834937  98.6469414  22.6870759 106.3237465  99.7246683
  25.2173694  97.0258158 106.4741511  25.5723081  97.2529631 107.3335977
  25.8645825  97.3576535 105.8518766  30.9471431 100.1476594  97.1790840
  30.8089329 100.3378190  96.2512029  30.5907649 100.9095977  97.6358891
  19.1113557  94.1334689 103.2587852  19.7512936  93.9923448 102.5610815
  18.2791087  93.8469203 102.8826454  30.9740810 102.2153121 102.1902111
  31.4077317 102.1228410 103.0385166  31.6872391 102.1910622 101.5522127
  19.8873861 103.4337120  99.3722844  20.6814459 102.9387440  99.1705419
  19.1765553 102.9054983  99.0090550  16.1956624  97.5780201  95.4482597
  15.2654212  97.5164657  95.6652559  16.2914096  97.0556154  94.6519238
  16.1142173  94.1035014  98.0360839  16.3748990  95.0180347  97.9269999
  16.9359345  93.6359457  98.1857452  31.8356360 102.2576822 104.7234997
  32.0292250 103.1622632 104.9694272  31.7356978 101.7984241 105.5573582
  23.4892670  92.1434712 107.2225324  22.8420585  92.8424662 107.1289801
  24.2593686  92.5770856 107.5901572  23.6656805  99.9815477 105.2822144
  24.5948865 100.1326637 105.1091111  23.2447835 100.0699498 104.4270790
  23.0593289 109.1075238  94.3946218  23.2345044 108.6363281  95.2091841
  22.3726077 109.7341004  94.6227479  24.0150352 103.3847744 100.4409519
  23.6800184 103.3448514 101.3367169  23.5154297 102.7192460  99.9679930
  26.9509543 100.7303779  90.7146579  26.3338714 100.0050607  90.6179632
  26.4826032 101.4913139  90.3713653  18.7408089  94.9489203  89.8367883
  17.8637556  94.8278004  89.4730130  19.2165842  94.1575281  89.5846772
  28.6081082 103.4042271 106.6066339  27.7207861 103.0668193 106.7292738
  29.1779633 102.6725302 106.8435104  21.9272015 107.3015493  97.0830404
  21.1439537 107.8437174  97.1768628  22.6264760 107.8189473  97.4824645
  25.2368665  93.1110123  99.7264609  25.7337365  92.3580085  99.4065679
  24.4655647  93.1474439  99.1607818  33.0898423  98.8150488 101.3682901
  33.0788299  99.6975204 100.9976834  32.2215802  98.4622039 101.1737438
  26.3198446 101.8681810  97.3003033  25.3854725 101.9883272  97.1307737
  26.4975115 100.9654277  97.0363042  21.8203634  95.2527506  99.4536294
  21.4501422  94.6998546 100.1417199  22.3162727  94.6485639  98.9011294
  29.7070997  97.7099129  97.8353067  30.1731450  98.5427121  97.7613369
  30.1578498  97.2444111  98.5398325  27.7747229 104.0542951  94.8339219
  28.0507072 103.9399545  95.7433093  26.9051727 103.6560435  94.7951392
  27.6787660  90.0779716 101.8743968  26.7650740  90.3083943 102.0426175
  28.1080762  90.1618160 102.7258000  27.4494119  98.2669608 104.3743862
  26.7965569  98.5145516 103.7196315  27.8274499  97.4533746 104.0406339
  24.4101293 108.3029301  98.4772032  24.5923687 107.4850957  98.9399785
  25.2334279 108.5196994  98.0396922  24.7443458 107.2297487  95.7387081
  25.2731224 106.7189941  95.1257243  25.0071678 106.9140017  96.6032614
  17.2168968  92.6631497 105.6989400  17.2810294  93.5246327 105.2866798
  17.1536088  92.0505498 104.9661758  13.4686783  96.5431058  95.2780789
  13.7640224  95.6341737  95.2247843  12.5674819  96.5218798  94.9561791
  25.3772862 108.2638322 102.0831197  25.2524001 107.4628062 101.5742143
  26.0351953 108.7584516 101.5945167  16.9981030  94.6187055 101.2608338
  16.2767616  95.2323022 101.1215811  17.7874286  95.1544820 101.1824983
  27.4407770 106.0647342 103.7110747  26.4938106 105.9452694 103.6389074
  27.7890543 105.1769840 103.7937009  19.8007344  91.9541481 107.5348989
  20.3241745  92.2003778 108.2975299  19.5819677  92.7861516 107.1152127
  15.1974625  94.2245156  95.4020114  14.8687331  93.3442535  95.2195220
  15.5513995  94.1692825  96.2896503  24.4454204 105.8600059  99.9115100
  24.2979166 104.9316766 100.0922670  25.2707697 105.8820149  99.4272175
  18.3116448  94.5118126  95.7695592  18.6512520  95.0404047  95.0474200
  18.7588568  94.8498532  96.5454158  28.0488325 106.6828617 100.9979972
  28.9734873 106.4771479 100.8604424  27.8803629 106.4345018 101.9069314
  21.0059889  92.8955176 105.2198660  20.6656709  92.0962989 105.6219340
  20.2998895  93.1956887 104.6475493  21.6576360  89.9804489 103.6725983
  22.4802430  89.5064967 103.5504873  21.9014424  90.7594973 104.1724669
  20.2984595  93.0092747  93.9688885  21.0192957  93.3874000  93.4652601
  19.6749899  93.7281624  94.0723862  24.4415718  93.7137896  94.9047217
  24.6579332  94.5962534  94.6036045  23.9609785  93.3224110  94.1752859
  19.1814939  96.6723609 101.4817961  19.0359520  96.9863913 102.3742243
  18.7040143  97.2908510 100.9288860  21.0411322  93.6626157 101.5298851
  21.0272891  92.7667251 101.1931149  21.7583750  93.6696821 102.1637137
  22.8937453  94.0963498 103.5751978  22.6355231  95.0180568 103.5736309
  22.3622493  93.6993932 104.2652443  27.8383642 107.2014285  96.3542064
  28.0120519 106.6360707  95.6015916  28.3312533 108.0015180  96.1721554
  20.4448218  92.5440538  96.7986421  20.5664129  91.6157184  96.9977309
  20.1550260  92.5579224  95.8864737  23.3139408  90.2295448  99.9353141
  23.3361105  90.2934781  98.9805121  23.7307467  89.3899957 100.1293647
  33.6923033  99.9650708  97.9732364  34.1354179  99.2158033  97.5751487
  32.8149543  99.9560844  97.5906096  28.8258814 106.5181049  93.4538962
  29.5209719 107.1387742  93.6726277  29.1681964 105.6676400  93.7291340
  30.7250237 103.9680755  94.9826293  31.2501561 104.3068027  94.2575613
  30.6372590 103.0327770  94.7989427  30.5342018 101.4506125 107.6010219
  30.5840023 101.2856132 108.5425742  30.4255942 100.5833384 107.2108100
  19.4178277 104.1294670  94.8902308  19.5666397 104.8130135  94.2368981
  20.2244720 104.1099760  95.4051764  27.8245781  97.4337053 108.9169526
  28.7255643  97.2943518 108.6253524  27.8993755  97.5991508 109.8567704
  22.1588586  94.8103907 107.7622712  21.2891895  95.1037474 107.4905301
  22.3948066  95.3944352 108.4829976  32.0360215 103.8703066 107.8452241
  31.7445023 104.2333047 108.6815702  31.4232346 103.1570075 107.6665573
  33.2355897 101.4355946 100.3654811  34.0702789 101.8745750 100.5292371
  33.3715026 100.9594599  99.5463057  30.2847403  98.9935681 106.3132299
  30.7601525  99.1863327 105.5051150  29.3612969  99.0494867 106.0675683
  17.1730910 100.1559848  95.8963377  16.9276952  99.2522178  96.0943587
  17.3426825 100.1576998  94.9542855  24.8627620  91.0283524 105.2788133
  25.3809564  91.7644551 104.9534621  24.5082753  91.3347518 106.1134892
  16.4426558  95.8888206  93.3949539  15.7495802  95.9632561  92.7389575
  16.1978309  95.1248549  93.9171056  25.1140214  87.4483807 100.7989029
  25.3941968  86.7806996 101.4249456  25.8990821  87.6412903 100.2863693
  22.9173683 106.6242801  92.3614056  22.3447650 107.2432988  91.9084528
  23.4906476 107.1742163  92.8953978  28.9849072  95.8701441 104.5460604
  29.9366495  95.9699539 104.5672829  28.8152523  95.0779709 105.0558689
  27.0063452  92.9557024 104.7320005  26.4113384  93.2362037 104.0366494
  26.7213149  93.4450925 105.5036747  26.1370942 106.9079951  93.4922638
  27.0701615 106.8425513  93.6955513  26.0494155 107.7436218  93.0337171
  28.7658959 106.2245821  90.4526586  28.6872591 105.8905685  91.3462343
  29.5868626 106.7167589  90.4518058  31.4637150  99.0907561 103.6602904
  31.4313470  98.1523561 103.8462588  32.0737774  99.1691597 102.9268729
  23.3020481  97.9603614  89.7030108  24.2479586  97.8309822  89.7718526
  22.9234726  97.2218276  90.1799536  31.6131639  95.8818604 103.7061187
  31.0970687  95.0977061 103.5191116  32.4971587  95.5537321 103.8707707
  29.2742366  89.6259620  99.6657000  29.0767187  89.3174708 100.5500332
  29.8842071  90.3521259  99.7954930  37.2813700 100.1523567 102.8008941
  38.0117089  99.8908856 103.3616644  36.6720646  99.4152289 102.8411009
  35.3628997  98.2931430 103.3983392  34.6362161  98.1587395 102.7899884
  34.9476284  98.6008259 104.2040110  21.4863398  95.8853590  89.6384993
  20.5794854  95.5886703  89.7147707  21.7639379  95.5883408  88.7719280
  23.1025464  90.4290480  95.7929235  22.2926192  90.0837565  96.1684481
  23.7909881  90.1198023  96.3816846  25.0316012  89.5068527  97.4153531
  25.5847051  89.9263980  98.0743554  25.2686099  88.5804275  97.4576487
  20.2562183  92.7440525  89.7796973  21.1181347  93.0695424  90.0392790
  20.4412527  91.9572021  89.2670038  28.4094819  91.6169052  96.9232196
  27.8293488  92.2753856  96.5410248  28.1430752  90.7946396  96.5119613
  26.8598386  91.0174109  99.1253516  27.3598164  91.1290644  98.3167835
  27.5033994  90.7135162  99.7654324  27.1919697  93.7769142  95.9788544
  26.3045552  94.0618793  95.7608739  27.6073686  93.6162905  95.1315821
  30.5434233  93.8015663  99.6942883  31.3194624  94.2912115  99.9667500
  29.8182368  94.2273717 100.1514753  32.9806792  94.5143282 100.7516824
  33.5751283  94.2739018 100.0410132  33.0533376  93.7950413 101.3790360
  26.3362911 103.5413817  90.0736564  27.0398761 103.7463819  90.6894219
  25.6125560 104.1090579  90.3385647  27.1660721  99.2923678  96.1938834
  27.1095922  99.7492229  95.3546466  27.7189064  98.5314363  96.0161677
  30.9765527  95.0813410  97.0188954  30.7202461  94.6810046  97.8497161
  30.3518395  95.7957204  96.8939093  35.2877865  97.8209483  99.5260245
  34.7277423  97.8902672 100.2991807  34.6821368  97.6450468  98.8059741
  28.2449608 103.9796346  92.1235024  29.0795212 103.5477544  91.9412499
  28.0833951 103.8078360  93.0511918  27.8995500 100.4828459  93.4891363
  27.8444304 100.3172731  92.5479807  27.2741556 101.1904492  93.6453553
  21.2091626  89.9836568  93.0676682  21.1970296  90.9278408  93.2244952
  22.1015048  89.8006714  92.7736143  25.0243745  86.5779345  97.3222618
  24.2576141  86.0237832  97.4679301  25.4354450  86.6501214  98.1836770
  36.8733883 114.4965997 102.2190201  37.5112293 114.3772744 101.5153541
  36.7554726 115.4446841 102.2778153  33.6823590 114.4493425 102.1551725
  33.3442101 114.3334490 101.2672260  34.5513358 114.0484590 102.1352731
  31.3831869 113.2181673  91.4868665  31.6357390 112.6963194  90.7252128
  30.4456428 113.0547818  91.5895349  36.4275152 112.2217451  99.2943409
  37.2138241 111.8036874  98.9433826  36.6913856 113.1263543  99.4625057
  41.8283579 112.1592684 100.1976387  42.5608751 111.5891901 100.4314217
  41.0722935 111.7714285 100.6382893  33.4459699 114.5819926  97.3939730
  33.0817906 114.0550547  98.1052651  34.3026815 114.1918395  97.2206215
  39.3508999 105.8714258 104.6570996  39.0192324 106.7409669 104.4332211
  38.7554613 105.5550542 105.3365026  33.0865186 109.6109825  92.3901078
  33.2539588 110.4790062  92.7571549  32.8962355 109.7737107  91.4662367
  39.2437663 110.5909344 101.7364346  38.3354540 110.5224753 101.4423107
  39.1925258 111.0681289 102.5646171  33.0654406 112.0667483  93.3747745
  32.9454032 112.5124534  94.2133225  32.3706995 112.4152800  92.8161283
  41.1099309 108.7925783 103.5142220  40.4673689 109.0858316 102.8682014
  40.6054237 108.6778703 104.3195416  38.7639473 112.5388956  94.2028079
  39.6757329 112.7716343  94.0275777  38.2549120 113.1226000  93.6403158
  33.4011310 111.8986191 105.2122929  34.2472506 112.3225604 105.3557578
  33.3409948 111.2419815 105.9061492  36.5510756 109.5590559 106.8704102
  36.3071688 110.3132619 106.3338378  36.8270686 109.9375907 107.7051349
  38.5049218 116.1029171 105.5481368  38.7166114 116.7460931 104.8715749
  38.4578967 115.2691488 105.0803298  36.1075447 108.7146992 102.4517940
  35.2459926 109.0128245 102.7434678  36.1337882 108.9317391 101.5198973
  31.8605903 113.3812335  95.6681311  32.5629946 113.8333379  96.1355237
  31.5286531 112.7396154  96.2961204  25.6031237 111.6395888 100.9698444
  24.8130291 111.8953416 100.4938555  26.0942484 112.4544225 101.0750485
  27.5545982 112.0040467  97.9281921  26.7577145 112.1159161  98.4465417
  27.3271574 112.3427119  97.0622812  47.7101039 115.3239875 100.0688697
  46.9564748 114.7547273  99.9132701  47.8448581 115.2902540 101.0159331
  36.4492131 103.7183839 104.2742309  36.1056400 104.6085481 104.1981420
  36.8171094 103.5285497 103.4111894  36.4142414 113.7092450  92.7814745
  35.8989037 114.4797055  93.0203132  36.1419722 113.0357587  93.4047806
  33.9989525 108.5542151  97.8399983  33.1431121 108.1649002  97.6605622
  34.4116477 108.6334112  96.9799768  35.5288671 106.0888495 102.2391543
  35.0253467 106.0518630 101.4259348  35.8219278 106.9981237 102.2988199
  31.7731557 106.1727224 101.2457724  32.6384554 105.9770033 100.8863614
  31.8409066 105.9437576 102.1727081  41.3876688 116.4624805  94.7167918
  40.6106131 116.1235965  94.2723080  42.0668169 116.4677428  94.0422883
  36.2028717 111.5819543  94.6074526  35.8978853 111.8965692  95.4584669
  37.1559159 111.6600962  94.6501859  39.6267995 115.9358786 101.3734526
  38.9691669 116.6258048 101.4614655  40.4308394 116.3255218 101.7168512
  29.3793876 108.4029432  98.6174091  29.9537628 108.1804614  97.8847284
  29.9664859 108.4718127  99.3702693  38.4373454 114.2903159  99.4238468
  38.9505335 114.9233151  99.9260177  39.0874678 113.6904355  99.0581828
  29.7063464 110.4333893  92.6369976  28.8700776 110.7708580  92.9579251
  29.5668233 110.2982873  91.6997113  31.6816544 105.2770681  97.3449161
  31.0280956 104.9619698  96.7205775  31.6397018 104.6546422  98.0708984
  34.9154284 111.7652615 101.6696808  33.9976846 111.9867562 101.5118496
  35.3314428 111.8398925 100.8108516  35.6989332 113.1644030  96.7999489
  36.4461151 113.6765428  96.4906611  35.9680922 112.8428083  97.6603882
  38.1468169 110.2001147  98.7818278  37.4090926 109.6878533  99.1128520
  38.3994943 109.7601528  97.9701555  38.2479797 102.9777399  99.3760047
  38.5538674 102.1174762  99.0885962  38.9732402 103.5695019  99.1759041
  32.5200876 113.2731192  99.8836238  32.5749486 112.3205028  99.8078715
  31.7092078 113.4290631 100.3677537  30.4593236 111.8908251  97.6426617
  29.6461102 112.1902422  98.0491809  30.9552231 111.4963940  98.3601099
  36.0567448 112.3550076 106.4741511  36.4116836 112.5821549 107.3335977
  36.7039579 112.6868453 105.8518766  41.7865185 115.4768512  97.1790840
  41.6483084 115.6670108  96.2512029  41.4301404 116.2387895  97.6358891
  29.9507311 109.4626607 103.2587852  30.5906690 109.3215366 102.5610815
  29.1184842 109.1761120 102.8826454  41.8134565 117.5445039 102.1902111
  42.2471071 117.4520328 103.0385166  42.5266145 117.5202539 101.5522127
  27.0350379 112.9072119  95.4482597  26.1047967 112.8456575  95.6652559
  27.1307850 112.3848072  94.6519238  26.9535928 109.4326932  98.0360839
  27.2142745 110.3472265  97.9269999  27.7753100 108.9651374  98.1857452
  42.6750114 117.5868739 104.7234997  42.8686004 118.4914550 104.9694272
  42.5750732 117.1276158 105.5573582  34.3286425 107.4726630 107.2225324
  33.6814340 108.1716580 107.1289801  35.0987440 107.9062774 107.5901572
  34.5050559 115.3107395 105.2822144  35.4342619 115.4618554 105.1091111
  34.0841589 115.3991416 104.4270790  37.7903298 116.0595696  90.7146579
  37.1732468 115.3342524  90.6179632  37.3219786 116.8205057  90.3713653
  29.5801844 110.2781121  89.8367883  28.7031310 110.1569921  89.4730130
  30.0559597 109.4867199  89.5846772  36.0762420 108.4402040  99.7264609
  36.5731119 107.6872003  99.4065679  35.3049401 108.4766357  99.1607818
  43.9292177 114.1442406 101.3682901  43.9182054 115.0267121 100.9976834
  43.0609557 113.7913957 101.1737438  32.6597389 110.5819423  99.4536294
  32.2895176 110.0290464 100.1417199  33.1556481 109.9777557  98.9011294
  40.5464752 113.0391047  97.8353067  41.0125204 113.8719039  97.7613369
  40.9972252 112.5736029  98.5398325  38.5181415 105.4071634 101.8743968
  37.6044494 105.6375861 102.0426175  38.9474516 105.4910078 102.7258000
  38.2887873 113.5961526 104.3743862  37.6359323 113.8437433 103.7196315
  38.6668253 112.7825664 104.0406339  28.0562722 107.9923414 105.6989400
  28.1204049 108.8538245 105.2866798  27.9929843 107.3797416 104.9661758
  24.3080538 111.8722976  95.2780789  24.6033979 110.9633654  95.2247843
  23.4068573 111.8510715  94.9561791  27.8374785 109.9478972 101.2608338
  27.1161370 110.5614940 101.1215811  28.6268040 110.4836737 101.1824983
  30.6401098 107.2833399 107.5348989  31.1635500 107.5295695 108.2975299
  30.4213431 108.1153434 107.1152127  26.0368379 109.5537074  95.4020114
  25.7081085 108.6734452  95.2195220  26.3907750 109.4984742  96.2896503
  29.1510202 109.8410043  95.7695592  29.4906275 110.3695965  95.0474200
  29.5982323 110.1790449  96.5454158  31.8453643 108.2247094 105.2198660
  31.5050464 107.4254907 105.6219340  31.1392649 108.5248805 104.6475493
  32.4970115 105.3096406 103.6725983  33.3196184 104.8356885 103.5504873
  32.7408179 106.0886890 104.1724669  31.1378349 108.3384665  93.9688885
  31.8586712 108.7165918  93.4652601  30.5143654 109.0573542  94.0723862
  35.2809472 109.0429814  94.9047217  35.4973087 109.9254452  94.6036045
  34.8003540 108.6516027  94.1752859  30.0208694 112.0015527 101.4817961
  29.8753274 112.3155830 102.3742243  29.5433897 112.6200427 100.9288860
  31.8805077 108.9918075 101.5298851  31.8666645 108.0959168 101.1931149
  32.5977505 108.9988739 102.1637137  33.7331207 109.4255415 103.5751978
  33.4748985 110.3472486 103.5736309  33.2016248 109.0285850 104.2652443
  31.2841973 107.8732455  96.7986421  31.4057884 106.9449102  96.9977309
  30.9944015 107.8871141  95.8864737  34.1533163 105.5587366  99.9353141
  34.1754860 105.6226699  98.9805121  34.5701222 104.7191874 100.1293647
  44.5316787 115.2942625  97.9732364  44.9747933 114.5449951  97.5751487
  43.6543298 115.2852762  97.5906096  41.3735773 116.7798042 107.6010219
  41.4233778 116.6148050 108.5425742  41.2649696 115.9125301 107.2108100
  38.6639535 112.7628970 108.9169526  39.5649398 112.6235435 108.6253524
  38.7387510 112.9283425 109.8567704  32.9982341 110.1395825 107.7622712
  32.1285650 110.4329391 107.4905301  33.2341821 110.7236270 108.4829976
  44.0749652 116.7647864 100.3654811  44.9096543 117.2037668 100.5292371
  44.2108781 116.2886517  99.5463057  41.1241158 114.3227599 106.3132299
  41.5995279 114.5155245 105.5051150  40.2006723 114.3786784 106.0675683
  35.7021374 106.3575442 105.2788133  36.2203318 107.0936469 104.9534621
  35.3476507 106.6639435 106.1134892  27.2820312 111.2180123  93.3949539
  26.5889557 111.2924478  92.7389575  27.0372064 110.4540467  93.9171056
  35.9533969 102.7775725 100.7989029  36.2335722 102.1098914 101.4249456
  36.7384575 102.9704820 100.2863693  39.8242827 111.1993359 104.5460604
  40.7760250 111.2991456 104.5672829  39.6546277 110.4071627 105.0558689
  37.8457206 108.2848942 104.7320005  37.2507138 108.5653955 104.0366494
  37.5606903 108.7742843 105.5036747  42.3030905 114.4199478 103.6602904
  42.2707225 113.4815479 103.8462588  42.9131528 114.4983515 102.9268729
  34.1414236 113.2895531  89.7030108  35.0873340 113.1601739  89.7718526
  33.7628480 112.5510193  90.1799536  42.4525393 111.2110522 103.7061187
  41.9364442 110.4268978 103.5191116  43.3365342 110.8829238 103.8707707
  40.1136120 104.9551537  99.6657000  39.9160941 104.6466625 100.5500332
  40.7235826 105.6813176  99.7954930  48.1207455 115.4815485 102.8008941
  48.8510843 115.2200773 103.3616644  47.5114400 114.7444207 102.8411009
  46.2022752 113.6223348 103.3983392  45.4755915 113.4879313 102.7899884
  45.7870039 113.9300176 104.2040110  32.3257153 111.2145508  89.6384993
  31.4188608 110.9178620  89.7147707  32.6033134 110.9175326  88.7719280
  33.9419218 105.7582397  95.7929235  33.1319947 105.4129482  96.1684481
  34.6303635 105.4489941  96.3816846  35.8709767 104.8360444  97.4153531
  36.4240805 105.2555898  98.0743554  36.1079853 103.9096192  97.4576487
  31.0955937 108.0732443  89.7796973  31.9575101 108.3987341  90.0392790
  31.2806281 107.2863939  89.2670038  39.2488574 106.9460969  96.9232196
  38.6687243 107.6045773  96.5410248  38.9824506 106.1238314  96.5119613
  37.6992140 106.3466027  99.1253516  38.1991919 106.4582562  98.3167835
  38.3427748 106.0427080  99.7654324  38.0313452 109.1061060  95.9788544
  37.1439307 109.3910710  95.7608739  38.4467441 108.9454823  95.1315821
  41.3827988 109.1307581  99.6942883  42.1588378 109.6204033  99.9667500
  40.6576122 109.5565635 100.1514753  43.8200547 109.8435200 100.7516824
  44.4145037 109.6030936 100.0410132  43.8927130 109.1242330 101.3790360
  38.0054476 114.6215596  96.1938834  37.9489677 115.0784147  95.3546466
  38.5582818 113.8606280  96.0161677  41.8159281 110.4105328  97.0188954
  41.5596216 110.0101963  97.8497161  41.1912150 111.1249121  96.8939093
  46.1271619 113.1501401  99.5260245  45.5671177 113.2194590 100.2991807
  45.5215123 112.9742385  98.8059741  38.7389255 115.8120377  93.4891363
  38.6838059 115.6464648  92.5479807  38.1135310 116.5196410  93.6453553
  32.0485380 105.3128486  93.0676682  32.0364050 106.2570326  93.2244952
  32.9408802 105.1298631  92.7736143  35.8637500 101.9071263  97.3222618
  35.0969896 101.3529749  97.4679301  36.2748205 101.9793131  98.1836770
  47.2885886 119.0475757 104.2742309  46.9450155 119.9377399 104.1981420
  47.6564848 118.8577415 103.4111894  49.0873551 118.3069316  99.3760047
  49.3932428 117.4466680  99.0885962  49.8126156 118.8986936  99.1759041
  46.7927723 118.1067642 100.7989029  47.0729477 117.4390831 101.4249456
  47.5778330 118.2996738 100.2863693  50.9529875 120.2843455  99.6657000
  50.7554696 119.9758543 100.5500332  51.5629580 121.0105094  99.7954930
  46.7031254 117.2363180  97.3222618  45.9363650 116.6821667  97.4679301
  47.1141959 117.3085049  98.1836770   4.3526023  31.0134327  86.7934003
   3.5989731  30.4441725  86.6378008   4.4873564  30.9796992  87.7404638
   0.7174635  32.4542316  87.0900118   1.5521527  32.8932120  87.2537678
   0.8533764  31.9780969  86.2708364   4.7632438  31.1709937  89.5254248
   5.4935826  30.9095225  90.0861951   4.1539383  30.4338659  89.5656316
   2.8447735  29.3117800  90.1228699   2.1180899  29.1773765  89.5145190
   2.4295022  29.6194628  90.9285417   0.4625530  25.5329652  87.4762130
   1.0570021  25.2925388  86.7655439   0.5352114  24.8136782  88.1035667
   2.7696603  28.8395853  86.2505552   2.2096161  28.9089042  87.0237114
   2.1640106  28.6636837  85.5305048   4.3552621  45.5152367  88.9435507
   4.9931031  45.3959114  88.2398847   4.2373464  46.4633211  89.0023459
   1.1642327  45.4679795  88.8797032   0.8260839  45.3520859  87.9917567
   2.0332096  45.0670960  88.8598038   1.6462110  46.6214646  94.8383237
   1.6350751  46.2267445  93.9663741   1.8082750  45.8880719  95.4317009
   2.6028702  50.9886239  80.1808388   1.9516682  51.5740319  79.7942402
   3.3973065  51.5192434  80.2403425   3.9093890  43.2403820  86.0188715
   4.6956979  42.8223244  85.6679132   4.1732594  44.1449913  86.1870364
   4.0803967  48.6776671  80.7177372   3.4449800  48.7511297  81.4298277
   3.7501373  49.2670270  80.0396451   9.3102317  43.1779054  86.9221694
  10.0427489  42.6078270  87.1559523   8.5541672  42.7900654  87.3628199
   0.9278436  45.6006295  84.1185036   0.5636644  45.0736916  84.8297958
   1.7845552  45.2104764  83.9451522   6.8327737  36.8900628  91.3816302
   6.5011062  37.7596039  91.1577517   6.2373350  36.5736912  92.0610333
   3.3259257  49.0913174  90.7812215   3.0259980  49.9938213  90.6728022
   2.9810316  48.8245357  91.6333368   6.7256400  41.6095714  88.4609652
   5.8173278  41.5411122  88.1668413   6.6743996  42.0867659  89.2891478
   8.5918047  39.8112152  90.2387526   7.9492427  40.1044685  89.5927321
   8.0872975  39.6965073  91.0440723   6.2458210  43.5575326  80.9273386
   7.1576067  43.7902712  80.7521083   5.7367857  44.1412370  80.3648464
   4.5298978  47.9799953  94.5634678   4.9382334  47.5382364  93.8189311
   3.8076240  47.4052581  94.8168871   0.8830048  42.9172560  91.9368235
   1.7291243  43.3411974  92.0802884   0.8228686  42.2606184  92.6306798
   4.8527793  48.5401144  88.3186967   4.2236655  48.7046858  87.6163035
   4.4653455  48.9542754  89.0897931   8.7317025  49.4755582  85.6731331
   8.0468063  49.8554483  85.1228364   8.8160874  50.0850908  86.4063279
   4.0329493  40.5776928  93.5949409   3.7890425  41.3318989  93.0583685
   4.3089424  40.9562276  94.4296656   5.9867956  47.1215541  92.2726674
   6.1984851  47.7647301  91.5961056   5.9397704  46.2877857  91.8048605
   3.5894185  39.7333361  89.1763247   2.7278664  40.0314615  89.4679984
   3.6156620  39.9503760  88.2444279   7.1013784  49.9987496  90.4449032
   7.9231228  49.5967684  90.1631713   7.0976187  49.8955730  91.3965148
  15.1919777  46.3426245  86.7934003  14.4383486  45.7733643  86.6378008
  15.3267318  46.3088909  87.7404638   0.5818405  51.2139647  82.4688723
   0.4464080  52.0591183  82.8973570   1.1228218  51.4158925  81.7054656
   2.2086882  51.8363214  96.5989065   1.7650736  51.0499592  96.2809969
   2.8704095  52.0242364  95.9332955   4.3068120  52.1166013  94.6270466
   4.2886595  52.9374895  94.1350735   5.2288040  51.9920089  94.8520607
   3.9310869  34.7370209  90.9987616   3.5875138  35.6271851  90.9226727
   4.2989831  34.5471867  90.1357201   3.8961152  44.7278820  79.5060051
   3.3807775  45.4983425  79.7448439   3.6238460  44.0543956  80.1293113
   1.4808263  39.5728521  84.5645290   0.6249859  39.1835371  84.3850928
   1.8935214  39.6520482  83.7045075   3.0107409  37.1074864  88.9636849
   2.5072205  37.0704999  88.1504655   3.3038016  38.0167607  89.0233506
   8.8695426  47.4811175  81.4413225   8.0924868  47.1422334  80.9968387
   9.5486907  47.4863798  80.7668190   3.6847455  42.6005912  81.3319832
   3.3797590  42.9152061  82.1829976   4.6377897  42.6787332  81.3747165
   2.1293887  48.7596135  82.9812786   1.6015248  48.0248895  82.6686024
   1.6281389  49.5370812  82.7352755   7.1086733  46.9545156  88.0979833
   6.4510407  47.6444417  88.1859961   7.9127132  47.3441588  88.4413819
   5.9192191  45.3089529  86.1483774   6.4324073  45.9419520  86.6505484
   6.5693415  44.7090724  85.7827134   3.1814566  55.2873853  78.9044446
   2.5076264  55.5905550  79.5129403   3.5680388  56.0902933  78.5549903
   2.3973022  42.7838984  88.3942115   1.4795584  43.0053931  88.2363803
   2.8133166  42.8585295  87.5353822   3.1808070  44.1830400  83.5244795
   3.9279889  44.6951797  83.2151917   3.4499660  43.8614453  84.3849189
   1.4534720  46.6788941  80.5071749   0.5445939  46.3947973  80.6044219
   1.4829804  47.0988019  79.6475056   6.6853988  50.2895530  84.2762917
   6.2316315  49.4486440  84.3328107   6.0547954  50.9256928  84.6137697
   5.6286907  41.2187516  85.5063584   4.8909664  40.7064902  85.8373827
   5.8813681  40.7787898  84.6946861   5.1286927  52.1272027  85.2112735
   5.4209901  52.6877084  84.4925101   5.6385547  52.4200588  85.9665894
   5.7298535  33.9963768  86.1005354   6.0357411  33.1361132  85.8131269
   6.4551139  34.5881388  85.9004348   1.1510808  48.2197684  77.8459828
   0.7130238  47.5033543  77.3865465   1.8921249  48.4473799  77.2844919
   3.5386186  43.3736445  93.1986818   3.8935574  43.6007919  94.0581283
   4.1858317  43.7054822  92.5764073   9.2683923  46.4954881  83.9036147
   9.1301821  46.6856477  82.9757336   8.9120142  47.2574264  84.3604198
   9.2953302  48.5631408  88.9147418   9.7289809  48.4706697  89.7630472
  10.0084883  48.5388909  88.2767434   3.0281197  52.1633502  90.4480519
   3.0818220  52.7324439  91.2158235   2.1595979  52.3335387  90.0834556
  10.1568852  48.6055109  91.4480304  10.3504742  49.5100919  91.6939578
  10.0569470  48.1462528  92.2818889   1.8105163  38.4913000  93.9470631
   1.1633078  39.1902949  93.8535107   2.5806178  38.9249143  94.3146879
   5.2183961  48.7561852  97.0221184   5.0669467  48.5272403  96.1051268
   5.2088640  49.7132453  97.0352529   1.9869297  46.3293764  92.0067451
   2.9161357  46.4804924  91.8336418   1.5660327  46.4177785  91.1516097
   1.3805781  55.4553525  81.1191525   1.5557536  54.9841569  81.9337147
   0.6938569  56.0819292  81.3472785   2.3362844  49.7326032  87.1654826
   2.0012677  49.6926802  88.0612476   1.8366790  49.0670747  86.6925236
   5.2722036  47.0782066  77.4391886   4.6551206  46.3528894  77.3424938
   4.8038524  47.8391426  77.0958960   6.9276167  51.7880974  95.0997666
   6.8688713  51.1040194  94.4328249   7.3295686  52.5299964  94.6478292
   6.9293575  49.7520558  93.3311646   6.0420353  49.4146480  93.4538045
   7.4992126  49.0203589  93.5680411   3.5581158  39.4588410  86.4509916
   4.0549857  38.7058372  86.1310986   2.7868139  39.4952727  85.8853125
  11.4110915  45.1628776  88.0928207  11.4000791  46.0453491  87.7222140
  10.5428295  44.8100326  87.8982744   2.9193411  54.3108845  92.4531048
   3.6321384  54.9456309  92.3806949   2.4283440  54.4072711  91.6371049
   4.6410938  48.2160097  84.0248339   3.7067217  48.3361560  83.8553044
   4.8187607  47.3132564  83.7608349   8.0283490  44.0577417  84.5598373
   8.4943942  44.8905408  84.4858676   8.4790990  43.5922398  85.2643632
   6.0959721  50.4021238  81.5584525   6.3719565  50.2877832  82.4678399
   5.2264220  50.0038723  81.5196698   6.0000152  36.4258004  88.5989275
   5.0863232  36.6562230  88.7671482   6.4293254  36.5096448  89.4503307
   5.7706611  44.6147895  91.0989169   5.1178061  44.8623803  90.4441621
   6.1486991  43.8012034  90.7651646   2.7313785  54.6507589  85.2017339
   2.9136179  53.8329245  85.6645091   3.5546771  54.8675281  84.7642229
   3.0655950  53.5775774  82.4632387   3.5943717  53.0668228  81.8502550
   3.3284170  53.2618304  83.3277920   1.8194184  45.3567707  97.5855206
   1.1434821  45.2561836  98.2557581   2.6421818  45.2006920  98.0491203
   0.5616967  56.6634634  91.8212822   1.1135275  56.8266255  92.5861907
   0.9023160  57.2539072  91.1492847   5.4127841  51.4895891  97.6761476
   5.9567745  52.1025850  97.1816431   4.8314686  52.0475470  98.1928489
   3.6985354  54.6116610  88.8076504   3.5736494  53.8106349  88.2987449
   4.3564445  55.1062803  88.3190474   5.7620263  52.4125630  90.4356054
   4.8150598  52.2930981  90.3634381   6.1103036  51.5248128  90.5182315
   2.7666696  52.2078346  86.6360406   2.6191658  51.2795053  86.8167976
   3.5920189  52.2298437  86.1517481   6.3700818  53.0306905  87.7225279
   7.2947365  52.8249766  87.5849730   6.2016121  52.7823306  88.6314620
   2.7628210  40.0616183  81.6292523   2.9791825  40.9440821  81.3281352
   2.2822277  39.6702397  80.8998165   1.2149945  40.4441785  90.2997285
   0.9567723  41.3658856  90.2981615   0.6834986  40.0472219  90.9897749
   6.1596134  53.5492572  83.0787370   6.3333011  52.9838994  82.3261223
   6.6525025  54.3493467  82.8966860   1.6351901  36.5773735  86.6598448
   1.6573598  36.6413068  85.7050427   2.0519960  35.7378244  86.8538954
  12.0135525  46.3128995  84.6977670  12.4566671  45.5636320  84.2996793
  11.1362035  46.3039131  84.3151402   7.1471306  52.8659336  80.1784269
   7.8422211  53.4866029  80.3971583   7.4894457  52.0154688  80.4536647
   9.0462729  50.3159042  81.7071599   9.5714054  50.6546315  80.9820920
   8.9585082  49.3806057  81.5234734   0.7082778  54.2293116  93.8361476
   1.0169905  53.9842262  94.7084176   1.5058260  54.4339754  93.3480346
   8.7356636  50.9491946  97.0122797   7.9452179  50.9316084  96.4727297
   8.4989990  51.4880239  97.7671834   8.8554511  47.7984412  94.3255526
   8.9052516  47.6334419  95.2671049   8.7468434  46.9311671  93.9353407
   6.1458273  43.7815340  95.6414833   7.0468136  43.6421805  95.3498831
   6.2206248  43.9469795  96.5813010  10.3572707  50.2181353  94.5697548
  10.0657516  50.5811334  95.4061009   9.7444839  49.5048362  94.3910880
  11.5568390  47.7834233  87.0900118  12.3915281  48.2224037  87.2537678
  11.6927519  47.3072886  86.2708364   8.6059896  45.3413968  93.0377606
   9.0814017  45.5341614  92.2296457   7.6825461  45.3973154  92.7920989
   3.1840112  37.3761812  92.0033439   3.7022056  38.1122839  91.6779928
   2.8295245  37.6825805  92.8380199   3.4352706  33.7962094  87.5234336
   3.7154460  33.1285283  88.1494763   4.2203313  33.9891190  87.0109000
   1.2386175  52.9721088  79.0859362   0.6660142  53.5911275  78.6329834
   1.8118969  53.5220450  79.6199284   7.3061565  42.2179728  91.2705911
   8.2578988  42.3177826  91.2918135   7.1365015  41.4257997  91.7803995
   5.3275944  39.3035311  91.4565312   4.7325876  39.5840324  90.7611801
   5.0425641  39.7929212  92.2282053   4.4583435  53.2558238  80.2167945
   5.3914108  53.1903800  80.4200820   4.3706647  54.0914505  79.7582477
   7.0871451  52.5724109  77.1771892   7.0085083  52.2383972  78.0707650
   7.9081118  53.0645876  77.1763365   9.7849642  45.4385848  90.3848211
   9.7525963  44.5001849  90.5707895  10.3950266  45.5169885  89.6514036
   1.6232973  44.3081901  76.4275415   2.5692078  44.1788109  76.4963833
   1.2447218  43.5696563  76.9044843   9.9344131  42.2296891  90.4306494
   9.4183180  41.4455348  90.2436423  10.8184079  41.9015608  90.5953013
   7.5954858  35.9737907  86.3902307   7.3979679  35.6652995  87.2745639
   8.2054563  36.6999546  86.5200236  15.6026192  46.5001855  89.5254248
  16.3329581  46.2387143  90.0861951  14.9933138  45.7630577  89.5656316
  13.6841489  44.6409717  90.1228699  12.9574653  44.5065682  89.5145190
  13.2688776  44.9486546  90.9285417   1.5071666  48.3599647  97.8876072
   2.4274675  48.5378246  98.0816118   1.4721249  47.4155692  97.7355771
   1.4237956  36.7768767  82.5174541   0.6138685  36.4315852  82.8929787
   2.1122373  36.4676311  83.1062153   3.3528504  35.8546814  84.1398838
   3.9059543  36.2742267  84.7988861   3.5898591  34.9282562  84.1821794
   6.7307312  37.9647339  83.6477502   6.1505981  38.6232143  83.2655555
   6.4643244  37.1424684  83.2364920   5.1810878  37.3652397  85.8498823
   5.6810656  37.4768931  85.0413141   5.8246486  37.0613449  86.4899631
   5.5132190  40.1247429  82.7033851   4.6258045  40.4097080  82.4854045
   5.9286179  39.9641193  81.8561127   8.8646726  40.1493950  86.4188190
   9.6407116  40.6390403  86.6912807   8.1394860  40.5752004  86.8760059
  11.3019284  40.8621569  87.4762130  11.8963775  40.6217305  86.7655439
  11.3745868  40.1428700  88.1035667   4.6575403  49.8892104  76.7981870
   5.3611253  50.0942106  77.4139526   3.9338052  50.4568866  77.0630954
   5.4873213  45.6401965  82.9184141   5.4308415  46.0970517  82.0791773
   6.0401556  44.8792650  82.7406983   9.2978019  41.4291697  83.7434260
   9.0414953  41.0288333  84.5742468   8.6730887  42.1435491  83.6184399
  13.6090357  44.1687770  86.2505552  13.0489915  44.2380960  87.0237114
  13.0033860  43.9928755  85.5305048   6.5662100  50.3274633  78.8480331
   7.4007704  49.8955832  78.6657805   6.4046443  50.1556647  79.7757225
   6.2207993  46.8306746  80.2136670   6.1656796  46.6651018  79.2725114
   5.5954048  47.5382779  80.3698860   3.5353900  49.1355658  99.5390233
   4.4045059  49.3096311  99.1776868   3.0560651  49.9550075  99.4165962
   3.3456238  32.9257632  84.0467925   2.5788633  32.3716119  84.1924607
   3.7566943  32.9979501  84.9082077  15.1946376  60.8444284  88.9435507
  15.8324786  60.7251032  88.2398847  15.0767218  61.7925128  89.0023459
  12.0036082  60.7971712  88.8797032  11.6654593  60.6812777  87.9917567
  12.8725850  60.3962877  88.8598038   7.8622898  62.6507189  84.8693923
   7.2987763  62.5597126  84.1010211   7.7475293  61.8307093  85.3496415
  12.4855865  61.9506564  94.8383237  12.4744506  61.5559362  93.9663741
  12.6476504  61.2172637  95.4317009   5.4087329  64.1458380  87.7078143
   6.2008621  63.8049205  87.2924443   5.6483980  64.2553355  88.6280297
  13.4422456  66.3178156  80.1808388  12.7910436  66.9032237  79.7942402
  14.2366819  66.8484351  80.2403425   7.3678083  63.4067294  80.5795522
   8.1408959  62.8596281  80.4408398   7.7203482  64.2711543  80.7909984
   9.2063126  64.7343676  93.7862421   8.9152992  65.6389307  93.6709088
   9.8420110  64.7760204  94.5006491  10.1319333  62.1120524  90.3763781
  10.7282905  61.8876547  89.6620744  10.1894304  61.3705270  90.9789229
   9.7044361  59.5659960  78.2113972   9.9569882  59.0441481  77.4497435
   8.7668920  59.4026105  78.3140656  14.7487644  58.5695738  86.0188715
  15.5350733  58.1515161  85.6679132  15.0126348  59.4741830  86.1870364
  14.9197721  64.0068588  80.7177372  14.2843554  64.0803215  81.4298277
  14.5895128  64.5962187  80.0396451  20.1496071  58.5070971  86.9221694
  20.8821243  57.9370188  87.1559523  19.3935427  58.1192572  87.3628199
   9.4240650  61.4688066  80.4138347   9.3076908  60.7932969  81.0819431
   9.5342910  60.9820440  79.5970500  11.7672191  60.9298213  84.1185036
  11.4030398  60.4028834  84.8297958  12.6239307  60.5396682  83.9451522
  17.6721492  52.2192545  91.3816302  17.3404816  53.0887956  91.1577517
  17.0767105  51.9028829  92.0610333  11.4077678  55.9588113  79.1146385
  11.5752080  56.8268349  79.4816856  11.2174847  56.1215394  78.1907674
  14.1653011  64.4205091  90.7812215  13.8653734  65.3230130  90.6728022
  13.8204071  64.1537275  91.6333368   7.6165493  60.8718888  86.8148920
   6.6915989  60.7395102  87.0226611   7.8649906  61.6513108  87.3118862
  17.5650155  56.9387632  88.4609652  16.6567032  56.8703040  88.1668413
  17.5137751  57.4159577  89.2891478  11.3866899  58.4145770  80.0993052
  11.2666524  58.8602821  80.9378532  10.6919487  58.7631088  79.5406590
   4.9774304  60.5152162  87.6492709   5.1066685  60.7686641  88.5632120
   4.2971755  61.1079870  87.3297364   9.1473791  71.1849412  83.7483183
   9.0697821  72.1357237  83.8271663   8.5435434  70.8395284  84.4058109
  11.6391021  58.3577277  96.4044550  10.8624355  58.9171197  96.3947414
  12.2781584  58.8434060  96.9259420  19.4311801  55.1404070  90.2387526
  18.7886181  55.4336603  89.5927321  18.9266730  55.0256990  91.0440723
  17.0851965  58.8867243  80.9273386  17.9969821  59.1194630  80.7521083
  16.5761612  59.4704287  80.3648464   9.8937393  61.1662731  95.9662517
  10.6352077  61.7047775  95.6897340   9.1874378  61.7929019  96.1234069
  15.3692733  63.3091871  94.5634678  15.7776089  62.8674282  93.8189311
  14.6469994  62.7344499  94.8168871  11.7223803  58.2464478  91.9368235
  12.5684998  58.6703891  92.0802884  11.6622440  57.5898102  92.6306798
  15.6921547  63.8693062  88.3186967  15.0630410  64.0338776  87.6163035
  15.3047209  64.2834671  89.0897931  19.5710779  64.8047499  85.6731331
  18.8861817  65.1846401  85.1228364  19.6554628  65.4142826  86.4063279
  14.8723248  55.9068846  93.5949409  14.6284180  56.6610907  93.0583685
  15.1483178  56.2854194  94.4296656  16.8261711  62.4507459  92.2726674
  17.0378606  63.0939218  91.5961056  16.7791459  61.6169775  91.8048605
  14.4287940  55.0625279  89.1763247  13.5672419  55.3606533  89.4679984
  14.4550374  55.2795678  88.2444279  11.2449509  63.6067470  85.5837052
  11.7087855  63.8855173  84.7941675  10.9806307  62.7050914  85.4010143
   8.1373590  63.1538951  88.5216815   8.7074947  63.5826220  87.8834300
   8.7281702  62.8721536  89.2201001  10.1818395  59.7290622  82.3926617
  10.8842438  60.1811666  82.8600544   9.8499024  59.0874441  83.0206510
   8.6298757  58.3202379  96.7677827   7.9997417  59.0018660  97.0013224
   8.5234845  58.2085460  95.8230965   3.9243729  57.9874175  87.6943751
   3.1342783  58.2431703  87.2183862   4.4154976  58.8022513  87.7995791
  17.9407539  65.3279414  90.4449032  18.7624982  64.9259601  90.1631713
  17.9369942  65.2247648  91.3965148   5.8758474  58.3518754  84.6527228
   5.0789638  58.4637448  85.1710723   5.6484067  58.6905406  83.7868118
  11.7064142  64.8763457  92.6009742  11.7708575  65.3383864  93.4367914
  10.9975066  64.2460822  92.7292052   2.2081432  58.2404665  90.1258742
   2.4589471  59.1251675  90.3916318   2.7440980  58.0609267  89.3533834
  26.0313532  61.6718162  86.7934003  25.2777240  61.1025560  86.6378008
  26.1661073  61.6380827  87.7404638  11.4212160  66.5431565  82.4688723
  11.2857835  67.3883100  82.8973570  11.9621972  66.7450842  81.7054656
   7.9079499  52.6223145  99.1303078   7.5146445  52.0689343  99.8050722
   8.7245640  52.9333723  99.5209595   4.8741557  64.0607003  83.0416648
   5.3866078  64.8550253  83.1922212   5.5264270  63.3633293  82.9750249
   6.6836442  67.1772759  85.1239401   6.8603070  68.0990724  84.9360385
   7.4793275  66.8631178  85.5533781  10.8247460  54.0381024  96.7223334
  11.5657174  54.6388177  96.6427797  11.0565383  53.2958661  96.1641377
   5.9688798  59.2237391  95.0001564   5.8542314  58.3222648  95.3008663
   5.1133316  59.4701088  94.6486381  13.0480636  67.1655131  96.5989065
  12.6044490  66.3791510  96.2809969  13.7097850  67.3534282  95.9332955
   7.8067757  68.6950933  91.1249743   8.3575182  68.5667996  90.3526737
   6.9679233  68.9945822  90.7744636  15.1461874  67.4457931  94.6270466
  15.1280350  68.2666812  94.1350735  16.0681794  67.3212006  94.8520607
  11.6034928  64.9602061  95.4693974  12.1363265  64.1990349  95.2393282
  11.0749009  64.6675712  96.2118129  14.7704623  50.0662127  90.9987616
  14.4268893  50.9563768  90.9226727  15.1383586  49.8763784  90.1357201
   2.8390474  62.3895657  83.8176218   3.6765696  62.7992665  83.6009926
   3.0168742  61.4495099  83.7876412  14.7354906  60.0570738  79.5060051
  14.2201529  60.8275342  79.7448439  14.4632215  59.3835874  80.1293113
  12.3202017  54.9020438  84.5645290  11.4643613  54.5127289  84.3850928
  12.7328969  54.9812399  83.7045075  13.8501164  52.4366782  88.9636849
  13.3465959  52.3996917  88.1504655  14.1431771  53.3459524  89.0233506
  10.0944050  52.5205511  87.9703031  10.9597046  52.3248320  87.6108921
  10.1621559  52.2915863  88.8972388  19.7089180  62.8103092  81.4413225
  18.9318623  62.4714252  80.9968387  20.3880661  62.8155716  80.7668190
  14.5241209  57.9297830  81.3319832  14.2191345  58.2443979  82.1829976
  15.4771651  58.0079250  81.3747165  12.9687641  64.0888053  82.9812786
  12.4409003  63.3540813  82.6686024  12.4675144  64.8662729  82.7352755
  17.9480487  62.2837074  88.0979833  17.2904162  62.9736335  88.1859961
  18.7520886  62.6733506  88.4413819   7.7006369  54.7507719  85.3419398
   8.2750121  54.5282901  84.6092591   8.2877351  54.8196414  86.0947999
  16.7585946  60.6381446  86.1483774  17.2717828  61.2711438  86.6505484
  17.4087170  60.0382642  85.7827134   8.0275956  56.7812180  79.3615283
   7.1913268  57.1186867  79.6824558   7.8880725  56.6461160  78.4242420
  10.0029036  51.6248968  84.0694467   9.3493449  51.3097985  83.4451082
   9.9609511  51.0024709  84.7954290  11.1140241  61.9068263  75.9847759
  10.2067303  61.6757517  76.1838908  11.6111273  61.1105883  76.1721741
  14.0208320  70.6165771  78.9044446  13.3470019  70.9197467  79.5129403
  14.4074142  71.4194851  78.5549903  13.2366777  58.1130902  88.3942115
  12.3189338  58.3345849  88.2363803  13.6526920  58.1877212  87.5353822
  14.0201825  59.5122318  83.5244795  14.7673643  60.0243715  83.2151917
  14.2893414  59.1906370  84.3849189  12.2928475  62.0080858  80.5071749
  11.3839694  61.7239891  80.6044219  12.3223559  62.4279937  79.6475056
  17.5247742  65.6187448  84.2762917  17.0710069  64.7778358  84.3328107
  16.8941709  66.2548846  84.6137697  16.4680662  56.5479434  85.5063584
  15.7303418  56.0356820  85.8373827  16.7207435  56.1079815  84.6946861
  15.9680681  67.4563944  85.2112735  16.2603656  68.0169002  84.4925101
  16.4779302  67.7492505  85.9665894  16.5692289  49.3255686  86.1005354
  16.8751166  48.4653049  85.8131269  17.2944894  49.9173306  85.9004348
   2.8616645  59.7286372  84.4886952   2.6641045  59.1355733  83.7638018
   2.3063309  59.4238583  85.2062890  10.8413369  59.6209479  86.6081545
  10.8961979  58.6683315  86.5324021  10.0304571  59.7768918  87.0922843
  11.9904563  63.5489602  77.8459828  11.5523992  62.8325461  77.3865465
  12.7315003  63.7765717  77.2844919   8.7805729  58.2386539  84.3671924
   7.9673594  58.5380709  84.7737116   9.2764723  57.8442227  85.0846406
  10.9314307  68.2344296  86.3006188  10.8890485  68.4605142  85.3714720
  11.8477005  68.0007670  86.4491990  14.3779940  58.7028363  93.1986818
  14.7329328  58.9299836  94.0581283  15.0252072  59.0346740  92.5764073
  20.1077677  61.8246799  83.9036147  19.9695576  62.0148395  82.9757336
  19.7513896  62.5866182  84.3604198   8.2719803  55.8104894  89.9833159
   8.9119183  55.6693653  89.2856122   7.4397334  55.5239408  89.6071761
  20.1347057  63.8923326  88.9147418  20.5683564  63.7998615  89.7630472
  20.8478638  63.8680826  88.2767434   9.0480107  65.1107325  86.0968151
   9.8420706  64.6157645  85.8950726   8.3371800  64.5825188  85.7335857
  13.8674952  67.4925420  90.4480519  13.9211974  68.0616356  91.2158235
  12.9989733  67.6627305  90.0834556   5.3562871  59.2550406  82.1727904
   4.4260459  59.1934862  82.3897866   5.4520343  58.7326359  81.3764545
   5.2748420  55.7805219  84.7606145   5.5355237  56.6950552  84.6515306
   6.0965592  55.3129662  84.9102758   6.7473345  57.1942976  91.9304970
   7.4196399  56.9860338  91.2817619   5.9203132  56.9965062  91.4910202
  20.9962606  63.9347027  91.4480304  21.1898497  64.8392837  91.6939578
  20.8963225  63.4754446  92.2818889  12.6498917  53.8204917  93.9470631
  12.0026832  54.5194867  93.8535107  13.4199933  54.2541061  94.3146879
  16.0577715  64.0853769  97.0221184  15.9063222  63.8564321  96.1051268
  16.0482395  65.0424371  97.0352529  12.8263052  61.6585682  92.0067451
  13.7555112  61.8096842  91.8336418  12.4054082  61.7469703  91.1516097
  11.6251383  65.6836347  89.7765988  11.4862469  65.3155131  90.6491926
  10.8365980  66.1983986  89.6049946  12.2199535  70.7845443  81.1191525
  12.3951291  70.3133486  81.9337147  11.5332323  71.4111209  81.3472785
  13.1756598  65.0617949  87.1654826  12.8406431  65.0218719  88.0612476
  12.6760544  64.3962665  86.6925236   7.1500842  60.4685579  92.6907407
   7.0120640  59.7365818  93.2918946   8.0605766  60.3794479  92.4091595
  16.1115790  62.4073984  77.4391886  15.4944961  61.6820812  77.3424938
  15.6432279  63.1683344  77.0958960   9.7783143  60.1805539  92.1791087
  10.4882762  59.5398731  92.1377705   9.7352451  60.4318433  93.1017268
  17.7669922  67.1172892  95.0997666  17.7082468  66.4332112  94.4328249
  18.1689440  67.8591882  94.6478292   8.4912077  57.1670756  93.9986726
   7.9549434  56.7161495  94.6508323   7.9028786  57.3016665  93.2557191
   6.7860621  73.9334806  87.8931385   7.0257219  74.5653330  88.5710403
   5.9429817  73.5822846  88.1796744   7.9014336  56.6259408  76.5613190
   7.0243802  56.5048209  76.1975437   8.3772089  55.8345486  76.3092079
  17.7687329  65.0812476  93.3311646  16.8814108  64.7438398  93.4538045
  18.3385880  64.3495507  93.5680411   4.2251198  56.3026764  91.0839721
   4.1409387  55.6952434  90.3490131   3.4033905  56.7935782  91.0849217
  11.2988482  69.7413928  90.2972889  11.2258654  70.5468900  90.8092193
  10.8565876  69.9405894  89.4720910  11.0878262  68.9785698  83.8075710
  10.3045784  69.5207378  83.9013935  11.7871007  69.4959678  84.2069952
  14.3974912  54.7880328  86.4509916  14.8943612  54.0350290  86.1310986
  13.6261894  54.8244644  85.8853125  22.2504670  60.4920693  88.0928207
  22.2394546  61.3745409  87.7222140  21.3822049  60.1392244  87.8982744
  13.7587166  69.6400762  92.4531048  14.4715138  70.2748227  92.3806949
  13.2677195  69.7364628  91.6371049  15.4804693  63.5452015  84.0248339
  14.5460972  63.6653477  83.8553044  15.6581361  62.6424482  83.7608349
  10.9809881  56.9297711  86.1781600  10.6107668  56.3768751  86.8662506
  11.4768973  56.3255844  85.6256600  18.8677244  59.3869334  84.5598373
  19.3337696  60.2197326  84.4858676  19.3184745  58.9214316  85.2643632
   8.8099079  67.3895206  93.2736618   9.5108539  68.0231689  93.4266013
   8.3394194  67.7309937  92.5132258  16.9353475  65.7313155  81.5584525
  17.2113319  65.6169750  82.4678399  16.0657974  65.3330640  81.5196698
  16.8393907  51.7549921  88.5989275  15.9256987  51.9854148  88.7671482
  17.2687008  51.8388365  89.4503307  16.6100365  59.9439813  91.0989169
  15.9571816  60.1915721  90.4441621  16.9880745  59.1303951  90.7651646
  13.5707539  69.9799506  85.2017339  13.7529934  69.1621162  85.6645091
  14.3940525  70.1967199  84.7642229  13.9049705  68.9067691  82.4632387
  14.4337471  68.3960146  81.8502550  14.1677924  68.5910222  83.3277920
  12.6587938  60.6859624  97.5855206  11.9828576  60.5853754  98.2557581
  13.4815572  60.5298838  98.0491203   4.4066798  66.9231561  90.2067721
   4.9920234  66.1775249  90.3395625   4.2091636  67.2335517  91.0904385
   7.2605453  69.9582808  85.2230163   6.5915828  70.4428936  84.7394203
   7.1218322  70.2052029  86.1373542  11.4010721  71.9926552  91.8212822
  11.9529029  72.1558173  92.5861907  11.7416915  72.5830989  91.1492847
   6.3775215  54.3401701  92.4234706   6.4416541  55.2016532  92.0112104
   6.3142335  53.7275703  91.6907065   5.8527487  56.4124834  96.0707741
   6.4799526  56.0301911  96.6845265   4.9955406  56.1939036  96.4363433
  16.2521596  66.8187809  97.6761476  16.7961500  67.4317767  97.1816431
  15.6708441  67.3767388  98.1928489   2.6293030  58.2201263  82.0026096
   2.9246471  57.3111942  81.9493149   1.7281066  58.1989003  81.6807098
  14.5379109  69.9408527  88.8076504  14.4130248  69.1398267  88.2987449
  15.1958200  70.4354721  88.3190474   6.1587277  56.2957260  87.9853644
   5.4373863  56.9093227  87.8461117   6.9480533  56.8315025  87.9070290
  16.6014017  67.7417547  90.4356054  15.6544353  67.6222898  90.3634381
  16.9496790  66.8540045  90.5182315   8.9613590  53.6311686  94.2594296
   9.4847992  53.8773983  95.0220605   8.7425924  54.4631721  93.8397433
   4.3580871  55.9015361  82.1265421   4.0293578  55.0212740  81.9440527
   4.7120242  55.8463029  83.0141810  13.6060450  67.5370263  86.6360406
  13.4585413  66.6086971  86.8167976  14.4313944  67.5590354  86.1517481
   7.4722695  56.1888331  82.4940898   7.8118767  56.7174252  81.7719507
   7.9194815  56.5268737  83.2699465  17.2094572  68.3598822  87.7225279
  18.1341120  68.1541684  87.5849730  17.0409876  68.1115223  88.6314620
  10.1666135  54.5725381  91.9443966   9.8262956  53.7733194  92.3464646
   9.4605142  54.8727092  91.3720800  10.8182607  51.6574694  90.3971289
  11.6408677  51.1835172  90.2750180  11.0620671  52.4365177  90.8969976
   9.4590842  54.6862952  80.6934191  10.1799204  55.0644205  80.1897908
   8.8356146  55.4051829  80.7969169  13.6021965  55.3908101  81.6292523
  13.8185579  56.2732739  81.3281352  13.1216032  54.9994315  80.8998165
   8.3421186  58.3493814  88.2063268   8.1965767  58.6634117  89.0987550
   7.8646390  58.9678715  87.6534167  10.2017569  55.3396362  88.2544158
  10.1879138  54.4437456  87.9176456  10.9189997  55.3467026  88.8882444
  12.0543700  55.7733703  90.2997285  11.7961477  56.6950773  90.2981615
  11.5228740  55.3764137  90.9897749  16.9989888  68.8784490  83.0787370
  17.1726766  68.3130912  82.3261223  17.4918780  69.6785385  82.8966860
   2.8166848  60.8899159  91.1450929   2.2720316  61.6658967  91.2771204
   3.6946198  61.2369963  90.9870051   9.6054465  54.2210743  83.5231728
   9.7270376  53.2927389  83.7222615   9.3156507  54.2349429  82.6110043
  12.4745655  51.9065653  86.6598448  12.4967352  51.9704986  85.7050427
  12.8913714  51.0670162  86.8538954  22.8529280  61.6420913  84.6977670
  23.2960426  60.8928238  84.2996793  21.9755790  61.6331049  84.3151402
  17.9865061  68.1951254  80.1784269  18.6815965  68.8157947  80.3971583
  18.3288211  67.3446605  80.4536647   3.6032870  60.0169055  94.0381086
   2.8614606  60.1651690  94.6245717   3.2825614  60.2777321  93.1747836
  19.8856484  65.6450960  81.7071599  20.4107808  65.9838232  80.9820920
  19.7978837  64.7097975  81.5234734  11.5476533  69.5585033  93.8361476
  11.8563659  69.3134180  94.7084176  12.3452015  69.7631672  93.3480346
  11.5697145  71.7122943  86.0666853  11.1302135  71.2199322  86.7599709
  12.3205262  71.1695911  85.8258928   4.0489484  67.9034484  86.0691481
   4.8747504  67.6038256  85.6890124   3.6983536  67.1342106  86.5181269
   9.0171017  67.2560952  88.1389154   8.3951026  66.5931657  87.8391382
   9.6875884  67.2822084  87.4562802   2.2498089  65.8220810  87.0280414
   1.4129997  65.3942985  86.8464416   2.2221734  66.0153254  87.9651206
   9.0895544  55.7342740  97.7321660   9.1383700  56.6104863  97.3499430
   9.6318059  55.1920133  97.1593304  19.5750390  66.2783863  97.0122797
  18.7845934  66.2608002  96.4727297  19.3383745  66.8172157  97.7671834
  19.6948265  63.1276330  94.3255526  19.7446270  62.9626337  95.2671049
  19.5862188  62.2603589  93.9353407   8.5784524  65.8064875  81.6147615
   8.7272644  66.4900340  80.9614288   9.3850967  65.7869965  82.1297071
  16.9852027  59.1107258  95.6414833  17.8861890  58.9713723  95.3498831
  17.0600002  59.2761712  96.5813010  11.3194833  56.4874112  94.4868019
  10.4498142  56.7807678  94.2150608  11.5554313  57.0714557  95.2075283
  21.1966462  65.5473271  94.5697548  20.9051270  65.9103252  95.4061009
  20.5838593  64.8340279  94.3910880  22.3962144  63.1126151  87.0900118
  23.2309036  63.5515955  87.2537678  22.5321273  62.6364804  86.2708364
  19.4453650  60.6705886  93.0377606  19.9207772  60.8633532  92.2296457
  18.5219216  60.7265072  92.7920989   6.3337157  61.8330053  82.6208684
   6.0883199  60.9292383  82.8188894   6.5033071  61.8347203  81.6788162
  14.0233867  52.7053729  92.0033439  14.5415811  53.4414756  91.6779928
  13.6688999  53.0117723  92.8380199   5.6032804  57.5658411  80.1194845
   4.9102049  57.6402766  79.4634881   5.3584556  56.8018754  80.6416362
  14.2746461  49.1254012  87.5234336  14.5548215  48.4577201  88.1494763
  15.0597068  49.3183107  87.0109000  12.0779929  68.3013006  79.0859362
  11.5053896  68.9203193  78.6329834  12.6512723  68.8512367  79.6199284
  18.1455319  57.5471646  91.2705911  19.0972742  57.6469744  91.2918135
  17.9758770  56.7549914  91.7803995  16.1669699  54.6327229  91.4565312
  15.5719631  54.9132242  90.7611801  15.8819395  55.1221130  92.2282053
  15.2977189  68.5850156  80.2167945  16.2307862  68.5195718  80.4200820
  15.2100402  69.4206423  79.7582477  17.9265206  67.9016026  77.1771892
  17.8478837  67.5675890  78.0707650  18.7474873  68.3937794  77.1763365
  20.6243397  60.7677766  90.3848211  20.5919717  59.8293766  90.5707895
  21.2344021  60.8461802  89.6514036  12.4626728  59.6373819  76.4275415
  13.4085833  59.5080027  76.4963833  12.0840973  58.8988480  76.9044843
  20.7737885  57.5588809  90.4306494  20.2576934  56.7747266  90.2436423
  21.6577834  57.2307526  90.5953013  18.4348612  51.3029825  86.3902307
  18.2373433  50.9944913  87.2745639  19.0448318  52.0291463  86.5200236
  26.4419947  61.8293772  89.5254248  27.1723335  61.5679061  90.0861951
  25.8326892  61.0922494  89.5656316  24.5235244  59.9701635  90.1228699
  23.7968408  59.8357600  89.5145190  24.1082531  60.2778464  90.9285417
  12.3465420  63.6891565  97.8876072  13.2668430  63.8670164  98.0816118
  12.3115003  62.7447610  97.7355771  10.6469645  57.5623795  76.3630300
   9.7401100  57.2656908  76.4393014  10.9245626  57.2653613  75.4964586
   1.5647585  58.8830158  86.8129346   1.2450370  58.0295467  86.5203720
   1.0181014  59.0978736  87.5687314   5.3427493  61.5992599  90.5298853
   5.5613503  62.5309707  90.5486887   5.7553267  61.2400574  91.3153657
  12.2631711  52.1060685  82.5174541  11.4532439  51.7607770  82.8929787
  12.9516128  51.7968228  83.1062153  14.1922259  51.1838731  84.1398838
  14.7453298  51.6034185  84.7988861  14.4292345  50.2574480  84.1821794
  10.2155358  57.1725805  99.9201602  10.1152085  58.1220162  99.8513693
   9.9976900  56.8444044  99.0477672   9.4168430  54.4210730  76.5042279
  10.2787594  54.7465628  76.7638097   9.6018774  53.6342226  75.9915345
   1.4335845  62.5033070  88.7822468   0.7399317  62.0887023  88.2692422
   2.1808836  62.5453606  88.1855887  17.5701066  53.2939257  83.6477502
  16.9899735  53.9524061  83.2655555  17.3036999  52.4716601  83.2364920
  16.0204632  52.6944314  85.8498823  16.5204411  52.8060849  85.0413141
  16.6640240  52.3905367  86.4899631  10.0786628  60.6022944  98.7366664
   9.5953710  61.4023304  98.9430553  10.1647567  60.6130889  97.7834108
   3.3472588  62.4351324  86.6588483   3.3243276  62.5339011  85.7070366
   3.6573224  63.2816474  86.9805649   6.0059966  64.4927479  90.7735097
   6.9603219  64.4611421  90.7065029   5.8072489  64.0318102  91.5885323
   6.5959348  63.0628595  93.3405895   7.4152237  63.5572673  93.3640732
   6.8696156  62.1460563  93.3123462  16.3525944  55.4539347  82.7033851
  15.4651799  55.7388998  82.4854045  16.7679933  55.2933110  81.8561127
  19.7040480  55.4785868  86.4188190  20.4800870  55.9682320  86.6912807
  18.9788614  55.9043922  86.8760059  22.1413039  56.1913487  87.4762130
  22.7357530  55.9509223  86.7655439  22.2139623  55.4720618  88.1035667
   4.3610195  70.0347098  87.7905295   4.2264662  69.2747499  87.2243293
   3.9442257  70.7587998  87.3234084  15.4969158  65.2184022  76.7981870
  16.2005008  65.4234024  77.4139526  14.7731806  65.7860784  77.0630954
  16.3266968  60.9693883  82.9184141  16.2702169  61.4262434  82.0791773
  16.8795310  60.2084567  82.7406983  20.1371774  56.7583615  83.7434260
  19.8808708  56.3580250  84.5742468  19.5124642  57.4727409  83.6184399
  24.4484112  59.4979688  86.2505552  23.8883670  59.5672877  87.0237114
  23.8427615  59.3220673  85.5305048   7.5179320  70.9316415  88.0023738
   7.4011705  71.8761848  87.9002428   6.6971767  70.6289977  88.3909537
  17.4055855  65.6566551  78.8480331  18.2401459  65.2247749  78.6657805
  17.2440198  65.4848565  79.7757225  17.0601747  62.1598664  80.2136670
  17.0050551  61.9942936  79.2725114  16.4347802  62.8674697  80.3698860
   1.8494262  57.3966729  94.0398092   2.4953126  56.8865683  94.5285317
   1.6411413  58.1335410  94.6141517  14.3747654  64.4647576  99.5390233
  15.2438814  64.6388228  99.1776868  13.8954406  65.2841993  99.4165962
  10.3697873  51.6606773  79.7921988  10.3576542  52.6048613  79.9490259
  11.2621294  51.4776919  79.4981449   8.5433835  71.5844677  91.2179666
   9.4461081  71.6168287  91.5346161   8.3171205  70.6545128  91.2326002
  10.2987437  70.3375664  87.8789745   9.3483068  70.3377525  87.7654117
  10.6019923  69.5908398  87.3625780  14.1849992  48.2549550  84.0467925
  13.4182388  47.7008036  84.1924607  14.5960697  48.3271419  84.9082077
   6.1891753  54.5434346  98.1373106   7.0523215  54.1871150  98.3476431
   5.6157164  54.2048240  98.8248511  26.0340130  76.1736202  88.9435507
  26.6718540  76.0542949  88.2398847  25.9160973  77.1217046  89.0023459
  22.8429836  76.1263630  88.8797032  22.5048348  76.0104695  87.9917567
  23.7119605  75.7254795  88.8598038  18.7016652  77.9799106  84.8693923
  18.1381517  77.8889043  84.1010211  18.5869047  77.1599011  85.3496415
  23.3249619  77.2798482  94.8383237  23.3138260  76.8851280  93.9663741
  23.4870259  76.5464554  95.4317009  16.2481084  79.4750298  87.7078143
  17.0402376  79.1341123  87.2924443  16.4877734  79.5845273  88.6280297
  24.2816211  81.6470074  80.1808388  23.6304191  82.2324155  79.7942402
  25.0760574  82.1776269  80.2403425  18.2071838  78.7359211  80.5795522
  18.9802714  78.1888198  80.4408398  18.5597237  79.6003461  80.7909984
  20.0456880  80.0635594  93.7862421  19.7546746  80.9681224  93.6709088
  20.6813865  80.1052121  94.5006491  20.9713087  77.4412442  90.3763781
  21.5676660  77.2168465  89.6620744  21.0288059  76.6997188  90.9789229
  20.5438116  74.8951877  78.2113972  20.7963636  74.3733399  77.4497435
  19.6062675  74.7318023  78.3140656  25.5881399  73.8987656  86.0188715
  26.3744488  73.4807079  85.6679132  25.8520103  74.8033748  86.1870364
  25.7591476  79.3360506  80.7177372  25.1237309  79.4095133  81.4298277
  25.4288882  79.9254105  80.0396451  20.2634404  76.7979983  80.4138347
  20.1470663  76.1224887  81.0819431  20.3736664  76.3112357  79.5970500
  22.6065945  76.2590130  84.1185036  22.2424153  75.7320751  84.8297958
  23.4633061  75.8688600  83.9451522  22.2471432  71.2880030  79.1146385
  22.4145835  72.1560267  79.4816856  22.0568601  71.4507312  78.1907674
  25.0046766  79.7497009  90.7812215  24.7047489  80.6522048  90.6728022
  24.6597825  79.4829192  91.6333368  18.4559247  76.2010806  86.8148920
  17.5309744  76.0687020  87.0226611  18.7043660  76.9805025  87.3118862
  22.2260653  73.7437688  80.0993052  22.1060278  74.1894738  80.9378532
  21.5313242  74.0923005  79.5406590  15.8168058  75.8444079  87.6492709
  15.9460439  76.0978558  88.5632120  15.1365509  76.4371787  87.3297364
  19.9867545  86.5141329  83.7483183  19.9091575  87.4649155  83.8271663
  19.3829189  86.1687202  84.4058109  22.4784775  73.6869195  96.4044550
  21.7018109  74.2463115  96.3947414  23.1175338  74.1725978  96.9259420
  27.9245719  74.2159161  80.9273386  28.8363576  74.4486548  80.7521083
  27.4155366  74.7996205  80.3648464  20.7331147  76.4954648  95.9662517
  21.4745832  77.0339692  95.6897340  20.0268133  77.1220937  96.1234069
  26.2086487  78.6383789  94.5634678  26.6169843  78.1966199  93.8189311
  25.4863749  78.0636416  94.8168871  22.5617557  73.5756395  91.9368235
  23.4078752  73.9995809  92.0802884  22.5016195  72.9190020  92.6306798
  26.5315302  79.1984979  88.3186967  25.9024164  79.3630693  87.6163035
  26.1440964  79.6126589  89.0897931  30.4104534  80.1339417  85.6731331
  29.7255572  80.5138319  85.1228364  30.4948383  80.7434744  86.4063279
  27.6655465  77.7799376  92.2726674  27.8772360  78.4231136  91.5961056
  27.6185213  76.9461693  91.8048605  25.2681694  70.3917197  89.1763247
  24.4066173  70.6898450  89.4679984  25.2944129  70.6087596  88.2444279
  22.0843264  78.9359387  85.5837052  22.5481609  79.2147090  84.7941675
  21.8200062  78.0342832  85.4010143  18.9767345  78.4830869  88.5216815
  19.5468702  78.9118137  87.8834300  19.5675456  78.2013454  89.2201001
  21.0212150  75.0582540  82.3926617  21.7236193  75.5103583  82.8600544
  20.6892778  74.4166359  83.0206510  19.4692511  73.6494296  96.7677827
  18.8391172  74.3310577  97.0013224  19.3628599  73.5377378  95.8230965
  14.7637484  73.3166092  87.6943751  13.9736538  73.5723621  87.2183862
  15.2548731  74.1314430  87.7995791  28.7801293  80.6571332  90.4449032
  29.6018737  80.2551519  90.1631713  28.7763696  80.5539566  91.3965148
  16.7152229  73.6810672  84.6527228  15.9183392  73.7929366  85.1710723
  16.4877821  74.0197324  83.7868118  22.5457897  80.2055375  92.6009742
  22.6102329  80.6675782  93.4367914  21.8368820  79.5752740  92.7292052
  13.0475187  73.5696583  90.1258742  13.2983225  74.4543593  90.3916318
  13.5834735  73.3901184  89.3533834  22.2605914  81.8723482  82.4688723
  22.1251589  82.7175018  82.8973570  22.8015727  82.0742760  81.7054656
  18.7473254  67.9515062  99.1303078  18.3540199  67.3981261  99.8050722
  19.5639394  68.2625641  99.5209595  15.7135312  79.3898920  83.0416648
  16.2259832  80.1842171  83.1922212  16.3658024  78.6925211  82.9750249
  17.5230196  82.5064677  85.1239401  17.6996825  83.4282641  84.9360385
  18.3187030  82.1923096  85.5533781  21.6641215  69.3672941  96.7223334
  22.4050928  69.9680094  96.6427797  21.8959138  68.6250579  96.1641377
  16.8082553  74.5529309  95.0001564  16.6936068  73.6514566  95.3008663
  15.9527071  74.7993005  94.6486381  23.8874391  82.4947049  96.5989065
  23.4438245  81.7083427  96.2809969  24.5491604  82.6826199  95.9332955
  18.6461512  84.0242851  91.1249743  19.1968937  83.8959914  90.3526737
  17.8072988  84.3237740  90.7744636  25.9855629  82.7749849  94.6270466
  25.9674104  83.5958730  94.1350735  26.9075549  82.6503924  94.8520607
  22.4428683  80.2893978  95.4693974  22.9757020  79.5282267  95.2393282
  21.9142764  79.9967630  96.2118129  25.6098378  65.3954044  90.9987616
  25.2662647  66.2855686  90.9226727  25.9777340  65.2055702  90.1357201
  13.6784228  77.7187575  83.8176218  14.5159450  78.1284583  83.6009926
  13.8562496  76.7787017  83.7876412  25.5748661  75.3862655  79.5060051
  25.0595284  76.1567260  79.7448439  25.3025969  74.7127792  80.1293113
  23.1595772  70.2312356  84.5645290  22.3037368  69.8419207  84.3850928
  23.5722723  70.3104317  83.7045075  24.6894918  67.7658699  88.9636849
  24.1859714  67.7288835  88.1504655  24.9825525  68.6751442  89.0233506
  20.9337804  67.8497429  87.9703031  21.7990801  67.6540238  87.6108921
  21.0015313  67.6207781  88.8972388  30.5482935  78.1395010  81.4413225
  29.7712377  77.8006170  80.9968387  31.2274416  78.1447633  80.7668190
  25.3634964  73.2589747  81.3319832  25.0585099  73.5735897  82.1829976
  26.3165406  73.3371167  81.3747165  23.8081396  79.4179971  82.9812786
  23.2802757  78.6832730  82.6686024  23.3068898  80.1954647  82.7352755
  28.7874242  77.6128991  88.0979833  28.1297916  78.3028253  88.1859961
  29.5914641  78.0025423  88.4413819  18.5400123  70.0799637  85.3419398
  19.1143875  69.8574819  84.6092591  19.1271106  70.1488332  86.0947999
  27.5979700  75.9673364  86.1483774  28.1111582  76.6003356  86.6505484
  28.2480924  75.3674559  85.7827134  18.8669710  72.1104098  79.3615283
  18.0307023  72.4478785  79.6824558  18.7274480  71.9753078  78.4242420
  20.8422791  66.9540886  84.0694467  20.1887203  66.6389903  83.4451082
  20.8003265  66.3316626  84.7954290  21.9533996  77.2360181  75.9847759
  21.0461057  77.0049435  76.1838908  22.4505028  76.4397800  76.1721741
  24.8602075  85.9457688  78.9044446  24.1863773  86.2489385  79.5129403
  25.2467897  86.7486769  78.5549903  24.0760531  73.4422820  88.3942115
  23.1583093  73.6637767  88.2363803  24.4920675  73.5169130  87.5353822
  24.8595579  74.8414235  83.5244795  25.6067398  75.3535632  83.2151917
  25.1287169  74.5198288  84.3849189  23.1322229  77.3372776  80.5071749
  22.2233448  77.0531809  80.6044219  23.1617313  77.7571854  79.6475056
  28.3641497  80.9479365  84.2762917  27.9103824  80.1070275  84.3328107
  27.7335463  81.5840764  84.6137697  27.3074416  71.8771351  85.5063584
  26.5697173  71.3648738  85.8373827  27.5601190  71.4371733  84.6946861
  26.8074436  82.7855862  85.2112735  27.0997410  83.3460919  84.4925101
  27.3173056  83.0784423  85.9665894  27.4086043  64.6547603  86.1005354
  27.7144920  63.7944967  85.8131269  28.1338648  65.2465224  85.9004348
  13.7010400  75.0578290  84.4886952  13.5034799  74.4647651  83.7638018
  13.1457064  74.7530500  85.2062890  21.6807123  74.9501397  86.6081545
  21.7355733  73.9975233  86.5324021  20.8698325  75.1060836  87.0922843
  22.8298317  78.8781520  77.8459828  22.3917747  78.1617379  77.3865465
  23.5708758  79.1057634  77.2844919  19.6199483  73.5678456  84.3671924
  18.8067349  73.8672627  84.7737116  20.1158477  73.1734145  85.0846406
  21.7708061  83.5636213  86.3006188  21.7284240  83.7897060  85.3714720
  22.6870760  83.3299588  86.4491990  25.2173695  74.0320281  93.1986818
  25.5723083  74.2591754  94.0581283  25.8645826  74.3638658  92.5764073
  30.9471432  77.1538717  83.9036147  30.8089330  77.3440313  82.9757336
  30.5907651  77.9158099  84.3604198  19.1113558  71.1396812  89.9833159
  19.7512937  70.9985571  89.2856122  18.2791088  70.8531325  89.6071761
  19.8873862  80.4399242  86.0968151  20.6814460  79.9449562  85.8950726
  19.1765554  79.9117105  85.7335857  24.7068706  82.8217338  90.4480519
  24.7605729  83.3908274  91.2158235  23.8383488  82.9919223  90.0834556
  16.1956625  74.5842324  82.1727904  15.2654213  74.5226779  82.3897866
  16.2914097  74.0618277  81.3764545  16.1142174  71.1097137  84.7606145
  16.3748992  72.0242470  84.6515306  16.9359347  70.6421579  84.9102758
  17.5867100  72.5234894  91.9304970  18.2590153  72.3152256  91.2817619
  16.7596886  72.3256980  91.4910202  23.4892672  69.1496835  93.9470631
  22.8420587  69.8486785  93.8535107  24.2593687  69.5832979  94.3146879
  26.8971470  79.4145687  97.0221184  26.7456976  79.1856239  96.1051268
  26.8876149  80.3716288  97.0352529  23.6656806  76.9877600  92.0067451
  24.5948866  77.1388759  91.8336418  23.2447836  77.0761621  91.1516097
  22.4645138  81.0128264  89.7765988  22.3256224  80.6447049  90.6491926
  21.6759734  81.5275904  89.6049946  23.0593290  86.1137361  81.1191525
  23.2345045  85.6425404  81.9337147  22.3726078  86.7403127  81.3472785
  24.0150353  80.3909867  87.1654826  23.6800186  80.3510637  88.0612476
  23.5154299  79.7254583  86.6925236  17.9894597  75.7977497  92.6907407
  17.8514395  75.0657736  93.2918946  18.8999520  75.7086397  92.4091595
  26.9509545  77.7365901  77.4391886  26.3338715  77.0112729  77.3424938
  26.4826033  78.4975262  77.0958960  20.6176898  75.5097456  92.1791087
  21.3276516  74.8690648  92.1377705  20.5746206  75.7610351  93.1017268
  28.6063676  82.4464810  95.0997666  28.5476222  81.7624030  94.4328249
  29.0083195  83.1883800  94.6478292  19.3305832  72.4962674  93.9986726
  18.7943189  72.0453413  94.6508323  18.7422540  72.6308583  93.2557191
  17.6254375  89.2626723  87.8931385  17.8650973  89.8945248  88.5710403
  16.7823572  88.9114763  88.1796744  18.7408091  71.9551326  76.5613190
  17.8637557  71.8340126  76.1975437  19.2165844  71.1637404  76.3092079
  28.6081084  80.4104394  93.3311646  27.7207862  80.0730315  93.4538045
  29.1779635  79.6787425  93.5680411  10.2610231  76.7428485  86.6554697
  10.9481270  76.4290215  86.0675712  10.1058359  77.6469850  86.3821948
  15.0644953  71.6318682  91.0839721  14.9803142  71.0244351  90.3490131
  14.2427659  72.1227700  91.0849217  22.1382237  85.0705846  90.2972889
  22.0652408  85.8760817  90.8092193  21.6959630  85.2697812  89.4720910
  21.9272017  84.3077616  83.8075710  21.1439538  84.8499296  83.9013935
  22.6264762  84.8251596  84.2069952  25.2368667  70.1172245  86.4509916
  25.7337366  69.3642208  86.1310986  24.4655648  70.1536562  85.8853125
  24.5980920  84.9692680  92.4531048  25.3108893  85.6040145  92.3806949
  24.1070949  85.0656546  91.6371049  26.3198447  78.8743933  84.0248339
  25.3854726  78.9945395  83.8553044  26.4975116  77.9716399  83.7608349
  21.8203635  72.2589628  86.1781600  21.4501423  71.7060669  86.8662506
  22.3162728  71.6547762  85.6256600  29.7070999  74.7161252  84.5598373
  30.1731451  75.5489243  84.4858676  30.1578499  74.2506233  85.2643632
  19.6492834  82.7187123  93.2736618  20.3502293  83.3523606  93.4266013
  19.1787949  83.0601855  92.5132258  27.7747230  81.0605073  81.5584525
  28.0507074  80.9461668  82.4678399  26.9051729  80.6622558  81.5196698
  27.6787661  67.0841839  88.5989275  26.7650741  67.3146066  88.7671482
  28.1080763  67.1680283  89.4503307  24.4101294  85.3091424  85.2017339
  24.5923688  84.4913080  85.6645091  25.2334280  85.5259116  84.7642229
  24.7443459  84.2359609  82.4632387  25.2731226  83.7252064  81.8502550
  25.0071679  83.9202139  83.3277920  23.4981693  76.0151542  97.5855206
  22.8222330  75.9145671  98.2557581  24.3209327  75.8590756  98.0491203
  15.2460552  82.2523478  90.2067721  15.8313989  81.5067166  90.3395625
  15.0485390  82.5627435  91.0904385  18.0999207  85.2874726  85.2230163
  17.4309583  85.7720853  84.7394203  17.9612077  85.5343946  86.1373542
   9.8378207  74.8229079  88.9272164   9.8762306  74.2892669  89.7209282
   9.3318500  74.2964284  88.3083141  22.2404476  87.3218469  91.8212822
  22.7922784  87.4850091  92.5861907  22.5810669  87.9122907  91.1492847
  17.2168969  69.6693619  92.4234706  17.2810296  70.5308450  92.0112104
  17.1536089  69.0567621  91.6907065  16.6921242  71.7416752  96.0707741
  17.3193280  71.3593829  96.6845265  15.8349160  71.5230954  96.4363433
  27.0915350  82.1479727  97.6761476  27.6355254  82.7609685  97.1816431
  26.5102195  82.7059305  98.1928489  13.4686784  73.5493181  82.0026096
  13.7640225  72.6403859  81.9493149  12.5674820  73.5280920  81.6807098
  25.3772863  85.2700445  88.8076504  25.2524003  84.4690185  88.2987449
  26.0351954  85.7646638  88.3190474  16.9981031  71.6249177  87.9853644
  16.2767617  72.2385145  87.8461117  17.7874287  72.1606942  87.9070290
  27.4407772  83.0709465  90.4356054  26.4938107  82.9514816  90.3634381
  27.7890545  82.1831963  90.5182315  19.8007345  68.9603604  94.2594296
  20.3241747  69.2065900  95.0220605  19.5819678  69.7923639  93.8397433
  15.1974626  71.2307278  82.1265421  14.8687332  70.3504657  81.9440527
  15.5513997  71.1754947  83.0141810  24.4454205  82.8662181  86.6360406
  24.2979167  81.9378889  86.8167976  25.2707698  82.8882272  86.1517481
  18.3116449  71.5180248  82.4940898  18.6512522  72.0466170  81.7719507
  18.7588570  71.8560654  83.2699465  28.0488327  83.6890740  87.7225279
  28.9734874  83.4833601  87.5849730  27.8803630  83.4407141  88.6314620
  21.0059890  69.9017299  91.9443966  20.6656710  69.1025112  92.3464646
  20.2998896  70.2019010  91.3720800  21.6576362  66.9866611  90.3971289
  22.4802431  66.5127090  90.2750180  21.9014425  67.7657095  90.8969976
  20.2984596  70.0154870  80.6934191  21.0192959  70.3936123  80.1897908
  19.6749900  70.7343747  80.7969169  24.4415719  70.7200019  81.6292523
  24.6579334  71.6024657  81.3281352  23.9609786  70.3286232  80.8998165
  19.1814941  73.6785732  88.2063268  19.0359521  73.9926035  89.0987550
  18.7040144  74.2970632  87.6534167  21.0411323  70.6688280  88.2544158
  21.0272892  69.7729373  87.9176456  21.7583752  70.6758944  88.8882444
  22.8937454  71.1025620  90.2997285  22.6355232  72.0242691  90.2981615
  22.3622494  70.7056055  90.9897749  27.8383643  84.2076407  83.0787370
  28.0120520  83.6422830  82.3261223  28.3312534  85.0077302  82.8966860
  13.6560603  76.2191076  91.1450929  13.1114071  76.9950884  91.2771204
  14.5339953  76.5661881  90.9870051  20.4448219  69.5502660  83.5231728
  20.5664131  68.6219306  83.7222615  20.1550262  69.5641346  82.6110043
  23.3139410  67.2357571  86.6598448  23.3361107  67.2996904  85.7050427
  23.7307469  66.3962079  86.8538954  33.6923034  76.9712830  84.6977670
  34.1354180  76.2220155  84.2996793  32.8149544  76.9622967  84.3151402
  28.8258815  83.5243172  80.1784269  29.5209720  84.1449864  80.3971583
  29.1681965  82.6738523  80.4536647  14.4426625  75.3460973  94.0381086
  13.7008361  75.4943608  94.6245717  14.1219369  75.6069238  93.1747836
  30.7250238  80.9742877  81.7071599  31.2501563  81.3130150  80.9820920
  30.6372591  80.0389893  81.5234734  22.3870287  84.8876951  93.8361476
  22.6957414  84.6426098  94.7084176  23.1845769  85.0923589  93.3480346
  22.4090899  87.0414861  86.0666853  21.9695890  86.5491239  86.7599709
  23.1599016  86.4987828  85.8258928  14.8883238  83.2326401  86.0691481
  15.7141258  82.9330173  85.6890124  14.5377290  82.4634024  86.5181269
  19.8564771  82.5852870  88.1389154  19.2344781  81.9223575  87.8391382
  20.5269638  82.6114002  87.4562802  13.0891843  81.1512728  87.0280414
  12.2523752  80.7234902  86.8464416  13.0615489  81.3445171  87.9651206
  19.9289299  71.0634658  97.7321660  19.9777454  71.9396780  97.3499430
  20.4711813  70.5212051  97.1593304  19.4178278  81.1356793  81.6147615
  19.5666399  81.8192257  80.9614288  20.2244722  81.1161883  82.1297071
  22.1588587  71.8166030  94.4868019  21.2891897  72.1099596  94.2150608
  22.3948068  72.4006475  95.2075283  33.2355899  78.4418069  87.0900118
  34.0702790  78.8807873  87.2537678  33.3715028  77.9656722  86.2708364
  17.1730911  77.1621971  82.6208684  16.9276953  76.2584301  82.8188894
  17.3426826  77.1639121  81.6788162  24.8627621  68.0345647  92.0033439
  25.3809565  68.7706674  91.6779928  24.5082754  68.3409640  92.8380199
  16.4426559  72.8950328  80.1194845  15.7495804  72.9694683  79.4634881
  16.1978311  72.1310672  80.6416362  25.1140215  64.4545930  87.5234336
  25.3941969  63.7869119  88.1494763  25.8990822  64.6475025  87.0109000
  22.9173684  83.6304923  79.0859362  22.3447651  84.2495111  78.6329834
  23.4906477  84.1804285  79.6199284  26.1370944  83.9142074  80.2167945
  27.0701617  83.8487635  80.4200820  26.0494156  84.7498340  79.7582477
  28.7658960  83.2307944  77.1771892  28.6872592  82.8967808  78.0707650
  29.5868627  83.7229712  77.1763365  23.3020482  74.9665736  76.4275415
  24.2479587  74.8371944  76.4963833  22.9234727  74.2280398  76.9044843
  29.2742367  66.6321742  86.3902307  29.0767188  66.3236830  87.2745639
  29.8842072  67.3583381  86.5200236  23.1859175  79.0183482  97.8876072
  24.1062184  79.1962081  98.0816118  23.1508758  78.0739528  97.7355771
  21.4863399  72.8915713  76.3630300  20.5794855  72.5948825  76.4393014
  21.7639380  72.5945531  75.4964586  12.4041340  74.2122076  86.8129346
  12.0844124  73.3587384  86.5203720  11.8574768  74.4270654  87.5687314
  16.1821247  76.9284517  90.5298853  16.4007257  77.8601625  90.5486887
  16.5947021  76.5692491  91.3153657  23.1025465  67.4352602  82.5174541
  22.2926194  67.0899687  82.8929787  23.7909882  67.1260146  83.1062153
  25.0316013  66.5130649  84.1398838  25.5847052  66.9326103  84.7988861
  25.2686100  65.5866397  84.1821794  21.0549113  72.5017723  99.9201602
  20.9545840  73.4512080  99.8513693  20.8370655  72.1735962  99.0477672
  20.2562184  69.7502648  76.5042279  21.1181348  70.0757546  76.7638097
  20.4412528  68.9634144  75.9915345  12.2729600  77.8324987  88.7822468
  11.5793071  77.4178940  88.2692422  13.0202591  77.8745524  88.1855887
  28.4094821  68.6231174  83.6477502  27.8293490  69.2815978  83.2655555
  28.1430753  67.8008519  83.2364920  26.8598387  68.0236232  85.8498823
  27.3598165  68.1352766  85.0413141  27.5033995  67.7197285  86.4899631
  20.9180383  75.9314862  98.7366664  20.4347464  76.7315222  98.9430553
  21.0041322  75.9422806  97.7834108  14.1866342  77.7643241  86.6588483
  14.1637030  77.8630929  85.7070366  14.4966979  78.6108392  86.9805649
  16.8453720  79.8219396  90.7735097  17.7996974  79.7903339  90.7065029
  16.6466244  79.3610020  91.5885323  17.4353102  78.3920512  93.3405895
  18.2545991  78.8864591  93.3640732  17.7089910  77.4752480  93.3123462
  27.1919699  70.7831265  82.7033851  26.3045554  71.0680915  82.4854045
  27.6073688  70.6225028  81.8561127  15.2003949  85.3639016  87.7905295
  15.0658417  84.6039417  87.2243293  14.7836011  86.0879916  87.3234084
  26.3362912  80.5475939  76.7981870  27.0398762  80.7525942  77.4139526
  25.6125561  81.1152701  77.0630954  27.1660722  76.2985801  82.9184141
  27.1095924  76.7554352  82.0791773  27.7189065  75.5376485  82.7406983
  30.9765528  72.0875532  83.7434260  30.7202462  71.6872168  84.5742468
  30.3518396  72.8019326  83.6184399  18.3573075  86.2608333  88.0023738
  18.2405459  87.2053765  87.9002428  17.5365521  85.9581894  88.3909537
  28.2449609  80.9858469  78.8480331  29.0795213  80.5539667  78.6657805
  28.0833952  80.8140482  79.7757225  27.8995502  77.4890582  80.2136670
  27.8444305  77.3234853  79.2725114  27.2741557  78.1966615  80.3698860
  12.6888017  72.7258646  94.0398092  13.3346880  72.2157600  94.5285317
  12.4805168  73.4627328  94.6141517  25.2141409  79.7939494  99.5390233
  26.0832568  79.9680146  99.1776868  24.7348160  80.6133911  99.4165962
  21.2091627  66.9898691  79.7921988  21.1970297  67.9340531  79.9490259
  22.1015049  66.8068836  79.4981449  19.3827589  86.9136595  91.2179666
  20.2854836  86.9460205  91.5346161  19.1564959  85.9837046  91.2326002
  21.1381191  85.6667581  87.8789745  20.1876822  85.6669443  87.7654117
  21.4413677  84.9200316  87.3625780  25.0243747  63.5841467  84.0467925
  24.2576142  63.0299954  84.1924607  25.4354452  63.6563336  84.9082077
  17.0285508  69.8726263  98.1373106  17.8916969  69.5163068  98.3476431
  16.4550918  69.5340158  98.8248511  36.8733885  91.5028120  88.9435507
  37.5112294  91.3834867  88.2398847  36.7554727  92.4508964  89.0023459
  33.6823591  91.4555548  88.8797032  33.3442102  91.3396612  87.9917567
  34.5513359  91.0546713  88.8598038  29.5410407  93.3091024  84.8693923
  28.9775272  93.2180961  84.1010211  29.4262802  92.4890929  85.3496415
  34.1643374  92.6090399  94.8383237  34.1532015  92.2143198  93.9663741
  34.3264013  91.8756472  95.4317009  27.0874838  94.8042216  87.7078143
  27.8796130  94.4633040  87.2924443  27.3271489  94.9137191  88.6280297
  35.1209965  96.9761992  80.1808388  34.4697945  97.5616072  79.7942402
  35.9154328  97.5068187  80.2403425  29.0465592  94.0651129  80.5795522
  29.8196468  93.5180116  80.4408398  29.3990991  94.9295378  80.7909984
  30.8850635  95.3927511  93.7862421  30.5940501  96.2973142  93.6709088
  31.5207619  95.4344039  94.5006491  31.8106842  92.7704360  90.3763781
  32.4070414  92.5460382  89.6620744  31.8681813  92.0289105  90.9789229
  31.3831870  90.2243795  78.2113972  31.6357391  89.7025316  77.4497435
  30.4456429  90.0609941  78.3140656  36.4275153  89.2279573  86.0188715
  37.2138242  88.8098997  85.6679132  36.6913857  90.1325666  86.1870364
  36.5985230  94.6652424  80.7177372  35.9631063  94.7387050  81.4298277
  36.2682637  95.2546023  80.0396451  41.8283580  89.1654807  86.9221694
  42.5608752  88.5954023  87.1559523  41.0722936  88.7776407  87.3628199
  31.1028159  92.1271901  80.4138347  30.9864417  91.4516804  81.0819431
  31.2130419  91.6404275  79.5970500  33.4459700  91.5882048  84.1185036
  33.0817907  91.0612669  84.8297958  34.3026816  91.1980517  83.9451522
  39.3509000  82.8776381  91.3816302  39.0192325  83.7471792  91.1577517
  38.7554614  82.5612665  92.0610333  33.0865187  86.6171948  79.1146385
  33.2539589  87.4852184  79.4816856  32.8962356  86.7799230  78.1907674
  35.8440520  95.0788927  90.7812215  35.5441243  95.9813966  90.6728022
  35.4991580  94.8121110  91.6333368  29.2953002  91.5302724  86.8148920
  28.3703498  91.3978938  87.0226611  29.5437415  92.3096943  87.3118862
  39.2437664  87.5971467  88.4609652  38.3354541  87.5286875  88.1668413
  39.1925260  88.0743412  89.2891478  33.0654408  89.0729605  80.0993052
  32.9454033  89.5186656  80.9378532  32.3706996  89.4214923  79.5406590
  26.6561813  91.1735997  87.6492709  26.7854194  91.4270476  88.5632120
  25.9759264  91.7663705  87.3297364  30.8261300 101.8433247  83.7483183
  30.7485330 102.7941072  83.8271663  30.2222943 101.4979120  84.4058109
  33.3178530  89.0161113  96.4044550  32.5411864  89.5755033  96.3947414
  33.9569093  89.5017896  96.9259420  41.1099310  85.7987905  90.2387526
  40.4673690  86.0920439  89.5927321  40.6054239  85.6840826  91.0440723
  38.7639474  89.5451079  80.9273386  39.6757330  89.7778465  80.7521083
  38.2549121  90.1288123  80.3648464  31.5724902  91.8246566  95.9662517
  32.3139586  92.3631610  95.6897340  30.8661887  92.4512855  96.1234069
  37.0480242  93.9675706  94.5634678  37.4563598  93.5258117  93.8189311
  36.3257503  93.3928334  94.8168871  33.4011312  88.9048313  91.9368235
  34.2472507  89.3287727  92.0802884  33.3409949  88.2481937  92.6306798
  37.3709056  94.5276897  88.3186967  36.7417919  94.6922611  87.6163035
  36.9834718  94.9418507  89.0897931  41.2498288  95.4631335  85.6731331
  40.5649326  95.8430236  85.1228364  41.3342137  96.0726662  86.4063279
  36.5510757  86.5652682  93.5949409  36.3071689  87.3194742  93.0583685
  36.8270687  86.9438029  94.4296656  38.5049220  93.1091294  92.2726674
  38.7166115  93.7523054  91.5961056  38.4578968  92.2753610  91.8048605
  36.1075449  85.7209115  89.1763247  35.2459928  86.0190368  89.4679984
  36.1337883  85.9379513  88.2444279  32.9237018  94.2651305  85.5837052
  33.3875364  94.5439008  84.7941675  32.6593816  93.3634750  85.4010143
  29.8161099  93.8122787  88.5216815  30.3862456  94.2410055  87.8834300
  30.4069211  93.5305371  89.2201001  31.8605904  90.3874457  82.3926617
  32.5629947  90.8395501  82.8600544  31.5286533  89.7458276  83.0206510
  30.3086266  88.9786214  96.7677827  29.6784926  89.6602495  97.0013224
  30.2022354  88.8669296  95.8230965  25.6031238  88.6458010  87.6943751
  24.8130292  88.9015539  87.2183862  26.0942485  89.4606348  87.7995791
  39.6195048  95.9863249  90.4449032  40.4412491  95.5843437  90.1631713
  39.6157451  95.8831483  91.3965148  27.5545983  89.0102589  84.6527228
  26.7577147  89.1221284  85.1710723  27.3271576  89.3489242  83.7868118
  33.3851651  95.5347293  92.6009742  33.4496084  95.9967700  93.4367914
  32.6762575  94.9044658  92.7292052  23.8868941  88.8988501  90.1258742
  24.1376979  89.7835510  90.3916318  24.4228489  88.7193102  89.3533834
  47.7101041  92.3301998  86.7934003  46.9564749  91.7609396  86.6378008
  47.8448582  92.2964662  87.7404638  33.0999669  97.2015400  82.4688723
  32.9645344  98.0466936  82.8973570  33.6409481  97.4034678  81.7054656
  26.5529066  94.7190838  83.0416648  27.0653587  95.5134088  83.1922212
  27.2051779  94.0217129  82.9750249  28.3623951  97.8356594  85.1239401
  28.5390579  98.7574559  84.9360385  29.1580784  97.5215014  85.5533781
  27.6476307  89.8821226  95.0001564  27.5329823  88.9806484  95.3008663
  26.7920825  90.1284923  94.6486381  34.7268145  97.8238967  96.5989065
  34.2831999  97.0375345  96.2809969  35.3885359  98.0118117  95.9332955
  29.4855266  99.3534768  91.1249743  30.0362691  99.2251832  90.3526737
  28.6466742  99.6529657  90.7744636  36.8249383  98.1041767  94.6270466
  36.8067859  98.9250648  94.1350735  37.7469303  97.9795842  94.8520607
  33.2822437  95.6185896  95.4693974  33.8150774  94.8574184  95.2393282
  32.7536518  95.3259548  96.2118129  24.5177983  93.0479492  83.8176218
  25.3553205  93.4576501  83.6009926  24.6956251  92.1078935  83.7876412
  36.4142415  90.7154573  79.5060051  35.8989038  91.4859178  79.7448439
  36.1419723  90.0419709  80.1293113  33.9989526  85.5604274  84.5645290
  33.1431122  85.1711124  84.3850928  34.4116478  85.6396235  83.7045075
  31.7731559  83.1789347  87.9703031  32.6384555  82.9832156  87.6108921
  31.8409068  82.9499699  88.8972388  41.3876689  93.4686928  81.4413225
  40.6106132  93.1298087  80.9968387  42.0668170  93.4739551  80.7668190
  36.2028718  88.5881665  81.3319832  35.8978854  88.9027814  82.1829976
  37.1559160  88.6663085  81.3747165  34.6475150  94.7471888  82.9812786
  34.1196512  94.0124648  82.6686024  34.1462653  95.5246565  82.7352755
  39.6267996  92.9420909  88.0979833  38.9691671  93.6320170  88.1859961
  40.4308395  93.3317341  88.4413819  29.3793878  85.4091555  85.3419398
  29.9537630  85.1866736  84.6092591  29.9664860  85.4780249  86.0947999
  38.4373455  91.2965282  86.1483774  38.9505337  91.9295273  86.6505484
  39.0874679  90.6966477  85.7827134  29.7063465  87.4396016  79.3615283
  28.8700777  87.7770702  79.6824558  29.5668234  87.3044996  78.4242420
  31.6816545  82.2832804  84.0694467  31.0280958  81.9681821  83.4451082
  31.6397020  81.6608544  84.7954290  32.7927750  92.5652099  75.9847759
  31.8854812  92.3341352  76.1838908  33.2898782  91.7689718  76.1721741
  35.6995829 101.2749606  78.9044446  35.0257528 101.5781303  79.5129403
  36.0861651 102.0778686  78.5549903  34.9154286  88.7714737  88.3942115
  33.9976847  88.9929684  88.2363803  35.3314429  88.8461048  87.5353822
  35.6989334  90.1706153  83.5244795  36.4461152  90.6827550  83.2151917
  35.9680923  89.8490206  84.3849189  33.9715984  92.6664694  80.5071749
  33.0627203  92.3823726  80.6044219  34.0011067  93.0863772  79.6475056
  39.2035251  96.2771283  84.2762917  38.7497578  95.4362193  84.3328107
  38.5729218  96.9132681  84.6137697  38.1468171  87.2063269  85.5063584
  37.4090927  86.6940655  85.8373827  38.3994944  86.7663651  84.6946861
  37.6468190  98.1147780  85.2112735  37.9391165  98.6752837  84.4925101
  38.1566811  98.4076341  85.9665894  38.2479798  79.9839521  86.1005354
  38.5538675  79.1236885  85.8131269  38.9732403  80.5757141  85.9004348
  24.5404154  90.3870208  84.4886952  24.3428554  89.7939568  83.7638018
  23.9850818  90.0822418  85.2062890  32.5200878  90.2793314  86.6081545
  32.5749488  89.3267151  86.5324021  31.7092080  90.4352753  87.0922843
  33.6692071  94.2073437  77.8459828  33.2311501  93.4909296  77.3865465
  34.4102512  94.4349552  77.2844919  30.4593238  88.8970374  84.3671924
  29.6461103  89.1964545  84.7737116  30.9552232  88.5026063  85.0846406
  32.6101816  98.8928131  86.3006188  32.5677994  99.1188977  85.3714720
  33.5264514  98.6591505  86.4491990  36.0567449  89.3612198  93.1986818
  36.4116837  89.5883672  94.0581283  36.7039581  89.6930575  92.5764073
  41.7865186  92.4830634  83.9036147  41.6483085  92.6732230  82.9757336
  41.4301405  93.2450017  84.3604198  29.9507312  86.4688729  89.9833159
  30.5906692  86.3277489  89.2856122  29.1184843  86.1823243  89.6071761
  41.8134566  94.5507161  88.9147418  42.2471073  94.4582450  89.7630472
  42.5266147  94.5264662  88.2767434  30.7267616  95.7691160  86.0968151
  31.5208215  95.2741480  85.8950726  30.0159309  95.2409023  85.7335857
  35.5462461  98.1509255  90.4480519  35.5999483  98.7200192  91.2158235
  34.6777242  98.3211140  90.0834556  27.0350380  89.9134242  82.1727904
  26.1047968  89.8518697  82.3897866  27.1307852  89.3910194  81.3764545
  26.9535929  86.4389054  84.7606145  27.2142746  87.3534388  84.6515306
  27.7753101  85.9713497  84.9102758  28.4260854  87.8526812  91.9304970
  29.0983908  87.6444174  91.2817619  27.5990641  87.6548898  91.4910202
  42.6750115  94.5930862  91.4480304  42.8686006  95.4976672  91.6939578
  42.5750734  94.1338281  92.2818889  34.3286426  84.4788753  93.9470631
  33.6814341  85.1778702  93.8535107  35.0987442  84.9124896  94.3146879
  37.7365224  94.7437605  97.0221184  37.5850731  94.5148156  96.1051268
  37.7269904  95.7008206  97.0352529  34.5050561  92.3169517  92.0067451
  35.4342621  92.4680677  91.8336418  34.0841591  92.4053538  91.1516097
  33.3038892  96.3420182  89.7765988  33.1649978  95.9738966  90.6491926
  32.5153489  96.8567821  89.6049946  33.8987044 101.4429278  81.1191525
  34.0738800 100.9717322  81.9337147  33.2119832 102.0695045  81.3472785
  34.8544107  95.7201785  87.1654826  34.5193940  95.6802555  88.0612476
  34.3548053  95.0546501  86.6925236  28.8288351  91.1269415  92.6907407
  28.6908149  90.3949653  93.2918946  29.7393275  91.0378315  92.4091595
  37.7903299  93.0657819  77.4391886  37.1732470  92.3404647  77.3424938
  37.3219788  93.8267179  77.0958960  31.4570652  90.8389374  92.1791087
  32.1670271  90.1982566  92.1377705  31.4139960  91.0902269  93.1017268
  39.4457431  97.7756727  95.0997666  39.3869977  97.0915947  94.4328249
  39.8476949  98.5175717  94.6478292  30.1699586  87.8254592  93.9986726
  29.6336943  87.3745330  94.6508323  29.5816295  87.9600501  93.2557191
  28.4648130 104.5918641  87.8931385  28.7044728 105.2237165  88.5710403
  27.6217326 104.2406681  88.1796744  29.5801845  87.2843243  76.5613190
  28.7031311  87.1632044  76.1975437  30.0559598  86.4929322  76.3092079
  39.4474838  95.7396311  93.3311646  38.5601617  95.4022233  93.4538045
  40.0173389  95.0079342  93.5680411  21.1003985  92.0720403  86.6554697
  21.7875025  91.7582133  86.0675712  20.9452114  92.9761768  86.3821948
  25.9038707  86.9610600  91.0839721  25.8196896  86.3536269  90.3490131
  25.0821414  87.4519618  91.0849217  32.9775991 100.3997764  90.2972889
  32.9046163 101.2052735  90.8092193  32.5353385 100.5989729  89.4720910
  32.7665771  99.6369534  83.8075710  31.9833293 100.1791214  83.9013935
  33.4658516 100.1543513  84.2069952  36.0762421  85.4464163  86.4509916
  36.5731121  84.6934125  86.1310986  35.3049403  85.4828480  85.8853125
  43.9292179  91.1504529  88.0928207  43.9182055  92.0329244  87.7222140
  43.0609558  90.7976079  87.8982744  35.4374675 100.2984598  92.4531048
  36.1502647 100.9332062  92.3806949  34.9464704 100.3948464  91.6371049
  37.1592202  94.2035850  84.0248339  36.2248481  94.3237313  83.8553044
  37.3368870  93.3008317  83.7608349  32.6597390  87.5881546  86.1781600
  32.2895177  87.0352586  86.8662506  33.1556482  86.9839680  85.6256600
  40.5464753  90.0453170  84.5598373  41.0125205  90.8781161  84.4858676
  40.9972254  89.5798151  85.2643632  30.4886588  98.0479041  93.2736618
  31.1896048  98.6815524  93.4266013  30.0181703  98.3893773  92.5132258
  38.6140984  96.3896991  81.5584525  38.8900828  96.2753585  82.4678399
  37.7445483  95.9914476  81.5196698  38.5181416  82.4133757  88.5989275
  37.6044496  82.6437983  88.7671482  38.9474517  82.4972201  89.4503307
  38.2887874  90.6023649  91.0989169  37.6359325  90.8499556  90.4441621
  38.6668254  89.7887787  90.7651646  35.2495048 100.6383342  85.2017339
  35.4317443  99.8204998  85.6645091  36.0728034 100.8551034  84.7642229
  35.5837214  99.5651527  82.4632387  36.1124980  99.0543981  81.8502550
  35.8465433  99.2494057  83.3277920  34.3375447  91.3443460  97.5855206
  33.6616084  91.2437589  98.2557581  35.1603081  91.1882673  98.0491203
  26.0854307  97.5815396  90.2067721  26.6707743  96.8359084  90.3395625
  25.8879145  97.8919353  91.0904385  28.9392962 100.6166643  85.2230163
  28.2703337 101.1012771  84.7394203  28.8005831 100.8635864  86.1373542
  20.6771961  90.1520996  88.9272164  20.7156061  89.6184587  89.7209282
  20.1712254  89.6256202  88.3083141  33.0798230 102.6510387  91.8212822
  33.6316538 102.8142009  92.5861907  33.4204424 103.2414825  91.1492847
  28.0562724  84.9985537  92.4234706  28.1204050  85.8600368  92.0112104
  27.9929844  84.3859538  91.6907065  27.5314996  87.0708669  96.0707741
  28.1587035  86.6885747  96.6845265  26.6742915  86.8522871  96.4363433
  37.9309105  97.4771645  97.6761476  38.4749009  98.0901603  97.1816431
  37.3495950  98.0351223  98.1928489  24.3080539  88.8785098  82.0026096
  24.6033980  87.9695777  81.9493149  23.4068575  88.8572838  81.6807098
  36.2166618 100.5992363  88.8076504  36.0917757  99.7982102  88.2987449
  36.8745709 101.0938556  88.3190474  27.8374786  86.9541095  87.9853644
  27.1161372  87.5677063  87.8461117  28.6268042  87.4898860  87.9070290
  38.2801526  98.4001383  90.4356054  37.3331862  98.2806734  90.3634381
  38.6284299  97.5123881  90.5182315  30.6401099  84.2895522  94.2594296
  31.1635501  84.5357818  95.0220605  30.4213433  85.1215556  93.8397433
  26.0368380  86.5599196  82.1265421  25.7081087  85.6796575  81.9440527
  26.3907751  86.5046865  83.0141810  35.2847959  98.1954099  86.6360406
  35.1372922  97.2670806  86.8167976  36.1101453  98.2174190  86.1517481
  29.1510204  86.8472166  82.4940898  29.4906276  87.3758087  81.7719507
  29.5982324  87.1852572  83.2699465  38.8882081  99.0182658  87.7225279
  39.8128629  98.8125519  87.5849730  38.7197385  98.7699059  88.6314620
  31.8453644  85.2309217  91.9443966  31.5050465  84.4317030  92.3464646
  31.1392651  85.5310927  91.3720800  31.1378351  85.3446788  80.6934191
  31.8586713  85.7228040  80.1897908  30.5143655  86.0635664  80.7969169
  35.2809474  86.0491936  81.6292523  35.4973088  86.9316574  81.3281352
  34.8003541  85.6578150  80.8998165  30.0208695  89.0077650  88.2063268
  29.8753276  89.3217953  89.0987550  29.5433899  89.6262550  87.6534167
  31.8805078  85.9980198  88.2544158  31.8666647  85.1021291  87.9176456
  32.5977506  86.0050861  88.8882444  33.7331209  86.4317538  90.2997285
  33.4748986  87.3534609  90.2981615  33.2016249  86.0347972  90.9897749
  38.6777397  99.5368325  83.0787370  38.8514275  98.9714748  82.3261223
  39.1706289 100.3369220  82.8966860  24.4954357  91.5482994  91.1450929
  23.9507825  92.3242802  91.2771204  25.3733707  91.8953799  90.9870051
  31.2841974  84.8794578  83.5231728  31.4057885  83.9511224  83.7222615
  30.9944016  84.8933264  82.6110043  34.1533164  82.5649488  86.6598448
  34.1754861  82.6288822  85.7050427  34.5701223  81.7253997  86.8538954
  44.5316789  92.3004748  84.6977670  44.9747935  91.5512073  84.2996793
  43.6543299  92.2914884  84.3151402  39.6652570  98.8535089  80.1784269
  40.3603474  99.4741782  80.3971583  40.0075720  98.0030441  80.4536647
  25.2820379  90.6752890  94.0381086  24.5402115  90.8235526  94.6245717
  24.9613123  90.9361156  93.1747836  41.5643993  96.3034795  81.7071599
  42.0895317  96.6422068  80.9820920  41.4766346  95.3681810  81.5234734
  33.2264042 100.2168869  93.8361476  33.5351168  99.9718015  94.7084176
  34.0239524 100.4215507  93.3480346  33.2484654 102.3706778  86.0666853
  32.8089644 101.8783157  86.7599709  33.9992771 101.8279746  85.8258928
  25.7276993  98.5618319  86.0691481  26.5535013  98.2622091  85.6890124
  25.3771045  97.7925942  86.5181269  30.6958526  97.9144787  88.1389154
  30.0738535  97.2515492  87.8391382  31.3663393  97.9405919  87.4562802
  23.9285598  96.4804646  87.0280414  23.0917506  96.0526820  86.8464416
  23.9009243  96.6737089  87.9651206  30.7683053  86.3926575  97.7321660
  30.8171209  87.2688698  97.3499430  31.3105568  85.8503968  97.1593304
  41.2537899  96.9367699  97.0122797  40.4633443  96.9191837  96.4727297
  41.0171254  97.4755992  97.7671834  41.3735774  93.7860165  94.3255526
  41.4233779  93.6210172  95.2671049  41.2649697  92.9187424  93.9353407
  30.2572033  96.4648711  81.6147615  30.4060153  97.1484175  80.9614288
  31.0638476  96.4453801  82.1297071  38.6639536  89.7691093  95.6414833
  39.5649399  89.6297558  95.3498831  38.7387511  89.9345548  96.5813010
  32.9982342  87.1457948  94.4868019  32.1285651  87.4391514  94.2150608
  33.2341822  87.7298393  95.2075283  42.8753971  96.2057106  94.5697548
  42.5838779  96.5687087  95.4061009  42.2626102  95.4924115  94.3910880
  44.0749653  93.7709986  87.0900118  44.9096545  94.2099790  87.2537678
  44.2108782  93.2948639  86.2708364  41.1241159  91.3289721  93.0377606
  41.5995281  91.5217367  92.2296457  40.2006725  91.3848907  92.7920989
  28.0124666  92.4913888  82.6208684  27.7670708  91.5876218  82.8188894
  28.1820580  92.4931039  81.6788162  27.2820313  88.2242246  80.1194845
  26.5889558  88.2986601  79.4634881  27.0372065  87.4602590  80.6416362
  35.9533970  79.7837847  87.5234336  36.2335724  79.1161036  88.1494763
  36.7384577  79.9766943  87.0109000  33.7567438  98.9596841  79.0859362
  33.1841405  99.5787028  78.6329834  34.3300232  99.5096203  79.6199284
  39.8242828  88.2055481  91.2705911  40.7760251  88.3053579  91.2918135
  39.6546279  87.4133750  91.7803995  37.8457208  85.2911064  91.4565312
  37.2507140  85.5716077  90.7611801  37.5606904  85.7804965  92.2282053
  36.9764698  99.2433991  80.2167945  37.9095371  99.1779553  80.4200820
  36.8887911 100.0790258  79.7582477  39.6052715  98.5599862  77.1771892
  39.5266346  98.2259725  78.0707650  40.4262382  99.0521629  77.1763365
  42.3030906  91.4261601  90.3848211  42.2707226  90.4877602  90.5707895
  42.9131530  91.5045638  89.6514036  34.1414237  90.2957654  76.4275415
  35.0873342  90.1663862  76.4963833  33.7628482  89.5572316  76.9044843
  42.4525394  88.2172644  90.4306494  41.9364443  87.4331101  90.2436423
  43.3365343  87.8891361  90.5953013  40.1136121  81.9613660  86.3902307
  39.9160942  81.6528748  87.2745639  40.7235827  82.6875299  86.5200236
  48.1207456  92.4877608  89.5254248  48.8510844  92.2262896  90.0861951
  47.5114401  91.7506330  89.5656316  46.2022753  90.6285470  90.1228699
  45.4755916  90.4941435  89.5145190  45.7870040  90.9362299  90.9285417
  34.0252929  94.3475400  97.8876072  34.9455939  94.5253999  98.0816118
  33.9902512  93.4031445  97.7355771  32.3257154  88.2207630  76.3630300
  31.4188609  87.9240743  76.4393014  32.6033135  87.9237448  75.4964586
  23.2435094  89.5413994  86.8129346  22.9237879  88.6879302  86.5203720
  22.6968523  89.7562572  87.5687314  27.0215002  92.2576435  90.5298853
  27.2401012  93.1893542  90.5486887  27.4340776  91.8984409  91.3153657
  33.9419220  82.7644520  82.5174541  33.1319948  82.4191605  82.8929787
  34.6303637  82.4552064  83.1062153  35.8709768  81.8422567  84.1398838
  36.4240807  82.2618020  84.7988861  36.1079854  80.9158315  84.1821794
  31.8942867  87.8309640  99.9201602  31.7939594  88.7803997  99.8513693
  31.6764409  87.5027879  99.0477672  31.0955939  85.0794565  76.5042279
  31.9575103  85.4049464  76.7638097  31.2806283  84.2926061  75.9915345
  23.1123354  93.1616905  88.7822468  22.4186826  92.7470858  88.2692422
  23.8596345  93.2037442  88.1855887  39.2488575  83.9523092  83.6477502
  38.6687244  84.6107896  83.2655555  38.9824508  83.1300437  83.2364920
  37.6992141  83.3528150  85.8498823  38.1991920  83.4644684  85.0413141
  38.3427749  83.0489202  86.4899631  31.7574137  91.2606779  98.7366664
  31.2741219  92.0607139  98.9430553  31.8435076  91.2714724  97.7834108
  25.0260097  93.0935159  86.6588483  25.0030785  93.1922846  85.7070366
  25.3360733  93.9400310  86.9805649  27.6847475  95.1511314  90.7735097
  28.6390728  95.1195256  90.7065029  27.4859998  94.6901938  91.5885323
  28.2746857  93.7212430  93.3405895  29.0939746  94.2156509  93.3640732
  28.5483665  92.8044398  93.3123462  38.0313453  86.1123182  82.7033851
  37.1439308  86.3972833  82.4854045  38.4467442  85.9516946  81.8561127
  41.3827989  86.1369703  86.4188190  42.1588379  86.6266156  86.6912807
  40.6576123  86.5627757  86.8760059  43.8200548  86.8497323  87.4762130
  44.4145039  86.6093058  86.7655439  43.8927132  86.1304453  88.1035667
  26.0397704 100.6930933  87.7905295  25.9052171  99.9331334  87.2243293
  25.6229766 101.4171833  87.3234084  37.1756667  95.8767857  76.7981870
  37.8792517  96.0817859  77.4139526  36.4519315  96.4444619  77.0630954
  38.0054477  91.6277718  82.9184141  37.9489678  92.0846270  82.0791773
  38.5582819  90.8668403  82.7406983  41.8159283  87.4167450  83.7434260
  41.5596217  87.0164086  84.5742468  41.1912151  88.1311244  83.6184399
  46.1271621  90.1563523  86.2505552  45.5671179  90.2256713  87.0237114
  45.5215124  89.9804508  85.5305048  29.1966829 101.5900250  88.0023738
  29.0799214 102.5345683  87.9002428  28.3759276 101.2873812  88.3909537
  39.0843364  96.3150386  78.8480331  39.9188968  95.8831585  78.6657805
  38.9227707  96.1432400  79.7757225  38.7389256  92.8182500  80.2136670
  38.6838060  92.6526771  79.2725114  38.1135311  93.5258532  80.3698860
  23.5281771  88.0550564  94.0398092  24.1740635  87.5449518  94.5285317
  23.3198922  88.7919246  94.6141517  36.0535163  95.1231411  99.5390233
  36.9226323  95.2972064  99.1776868  35.5741915  95.9425828  99.4165962
  32.0485382  82.3190609  79.7921988  32.0364051  83.2632448  79.9490259
  32.9408803  82.1360754  79.4981449  30.2221344 102.2428512  91.2179666
  31.1248590 102.2752123  91.5346161  29.9958714 101.3128963  91.2326002
  31.9774946 100.9959499  87.8789745  31.0270577 100.9961361  87.7654117
  32.2807432 100.2492233  87.3625780  27.8679262  85.2018181  98.1373106
  28.7310724  84.8454986  98.3476431  27.2944673  84.8632076  98.8248511
  47.7127639 106.8320037  88.9435507  48.3506049 106.7126785  88.2398847
  47.5948482 107.7800881  89.0023459  44.5217345 106.7847465  88.8797032
  44.1835857 106.6688530  87.9917567  45.3907114 106.3838630  88.8598038
  40.3804161 108.6382942  84.8693923  39.8169026 108.5472879  84.1010211
  40.2656556 107.8182846  85.3496415  45.0037128 107.9382317  94.8383237
  44.9925769 107.5435115  93.9663741  45.1657768 107.2048390  95.4317009
  37.9268593 110.1334133  87.7078143  38.7189885 109.7924958  87.2924443
  38.1665243 110.2429108  88.6280297  45.9603720 112.3053910  80.1808388
  45.3091699 112.8907990  79.7942402  46.7548083 112.8360104  80.2403425
  39.8859347 109.3943047  80.5795522  40.6590223 108.8472034  80.4408398
  40.2384746 110.2587296  80.7909984  41.7244389 110.7219429  93.7862421
  41.4334255 111.6265060  93.6709088  42.3601374 110.7635957  94.5006491
  42.6500596 108.0996277  90.3763781  43.2464169 107.8752300  89.6620744
  42.7075568 107.3581023  90.9789229  42.2225625 105.5535713  78.2113972
  42.4751145 105.0317234  77.4497435  41.2850184 105.3901858  78.3140656
  47.2668908 104.5571491  86.0188715  48.0531997 104.1390914  85.6679132
  47.5307612 105.4617583  86.1870364  47.4378985 109.9944341  80.7177372
  46.8024818 110.0678968  81.4298277  47.1076391 110.5837940  80.0396451
  52.6677335 104.4946724  86.9221694  53.4002507 103.9245941  87.1559523
  51.9116690 104.1068325  87.3628199  41.9421913 107.4563819  80.4138347
  41.8258172 106.7808722  81.0819431  42.0524173 106.9696193  79.5970500
  44.2853454 106.9173966  84.1185036  43.9211662 106.3904587  84.8297958
  45.1420570 106.5272435  83.9451522  50.1902755  98.2068298  91.3816302
  49.8586080  99.0763709  91.1577517  49.5948368  97.8904582  92.0610333
  43.9258941 101.9463866  79.1146385  44.0933344 102.8144102  79.4816856
  43.7356110 102.1091147  78.1907674  46.6834275 110.4080844  90.7812215
  46.3834998 111.3105883  90.6728022  46.3385334 110.1413028  91.6333368
  40.1346756 106.8594641  86.8148920  39.2097252 106.7270855  87.0226611
  40.3831169 107.6388861  87.3118862  50.0831418 102.9263385  88.4609652
  49.1748296 102.8578793  88.1668413  50.0319014 103.4035330  89.2891478
  43.9048162 104.4021523  80.0993052  43.7847787 104.8478574  80.9378532
  43.2100751 104.7506841  79.5406590  37.4955567 106.5027915  87.6492709
  37.6247948 106.7562394  88.5632120  36.8153018 107.0955623  87.3297364
  41.6655054 117.1725165  83.7483183  41.5879084 118.1232990  83.8271663
  41.0616698 116.8271037  84.4058109  44.1572284 104.3453030  96.4044550
  43.3805618 104.9046950  96.3947414  44.7962847 104.8309813  96.9259420
  51.9493065 101.1279823  90.2387526  51.3067445 101.4212356  89.5927321
  51.4447993 101.0132743  91.0440723  49.6033228 104.8742996  80.9273386
  50.5151084 105.1070383  80.7521083  49.0942875 105.4580040  80.3648464
  42.4118656 107.1538484  95.9662517  43.1533341 107.6923528  95.6897340
  41.7055642 107.7804772  96.1234069  47.8873996 109.2967624  94.5634678
  48.2957352 108.8550035  93.8189311  47.1651258 108.7220252  94.8168871
  44.2405066 104.2340231  91.9368235  45.0866261 104.6579644  92.0802884
  44.1803704 103.5773855  92.6306798  48.2102811 109.8568815  88.3186967
  47.5811673 110.0214529  87.6163035  47.8228473 110.2710424  89.0897931
  52.0892043 110.7923253  85.6731331  51.4043081 111.1722154  85.1228364
  52.1735892 111.4018579  86.4063279  47.3904511 101.8944599  93.5949409
  47.1465443 102.6486660  93.0583685  47.6664442 102.2729947  94.4296656
  49.3442974 108.4383212  92.2726674  49.5559869 109.0814971  91.5961056
  49.2972722 107.6045528  91.8048605  46.9469203 101.0501032  89.1763247
  46.0853682 101.3482286  89.4679984  46.9731638 101.2671431  88.2444279
  43.7630773 109.5943223  85.5837052  44.2269118 109.8730926  84.7941675
  43.4987571 108.6926667  85.4010143  40.6554854 109.1414704  88.5216815
  41.2256211 109.5701973  87.8834300  41.2462965 108.8597289  89.2201001
  42.6999659 105.7166375  82.3926617  43.4023702 106.1687419  82.8600544
  42.3680287 105.0750194  83.0206510  41.1480020 104.3078132  96.7677827
  40.5178681 104.9894413  97.0013224  41.0416108 104.1961213  95.8230965
  36.4424993 103.9749928  87.6943751  35.6524047 104.2307456  87.2183862
  36.9336240 104.7898266  87.7995791  50.4588802 111.3155167  90.4449032
  51.2806246 110.9135354  90.1631713  50.4551205 111.2123401  91.3965148
  38.3939738 104.3394507  84.6527228  37.5970901 104.4513201  85.1710723
  38.1665330 104.6781159  83.7868118  44.2245406 110.8639210  92.6009742
  44.2889838 111.3259618  93.4367914  43.5156329 110.2336575  92.7292052
  34.7262696 104.2280418  90.1258742  34.9770734 105.1127428  90.3916318
  35.2622244 104.0485020  89.3533834  58.5494795 107.6593915  86.7934003
  57.7958504 107.0901314  86.6378008  58.6842336 107.6256580  87.7404638
  43.9393423 112.5307318  82.4688723  43.8039098 113.3758853  82.8973570
  44.4803236 112.7326595  81.7054656  40.4260763  98.6098898  99.1303078
  40.0327708  98.0565096  99.8050722  41.2426903  98.9209476  99.5209595
  37.3922821 110.0482756  83.0416648  37.9047341 110.8426006  83.1922212
  38.0445533 109.3509046  82.9750249  39.2017705 113.1648512  85.1239401
  39.3784334 114.0866477  84.9360385  39.9974539 112.8506931  85.5533781
  43.3428724 100.0256777  96.7223334  44.0838437 100.6263930  96.6427797
  43.5746647  99.2834414  96.1641377  38.4870062 105.2113144  95.0001564
  38.3723577 104.3098401  95.3008663  37.6314580 105.4576841  94.6486381
  45.5661900 113.1530884  96.5989065  45.1225754 112.3667263  96.2809969
  46.2279113 113.3410035  95.9332955  40.3249021 114.6826686  91.1249743
  40.8756446 114.5543749  90.3526737  39.4860497 114.9821575  90.7744636
  47.6643138 113.4333684  94.6270466  47.6461613 114.2542565  94.1350735
  48.5863058 113.3087759  94.8520607  44.1216192 110.9477814  95.4693974
  44.6544529 110.1866102  95.2393282  43.5930273 110.6551465  96.2118129
  47.2885887  96.0537880  90.9987616  46.9450156  96.9439521  90.9226727
  47.6564849  95.8639537  90.1357201  35.3571737 108.3771410  83.8176218
  36.1946959 108.7868418  83.6009926  35.5350005 107.4370852  83.7876412
  47.2536170 106.0446491  79.5060051  46.7382793 106.8151095  79.7448439
  46.9813478 105.3711627  80.1293113  44.8383281 100.8896192  84.5645290
  43.9824877 100.5003042  84.3850928  45.2510232 100.9688152  83.7045075
  46.3682427  98.4242535  88.9636849  45.8647223  98.3872670  88.1504655
  46.6613034  99.3335278  89.0233506  42.6125313  98.5081265  87.9703031
  43.4778310  98.3124073  87.6108921  42.6802822  98.2791616  88.8972388
  52.2270444 108.7978845  81.4413225  51.4499886 108.4590005  80.9968387
  52.9061925 108.8031469  80.7668190  47.0422473 103.9173583  81.3319832
  46.7372608 104.2319732  82.1829976  47.9952915 103.9955003  81.3747165
  45.4868905 110.0763806  82.9812786  44.9590266 109.3416566  82.6686024
  44.9856407 110.8538483  82.7352755  50.4661751 108.2712827  88.0979833
  49.8085425 108.9612088  88.1859961  51.2702150 108.6609259  88.4413819
  40.2187632 100.7383472  85.3419398  40.7931384 100.5158654  84.6092591
  40.8058615 100.8072167  86.0947999  49.2767209 106.6257199  86.1483774
  49.7899091 107.2587191  86.6505484  49.9268433 106.0258395  85.7827134
  40.5457219 102.7687933  79.3615283  39.7094532 103.1062620  79.6824558
  40.4061989 102.6336913  78.4242420  42.5210300  97.6124721  84.0694467
  41.8674712  97.2973739  83.4451082  42.4790774  96.9900462  84.7954290
  43.6321505 107.8944016  75.9847759  42.7248566 107.6633270  76.1838908
  44.1292537 107.0981636  76.1721741  46.5389584 116.6041524  78.9044446
  45.8651282 116.9073220  79.5129403  46.9255406 117.4070604  78.5549903
  45.7548040 104.1006655  88.3942115  44.8370602 104.3221602  88.2363803
  46.1708184 104.1752965  87.5353822  46.5383088 105.4998071  83.5244795
  47.2854907 106.0119468  83.2151917  46.8074678 105.1782123  84.3849189
  44.8109738 107.9956611  80.5071749  43.9020957 107.7115644  80.6044219
  44.8404822 108.4155690  79.6475056  50.0429006 111.6063201  84.2762917
  49.5891333 110.7654111  84.3328107  49.4122972 112.2424599  84.6137697
  48.9861925 102.5355187  85.5063584  48.2484682 102.0232573  85.8373827
  49.2388699 102.0955568  84.6946861  48.4861945 113.4439697  85.2112735
  48.7784919 114.0044755  84.4925101  48.9960565 113.7368258  85.9665894
  49.0873552  95.3131439  86.1005354  49.3932429  94.4528802  85.8131269
  49.8126157  95.9049059  85.9004348  35.3797909 105.7162125  84.4886952
  35.1822308 105.1231486  83.7638018  34.8244573 105.4114336  85.2062890
  43.3594632 105.6085232  86.6081545  43.4143242 104.6559068  86.5324021
  42.5485834 105.7644671  87.0922843  44.5085826 109.5365355  77.8459828
  44.0705256 108.8201214  77.3865465  45.2496267 109.7641470  77.2844919
  41.2986992 104.2262292  84.3671924  40.4854858 104.5256462  84.7737116
  41.7945986 103.8317980  85.0846406  43.4495570 114.2220049  86.3006188
  43.4071749 114.4480895  85.3714720  44.3658269 113.9883423  86.4491990
  46.8961204 104.6904116  93.1986818  47.2510592 104.9175589  94.0581283
  47.5433335 105.0222493  92.5764073  52.6258941 107.8122552  83.9036147
  52.4876839 108.0024148  82.9757336  52.2695160 108.5741935  84.3604198
  40.7901067 101.7980647  89.9833159  41.4300446 101.6569406  89.2856122
  39.9578597 101.5115161  89.6071761  52.6528320 109.8799079  88.9147418
  53.0864827 109.7874368  89.7630472  53.3659901 109.8556579  88.2767434
  41.5661371 111.0983078  86.0968151  42.3601969 110.6033398  85.8950726
  40.8553063 110.5700941  85.7335857  46.3856215 113.4801173  90.4480519
  46.4393238 114.0492109  91.2158235  45.5170997 113.6503058  90.0834556
  37.8744134 105.2426159  82.1727904  36.9441722 105.1810615  82.3897866
  37.9701606 104.7202112  81.3764545  37.7929683 101.7680972  84.7606145
  38.0536501 102.6826305  84.6515306  38.6146856 101.3005415  84.9102758
  39.2654609 103.1818729  91.9304970  39.9377662 102.9736091  91.2817619
  38.4384395 102.9840815  91.4910202  53.5143870 109.9222780  91.4480304
  53.7079760 110.8268590  91.6939578  53.4144488 109.4630199  92.2818889
  45.1680181  99.8080670  93.9470631  44.5208096 100.5070620  93.8535107
  45.9381196 100.2416814  94.3146879  48.5758979 110.0729522  97.0221184
  48.4244485 109.8440074  96.1051268  48.5663658 111.0300124  97.0352529
  45.3444315 107.6461435  92.0067451  46.2736375 107.7972595  91.8336418
  44.9235345 107.7345456  91.1516097  44.1432647 111.6712100  89.7765988
  44.0043732 111.3030884  90.6491926  43.3547243 112.1859739  89.6049946
  44.7380799 116.7721196  81.1191525  44.9132554 116.3009239  81.9337147
  44.0513587 117.3986962  81.3472785  45.6937862 111.0493702  87.1654826
  45.3587695 111.0094472  88.0612476  45.1941808 110.3838418  86.6925236
  39.6682106 106.4561332  92.6907407  39.5301904 105.7241571  93.2918946
  40.5787029 106.3670232  92.4091595  48.6297054 108.3949737  77.4391886
  48.0126224 107.6696565  77.3424938  48.1613542 109.1559097  77.0958960
  42.2964407 106.1681292  92.1791087  43.0064025 105.5274484  92.1377705
  42.2533715 106.4194186  93.1017268  50.2851185 113.1048645  95.0997666
  50.2263731 112.4207865  94.4328249  50.6870704 113.8467635  94.6478292
  41.0093341 103.1546509  93.9986726  40.4730698 102.7037248  94.6508323
  40.4210049 103.2892418  93.2557191  40.4195599 102.6135161  76.5613190
  39.5425066 102.4923962  76.1975437  40.8953353 101.8221239  76.3092079
  50.2868593 111.0688229  93.3311646  49.3995371 110.7314151  93.4538045
  50.8567144 110.3371260  93.5680411  31.9397740 107.4012321  86.6554697
  32.6268779 107.0874051  86.0675712  31.7845868 108.3053685  86.3821948
  36.7432462 102.2902517  91.0839721  36.6590651 101.6828187  90.3490131
  35.9215168 102.7811536  91.0849217  43.8169746 115.7289681  90.2972889
  43.7439917 116.5344653  90.8092193  43.3747139 115.9281647  89.4720910
  43.6059526 114.9661451  83.8075710  42.8227047 115.5083131  83.9013935
  44.3052271 115.4835431  84.2069952  46.9156176 100.7756081  86.4509916
  47.4124875 100.0226043  86.1310986  46.1443157 100.8120397  85.8853125
  54.7685933 106.4796446  88.0928207  54.7575809 107.3621162  87.7222140
  53.9003312 106.1267997  87.8982744  46.2768429 115.6276515  92.4531048
  46.9896402 116.2623980  92.3806949  45.7858458 115.7240381  91.6371049
  47.9985956 109.5327768  84.0248339  47.0642235 109.6529230  83.8553044
  48.1762625 108.6300235  83.7608349  43.4991144 102.9173464  86.1781600
  43.1288932 102.3644504  86.8662506  43.9950237 102.3131597  85.6256600
  51.3858508 105.3745087  84.5598373  51.8518960 106.2073079  84.4858676
  51.8366008 104.9090069  85.2643632  41.3280343 113.3770959  93.2736618
  42.0289802 114.0107442  93.4266013  40.8575458 113.7185690  92.5132258
  49.4534739 111.7188909  81.5584525  49.7294583 111.6045503  82.4678399
  48.5839238 111.3206393  81.5196698  49.3575170  97.7425674  88.5989275
  48.4438250  97.9729901  88.7671482  49.7868272  97.8264118  89.4503307
  49.1281629 105.9315566  91.0989169  48.4753079 106.1791474  90.4441621
  49.5062009 105.1179704  90.7651646  46.0888803 115.9675259  85.2017339
  46.2711197 115.1496915  85.6645091  46.9121789 116.1842952  84.7642229
  46.4230968 114.8943444  82.4632387  46.9518735 114.3835899  81.8502550
  46.6859188 114.5785975  83.3277920  45.1769202 106.6735377  97.5855206
  44.5009839 106.5729507  98.2557581  45.9996836 106.5174591  98.0491203
  36.9248061 112.9107314  90.2067721  37.5101498 112.1651002  90.3395625
  36.7272899 113.2211270  91.0904385  39.7786716 115.9458561  85.2230163
  39.1097092 116.4304689  84.7394203  39.6399586 116.1927782  86.1373542
  31.5165716 105.4812914  88.9272164  31.5549815 104.9476505  89.7209282
  31.0106009 104.9548120  88.3083141  43.9191985 117.9802305  91.8212822
  44.4710293 118.1433926  92.5861907  44.2598178 118.5706743  91.1492847
  38.8956478 100.3277455  92.4234706  38.9597805 101.1892285  92.0112104
  38.8323598  99.7151456  91.6907065  38.3708751 102.4000587  96.0707741
  38.9980789 102.0177664  96.6845265  37.5136669 102.1814789  96.4363433
  48.7702859 112.8063562  97.6761476  49.3142763 113.4193520  97.1816431
  48.1889704 113.3643141  98.1928489  35.1474293 104.2077016  82.0026096
  35.4427734 103.2987695  81.9493149  34.2462329 104.1864756  81.6807098
  47.0560372 115.9284280  88.8076504  46.9311512 115.1274020  88.2987449
  47.7139463 116.4230474  88.3190474  38.6768540 102.2833013  87.9853644
  37.9555126 102.8968980  87.8461117  39.4661796 102.8190778  87.9070290
  49.1195280 113.7293300  90.4356054  48.1725616 113.6098651  90.3634381
  49.4678054 112.8415798  90.5182315  41.4794854  99.6187439  94.2594296
  42.0029256  99.8649736  95.0220605  41.2607187 100.4507474  93.8397433
  36.8762135 101.8891114  82.1265421  36.5474841 101.0088493  81.9440527
  37.2301506 101.8338783  83.0141810  46.1241714 113.5246017  86.6360406
  45.9766676 112.5962724  86.8167976  46.9495207 113.5466107  86.1517481
  39.9903958 102.1764084  82.4940898  40.3300031 102.7050005  81.7719507
  40.4376079 102.5144490  83.2699465  49.7275836 114.3474575  87.7225279
  50.6522383 114.1417437  87.5849730  49.5591139 114.0990976  88.6314620
  42.6847399 100.5601134  91.9443966  42.3444219  99.7608947  92.3464646
  41.9786405 100.8602845  91.3720800  43.3363871  97.6450447  90.3971289
  44.1589940  97.1710925  90.2750180  43.5801934  98.4240931  90.8969976
  41.9772105 100.6738705  80.6934191  42.6980468 101.0519958  80.1897908
  41.3537409 101.3927582  80.7969169  46.1203228 101.3783854  81.6292523
  46.3366842 102.2608492  81.3281352  45.6397295 100.9870068  80.8998165
  40.8602449 104.3369567  88.2063268  40.7147030 104.6509870  89.0987550
  40.3827653 104.9554468  87.6534167  42.7198832 101.3272115  88.2544158
  42.7060401 100.4313209  87.9176456  43.4371260 101.3342779  88.8882444
  44.5724963 101.7609456  90.2997285  44.3142741 102.6826526  90.2981615
  44.0410003 101.3639890  90.9897749  49.5171152 114.8660243  83.0787370
  49.6908029 114.3006665  82.3261223  50.0100043 115.6661138  82.8966860
  35.3348112 106.8774912  91.1450929  34.7901580 107.6534720  91.2771204
  36.2127462 107.2245716  90.9870051  42.1235728 100.2086496  83.5231728
  42.2451639  99.2803142  83.7222615  41.8337771 100.2225182  82.6110043
  44.9926919  97.8941406  86.6598448  45.0148616  97.9580739  85.7050427
  45.4094978  97.0545915  86.8538954  55.3710543 107.6296666  84.6977670
  55.8141689 106.8803991  84.2996793  54.4937053 107.6206802  84.3151402
  50.5046324 114.1827007  80.1784269  51.1997229 114.8033700  80.3971583
  50.8469474 113.3322358  80.4536647  36.1214134 106.0044808  94.0381086
  35.3795870 106.1527443  94.6245717  35.8006878 106.2653074  93.1747836
  52.4037747 111.6326713  81.7071599  52.9289072 111.9713985  80.9820920
  52.3160100 110.6973728  81.5234734  44.0657796 115.5460786  93.8361476
  44.3744923 115.3009933  94.7084176  44.8633278 115.7507425  93.3480346
  44.0878408 117.6998696  86.0666853  43.6483398 117.2075075  86.7599709
  44.8386525 117.1571664  85.8258928  36.5670747 113.8910237  86.0691481
  37.3928767 113.5914009  85.6890124  36.2164799 113.1217859  86.5181269
  41.5352280 113.2436705  88.1389154  40.9132290 112.5807410  87.8391382
  42.2057147 113.2697837  87.4562802  34.7679352 111.8096563  87.0280414
  33.9311261 111.3818738  86.8464416  34.7402998 112.0029007  87.9651206
  41.6076808 101.7218493  97.7321660  41.6564963 102.5980616  97.3499430
  42.1499322 101.1795886  97.1593304  52.0931654 112.2659616  97.0122797
  51.3027197 112.2483755  96.4727297  51.8565008 112.8047910  97.7671834
  52.2129529 109.1152083  94.3255526  52.2627534 108.9502090  95.2671049
  52.1043452 108.2479342  93.9353407  41.0965787 111.7940628  81.6147615
  41.2453908 112.4776093  80.9614288  41.9032231 111.7745718  82.1297071
  49.5033291 105.0983011  95.6414833  50.4043154 104.9589476  95.3498831
  49.5781265 105.2637466  96.5813010  43.8376096 102.4749865  94.4868019
  42.9679406 102.7683431  94.2150608  44.0735577 103.0590310  95.2075283
  53.7147725 111.5349024  94.5697548  53.4232534 111.8979005  95.4061009
  53.1019857 110.8216032  94.3910880  54.9143408 109.1001904  87.0900118
  55.7490299 109.5391708  87.2537678  55.0502537 108.6240557  86.2708364
  51.9634914 106.6581639  93.0377606  52.4389035 106.8509285  92.2296457
  51.0400479 106.7140825  92.7920989  38.8518420 107.8205806  82.6208684
  38.6064462 106.9168136  82.8188894  39.0214335 107.8222956  81.6788162
  46.5415130  98.6929482  92.0033439  47.0597074  99.4290509  91.6779928
  46.1870263  98.9993476  92.8380199  38.1214068 103.5534164  80.1194845
  37.4283313 103.6278519  79.4634881  37.8765820 102.7894507  80.6416362
  46.7927724  95.1129765  87.5234336  47.0729478  94.4452954  88.1494763
  47.5778331  95.3058861  87.0109000  44.5961193 114.2888759  79.0859362
  44.0235160 114.9078946  78.6329834  45.1693986 114.8388120  79.6199284
  50.6636583 103.5347399  91.2705911  51.6154006 103.6345497  91.2918135
  50.4940033 102.7425667  91.7803995  48.6850962 100.6202982  91.4565312
  48.0900894 100.9007995  90.7611801  48.4000659 101.1096883  92.2282053
  47.8158453 114.5725909  80.2167945  48.7489126 114.5071471  80.4200820
  47.7281665 115.4082176  79.7582477  50.4446469 113.8891779  77.1771892
  50.3660101 113.5551643  78.0707650  51.2656136 114.3813547  77.1763365
  53.1424660 106.7553519  90.3848211  53.1100981 105.8169519  90.5707895
  53.7525284 106.8337555  89.6514036  44.9807991 105.6249572  76.4275415
  45.9267096 105.4955780  76.4963833  44.6022236 104.8864233  76.9044843
  53.2919149 103.5464562  90.4306494  52.7758198 102.7623019  90.2436423
  54.1759097 103.2183279  90.5953013  50.9529876  97.2905578  86.3902307
  50.7554697  96.9820666  87.2745639  51.5629581  98.0167216  86.5200236
  58.9601210 107.8169525  89.5254248  59.6904599 107.5554814  90.0861951
  58.3508156 107.0798247  89.5656316  57.0416507 105.9577388  90.1228699
  56.3149671 105.8233353  89.5145190  56.6263794 106.2654217  90.9285417
  44.8646684 109.6767318  97.8876072  45.7849693 109.8545917  98.0816118
  44.8296267 108.7323363  97.7355771  43.1650908 103.5499548  76.3630300
  42.2582364 103.2532661  76.4393014  43.4426889 103.2529366  75.4964586
  34.0828849 104.8705911  86.8129346  33.7631633 104.0171220  86.5203720
  33.5362277 105.0854489  87.5687314  37.8608756 107.5868352  90.5298853
  38.0794766 108.5185460  90.5486887  38.2734530 107.2276327  91.3153657
  44.7812974  98.0936438  82.5174541  43.9713702  97.7483523  82.8929787
  45.4697391  97.7843981  83.1062153  46.7103522  97.1714484  84.1398838
  47.2634561  97.5909938  84.7988861  46.9473609  96.2450233  84.1821794
  42.7336622 103.1601558  99.9201602  42.6333349 104.1095915  99.8513693
  42.5158164 102.8319797  99.0477672  41.9349693 100.4086483  76.5042279
  42.7968857 100.7341381  76.7638097  42.1200037  99.6217979  75.9915345
  33.9517109 108.4908823  88.7822468  33.2580580 108.0762776  88.2692422
  34.6990100 108.5329359  88.1855887  50.0882330  99.2815010  83.6477502
  49.5080999  99.9399814  83.2655555  49.8218262  98.4592354  83.2364920
  48.5385896  98.6820067  85.8498823  49.0385674  98.7936602  85.0413141
  49.1821504  98.3781120  86.4899631  42.5967892 106.5898697  98.7366664
  42.1134973 107.3899057  98.9430553  42.6828831 106.6006642  97.7834108
  35.8653851 108.4227077  86.6588483  35.8424539 108.5214764  85.7070366
  36.1754488 109.2692227  86.9805649  38.5241229 110.4803232  90.7735097
  39.4784483 110.4487174  90.7065029  38.3253753 110.0193855  91.5885323
  39.1140611 109.0504348  93.3405895  39.9333500 109.5448426  93.3640732
  39.3877419 108.1336316  93.3123462  48.8707208 101.4415100  82.7033851
  47.9833063 101.7264751  82.4854045  49.2861197 101.2808863  81.8561127
  52.2221744 101.4661621  86.4188190  52.9982134 101.9558073  86.6912807
  51.4969878 101.8919675  86.8760059  54.6594302 102.1789240  87.4762130
  55.2538793 101.9384976  86.7655439  54.7320886 101.4596371  88.1035667
  48.0150421 111.2059775  76.7981870  48.7186271 111.4109777  77.4139526
  47.2913070 111.7736537  77.0630954  48.8448231 106.9569636  82.9184141
  48.7883433 107.4138187  82.0791773  49.3976574 106.1960321  82.7406983
  52.6553037 102.7459368  83.7434260  52.3989971 102.3456003  84.5742468
  52.0305905 103.4603162  83.6184399  56.9665375 105.4855441  86.2505552
  56.4064933 105.5548630  87.0237114  56.3608878 105.3096426  85.5305048
  49.9237118 111.6442304  78.8480331  50.7582722 111.2123502  78.6657805
  49.7621461 111.4724318  79.7757225  49.5783011 108.1474417  80.2136670
  49.5231814 107.9818689  79.2725114  48.9529066 108.8550450  80.3698860
  34.3675526 103.3842482  94.0398092  35.0134389 102.8741436  94.5285317
  34.1592677 104.1211163  94.6141517  46.8928918 110.4523329  99.5390233
  47.7620077 110.6263981  99.1776868  46.4135669 111.2717746  99.4165962
  42.8879136  97.6482526  79.7921988  42.8757806  98.5924366  79.9490259
  43.7802558  97.4652672  79.4981449  41.0615098 117.5720430  91.2179666
  41.9642345 117.6044040  91.5346161  40.8352468 116.6420881  91.2326002
  42.8168700 116.3251417  87.8789745  41.8664331 116.3253278  87.7654117
  43.1201186 115.5784151  87.3625780  46.7031256  94.2425303  84.0467925
  45.9363651  93.6883790  84.1924607  47.1141960  94.3147172  84.9082077
  38.7073017 100.5310099  98.1373106  39.5704478 100.1746903  98.3476431
  38.1338427 100.1923993  98.8248511  58.5521394 122.1611955  88.9435507
  59.1899803 122.0418702  88.2398847  58.4342236 123.1092799  89.0023459
  55.3611100 122.1139383  88.8797032  55.0229611 121.9980448  87.9917567
  56.2300868 121.7130548  88.8598038  55.8430883 123.2674235  94.8383237
  55.8319524 122.8727033  93.9663741  56.0051522 122.5340307  95.4317009
  53.0619379 120.8827630  78.2113972  53.3144900 120.3609152  77.4497435
  52.1243938 120.7193776  78.3140656  58.1062662 119.8863409  86.0188715
  58.8925751 119.4682832  85.6679132  58.3701366 120.7909501  86.1870364
  63.5071089 119.8238642  86.9221694  64.2396261 119.2537859  87.1559523
  62.7510445 119.4360242  87.3628199  55.1247209 122.2465884  84.1185036
  54.7605416 121.7196504  84.8297958  55.9814325 121.8564353  83.9451522
  61.0296509 113.5360216  91.3816302  60.6979834 114.4055627  91.1577517
  60.4342123 113.2196500  92.0610333  54.7652696 117.2755783  79.1146385
  54.9327098 118.1436020  79.4816856  54.5749865 117.4383065  78.1907674
  60.9225173 118.2555302  88.4609652  60.0142050 118.1870711  88.1668413
  60.8712769 118.7327247  89.2891478  54.7441917 119.7313441  80.0993052
  54.6241542 120.1770491  80.9378532  54.0494505 120.0798758  79.5406590
  54.9966039 119.6744948  96.4044550  54.2199373 120.2338868  96.3947414
  55.6356602 120.1601731  96.9259420  62.7886819 116.4571741  90.2387526
  62.1461199 116.7504274  89.5927321  62.2841748 116.3424661  91.0440723
  60.4426983 120.2034914  80.9273386  61.3544839 120.4362301  80.7521083
  59.9336630 120.7871958  80.3648464  55.0798821 119.5632148  91.9368235
  55.9260016 119.9871562  92.0802884  55.0197458 118.9065773  92.6306798
  58.2298266 117.2236517  93.5949409  57.9859198 117.9778577  93.0583685
  58.5058196 117.6021864  94.4296656  60.1836729 123.7675129  92.2726674
  60.3953624 124.4106889  91.5961056  60.1366477 122.9337446  91.8048605
  57.7862958 116.3792950  89.1763247  56.9247437 116.6774203  89.4679984
  57.8125392 116.5963349  88.2444279  53.5393413 121.0458293  82.3926617
  54.2417456 121.4979336  82.8600544  53.2074042 120.4042112  83.0206510
  51.9873775 119.6370049  96.7677827  51.3572435 120.3186330  97.0013224
  51.8809863 119.5253131  95.8230965  47.2818747 119.3041845  87.6943751
  46.4917801 119.5599374  87.2183862  47.7729994 120.1190183  87.7995791
  49.2333492 119.6686425  84.6527228  48.4364656 119.7805119  85.1710723
  49.0059085 120.0073077  83.7868118  69.3888550 122.9885833  86.7934003
  68.6352258 122.4193231  86.6378008  69.5236091 122.9548498  87.7404638
  51.2654517 113.9390815  99.1303078  50.8721463 113.3857014  99.8050722
  52.0820658 114.2501394  99.5209595  54.1822478 115.3548694  96.7223334
  54.9232192 115.9555848  96.6427797  54.4140401 114.6126332  96.1641377
  58.1279641 111.3829797  90.9987616  57.7843911 112.2731439  90.9226727
  58.4958604 111.1931455  90.1357201  58.0929924 121.3738408  79.5060051
  57.5776547 122.1443013  79.7448439  57.8207232 120.7003545  80.1293113
  55.6777035 116.2188109  84.5645290  54.8218631 115.8294960  84.3850928
  56.0903987 116.2980070  83.7045075  57.2076182 113.7534452  88.9636849
  56.7040977 113.7164588  88.1504655  57.5006789 114.6627195  89.0233506
  53.4519068 113.8373182  87.9703031  54.3172064 113.6415991  87.6108921
  53.5196576 113.6083534  88.8972388  63.0664198 124.1270763  81.4413225
  62.2893641 123.7881923  80.9968387  63.7455679 124.1323386  80.7668190
  57.8816227 119.2465501  81.3319832  57.5766363 119.5611650  82.1829976
  58.8346669 119.3246920  81.3747165  61.3055505 123.6004744  88.0979833
  60.6479179 124.2904006  88.1859961  62.1095904 123.9901176  88.4413819
  51.0581387 116.0675390  85.3419398  51.6325139 115.8450572  84.6092591
  51.6452369 116.1364085  86.0947999  60.1160964 121.9549117  86.1483774
  60.6292846 122.5879109  86.6505484  60.7662188 121.3550313  85.7827134
  51.3850974 118.0979851  79.3615283  50.5488286 118.4354538  79.6824558
  51.2455743 117.9628831  78.4242420  53.3604054 112.9416639  84.0694467
  52.7068467 112.6265656  83.4451082  53.3184529 112.3192379  84.7954290
  56.5941795 119.4298573  88.3942115  55.6764356 119.6513520  88.2363803
  57.0101938 119.5044883  87.5353822  57.3776842 120.8289988  83.5244795
  58.1248661 121.3411385  83.2151917  57.6468432 120.5074041  84.3849189
  59.8255680 117.8647104  85.5063584  59.0878436 117.3524491  85.8373827
  60.0782453 117.4247486  84.6946861  59.9267307 110.6423357  86.1005354
  60.2326184 109.7820720  85.8131269  60.6519912 111.2340977  85.9004348
  54.1988387 120.9377150  86.6081545  54.2536996 119.9850986  86.5324021
  53.3879589 121.0936589  87.0922843  52.1380747 119.5554209  84.3671924
  51.3248612 119.8548380  84.7737116  52.6339741 119.1609898  85.0846406
  57.7354958 120.0196034  93.1986818  58.0904346 120.2467507  94.0581283
  58.3827090 120.3514411  92.5764073  63.4652695 123.1414470  83.9036147
  63.3270594 123.3316066  82.9757336  63.1088914 123.9033852  84.3604198
  51.6294821 117.1272565  89.9833159  52.2694201 116.9861324  89.2856122
  50.7972352 116.8407078  89.6071761  63.4922075 125.2090997  88.9147418
  63.9258582 125.1166286  89.7630472  64.2053656 125.1848497  88.2767434
  48.7137889 120.5718077  82.1727904  47.7835477 120.5102532  82.3897866
  48.8095361 120.0494030  81.3764545  48.6323438 117.0972890  84.7606145
  48.8930255 118.0118223  84.6515306  49.4540610 116.6297332  84.9102758
  50.1048363 118.5110647  91.9304970  50.7771417 118.3028009  91.2817619
  49.2778150 118.3132733  91.4910202  64.3537624 125.2514697  91.4480304
  64.5473514 126.1560508  91.6939578  64.2538243 124.7922116  92.2818889
  56.0073935 115.1372588  93.9470631  55.3601850 115.8362538  93.8535107
  56.7774951 115.5708732  94.3146879  56.1838069 122.9753353  92.0067451
  57.1130129 123.1264512  91.8336418  55.7629100 123.0637374  91.1516097
  59.4690808 123.7241654  77.4391886  58.8519979 122.9988482  77.3424938
  59.0007297 124.4851015  77.0958960  53.1358161 121.4973209  92.1791087
  53.8457780 120.8566401  92.1377705  53.0927469 121.7486104  93.1017268
  51.8487095 118.4838427  93.9986726  51.3124452 118.0329166  94.6508323
  51.2603803 118.6184336  93.2557191  51.2589354 117.9427079  76.5613190
  50.3818820 117.8215879  76.1975437  51.7347107 117.1513157  76.3092079
  47.5826216 117.6194435  91.0839721  47.4984405 117.0120104  90.3490131
  46.7608923 118.1103453  91.0849217  57.7549930 116.1047998  86.4509916
  58.2518630 115.3517961  86.1310986  56.9836912 116.1412315  85.8853125
  65.6079688 121.8088364  88.0928207  65.5969564 122.6913079  87.7222140
  64.7397067 121.4559915  87.8982744  54.3384899 118.2465381  86.1781600
  53.9682686 117.6936422  86.8662506  54.8343991 117.6423515  85.6256600
  62.2252262 120.7037005  84.5598373  62.6912714 121.5364996  84.4858676
  62.6759763 120.2381986  85.2643632  60.1968925 113.0717592  88.5989275
  59.2832005 113.3021819  88.7671482  60.6262026 113.1556036  89.4503307
  59.9675383 121.2607484  91.0989169  59.3146834 121.5083391  90.4441621
  60.3455763 120.4471622  90.7651646  56.0162956 122.0027295  97.5855206
  55.3403593 121.9021424  98.2557581  56.8390590 121.8466509  98.0491203
  49.7350233 115.6569372  92.4234706  49.7991559 116.5184203  92.0112104
  49.6717353 115.0443374  91.6907065  49.2102505 117.7292505  96.0707741
  49.8374544 117.3469582  96.6845265  48.3530424 117.5106707  96.4363433
  45.9868048 119.5368934  82.0026096  46.2821489 118.6279612  81.9493149
  45.0856084 119.5156673  81.6807098  49.5162295 117.6124930  87.9853644
  48.7948881 118.2260898  87.8461117  50.3055551 118.1482695  87.9070290
  52.3188608 114.9479357  94.2594296  52.8423010 115.1941653  95.0220605
  52.1000942 115.7799392  93.8397433  47.7155889 117.2183031  82.1265421
  47.3868596 116.3380410  81.9440527  48.0695260 117.1630700  83.0141810
  50.8297713 117.5056001  82.4940898  51.1693785 118.0341923  81.7719507
  51.2769833 117.8436407  83.2699465  53.5241153 115.8893052  91.9443966
  53.1837974 115.0900865  92.3464646  52.8180160 116.1894763  91.3720800
  54.1757625 112.9742364  90.3971289  54.9983695 112.5002843  90.2750180
  54.4195689 113.7532848  90.8969976  52.8165860 116.0030623  80.6934191
  53.5374222 116.3811876  80.1897908  52.1931164 116.7219500  80.7969169
  56.9596983 116.7075772  81.6292523  57.1760597 117.5900410  81.3281352
  56.4791050 116.3161985  80.8998165  51.6996204 119.6661485  88.2063268
  51.5540785 119.9801788  89.0987550  51.2221408 120.2846385  87.6534167
  53.5592587 116.6564033  88.2544158  53.5454156 115.7605126  87.9176456
  54.2765015 116.6634697  88.8882444  55.4118718 117.0901373  90.2997285
  55.1536495 118.0118444  90.2981615  54.8803758 116.6931808  90.9897749
  52.9629483 115.5378413  83.5231728  53.0845394 114.6095060  83.7222615
  52.6731525 115.5517099  82.6110043  55.8320673 113.2233324  86.6598448
  55.8542370 113.2872657  85.7050427  56.2488732 112.3837832  86.8538954
  66.2104298 122.9588583  84.6977670  66.6535444 122.2095909  84.2996793
  65.3330808 122.9498720  84.3151402  52.4470562 117.0510411  97.7321660
  52.4958718 117.9272534  97.3499430  52.9893077 116.5087804  97.1593304
  63.0523283 124.4444000  94.3255526  63.1021288 124.2794008  95.2671049
  62.9437206 123.5771259  93.9353407  60.3427045 120.4274928  95.6414833
  61.2436908 120.2881393  95.3498831  60.4175020 120.5929383  96.5813010
  54.6769851 117.8041783  94.4868019  53.8073160 118.0975349  94.2150608
  54.9129331 118.3882228  95.2075283  65.7537162 124.4293822  87.0900118
  66.5884054 124.8683626  87.2537678  65.8896291 123.9532475  86.2708364
  62.8028668 121.9873556  93.0377606  63.2782790 122.1801203  92.2296457
  61.8794234 122.0432742  92.7920989  57.3808885 114.0221400  92.0033439
  57.8990828 114.7582427  91.6779928  57.0264017 114.3285393  92.8380199
  48.9607822 118.8826081  80.1194845  48.2677067 118.9570436  79.4634881
  48.7159574 118.1186425  80.6416362  57.6321479 110.4421683  87.5234336
  57.9123233 109.7744872  88.1494763  58.4172086 110.6350778  87.0109000
  61.5030337 118.8639317  91.2705911  62.4547760 118.9637414  91.2918135
  61.3333788 118.0717585  91.7803995  59.5244717 115.9494900  91.4565312
  58.9294649 116.2299912  90.7611801  59.2394413 116.4388801  92.2282053
  63.9818415 122.0845436  90.3848211  63.9494735 121.1461437  90.5707895
  64.5919039 122.1629473  89.6514036  55.8201746 120.9541489  76.4275415
  56.7660851 120.8247697  76.4963833  55.4415991 120.2156151  76.9044843
  64.1312903 118.8756480  90.4306494  63.6151952 118.0914936  90.2436423
  65.0152852 118.5475196  90.5953013  61.7923630 112.6197495  86.3902307
  61.5948451 112.3112583  87.2745639  62.4023336 113.3459134  86.5200236
  69.7994965 123.1461443  89.5254248  70.5298353 122.8846731  90.0861951
  69.1901910 122.4090165  89.5656316  67.8810262 121.2869306  90.1228699
  67.1543425 121.1525271  89.5145190  67.4657549 121.5946134  90.9285417
  54.0044663 118.8791466  76.3630300  53.0976118 118.5824578  76.4393014
  54.2820644 118.5821284  75.4964586  55.6206729 113.4228355  82.5174541
  54.8107457 113.0775440  82.8929787  56.3091146 113.1135899  83.1062153
  57.5497277 112.5006402  84.1398838  58.1028316 112.9201856  84.7988861
  57.7867363 111.5742150  84.1821794  53.5730376 118.4893476  99.9201602
  53.4727103 119.4387833  99.8513693  53.3551918 118.1611715  99.0477672
  52.7743448 115.7378401  76.5042279  53.6362612 116.0633299  76.7638097
  52.9593792 114.9509897  75.9915345  60.9276084 114.6106927  83.6477502
  60.3474753 115.2691731  83.2655555  60.6612017 113.7884272  83.2364920
  59.3779650 114.0111985  85.8498823  59.8779429 114.1228520  85.0413141
  60.0215258 113.7073038  86.4899631  59.7100962 116.7707018  82.7033851
  58.8226817 117.0556668  82.4854045  60.1254951 116.6100781  81.8561127
  63.0615498 116.7953539  86.4188190  63.8375888 117.2849991  86.6912807
  62.3363632 117.2211593  86.8760059  65.4988057 117.5081158  87.4762130
  66.0932548 117.2676894  86.7655439  65.5714641 116.7888288  88.1035667
  59.6841986 122.2861554  82.9184141  59.6277187 122.7430105  82.0791773
  60.2370328 121.5252238  82.7406983  63.4946792 118.0751285  83.7434260
  63.2383726 117.6747921  84.5742468  62.8699660 118.7895079  83.6184399
  67.8059130 120.8147359  86.2505552  67.2458688 120.8840548  87.0237114
  67.2002633 120.6388343  85.5305048  60.4176765 123.4766335  80.2136670
  60.3625569 123.3110606  79.2725114  59.7922820 124.1842368  80.3698860
  45.2069280 118.7134399  94.0398092  45.8528144 118.2033353  94.5285317
  44.9986431 119.4503081  94.6141517  53.7272891 112.9774444  79.7921988
  53.7151560 113.9216284  79.9490259  54.6196312 112.7944589  79.4981449
  57.5425010 109.5717220  84.0467925  56.7757406 109.0175707  84.1924607
  57.9535715 109.6439089  84.9082077  49.5466771 115.8602016  98.1373106
  50.4098233 115.5038821  98.3476431  48.9732182 115.5215911  98.8248511
  68.9673396 126.7121715  90.9987616  68.6237665 127.6023357  90.9226727
  69.3352358 126.5223373  90.1357201  70.7661061 125.9715274  86.1005354
  71.0719938 125.1112638  85.8131269  71.4913666 126.5632894  85.9004348
  68.4715233 125.7713600  87.5234336  68.7516987 125.1036789  88.1494763
  69.2565840 125.9642696  87.0109000  72.6317385 127.9489413  86.3902307
  72.4342206 127.6404501  87.2745639  73.2417090 128.6751052  86.5200236
  68.3818765 124.9009138  84.0467925  67.6151160 124.3467625  84.1924607
  68.7929469 124.9731007  84.9082077   4.3552622  22.5214489  75.6680814
   4.9931032  22.4021237  74.9644154   4.2373465  23.4695333  75.7268766
   1.1642329  22.4741917  75.6042339   0.8260840  22.3582982  74.7162873
   2.0332097  22.0733082  75.5843345   1.6462112  23.6276769  81.5628544
   1.6350752  23.2329567  80.6909048   1.8082751  22.8942842  82.1562316
   2.6028703  27.9948361  66.9053694   1.9516683  28.5802442  66.5187708
   3.3973066  28.5254556  66.9648732   3.9093891  20.2465943  72.7434022
   4.6956980  19.8285366  72.3924439   4.1732595  21.1512035  72.9115670
   4.0803968  25.6838793  67.4422679   3.4449801  25.7573420  68.1543583
   3.7501375  26.2732392  66.7641758   9.3102318  20.1841176  73.6467000
  10.0427490  19.6140393  73.8804830   8.5541674  19.7962777  74.0873506
   0.9278438  22.6068418  70.8430343   0.5636645  22.0799039  71.5543264
   1.7845554  22.2166887  70.6696828   3.3259258  26.0975296  77.5057522
   3.0259981  27.0000335  77.3973329   2.9810317  25.8307480  78.3578675
   6.7256402  18.6157837  75.1854959   5.8173279  18.5473245  74.8913720
   6.6743997  19.0929781  76.0136785   8.5918048  16.8174275  76.9632833
   7.9492428  17.1106808  76.3172628   8.0872977  16.7027195  77.7686030
   6.2458212  20.5637448  67.6518692   7.1576068  20.7964835  67.4766390
   5.7367859  21.1474492  67.0893771   4.5298979  24.9862076  81.2879985
   4.9382335  24.5444486  80.5434617   3.8076241  24.4114703  81.5414178
   0.8830049  19.9234683  78.6613542   1.7291245  20.3474096  78.8048191
   0.8228687  19.2668307  79.3552105   4.8527794  25.5463267  75.0432274
   4.2236656  25.7108981  74.3408342   4.4653456  25.9604876  75.8143238
   8.7317026  26.4817704  72.3976638   8.0468064  26.8616606  71.8473671
   8.8160875  27.0913031  73.1308585   4.0329495  17.5839051  80.3194715
   3.7890427  18.3381112  79.7828991   4.3089425  17.9624399  81.1541963
   5.9867957  24.1277663  78.9971981   6.1984853  24.7709423  78.3206362
   5.9397706  23.2939980  78.5293911   3.5894186  16.7395484  75.9008553
   2.7278665  17.0376738  76.1925291   3.6156621  16.9565883  74.9689586
   7.1013785  27.0049619  77.1694338   7.9231229  26.6029806  76.8877020
   7.0976188  26.9017853  78.1210454  15.1919778  23.3488367  73.5179310
  14.4383487  22.7795765  73.3623314  15.3267320  23.3151032  74.4649945
   0.5818407  28.2201770  69.1934029   0.4464081  29.0653305  69.6218877
   1.1228219  28.4221047  68.4299963   2.2086883  28.8425336  83.3234371
   1.7650737  28.0561715  83.0055276   2.8704097  29.0304487  82.6578262
   4.3068121  29.1228136  81.3515773   4.2886596  29.9437017  80.8596042
   5.2288041  28.9982211  81.5765914   3.8961153  21.7340943  66.2305358
   3.3807776  22.5045547  66.4693745   3.6238461  21.0606079  66.8538419
   8.8695427  24.4873297  68.1658531   8.0924870  24.1484457  67.7213693
   9.5486908  24.4925920  67.4913496   3.6847456  19.6068035  68.0565139
   3.3797592  19.9214184  68.9075282   4.6377898  19.6849455  68.0992472
   2.1293888  25.7658258  69.7058093   1.6015249  25.0311018  69.3931330
   1.6281391  26.5432934  69.4598061   7.1086734  23.9607279  74.8225139
   6.4510408  24.6506540  74.9105268   7.9127133  24.3503710  75.1659126
   5.9192193  22.3151651  72.8729081   6.4324074  22.9481643  73.3750791
   6.5693417  21.7152847  72.5072441   3.1814567  32.2935976  65.6289752
   2.5076266  32.5967672  66.2374710   3.5680389  33.0965056  65.2795209
   2.3973024  19.7901107  75.1187422   1.4795585  20.0116054  74.9609110
   2.8133167  19.8647417  74.2599129   3.1808071  21.1892522  70.2490102
   3.9279890  21.7013920  69.9397224   3.4499661  20.8676575  71.1094495
   1.4534721  23.6851063  67.2317056   0.5445941  23.4010096  67.3289526
   1.4829805  24.1050142  66.3720363   6.6853989  27.2957653  71.0008224
   6.2316316  26.4548563  71.0573414   6.0547956  27.9319051  71.3383004
   5.6286908  18.2249639  72.2308891   4.8909665  17.7127025  72.5619134
   5.8813682  17.7850020  71.4192168   5.1286928  29.1334149  71.9358042
   5.4209902  29.6939206  71.2170407   5.6385549  29.4262710  72.6911201
   1.1510809  25.2259807  64.5705135   0.7130239  24.5095666  64.1110772
   1.8921250  25.4535922  64.0090226   3.5386187  20.3798568  79.9232124
   3.8935575  20.6070041  80.7826590   4.1858318  20.7116945  79.3009380
   9.2683924  23.5017004  70.6281453   9.1301823  23.6918600  69.7002642
   8.9120143  24.2636387  71.0849504   9.2953304  25.5693531  75.6392725
   9.7289810  25.4768820  76.4875779  10.0084884  25.5451031  75.0012741
   3.0281199  29.1695625  77.1725825   3.0818221  29.7386561  77.9403541
   2.1595980  29.3397510  76.8079862  10.1568853  25.6117232  78.1725610
  10.3504743  26.5163042  78.4184885  10.0569471  25.1524651  79.0064195
   5.2183962  25.7623974  83.7466491   5.0669468  25.5334526  82.8296574
   5.2088641  26.7194576  83.7597836   1.9869298  23.3355887  78.7312757
   2.9161358  23.4867047  78.5581725   1.5660328  23.4239908  77.8761404
   1.3805782  32.4615648  67.8436831   1.5557538  31.9903691  68.6582454
   0.6938570  33.0881414  68.0718092   2.3362845  26.7388154  73.8900133
   2.0012678  26.6988924  74.7857782   1.8366791  26.0732870  73.4170543
   5.2722037  24.0844188  64.1637192   4.6551208  23.3591017  64.0670245
   4.8038525  24.8453549  63.8204267   6.9276169  28.7943097  81.8242973
   6.8688715  28.1102317  81.1573556   7.3295687  29.5362087  81.3723599
   6.9293576  26.7582681  80.0556952   6.0420355  26.4208603  80.1783351
   7.4992127  26.0265712  80.2925718   3.5581159  16.4650533  73.1755222
   4.0549858  15.7120495  72.8556293   2.7868140  16.5014849  72.6098432
  11.4110916  22.1690898  74.8173514  11.4000793  23.0515614  74.4467447
  10.5428296  21.8162449  74.6228051   2.9193413  31.3170967  79.1776354
   3.6321385  31.9518432  79.1052256   2.4283441  31.4134833  78.3616356
   4.6410940  25.2222220  70.7493646   3.7067218  25.3423682  70.5798350
   4.8187608  24.3194687  70.4853656   8.0283491  21.0639539  71.2843680
   8.4943943  21.8967531  71.2103983   8.4790991  20.5984521  71.9888938
   6.0959722  27.4083360  68.2829832   6.3719566  27.2939955  69.1923706
   5.2264221  27.0100845  68.2442005   5.7706612  21.6210018  77.8234475
   5.1178062  21.8685926  77.1686928   6.1486992  20.8074156  77.4896953
   2.7313786  31.6569711  71.9262646   2.9136181  30.8391367  72.3890398
   3.5546772  31.8737404  71.4887536   3.0655952  30.5837896  69.1877694
   3.5943718  30.0730351  68.5747856   3.3284171  30.2680427  70.0523227
   1.8194185  22.3629829  84.3100512   1.1434822  22.2623958  84.9802888
   2.6421819  22.2069043  84.7736510   0.5616968  33.6696757  78.5458128
   1.1135276  33.8328378  79.3107214   0.9023162  34.2601194  77.8738153
   5.4127842  28.4958014  84.4006783   5.9567746  29.1087972  83.9061738
   4.8314687  29.0537593  84.9173796   3.6985355  31.6178732  75.5321811
   3.5736495  30.8168472  75.0232756   4.3564447  32.1124925  75.0435781
   5.7620264  29.4187752  77.1601361   4.8150599  29.2993103  77.0879687
   6.1103037  28.5310250  77.2427622   2.7666697  29.2140468  73.3605713
   2.6191660  28.2857176  73.5413283   3.5920191  29.2360559  72.8762788
   6.3700819  30.0369027  74.4470586   7.2947366  29.8311888  74.3095037
   6.2016122  29.7885428  75.3559927   6.1596135  30.5554695  69.8032677
   6.3333013  29.9901117  69.0506530   6.6525026  31.3555589  69.6212167
  12.0135526  23.3191118  71.4222977  12.4566672  22.5698443  71.0242100
  11.1362037  23.3101254  71.0396709   7.1471308  29.8721459  66.9029575
   7.8422212  30.4928152  67.1216890   7.4894458  29.0216810  67.1781953
   9.0462731  27.3221165  68.4316906   9.5714055  27.6608437  67.7066226
   8.9585083  26.3868180  68.2480041   0.7082779  31.2355238  80.5606783
   1.0169906  30.9904385  81.4329482   1.5058261  31.4401877  80.0725653
   8.7356637  27.9554068  83.7368104   7.9452181  27.9378207  83.1972604
   8.4989991  28.4942362  84.4917141   8.8554512  24.8046535  81.0500833
   8.9052517  24.6396542  81.9916355   8.7468435  23.9373794  80.6598713
   6.1458274  20.7877463  82.3660139   7.0468137  20.6483927  82.0744137
   6.2206249  20.9531917  83.3058317  10.3572709  27.2243476  81.2942854
  10.0657517  27.5873457  82.1306315   9.7444840  26.5110484  81.1156186
  11.5568391  24.7896356  73.8145424  12.3915282  25.2286160  73.9782985
  11.6927520  24.3135009  72.9953670   8.6059897  22.3476091  79.7622912
   9.0814019  22.5403737  78.9541764   7.6825462  22.4035277  79.5166296
   1.2386176  29.9783211  65.8104669   0.6660143  30.5973398  65.3575141
   1.8118970  30.5282572  66.3444591   7.3061566  19.2241851  77.9951218
   8.2578989  19.3239948  78.0163442   7.1365016  18.4320119  78.5049302
   5.3275945  16.3097434  78.1810619   4.7325878  16.5902447  77.4857107
   5.0425642  16.7991335  78.9527360   4.4583436  30.2620361  66.9413251
   5.3914109  30.1965922  67.1446127   4.3706649  31.0976628  66.4827784
   7.0871453  29.5786231  63.9017199   7.0085084  29.2446095  64.7952957
   7.9081119  30.0707999  63.9008671   9.7849644  22.4447970  77.1093517
   9.7525964  21.5063971  77.2953201  10.3950267  22.5232007  76.3759342
   1.6232975  21.3144023  63.1520721   2.5692079  21.1850232  63.2209139
   1.2447220  20.5758685  63.6290150   9.9344132  19.2359014  77.1551801
   9.4183181  18.4517471  76.9681729  10.8184081  18.9077731  77.3198320
  15.6026194  23.5063977  76.2499554  16.3329582  23.2449265  76.8107258
  14.9933139  22.7692699  76.2901622  13.6841491  21.6471840  76.8474005
  12.9574654  21.5127805  76.2390497  13.2688778  21.9548669  77.6530723
   1.5071667  25.3661770  84.6121378   2.4274677  25.5440369  84.8061425
   1.4721250  24.4217815  84.4601078   6.7307313  14.9709462  70.3722809
   6.1505982  15.6294266  69.9900861   6.4643246  14.1486806  69.9610226
   5.5132191  17.1309552  69.4279157   4.6258046  17.4159203  69.2099352
   5.9286180  16.9703315  68.5806434   8.8646727  17.1556073  73.1433496
   9.6407117  17.6452525  73.4158113   8.1394861  17.5814127  73.6005366
  11.3019286  17.8683692  74.2007437  11.8963776  17.6279428  73.4900745
  11.3745869  17.1490823  74.8280973   4.6575404  26.8954227  63.5227177
   5.3611254  27.1004229  64.1384833   3.9338053  27.4630988  63.7876261
   5.4873215  22.6464088  69.6429447   5.4308416  23.1032639  68.8037080
   6.0401557  21.8854772  69.4652290   9.2978021  18.4353820  70.4679567
   9.0414955  18.0350455  71.2987774   8.6730889  19.1497614  70.3429706
  13.6090358  21.1749893  72.9750858  13.0489916  21.2443082  73.7482420
  13.0033862  20.9990878  72.2550354   6.5662102  27.3336756  65.5725637
   7.4007706  26.9017954  65.3903112   6.4046445  27.1618769  66.5002532
   6.2207994  23.8368869  66.9381976   6.1656798  23.6713140  65.9970421
   5.5954049  24.5444902  67.0944166   3.5353901  26.1417781  86.2635539
   4.4045061  26.3158433  85.9022174   3.0560653  26.9612198  86.1411269
  15.1946377  37.8506407  75.6680814  15.8324787  37.7313154  74.9644154
  15.0767220  38.7987251  75.7268766  12.0036083  37.8033835  75.6042339
  11.6654595  37.6874900  74.7162873  12.8725851  37.4025000  75.5843345
   7.8622899  39.6569311  71.5939230   7.2987764  39.5659248  70.8255517
   7.7475294  38.8369216  72.0741722  12.4855866  38.9568687  81.5628544
  12.4744507  38.5621485  80.6909048  12.6476506  38.2234759  82.1562316
   5.4087331  41.1520503  74.4323450   6.2008623  40.8111328  74.0169749
   5.6483981  41.2615478  75.3525603  13.4422458  43.3240279  66.9053694
  12.7910437  43.9094360  66.5187708  14.2366820  43.8546474  66.9648732
   7.3678085  40.4129416  67.3040829   8.1408961  39.8658403  67.1653705
   7.7203484  41.2773666  67.5155290   9.2063127  41.7405799  80.5107728
   8.9152993  42.6451429  80.3954394   9.8420112  41.7822326  81.2251798
  10.1319334  39.1182647  77.1009088  10.7282906  38.8938669  76.3866051
  10.1894306  38.3767393  77.7034536   9.7044362  36.5722082  64.9359279
   9.9569883  36.0503604  64.1742742   8.7668922  36.4088228  65.0385962
  14.7487645  35.5757861  72.7434022  15.5350735  35.1577284  72.3924439
  15.0126350  36.4803953  72.9115670  14.9197723  41.0130711  67.4422679
  14.2843556  41.0865338  68.1543583  14.5895129  41.6024310  66.7641758
  20.1496072  35.5133094  73.6467000  20.8821244  34.9432311  73.8804830
  19.3935428  35.1254694  74.0873506   9.4240651  38.4750188  67.1383654
   9.3076909  37.7995092  67.8064738   9.5342911  37.9882562  66.3215807
  11.7672192  37.9360335  70.8430343  11.4030399  37.4090956  71.5543264
  12.6239308  37.5458804  70.6696828  17.6721493  29.2254668  78.1061609
  17.3404818  30.0950079  77.8822824  17.0767106  28.9090952  78.7855639
  11.4077679  32.9650235  65.8391691  11.5752081  33.8330472  66.2062162
  11.2174848  33.1277517  64.9152981  14.1653012  41.4267214  77.5057522
  13.8653735  42.3292253  77.3973329  13.8204072  41.1599397  78.3578675
   7.6165494  37.8781011  73.5394226   6.6915990  37.7457225  73.7471918
   7.8649907  38.6575230  74.0364169  17.5650156  33.9449754  75.1854959
  16.6567033  33.8765163  74.8913720  17.5137752  34.4221699  76.0136785
  11.3866900  35.4207893  66.8238358  11.2666525  35.8664943  67.6623839
  10.6919488  35.7693210  66.2651896   4.9774305  37.5214284  74.3738015
   5.1066686  37.7748763  75.2877427   4.2971756  38.1141992  74.0542670
   9.1473792  48.1911534  70.4728490   9.0697822  49.1419359  70.5516970
   8.5435436  47.8457407  71.1303416  11.6391022  35.3639400  83.1289856
  10.8624356  35.9233320  83.1192721  12.2781585  35.8496183  83.6504727
  19.4311803  32.1466193  76.9632833  18.7886183  32.4398726  76.3172628
  18.9266731  32.0319113  77.7686030  17.0851966  35.8929366  67.6518692
  17.9969822  36.1256753  67.4766390  16.5761613  36.4766410  67.0893771
   9.8937394  38.1724853  82.6907823  10.6352079  38.7109897  82.4142647
   9.1874380  38.7991142  82.8479375  15.3692734  40.3153994  81.2879985
  15.7776090  39.8736404  80.5434617  14.6469995  39.7406621  81.5414178
  11.7223804  35.2526600  78.6613542  12.5684999  35.6766014  78.8048191
  11.6622442  34.5960225  79.3552105  15.6921548  40.8755184  75.0432274
  15.0630411  41.0400898  74.3408342  15.3047211  41.2896794  75.8143238
  19.5710780  41.8109622  72.3976638  18.8861819  42.1908523  71.8473671
  19.6554630  42.4204949  73.1308585  14.8723249  32.9130969  80.3194715
  14.6284181  33.6673029  79.7828991  15.1483180  33.2916316  81.1541963
  16.8261712  39.4569581  78.9971981  17.0378607  40.1001341  78.3206362
  16.7791460  38.6231898  78.5293911  14.4287941  32.0687402  75.9008553
  13.5672420  32.3668655  76.1925291  14.4550376  32.2857801  74.9689586
  11.2449510  40.6129592  72.3082359  11.7087856  40.8917295  71.5186981
  10.9806308  39.7113037  72.1255450   8.1373591  40.1601074  75.2462122
   8.7074948  40.5888342  74.6079607   8.7281703  39.8783659  75.9446308
  10.1818396  36.7352745  69.1171924  10.8842440  37.1873788  69.5845850
   9.8499025  36.0936564  69.7451817   8.6298758  35.3264501  83.4923133
   7.9997419  36.0080782  83.7258530   8.5234846  35.2147583  82.5476272
   3.9243730  34.9936297  74.4189058   3.1342784  35.2493826  73.9429168
   4.4154978  35.8084635  74.5241098  17.9407540  42.3341537  77.1694338
  18.7624984  41.9321724  76.8877020  17.9369943  42.2309771  78.1210454
   5.8758476  35.3580877  71.3772534   5.0789639  35.4699571  71.8956030
   5.6484068  35.6967529  70.5113425  11.7064143  41.8825580  79.3255049
  11.7708576  42.3445987  80.1613221  10.9975067  41.2522945  79.4537359
   2.2081433  35.2466788  76.8504048   2.4589472  36.1313798  77.1161624
   2.7440982  35.0671389  76.0779140  26.0313533  38.6780285  73.5179310
  25.2777241  38.1087683  73.3623314  26.1661074  38.6442950  74.4649945
  11.4212161  43.5493687  69.1934029  11.2857836  44.3945223  69.6218877
  11.9621974  43.7512965  68.4299963   7.9079501  29.6285267  85.8548384
   7.5146446  29.0751466  86.5296029   8.7245641  29.9395846  86.2454902
   4.8741558  41.0669125  69.7661954   5.3866079  41.8612376  69.9167519
   5.5264271  40.3695416  69.6995556   6.6836443  44.1834882  71.8484708
   6.8603071  45.1052846  71.6605691   7.4793277  43.8693301  72.2779087
  10.8247462  31.0443146  83.4468641  11.5657175  31.6450299  83.3673103
  11.0565384  30.3020784  82.8886684   5.9688800  36.2299514  81.7246871
   5.8542315  35.3284771  82.0253970   5.1133317  36.4763210  81.3731687
  13.0480637  44.1717254  83.3234371  12.6044492  43.3853632  83.0055276
  13.7097851  44.3596404  82.6578262   7.8067759  45.7013055  77.8495050
   8.3575184  45.5730119  77.0772044   6.9679234  46.0007944  77.4989943
  15.1461875  44.4520054  81.3515773  15.1280351  45.2728935  80.8596042
  16.0681796  44.3274129  81.5765914  11.6034930  41.9664183  82.1939281
  12.1363266  41.2052471  81.9638589  11.0749011  41.6737835  82.9363435
  14.7704625  27.0724249  77.7232923  14.4268894  27.9625891  77.6472033
  15.1383587  26.8825907  76.8602508   2.8390475  39.3957780  70.5421525
   3.6765697  39.8054788  70.3255233   3.0168743  38.4557222  70.5121719
  14.7354907  37.0632860  66.2305358  14.2201531  37.8337465  66.4693745
  14.4632216  36.3897996  66.8538419  12.3202018  31.9082561  71.2890596
  11.4643615  31.5189411  71.1096235  12.7328970  31.9874522  70.4290382
  13.8501165  29.4428904  75.6882156  13.3465961  29.4059040  74.8749961
  14.1431772  30.3521647  75.7478813  10.0944051  29.5267634  74.6948338
  10.9597048  29.3310443  74.3354227  10.1621560  29.2977986  75.6217694
  19.7089181  39.8165215  68.1658531  18.9318624  39.4776374  67.7213693
  20.3880662  39.8217838  67.4913496  14.5241210  34.9359952  68.0565139
  14.2191346  35.2506102  68.9075282  15.4771653  35.0141372  68.0992472
  12.9687642  41.0950176  69.7058093  12.4409004  40.3602935  69.3931330
  12.4675145  41.8724852  69.4598061  17.9480488  39.2899196  74.8225139
  17.2904163  39.9798458  74.9105268  18.7520888  39.6795628  75.1659126
   7.7006370  31.7569842  72.0664704   8.2750122  31.5345024  71.3337897
   8.2877352  31.8258537  72.8193306  16.7585947  37.6443569  72.8729081
  17.2717829  38.2773561  73.3750791  17.4087171  37.0444764  72.5072441
   8.0275957  33.7874303  66.0860590   7.1913269  34.1248990  66.4069864
   7.8880727  33.6523283  65.1487727  10.0029038  28.6311091  70.7939774
   9.3493450  28.3160108  70.1696389   9.9609512  28.0086831  71.5199597
  11.1140243  38.9130386  62.7093066  10.2067304  38.6819639  62.9084215
  11.6111275  38.1168005  62.8967048  14.0208321  47.6227893  65.6289752
  13.3470020  47.9259590  66.2374710  14.4074143  48.4256974  65.2795209
  13.2366778  35.1193024  75.1187422  12.3189339  35.3407971  74.9609110
  13.6526922  35.1939335  74.2599129  14.0201826  36.5184440  70.2490102
  14.7673645  37.0305837  69.9397224  14.2893415  36.1968493  71.1094495
  12.2928476  39.0142981  67.2317056  11.3839695  38.7302014  67.3289526
  12.3223560  39.4342059  66.3720363  17.5247743  42.6249570  71.0008224
  17.0710070  41.7840480  71.0573414  16.8941710  43.2610969  71.3383004
  16.4680663  33.5541556  72.2308891  15.7303420  33.0418943  72.5619134
  16.7207436  33.1141938  71.4192168  15.9680683  44.4626067  71.9358042
  16.2603657  45.0231124  71.2170407  16.4779303  44.7554628  72.6911201
  16.5692290  26.3317808  72.8250660  16.8751167  25.4715172  72.5376575
  17.2944895  26.9235429  72.6249654   2.8616646  36.7348495  71.2132258
   2.6641046  36.1417856  70.4883325   2.3063310  36.4300705  71.9308197
  10.8413370  36.6271601  73.3326851  10.8961980  35.6745438  73.2569328
  10.0304572  36.7831041  73.8168150  11.9904564  40.5551725  64.5705135
  11.5523994  39.8387583  64.1110772  12.7315005  40.7827839  64.0090226
   8.7805730  35.2448661  71.0917230   7.9673595  35.5442832  71.4982422
   9.2764724  34.8504350  71.8091713  10.9314308  45.2406418  73.0251495
  10.8890487  45.4667264  72.0960027  11.8477007  45.0069793  73.1737296
  14.3779942  35.7090486  79.9232124  14.7329329  35.9361959  80.7826590
  15.0252073  36.0408862  79.3009380  20.1077679  38.8308922  70.6281453
  19.9695577  39.0210518  69.7002642  19.7513897  39.5928304  71.0849504
   8.2719805  32.8167017  76.7078465   8.9119184  32.6755776  76.0101429
   7.4397335  32.5301530  76.3317067  20.1347058  40.8985449  75.6392725
  20.5683565  40.8060738  76.4875779  20.8478639  40.8742949  75.0012741
   9.0480109  42.1169447  72.8213458   9.8420707  41.6219767  72.6196033
   8.3371801  41.5887310  72.4581163  13.8674953  44.4987543  77.1725825
  13.9211975  45.0678479  77.9403541  12.9989734  44.6689428  76.8079862
   5.3562872  36.2612529  68.8973210   4.4260460  36.1996984  69.1143173
   5.4520344  35.7388482  68.1009852   5.2748421  32.7867342  71.4851452
   5.5355238  33.7012675  71.3760613   6.0965593  32.3191784  71.6348065
   6.7473346  34.2005099  78.6550277   7.4196400  33.9922461  78.0062926
   5.9203133  34.0027185  78.2155509  20.9962608  40.9409149  78.1725610
  21.1898498  41.8454960  78.4184885  20.8963226  40.4816568  79.0064195
  12.6498918  30.8267040  80.6715937  12.0026833  31.5256989  80.5780414
  13.4199934  31.2603184  81.0392186  16.0577716  41.0915892  83.7466491
  15.9063223  40.8626444  82.8296574  16.0482396  42.0486493  83.7597836
  12.8263053  38.6647805  78.7312757  13.7555113  38.8158964  78.5581725
  12.4054083  38.7531826  77.8761404  11.6251385  42.6898469  76.5011295
  11.4862470  42.3217254  77.3737233  10.8365981  43.2046109  76.3295253
  12.2199537  47.7907566  67.8436831  12.3951292  47.3195609  68.6582454
  11.5332325  48.4173332  68.0718092  13.1756600  42.0680072  73.8900133
  12.8406432  42.0280842  74.7857782  12.6760545  41.4024788  73.4170543
   7.1500844  37.4747702  79.4152714   7.0120642  36.7427941  80.0164253
   8.0605767  37.3856602  79.1336902  16.1115791  39.4136106  64.1637192
  15.4944962  38.6882934  64.0670245  15.6432280  40.1745466  63.8204267
   9.7783144  37.1867661  78.9036393  10.4882763  36.5460853  78.8623012
   9.7352453  37.4380556  79.8262574  17.7669923  44.1235015  81.8242973
  17.7082469  43.4394235  81.1573556  18.1689441  44.8654005  81.3723599
   8.4912078  34.1732879  80.7232033   7.9549435  33.7223618  81.3753629
   7.9028787  34.3078788  79.9802497   6.7860622  50.9396928  74.6176692
   7.0257220  51.5715453  75.2955710   5.9429818  50.5884968  74.9042051
   7.9014337  33.6321530  63.2858497   7.0243804  33.5110331  62.9220743
   8.3772090  32.8407609  63.0337385  17.7687330  42.0874598  80.0556952
  16.8814109  41.7500520  80.1783351  18.3385881  41.3557630  80.2925718
   4.2251200  33.3088887  77.8085027   4.1409388  32.7014556  77.0735437
   3.4033906  33.7997905  77.8094524  11.2988484  46.7476051  77.0218196
  11.2258655  47.5531022  77.5337500  10.8565877  46.9468017  76.1966217
  11.0878263  45.9847821  70.5321017  10.3045785  46.5269501  70.6259242
  11.7871008  46.5021800  70.9315258  14.3974913  31.7942450  73.1755222
  14.8943613  31.0412413  72.8556293  13.6261895  31.8306767  72.6098432
  22.2504671  37.4982816  74.8173514  22.2394547  38.3807531  74.4467447
  21.3822050  37.1454367  74.6228051  13.7587167  46.6462885  79.1776354
  14.4715139  47.2810350  79.1052256  13.2677196  46.7426751  78.3616356
  15.4804694  40.5514138  70.7493646  14.5460973  40.6715600  70.5798350
  15.6581363  39.6486604  70.4853656  10.9809882  33.9359833  72.9026907
  10.6107670  33.3830874  73.5907813  11.4768975  33.3317967  72.3501907
  18.8677245  36.3931457  71.2843680  19.3337698  37.2259448  71.2103983
  19.3184746  35.9276438  71.9888938   8.8099081  44.3957328  79.9981925
   9.5108540  45.0293811  80.1511319   8.3394196  44.7372060  79.2377564
  16.9353477  42.7375278  68.2829832  17.2113320  42.6231873  69.1923706
  16.0657975  42.3392763  68.2442005  16.8393908  28.7612044  75.3234581
  15.9256988  28.9916271  75.4916788  17.2687010  28.8450488  76.1748614
  16.6100367  36.9501936  77.8234475  15.9571817  37.1977843  77.1686928
  16.9880747  36.1366074  77.4896953  13.5707541  46.9861629  71.9262646
  13.7529935  46.1683285  72.3890398  14.3940527  47.2029321  71.4887536
  13.9049706  45.9129814  69.1877694  14.4337473  45.4022269  68.5747856
  14.1677926  45.5972344  70.0523227  12.6587940  37.6921747  84.3100512
  11.9828577  37.5915876  84.9802888  13.4815574  37.5360961  84.7736510
   4.4066799  43.9293683  76.9313028   4.9920236  43.1837371  77.0640932
   4.2091637  44.2397640  77.8149692   7.2605454  46.9644931  71.9475470
   6.5915829  47.4491058  71.4639510   7.1218324  47.2114151  72.8618849
  11.4010723  48.9988674  78.5458128  11.9529031  49.1620296  79.3107214
  11.7416916  49.5893112  77.8738153   6.3775216  31.3463824  79.1480013
   6.4416542  32.2078655  78.7357411   6.3142336  30.7337826  78.4152372
   5.8527488  33.4186957  82.7953047   6.4799527  33.0364034  83.4090572
   4.9955407  33.2001159  83.1608740  16.2521597  43.8249932  84.4006783
  16.7961501  44.4379890  83.9061738  15.6708442  44.3829510  84.9173796
   2.6293031  35.2263386  68.7271402   2.9246472  34.3174064  68.6738456
   1.7281067  35.2051125  68.4052405  14.5379110  46.9470650  75.5321811
  14.4130249  46.1460390  75.0232756  15.1958201  47.4416843  75.0435781
   6.1587278  33.3019382  74.7098951   5.4373864  33.9155350  74.5706424
   6.9480534  33.8377147  74.6315597  16.6014018  44.7479670  77.1601361
  15.6544354  44.6285021  77.0879687  16.9496791  43.8602168  77.2427622
   8.9613592  30.6373809  80.9839603   9.4847993  30.8836105  81.7465912
   8.7425925  31.4693844  80.5642740   4.3580873  32.9077483  68.8510727
   4.0293579  32.0274862  68.6685833   4.7120243  32.8525152  69.7387117
  13.6060452  44.5432386  73.3605713  13.4585414  43.6149094  73.5413283
  14.4313945  44.5652477  72.8762788   7.4722696  33.1950453  69.2186205
   7.8118768  33.7236374  68.4964813   7.9194816  33.5330859  69.9944772
  17.2094573  45.3660945  74.4470586  18.1341121  45.1603806  74.3095037
  17.0409877  45.1177346  75.3559927  10.1666137  31.5787504  78.6689273
   9.8262957  30.7795317  79.0709953   9.4605143  31.8789215  78.0966106
  10.8182609  28.6636816  77.1216596  11.6408678  28.1897295  76.9995486
  11.0620672  29.4427300  77.6215282   9.4590843  31.6925075  67.4179498
  10.1799206  32.0706328  66.9143215   8.8356147  32.4113952  67.5214476
  13.6021966  32.3970224  68.3537830  13.8185580  33.2794862  68.0526658
  13.1216033  32.0056437  67.6243472   8.3421187  35.3555937  74.9308575
   8.1965768  35.6696240  75.8232856   7.8646391  35.9740837  74.3779473
  10.2017570  32.3458485  74.9789464  10.1879139  31.4499578  74.6421762
  10.9189998  32.3529149  75.6127750  12.0543701  32.7795825  77.0242592
  11.7961479  33.7012896  77.0226922  11.5228741  32.3826260  77.7143056
  16.9989890  45.8846612  69.8032677  17.1726767  45.3193035  69.0506530
  17.4918781  46.6847507  69.6212167   2.8166849  37.8961281  77.8696236
   2.2720318  38.6721089  78.0016510   3.6946199  38.2432086  77.7115357
   9.6054466  31.2272865  70.2477034   9.7270377  30.2989511  70.4467922
   9.3156508  31.2411551  69.3355350  12.4745656  28.9127776  73.3843754
  12.4967353  28.9767109  72.4295734  12.8913715  28.0732284  73.5784260
  22.8529281  38.6483035  71.4222977  23.2960427  37.8990360  71.0242100
  21.9755791  38.6393172  71.0396709  17.9865062  45.2013377  66.9029575
  18.6815967  45.8220069  67.1216890  18.3288212  44.3508728  67.1781953
   3.6032871  37.0231178  80.7626393   2.8614607  37.1713813  81.3491023
   3.2825616  37.2839443  79.8993142  19.8856485  42.6513082  68.4316906
  20.4107809  42.9900355  67.7066226  19.7978838  41.7160098  68.2480041
  11.5476534  46.5647156  80.5606783  11.8563660  46.3196303  81.4329482
  12.3452016  46.7693794  80.0725653  11.5697146  48.7185065  72.7912159
  11.1302136  48.2261444  73.4845016  12.3205263  48.1758033  72.5504235
   4.0489485  44.9096606  72.7936787   4.8747505  44.6100378  72.4135431
   3.6983537  44.1404229  73.2426576   9.0171018  44.2623075  74.8634461
   8.3951027  43.5993780  74.5636689   9.6875885  44.2884206  74.1808109
   2.2498090  42.8282933  73.7525721   1.4129998  42.4005107  73.5709722
   2.2221735  43.0215376  74.6896512   9.0895546  32.7404863  84.4566967
   9.1383701  33.6166985  84.0744737   9.6318060  32.1982256  83.8838610
  19.5750391  43.2845986  83.7368104  18.7845935  43.2670125  83.1972604
  19.3383746  43.8234280  84.4917141  19.6948266  40.1338452  81.0500833
  19.7446271  39.9688460  81.9916355  19.5862190  39.2665711  80.6598713
   8.5784525  42.8126998  68.3392922   8.7272645  43.4962462  67.6859594
   9.3850969  42.7932088  68.8542377  16.9852029  36.1169380  82.3660139
  17.8861892  35.9775845  82.0744137  17.0600003  36.2823835  83.3058317
  11.3194834  33.4936235  81.2113326  10.4498143  33.7869801  80.9395914
  11.5554314  34.0776680  81.9320589  21.1966463  42.5535394  81.2942854
  20.9051271  42.9165374  82.1306315  20.5838594  41.8402402  81.1156186
  22.3962145  40.1188274  73.8145424  23.2309037  40.5578078  73.9782985
  22.5321274  39.6426927  72.9953670  19.4453651  37.6768008  79.7622912
  19.9207773  37.8695655  78.9541764  18.5219217  37.7327194  79.5166296
   6.3337158  38.8392176  69.3453990   6.0883200  37.9354506  69.5434201
   6.5033073  38.8409326  68.4033468  14.0233868  29.7115852  78.7278746
  14.5415812  30.4476879  78.4025235  13.6689001  30.0179845  79.5625505
   5.6032806  34.5720533  66.8440152   4.9102051  34.6464888  66.1880188
   5.3584557  33.8080877  67.3661669  14.2746462  26.1316134  74.2479643
  14.5548216  25.4639324  74.8740069  15.0597069  26.3245230  73.7354306
  12.0779931  45.3075128  65.8104669  11.5053898  45.9265315  65.3575141
  12.6512724  45.8574490  66.3444591  18.1455320  34.5533768  77.9951218
  19.0972743  34.6531866  78.0163442  17.9758771  33.7612037  78.5049302
  16.1669700  31.6389352  78.1810619  15.5719632  31.9194364  77.4857107
  15.8819397  32.1283253  78.9527360  15.2977190  45.5912278  66.9413251
  16.2307864  45.5257840  67.1446127  15.2100403  46.4268545  66.4827784
  17.9265207  44.9078149  63.9017199  17.8478839  44.5738012  64.7952957
  18.7474874  45.3999917  63.9008671  20.6243398  37.7739888  77.1093517
  20.5919718  36.8355889  77.2953201  21.2344022  37.8523925  76.3759342
  12.4626729  36.6435941  63.1520721  13.4085834  36.5142149  63.2209139
  12.0840974  35.9050603  63.6290150  20.7737887  34.5650932  77.1551801
  20.2576935  33.7809388  76.9681729  21.6577835  34.2369648  77.3198320
  18.4348614  28.3091947  73.1147613  18.2373435  28.0007035  73.9990945
  19.0448319  29.0353586  73.2445543  26.4419948  38.8355895  76.2499554
  27.1723337  38.5741183  76.8107258  25.8326894  38.0984617  76.2901622
  24.5235245  36.9763758  76.8474005  23.7968409  36.8419723  76.2390497
  24.1082532  37.2840586  77.6530723  12.3465422  40.6953687  84.6121378
  13.2668431  40.8732286  84.8061425  12.3115005  39.7509733  84.4601078
  10.6469646  34.5685918  63.0875607   9.7401102  34.2719030  63.1638320
  10.9245627  34.2715736  62.2209893   1.5647587  35.8892281  73.5374653
   1.2450371  35.0357589  73.2449027   1.0181015  36.1040859  74.2932620
   5.3427494  38.6054722  77.2544160   5.5613504  39.5371830  77.2732193
   5.7553268  38.2462696  78.0398963  12.2631712  29.1122807  69.2419848
  11.4532440  28.7669892  69.6175094  12.9516129  28.8030351  69.8307460
  14.1922260  28.1900854  70.8644145  14.7453299  28.6096307  71.5234168
  14.4292347  27.2636602  70.9067101  10.2155359  34.1787928  86.6446909
  10.1152086  35.1282285  86.5759000   9.9976902  33.8506167  85.7722979
   9.4168431  31.4272853  63.2287586  10.2787595  31.7527751  63.4883403
   9.6018775  30.6404349  62.7160652   1.4335847  39.5095192  75.5067775
   0.7399318  39.0949145  74.9937729   2.1808838  39.5515729  74.9101194
  17.5701067  30.3001379  70.3722809  16.9899736  30.9586183  69.9900861
  17.3037000  29.4778724  69.9610226  16.0204634  29.7006437  72.5744129
  16.5204412  29.8122971  71.7658448  16.6640242  29.3967490  73.2144938
  10.0786630  37.6085067  85.4611970   9.5953711  38.4085427  85.6675859
  10.1647569  37.6193011  84.5079414   3.3472589  39.4413446  73.3833790
   3.3243277  39.5401133  72.4315673   3.6573226  40.2878597  73.7050956
   6.0059967  41.4989601  77.4980404   6.9603221  41.4673544  77.4310336
   5.8072491  41.0380225  78.3130630   6.5959349  40.0690717  80.0651202
   7.4152238  40.5634796  80.0886039   6.8696157  39.1522685  80.0368769
  16.3525945  32.4601470  69.4279157  15.4651800  32.7451120  69.2099352
  16.7679934  32.2995233  68.5806434  19.7040481  32.4847991  73.1433496
  20.4800872  32.9744443  73.4158113  18.9788616  32.9106045  73.6005366
  22.1413040  33.1975610  74.2007437  22.7357531  32.9571346  73.4900745
  22.2139624  32.4782740  74.8280973   4.3610196  47.0409221  74.5150602
   4.2264664  46.2809622  73.9488600   3.9442258  47.7650121  74.0479391
  15.4969159  42.2246144  63.5227177  16.2005009  42.4296147  64.1384833
  14.7731808  42.7922906  63.7876261  16.3266969  37.9756005  69.6429447
  16.2702170  38.4324557  68.8037080  16.8795312  37.2146690  69.4652290
  20.1371775  33.7645737  70.4679567  19.8808709  33.3642373  71.2987774
  19.5124643  34.4789531  70.3429706  24.4484113  36.5041811  72.9750858
  23.8883671  36.5735000  73.7482420  23.8427616  36.3282795  72.2550354
   7.5179322  47.9378538  74.7269044   7.4011706  48.8823970  74.6247735
   6.6971768  47.6352099  75.1154844  17.4055856  42.6628673  65.5725637
  18.2401460  42.2309872  65.3903112  17.2440199  42.4910687  66.5002532
  17.0601748  39.1660787  66.9381976  17.0050552  39.0005058  65.9970421
  16.4347804  39.8736820  67.0944166   1.8494263  34.4028851  80.7643399
   2.4953127  33.8927805  81.2530624   1.6411415  35.1397533  81.3386824
  14.3747656  41.4709699  86.2635539  15.2438815  41.6450351  85.9022174
  13.8954407  42.2904115  86.1411269  10.3697874  28.6668896  66.5167295
  10.3576544  29.6110736  66.6735566  11.2621296  28.4839041  66.2226756
   8.5433836  48.5906800  77.9424973   9.4461083  48.6230410  78.2591468
   8.3171206  47.6607251  77.9571309  10.2987438  47.3437786  74.6035052
   9.3483069  47.3439648  74.4899424  10.6019924  46.5970521  74.0871086
  14.1849993  25.2611672  70.7713232  13.4182389  24.7070159  70.9169914
  14.5960698  25.3333541  71.6327383   6.1891754  31.5496468  84.8618413
   7.0523216  31.1933273  85.0721738   5.6157165  31.2110363  85.5493817
  26.0340131  53.1798325  75.6680814  26.6718541  53.0605072  74.9644154
  25.9160974  54.1279169  75.7268766  22.8429838  53.1325753  75.6042339
  22.5048349  53.0166817  74.7162873  23.7119606  52.7316918  75.5843345
  18.7016653  54.9861229  71.5939230  18.1381518  54.8951166  70.8255517
  18.5869048  54.1661134  72.0741722  23.3249621  54.2860604  81.5628544
  23.3138261  53.8913403  80.6909048  23.4870260  53.5526677  82.1562316
  16.2481085  56.4812421  74.4323450  17.0402377  56.1403245  74.0169749
  16.4877735  56.5907396  75.3525603  24.2816212  58.6532197  66.9053694
  23.6304192  59.2386277  66.5187708  25.0760575  59.1838392  66.9648732
  18.2071839  55.7421334  67.3040829  18.9802715  55.1950321  67.1653705
  18.5597238  56.6065583  67.5155290  20.0456882  57.0697716  80.5107728
  19.7546748  57.9743347  80.3954394  20.6813866  57.1114244  81.2251798
  20.9713089  54.4474565  77.1009088  21.5676661  54.2230587  76.3866051
  21.0288060  53.7059310  77.7034536  20.5438117  51.9014000  64.9359279
  20.7963638  51.3795521  64.1742742  19.6062676  51.7380145  65.0385962
  25.5881400  50.9049778  72.7434022  26.3744489  50.4869202  72.3924439
  25.8520104  51.8095871  72.9115670  25.7591477  56.3422629  67.4422679
  25.1237310  56.4157255  68.1543583  25.4288884  56.9316228  66.7641758
  30.9889827  50.8425012  73.6467000  31.7214999  50.2724228  73.8804830
  30.2329183  50.4546612  74.0873506  20.2634406  53.8042106  67.1383654
  20.1470664  53.1287009  67.8064738  20.3736666  53.3174480  66.3215807
  22.6065947  53.2652253  70.8430343  22.2424154  52.7382874  71.5543264
  23.4633063  52.8750722  70.6696828  28.5115247  44.5546586  78.1061609
  28.1798572  45.4241997  77.8822824  27.9160861  44.2382870  78.7855639
  22.2471434  48.2942153  65.8391691  22.4145836  49.1622389  66.2062162
  22.0568603  48.4569434  64.9152981  25.0046767  56.7559132  77.5057522
  24.7047490  57.6584171  77.3973329  24.6597826  56.4891315  78.3578675
  18.4559248  53.2072929  73.5394226  17.5309745  53.0749143  73.7471918
  18.7043661  53.9867148  74.0364169  28.4043911  49.2741672  75.1854959
  27.4960788  49.2057080  74.8913720  28.3531506  49.7513617  76.0136785
  22.2260655  50.7499810  66.8238358  22.1060280  51.1956861  67.6623839
  21.5313243  51.0985128  66.2651896  15.8168059  52.8506202  74.3738015
  15.9460440  53.1040681  75.2877427  15.1365511  53.4433910  74.0542670
  19.9867547  63.5203452  70.4728490  19.9091576  64.4711277  70.5516970
  19.3829190  63.1749325  71.1303416  22.4784776  50.6931317  83.1289856
  21.7018110  51.2525238  83.1192721  23.1175339  51.1788100  83.6504727
  30.2705557  47.4758110  76.9632833  29.6279937  47.7690643  76.3172628
  29.7660486  47.3611031  77.7686030  27.9245721  51.2221283  67.6518692
  28.8363577  51.4548670  67.4766390  27.4155368  51.8058328  67.0893771
  20.7331149  53.5016771  82.6907823  21.4745833  54.0401815  82.4142647
  20.0268134  54.1283060  82.8479375  26.2086488  55.6445911  81.2879985
  26.6169844  55.2028322  80.5434617  25.4863750  55.0698539  81.5414178
  22.5617558  50.5818518  78.6613542  23.4078754  51.0057932  78.8048191
  22.5016196  49.9252142  79.3552105  26.5315303  56.2047102  75.0432274
  25.9024165  56.3692816  74.3408342  26.1440965  56.6188711  75.8143238
  30.4104535  57.1401540  72.3976638  29.7255573  57.5200441  71.8473671
  30.4948384  57.7496866  73.1308585  25.7117004  48.2422886  80.3194715
  25.4677936  48.9964947  79.7828991  25.9876934  48.6208234  81.1541963
  27.6655466  54.7861499  78.9971981  27.8772362  55.4293259  78.3206362
  27.6185215  53.9523815  78.5293911  25.2681695  47.3979319  75.9008553
  24.4066174  47.6960573  76.1925291  25.2944130  47.6149718  74.9689586
  22.0843265  55.9421510  72.3082359  22.5481610  56.2209213  71.5186981
  21.8200063  55.0404955  72.1255450  18.9767346  55.4892992  75.2462122
  19.5468703  55.9180260  74.6079607  19.5675458  55.2075576  75.9446308
  21.0212151  52.0644662  69.1171924  21.7236194  52.5165706  69.5845850
  20.6892779  51.4228481  69.7451817  19.4692512  50.6556419  83.4923133
  18.8391173  51.3372700  83.7258530  19.3628600  50.5439501  82.5476272
  14.7637485  50.3228215  74.4189058  13.9736539  50.5785744  73.9429168
  15.2548732  51.1376553  74.5241098  28.7801294  57.6633454  77.1694338
  29.6018738  57.2613641  76.8877020  28.7763697  57.5601688  78.1210454
  16.7152230  50.6872794  71.3772534  15.9183394  50.7991489  71.8956030
  16.4877822  51.0259447  70.5113425  22.5457898  57.2117498  79.3255049
  22.6102330  57.6737905  80.1613221  21.8368822  56.5814862  79.4537359
  13.0475188  50.5758705  76.8504048  13.2983226  51.4605715  77.1161624
  13.5834736  50.3963307  76.0779140  22.2605916  58.8785605  69.1934029
  22.1251590  59.7237141  69.6218877  22.8015728  59.0804883  68.4299963
  18.7473255  44.9577185  85.8548384  18.3540201  44.4043383  86.5296029
  19.5639395  45.2687763  86.2454902  15.7135313  56.3961043  69.7661954
  16.2259833  57.1904293  69.9167519  16.3658026  55.6987333  69.6995556
  17.5230198  59.5126799  71.8484708  17.6996826  60.4344764  71.6605691
  18.3187031  59.1985219  72.2779087  21.6641216  46.3735064  83.4468641
  22.4050930  46.9742217  83.3673103  21.8959139  45.6312702  82.8886684
  16.8082554  51.5591431  81.7246871  16.6936069  50.6576688  82.0253970
  15.9527072  51.8055128  81.3731687  23.8874392  59.5009172  83.3234371
  23.4438246  58.7145550  83.0055276  24.5491605  59.6888322  82.6578262
  18.6461513  61.0304973  77.8495050  19.1968938  60.9022036  77.0772044
  17.8072989  61.3299862  77.4989943  25.9855630  59.7811971  81.3515773
  25.9674105  60.6020852  80.8596042  26.9075550  59.6566047  81.5765914
  22.4428684  57.2956101  82.1939281  22.9757021  56.5344389  81.9638589
  21.9142765  57.0029753  82.9363435  25.6098379  42.4016167  77.7232923
  25.2662648  43.2917809  77.6472033  25.9777342  42.2117825  76.8602508
  13.6784230  54.7249697  70.5421525  14.5159452  55.1346706  70.3255233
  13.8562497  53.7849139  70.5121719  25.5748662  52.3924778  66.2305358
  25.0595285  53.1629383  66.4693745  25.3025970  51.7189914  66.8538419
  23.1595773  47.2374479  71.2890596  22.3037369  46.8481329  71.1096235
  23.5722725  47.3166440  70.4290382  24.6894919  44.7720822  75.6882156
  24.1859715  44.7350957  74.8749961  24.9825526  45.6813565  75.7478813
  20.9337805  44.8559552  74.6948338  21.7990802  44.6602360  74.3354227
  21.0015314  44.6269904  75.6217694  25.3634965  50.2651870  68.0565139
  25.0585101  50.5798019  68.9075282  26.3165407  50.3433290  68.0992472
  23.8081397  56.4242093  69.7058093  23.2802758  55.6894853  69.3931330
  23.3068900  57.2016770  69.4598061  28.7874243  54.6191114  74.8225139
  28.1297917  55.3090375  74.9105268  29.5914642  55.0087546  75.1659126
  18.5400124  47.0861760  72.0664704  19.1143876  46.8636941  71.3337897
  19.1271107  47.1550454  72.8193306  27.5979702  52.9735487  72.8729081
  28.1111583  53.6065478  73.3750791  28.2480926  52.3736682  72.5072441
  18.8669712  49.1166221  66.0860590  18.0307024  49.4540907  66.4069864
  18.7274481  48.9815201  65.1487727  20.8422792  43.9603009  70.7939774
  20.1887204  43.6452026  70.1696389  20.8003266  43.3378749  71.5199597
  21.9533997  54.2422304  62.7093066  21.0461059  54.0111557  62.9084215
  22.4505029  53.4459923  62.8967048  24.8602076  62.9519811  65.6289752
  24.1863775  63.2551508  66.2374710  25.2467898  63.7548891  65.2795209
  24.0760533  50.4484942  75.1187422  23.1583094  50.6699889  74.9609110
  24.4920676  50.5231253  74.2599129  24.8595580  51.8476358  70.2490102
  25.6067399  52.3597755  69.9397224  25.1287170  51.5260411  71.1094495
  23.1322230  54.3434899  67.2317056  22.2233450  54.0593931  67.3289526
  23.1617314  54.7633977  66.3720363  28.3641498  57.9541488  71.0008224
  27.9103825  57.1132398  71.0573414  27.7335465  58.5902886  71.3383004
  27.3074417  48.8833474  72.2308891  26.5697174  48.3710860  72.5619134
  27.5601191  48.4433856  71.4192168  26.8074437  59.7917985  71.9358042
  27.0997411  60.3523042  71.2170407  27.3173058  60.0846546  72.6911201
  27.4086045  41.6609726  72.8250660  27.7144922  40.8007089  72.5376575
  28.1338650  42.2527346  72.6249654  13.7010401  52.0640413  71.2132258
  13.5034801  51.4709773  70.4883325  13.1457065  51.7592623  71.9308197
  21.6807124  51.9563519  73.3326851  21.7355734  51.0037356  73.2569328
  20.8698327  52.1122958  73.8168150  22.8298318  55.8843642  64.5705135
  22.3917748  55.1679501  64.1110772  23.5708759  56.1119757  64.0090226
  19.6199484  50.5740579  71.0917230  18.8067350  50.8734749  71.4982422
  20.1158479  50.1796268  71.8091713  21.7708062  60.5698336  73.0251495
  21.7284241  60.7959182  72.0960027  22.6870761  60.3361710  73.1737296
  25.2173696  51.0382403  79.9232124  25.5723084  51.2653876  80.7826590
  25.8645827  51.3700780  79.3009380  30.9471433  54.1600839  70.6281453
  30.8089332  54.3502435  69.7002642  30.5907652  54.9220222  71.0849504
  19.1113559  48.1458934  76.7078465  19.7512938  48.0047693  76.0101429
  18.2791090  47.8593448  76.3317067  30.9740813  56.2277366  75.6392725
  31.4077319  56.1352655  76.4875779  31.6872393  56.2034867  75.0012741
  19.8873863  57.4461365  72.8213458  20.6814462  56.9511685  72.6196033
  19.1765555  56.9179228  72.4581163  24.7068708  59.8279460  77.1725825
  24.7605730  60.3970397  77.9403541  23.8383489  59.9981345  76.8079862
  16.1956627  51.5904447  68.8973210  15.2654215  51.5288902  69.1143173
  16.2914099  51.0680399  68.1009852  16.1142176  48.1159259  71.4851452
  16.3748993  49.0304593  71.3760613  16.9359348  47.6483702  71.6348065
  17.5867101  49.5297017  78.6550277  18.2590154  49.3214379  78.0062926
  16.7596887  49.3319103  78.2155509  31.8356362  56.2701067  78.1725610
  32.0292252  57.1746877  78.4184885  31.7356980  55.8108486  79.0064195
  23.4892673  46.1558957  80.6715937  22.8420588  46.8548907  80.5780414
  24.2593688  46.5895101  81.0392186  26.8971471  56.4207810  83.7466491
  26.7456977  56.1918361  82.8296574  26.8876150  57.3778411  83.7597836
  23.6656807  53.9939722  78.7312757  24.5948867  54.1450882  78.5581725
  23.2447837  54.0823743  77.8761404  22.4645139  58.0190387  76.5011295
  22.3256225  57.6509171  77.3737233  21.6759735  58.5338026  76.3295253
  23.0593291  63.1199483  67.8436831  23.2345047  62.6487526  68.6582454
  22.3726079  63.7465249  68.0718092  24.0150354  57.3971989  73.8900133
  23.6800187  57.3572759  74.7857782  23.5154300  56.7316705  73.4170543
  17.9894598  52.8039620  79.4152714  17.8514396  52.0719858  80.0164253
  18.8999522  52.7148520  79.1336902  26.9509546  54.7428024  64.1637192
  26.3338716  54.0174852  64.0670245  26.4826034  55.5037384  63.8204267
  20.6176899  52.5159579  78.9036393  21.3276517  51.8752771  78.8623012
  20.5746207  52.7672474  79.8262574  28.6063678  59.4526932  81.8242973
  28.5476224  58.7686152  81.1573556  29.0083196  60.1945922  81.3723599
  19.3305833  49.5024797  80.7232033  18.7943190  49.0515535  81.3753629
  18.7422541  49.6370706  79.9802497  17.6254376  66.2688846  74.6176692
  17.8650975  66.9007370  75.2955710  16.7823573  65.9176886  74.9042051
  18.7408092  48.9613448  63.2858497  17.8637558  48.8402249  62.9220743
  19.2165845  48.1699526  63.0337385  28.6081085  57.4166516  80.0556952
  27.7207864  57.0792438  80.1783351  29.1779636  56.6849547  80.2925718
  10.2610232  53.7490608  73.3800004  10.9481272  53.4352338  72.7921019
  10.1058361  54.6531973  73.1067255  15.0644954  48.6380804  77.8085027
  14.9803143  48.0306474  77.0735437  14.2427660  49.1289823  77.8094524
  22.1382238  62.0767968  77.0218196  22.0652410  62.8822940  77.5337500
  21.6959631  62.2759934  76.1966217  21.9272018  61.3139739  70.5321017
  21.1439540  61.8561419  70.6259242  22.6264763  61.8313718  70.9315258
  25.2368668  47.1234368  73.1755222  25.7337367  46.3704330  72.8556293
  24.4655649  47.1598685  72.6098432  33.0898425  52.8274733  74.8173514
  33.0788302  53.7099449  74.4467447  32.2215805  52.4746284  74.6228051
  24.5980922  61.9754803  79.1776354  25.3108894  62.6102267  79.1052256
  24.1070950  62.0718669  78.3616356  26.3198449  55.8806055  70.7493646
  25.3854727  56.0007518  70.5798350  26.4975117  54.9778522  70.4853656
  21.8203637  49.2651751  72.9026907  21.4501424  48.7122791  73.5907813
  22.3162729  48.6609884  72.3501907  29.7071000  51.7223374  71.2843680
  30.1731452  52.5551366  71.2103983  30.1578500  51.2568356  71.9888938
  19.6492835  59.7249246  79.9981925  20.3502295  60.3585729  80.1511319
  19.1787950  60.0663978  79.2377564  27.7747231  58.0667196  68.2829832
  28.0507075  57.9523790  69.1923706  26.9051730  57.6684681  68.2442005
  27.6787663  44.0903961  75.3234581  26.7650743  44.3208188  75.4916788
  28.1080764  44.1742406  76.1748614  27.4494121  52.2793853  77.8234475
  26.7965571  52.5269761  77.1686928  27.8274501  51.4657992  77.4896953
  24.4101295  62.3153547  71.9262646  24.5923690  61.4975203  72.3890398
  25.2334281  62.5321239  71.4887536  24.7443461  61.2421732  69.1877694
  25.2731227  60.7314186  68.5747856  25.0071680  60.9264262  70.0523227
  23.4981694  53.0213664  84.3100512  22.8222331  52.9207794  84.9802888
  24.3209328  52.8652878  84.7736510  15.2460553  59.2585601  76.9313028
  15.8313990  58.5129289  77.0640932  15.0485392  59.5689558  77.8149692
  18.0999209  62.2936848  71.9475470  17.4309584  62.7782976  71.4639510
  17.9612078  62.5406069  72.8618849   9.8378208  51.8291201  75.6517471
   9.8762308  51.2954792  76.4454589   9.3318501  51.3026407  75.0328448
  22.2404477  64.3280592  78.5458128  22.7922785  64.4912213  79.3107214
  22.5810671  64.9185030  77.8738153  17.2168970  46.6755742  79.1480013
  17.2810297  47.5370573  78.7357411  17.1536091  46.0629743  78.4152372
  16.6921243  48.7478874  82.7953047  17.3193282  48.3655952  83.4090572
  15.8349162  48.5293076  83.1608740  27.0915351  59.1541849  84.4006783
  27.6355255  59.7671808  83.9061738  26.5102196  59.7121428  84.9173796
  13.4686786  50.5555303  68.7271402  13.7640227  49.6465982  68.6738456
  12.5674821  50.5343043  68.4052405  25.3772864  62.2762567  75.5321811
  25.2524004  61.4752307  75.0232756  26.0351955  62.7708761  75.0435781
  16.9981033  48.6311300  74.7098951  16.2767618  49.2447268  74.5706424
  17.7874288  49.1669065  74.6315597  27.4407773  60.0771588  77.1601361
  26.4938108  59.9576939  77.0879687  27.7890546  59.1894086  77.2427622
  19.8007346  45.9665726  80.9839603  20.3241748  46.2128023  81.7465912
  19.5819679  46.7985761  80.5642740  15.1974627  48.2369401  68.8510727
  14.8687333  47.3566780  68.6685833  15.5513998  48.1817070  69.7387117
  24.4454206  59.8724304  73.3605713  24.2979168  58.9441011  73.5413283
  25.2707700  59.8944394  72.8762788  18.3116450  48.5242371  69.2186205
  18.6512523  49.0528292  68.4964813  18.7588571  48.8622777  69.9944772
  28.0488328  60.6952862  74.4470586  28.9734875  60.4895724  74.3095037
  27.8803631  60.4469264  75.3559927  21.0059891  46.9079422  78.6689273
  20.6656712  46.1087235  79.0709953  20.2998897  47.2081132  78.0966106
  21.6576363  43.9928734  77.1216596  22.4802432  43.5189212  76.9995486
  21.9014427  44.7719218  77.6215282  20.2984598  47.0216992  67.4179498
  21.0192960  47.3998245  66.9143215  19.6749902  47.7405869  67.5214476
  24.4415720  47.7262141  68.3537830  24.6579335  48.6086779  68.0526658
  23.9609788  47.3348355  67.6243472  19.1814942  50.6847855  74.9308575
  19.0359522  50.9988158  75.8232856  18.7040145  51.3032755  74.3779473
  21.0411325  47.6750403  74.9789464  21.0272893  46.7791496  74.6421762
  21.7583753  47.6821066  75.6127750  22.8937455  48.1087743  77.0242592
  22.6355233  49.0304813  77.0226922  22.3622496  47.7118177  77.7143056
  27.8383644  61.2138530  69.8032677  28.0120522  60.6484952  69.0506530
  28.3312535  62.0139425  69.6212167  13.6560604  53.2253199  77.8696236
  13.1114072  54.0013007  78.0016510  14.5339954  53.5724004  77.7115357
  20.4448221  46.5564783  70.2477034  20.5664132  45.6281429  70.4467922
  20.1550263  46.5703469  69.3355350  23.3139411  44.2419693  73.3843754
  23.3361108  44.3059026  72.4295734  23.7307470  43.4024202  73.5784260
  33.6923035  53.9774953  71.4222977  34.1354181  53.2282278  71.0242100
  32.8149546  53.9685089  71.0396709  28.8258817  60.5305294  66.9029575
  29.5209721  61.1511987  67.1216890  29.1681967  59.6800646  67.1781953
  14.4426626  52.3523095  80.7626393  13.7008362  52.5005731  81.3491023
  14.1219370  52.6131361  79.8993142  22.3870288  61.8939074  80.5606783
  22.6957415  61.6488220  81.4329482  23.1845770  62.0985712  80.0725653
  22.4090900  64.0476983  72.7912159  21.9695891  63.5553362  73.4845016
  23.1599017  63.5049951  72.5504235  14.8883239  60.2388524  72.7936787
  15.7141259  59.9392296  72.4135431  14.5377291  59.4696146  73.2426576
  19.8564773  59.5914992  74.8634461  19.2344782  58.9285697  74.5636689
  20.5269640  59.6176124  74.1808109  13.0891845  58.1574850  73.7525721
  12.2523753  57.7297025  73.5709722  13.0615490  58.3507294  74.6896512
  19.9289300  48.0696780  84.4566967  19.9777456  48.9458903  84.0744737
  20.4711814  47.5274173  83.8838610  30.4144146  58.6137904  83.7368104
  29.6239690  58.5962042  83.1972604  30.1777500  59.1526197  84.4917141
  30.5342021  55.4630370  81.0500833  30.5840026  55.2980377  81.9916355
  30.4255944  54.5957629  80.6598713  19.4178280  58.1418916  68.3392922
  19.5666400  58.8254380  67.6859594  20.2244723  58.1224006  68.8542377
  27.8245783  51.4461298  82.3660139  28.7255646  51.3067763  82.0744137
  27.8993758  51.6115753  83.3058317  22.1588589  48.8228153  81.2113326
  21.2891898  49.1161719  80.9395914  22.3948069  49.4068598  81.9320589
  32.0360218  57.8827311  81.2942854  31.7445026  58.2457292  82.1306315
  31.4232349  57.1694320  81.1156186  30.2847406  53.0059926  79.7622912
  30.7601528  53.1987572  78.9541764  29.3612971  53.0619112  79.5166296
  17.1730913  54.1684093  69.3453990  16.9276954  53.2646423  69.5434201
  17.3426827  54.1701244  68.4033468  24.8627622  45.0407770  78.7278746
  25.3809566  45.7768797  78.4025235  24.5082755  45.3471763  79.5625505
  16.4426560  49.9012451  66.8440152  15.7495805  49.9756806  66.1880188
  16.1978312  49.1372794  67.3661669  25.1140217  41.4608052  74.2479643
  25.3941970  40.7931241  74.8740069  25.8990823  41.6537148  73.7354306
  22.9173685  60.6367046  65.8104669  22.3447652  61.2557233  65.3575141
  23.4906479  61.1866408  66.3444591  28.9849075  49.8825686  77.9951218
  29.9366498  49.9823784  78.0163442  28.8152525  49.0903955  78.5049302
  27.0063454  46.9681269  78.1810619  26.4113386  47.2486282  77.4857107
  26.7213151  47.4575170  78.9527360  26.1370945  60.9204196  66.9413251
  27.0701618  60.8549758  67.1446127  26.0494158  61.7560463  66.4827784
  28.7658962  60.2370067  63.9017199  28.6872593  59.9029930  64.7952957
  29.5868628  60.7291834  63.9008671  31.4637153  53.1031806  77.1093517
  31.4313473  52.1647807  77.2953201  32.0737776  53.1815843  76.3759342
  23.3020484  51.9727859  63.1520721  24.2479588  51.8434067  63.2209139
  22.9234729  51.2342521  63.6290150  31.6131641  49.8942849  77.1551801
  31.0970690  49.1101306  76.9681729  32.4971590  49.5661566  77.3198320
  29.2742368  43.6383865  73.1147613  29.0767189  43.3298953  73.9990945
  29.8842074  44.3645504  73.2445543  23.1859176  56.0245605  84.6121378
  24.1062186  56.2024204  84.8061425  23.1508759  55.0801650  84.4601078
  21.4863401  49.8977835  63.0875607  20.5794856  49.6010948  63.1638320
  21.7639382  49.6007653  62.2209893  12.4041341  51.2184199  73.5374653
  12.0844125  50.3649507  73.2449027  11.8574769  51.4332777  74.2932620
  16.1821249  53.9346640  77.2544160  16.4007258  54.8663747  77.2732193
  16.5947022  53.5754614  78.0398963  23.1025466  44.4414725  69.2419848
  22.2926195  44.0961810  69.6175094  23.7909883  44.1322269  69.8307460
  25.0316015  43.5192772  70.8644145  25.5847053  43.9388225  71.5234168
  25.2686101  42.5928520  70.9067101  21.0549114  49.5079845  86.6446909
  20.9545841  50.4574202  86.5759000  20.8370656  49.1798084  85.7722979
  20.2562185  46.7564770  63.2287586  21.1181349  47.0819669  63.4883403
  20.4412530  45.9696266  62.7160652  12.2729601  54.8387110  75.5067775
  11.5793073  54.4241063  74.9937729  13.0202592  54.8807647  74.9101194
  28.4094822  45.6293297  70.3722809  27.8293491  46.2878101  69.9900861
  28.1430755  44.8070641  69.9610226  26.8598388  45.0298355  72.5744129
  27.3598167  45.1414889  71.7658448  27.5033996  44.7259407  73.2144938
  20.9180384  52.9376984  85.4611970  20.4347466  53.7377344  85.6675859
  21.0041323  52.9484929  84.5079414  14.1866344  54.7705364  73.3833790
  14.1637032  54.8693051  72.4315673  14.4966980  55.6170515  73.7050956
  16.8453722  56.8281519  77.4980404  17.7996975  56.7965461  77.4310336
  16.6466245  56.3672143  78.3130630  17.4353104  55.3982635  80.0651202
  18.2545993  55.8926714  80.0886039  17.7089911  54.4814603  80.0368769
  27.1919700  47.7893387  69.4279157  26.3045555  48.0743038  69.2099352
  27.6073689  47.6287151  68.5806434  30.5434236  47.8139908  73.1433496
  31.3194626  48.3036361  73.4158113  29.8182370  48.2397962  73.6005366
  32.9806795  48.5267527  74.2007437  33.5751285  48.2863263  73.4900745
  33.0533378  47.8074658  74.8280973  15.2003950  62.3701138  74.5150602
  15.0658418  61.6101539  73.9488600  14.7836013  63.0942038  74.0479391
  26.3362913  57.5538062  63.5227177  27.0398763  57.7588064  64.1384833
  25.6125562  58.1214824  63.7876261  27.1660724  53.3047923  69.6429447
  27.1095925  53.7616475  68.8037080  27.7189066  52.5438608  69.4652290
  30.9765529  49.0937655  70.4679567  30.7202464  48.6934291  71.2987774
  30.3518398  49.8081449  70.3429706  18.3573076  63.2670455  74.7269044
  18.2405460  64.2115888  74.6247735  17.5365522  62.9644017  75.1154844
  28.2449611  57.9920591  65.5725637  29.0795215  57.5601790  65.3903112
  28.0833954  57.8202605  66.5002532  27.8995503  54.4952704  66.9381976
  27.8444307  54.3296976  65.9970421  27.2741558  55.2028737  67.0944166
  12.6888018  49.7320769  80.7643399  13.3346881  49.2219723  81.2530624
  12.4805169  50.4689450  81.3386824  25.2141410  56.8001616  86.2635539
  26.0832570  56.9742269  85.9022174  24.7348162  57.6196033  86.1411269
  21.2091628  43.9960813  66.5167295  21.1970298  44.9402653  66.6735566
  22.1015050  43.8130959  66.2226756  19.3827590  63.9198717  77.9424973
  20.2854837  63.9522328  78.2591468  19.1564960  62.9899168  77.9571309
  21.1381192  62.6729704  74.6035052  20.1876823  62.6731565  74.4899424
  21.4413678  61.9262438  74.0871086  25.0243748  40.5903590  70.7713232
  24.2576144  40.0362077  70.9169914  25.4354453  40.6625459  71.6327383
  17.0285509  46.8788386  84.8618413  17.8916970  46.5225191  85.0721738
  16.4550920  46.5402281  85.5493817  34.1643375  69.6152522  81.5628544
  34.1532016  69.2205320  80.6909048  34.3264015  68.8818595  82.1562316
  27.0874840  71.8104338  74.4323450  27.8796132  71.4695163  74.0169749
  27.3271490  71.9199313  75.3525603  30.8850636  72.3989634  80.5107728
  30.5940502  73.3035265  80.3954394  31.5207621  72.4406161  81.2251798
  31.8106843  69.7766482  77.1009088  32.4070415  69.5522505  76.3866051
  31.8681815  69.0351228  77.7034536  29.2953003  68.5364846  73.5394226
  28.3703499  68.4041060  73.7471918  29.5437416  69.3159065  74.0364169
  26.6561814  68.1798120  74.3738015  26.7854195  68.4332599  75.2877427
  25.9759265  68.7725828  74.0542670  31.5724903  68.8308689  82.6907823
  32.3139588  69.3693732  82.4142647  30.8661889  69.4574977  82.8479375
  29.8161100  70.8184909  75.2462122  30.3862457  71.2472178  74.6079607
  30.4069212  70.5367494  75.9446308  30.3086267  65.9848337  83.4923133
  29.6784927  66.6664618  83.7258530  30.2022355  65.8731418  82.5476272
  25.6031239  65.6520133  74.4189058  24.8130293  65.9077661  73.9429168
  26.0942487  66.4668471  74.5241098  27.5545985  66.0164712  71.3772534
  26.7577148  66.1283406  71.8956030  27.3271577  66.3551364  70.5113425
  23.8868942  65.9050623  76.8504048  24.1376981  66.7897633  77.1161624
  24.4228491  65.7255225  76.0779140  29.5867010  60.2869103  85.8548384
  29.1933955  59.7335301  86.5296029  30.4033150  60.5979681  86.2454902
  32.5034971  61.7026982  83.4468641  33.2444684  62.3034135  83.3673103
  32.7352893  60.9604619  82.8886684  27.6476309  66.8883349  81.7246871
  27.5329824  65.9868606  82.0253970  26.7920826  67.1347046  81.3731687
  29.4855268  76.3596891  77.8495050  30.0362693  76.2313954  77.0772044
  28.6466743  76.6591780  77.4989943  33.2822439  72.6248019  82.1939281
  33.8150775  71.8636307  81.9638589  32.7536520  72.3321670  82.9363435
  24.5177984  70.0541615  70.5421525  25.3553206  70.4638623  70.3255233
  24.6956252  69.1141057  70.5121719  31.7731560  60.1851469  74.6948338
  32.6384557  59.9894278  74.3354227  31.8409069  59.9561821  75.6217694
  29.3793879  62.4153677  72.0664704  29.9537631  62.1928859  71.3337897
  29.9664861  62.4842372  72.8193306  31.6816547  59.2894926  70.7939774
  31.0280959  58.9743943  70.1696389  31.6397021  58.6670667  71.5199597
  24.5404155  67.3932330  71.2132258  24.3428555  66.8001691  70.4883325
  23.9850819  67.0884541  71.9308197  29.9507314  63.4750852  76.7078465
  30.5906693  63.3339611  76.0101429  29.1184844  63.1885365  76.3317067
  27.0350381  66.9196364  68.8973210  26.1047969  66.8580820  69.1143173
  27.1307853  66.3972317  68.1009852  26.9535930  63.4451177  71.4851452
  27.2142747  64.3596510  71.3760613  27.7753102  62.9775620  71.6348065
  28.4260855  64.8588934  78.6550277  29.0983909  64.6506296  78.0062926
  27.5990642  64.6611020  78.2155509  34.3286427  61.4850875  80.6715937
  33.6814342  62.1840825  80.5780414  35.0987443  61.9187019  81.0392186
  34.5050562  69.3231640  78.7312757  35.4342622  69.4742800  78.5581725
  34.0841592  69.4115661  77.8761404  28.8288353  68.1331537  79.4152714
  28.6908151  67.4011776  80.0164253  29.7393276  68.0440437  79.1336902
  31.4570653  67.8451497  78.9036393  32.1670272  67.2044689  78.8623012
  31.4139961  68.0964391  79.8262574  30.1699587  64.8316714  80.7232033
  29.6336944  64.3807453  81.3753629  29.5816296  64.9662623  79.9802497
  28.4648131  81.5980764  74.6176692  28.7044729  82.2299288  75.2955710
  27.6217327  81.2468804  74.9042051  21.1003986  69.0782526  73.3800004
  21.7875026  68.7644256  72.7921019  20.9452115  69.9823890  73.1067255
  25.9038709  63.9672722  77.8085027  25.8196897  63.3598392  77.0735437
  25.0821415  64.4581740  77.8094524  30.4886590  75.0541164  79.9981925
  31.1896049  75.6877647  80.1511319  30.0181705  75.3955895  79.2377564
  26.0854308  74.5877519  76.9313028  26.6707745  73.8421207  77.0640932
  25.8879146  74.8981475  77.8149692  20.6771963  67.1583119  75.6517471
  20.7156062  66.6246710  76.4454589  20.1712255  66.6318324  75.0328448
  33.0798232  79.6572510  78.5458128  33.6316540  79.8204131  79.3107214
  33.4204425  80.2476947  77.8738153  28.0562725  62.0047659  79.1480013
  28.1204051  62.8662490  78.7357411  27.9929845  61.3921661  78.4152372
  27.5314997  64.0770792  82.7953047  28.1587036  63.6947869  83.4090572
  26.6742916  63.8584994  83.1608740  24.3080540  65.8847221  68.7271402
  24.6033981  64.9757899  68.6738456  23.4068576  65.8634961  68.4052405
  27.8374787  63.9603218  74.7098951  27.1161373  64.5739185  74.5706424
  28.6268043  64.4960982  74.6315597  30.6401101  61.2957644  80.9839603
  31.1635502  61.5419941  81.7465912  30.4213434  62.1277679  80.5642740
  26.0368382  63.5661319  68.8510727  25.7081088  62.6858698  68.6685833
  26.3907752  63.5108987  69.7387117  32.4970117  59.3220652  77.1216596
  33.3196187  58.8481130  76.9995486  32.7408181  60.1011135  77.6215282
  30.0208696  66.0139772  74.9308575  29.8753277  66.3280075  75.8232856
  29.5433900  66.6324673  74.3779473  24.4954358  68.5545117  77.8696236
  23.9507826  69.3304925  78.0016510  25.3733708  68.9015921  77.7115357
  25.2820380  67.6815013  80.7626393  24.5402116  67.8297648  81.3491023
  24.9613125  67.9423279  79.8993142  33.2484655  79.3768901  72.7912159
  32.8089645  78.8845280  73.4845016  33.9992772  78.8341869  72.5504235
  30.6958527  74.9206910  74.8634461  30.0738536  74.2577615  74.5636689
  31.3663394  74.9468042  74.1808109  23.9285599  73.4866768  73.7525721
  23.0917507  73.0588943  73.5709722  23.9009244  73.6799211  74.6896512
  30.7683055  63.3988698  84.4566967  30.8171210  64.2750821  84.0744737
  31.3105569  62.8566091  83.8838610  32.9982343  64.1520070  81.2113326
  32.1285652  64.4453636  80.9395914  33.2341823  64.7360515  81.9320589
  23.2435096  66.5476116  73.5374653  22.9237880  65.6941424  73.2449027
  22.6968524  66.7624694  74.2932620  27.0215003  69.2638557  77.2544160
  27.2401013  70.1955665  77.2732193  27.4340777  68.9046532  78.0398963
  31.8942868  64.8371763  86.6446909  31.7939595  65.7866120  86.5759000
  31.6764410  64.5090002  85.7722979  31.0955940  62.0856688  63.2287586
  31.9575104  62.4111586  63.4883403  31.2806284  61.2988184  62.7160652
  23.1123356  70.1679028  75.5067775  22.4186827  69.7532981  74.9937729
  23.8596347  70.2099564  74.9101194  25.0260098  70.0997282  73.3833790
  25.0030786  70.1984969  72.4315673  25.3360735  70.9462432  73.7050956
  27.6847476  72.1573437  77.4980404  28.6390730  72.1257379  77.4310336
  27.4860000  71.6964060  78.3130630  28.2746858  70.7274553  80.0651202
  29.0939747  71.2218631  80.0886039  28.5483666  69.8106521  80.0368769
  26.0397705  77.6993056  74.5150602  25.9052173  76.9393457  73.9488600
  25.6229767  78.4233956  74.0479391  29.1966831  78.5962373  74.7269044
  29.0799215  79.5407806  74.6247735  28.3759277  78.2935935  75.1154844
  23.5281772  65.0612686  80.7643399  24.1740636  64.5511640  81.2530624
  23.3198923  65.7981368  81.3386824  30.2221345  79.2490635  77.9424973
  31.1248591  79.2814245  78.2591468  29.9958715  78.3191086  77.9571309
  31.9774947  78.0021622  74.6035052  31.0270578  78.0023483  74.4899424
  32.2807433  77.2554356  74.0871086  27.8679263  62.2080304  84.8618413
  28.7310725  61.8517108  85.0721738  27.2944674  61.8694198  85.5493817
  47.7127640  83.8382160  75.6680814  48.3506050  83.7188907  74.9644154
  47.5948483  84.7863004  75.7268766  44.5217347  83.7909588  75.6042339
  44.1835858  83.6750653  74.7162873  45.3907115  83.3900753  75.5843345
  40.3804162  85.6445064  71.5939230  39.8169027  85.5535001  70.8255517
  40.2656557  84.8244969  72.0741722  45.0037130  84.9444440  81.5628544
  44.9925770  84.5497238  80.6909048  45.1657769  84.2110512  82.1562316
  37.9268594  87.1396256  74.4323450  38.7189886  86.7987081  74.0169749
  38.1665244  87.2491231  75.3525603  45.9603721  89.3116032  66.9053694
  45.3091701  89.8970113  66.5187708  46.7548084  89.8422227  66.9648732
  39.8859348  86.4005169  67.3040829  40.6590224  85.8534156  67.1653705
  40.2384747  87.2649419  67.5155290  41.7244391  87.7281552  80.5107728
  41.4334257  88.6327182  80.3954394  42.3601375  87.7698079  81.2251798
  42.6500598  85.1058400  77.1009088  43.2464170  84.8814422  76.3866051
  42.7075569  84.3643146  77.7034536  42.2225626  82.5597835  64.9359279
  42.4751147  82.0379357  64.1742742  41.2850185  82.3963981  65.0385962
  47.4378986  87.0006464  67.4422679  46.8024819  87.0741091  68.1543583
  47.1076393  87.5900063  66.7641758  41.9421915  84.4625941  67.1383654
  41.8258173  83.7870845  67.8064738  42.0524175  83.9758315  66.3215807
  44.2853456  83.9236088  70.8430343  43.9211663  83.3966709  71.5543264
  45.1420572  83.5334558  70.6696828  46.6834276  87.4142967  77.5057522
  46.3834999  88.3168006  77.3973329  46.3385335  87.1475150  78.3578675
  43.9048163  81.4083646  66.8238358  43.7847789  81.8540696  67.6623839
  43.2100752  81.7568963  66.2651896  37.4955568  83.5090037  74.3738015
  37.6247949  83.7624516  75.2877427  36.8153020  84.1017745  74.0542670
  41.6655056  94.1787287  70.4728490  41.5879085  95.1295112  70.5516970
  41.0616699  93.8333160  71.1303416  42.4118658  84.1600606  82.6907823
  43.1533342  84.6985650  82.4142647  41.7055643  84.7866895  82.8479375
  47.8873997  86.3029747  81.2879985  48.2957353  85.8612157  80.5434617
  47.1651259  85.7282374  81.5414178  44.2405067  81.2402353  78.6613542
  45.0866263  81.6641767  78.8048191  44.1803705  80.5835978  79.3552105
  48.2102812  86.8630937  75.0432274  47.5811674  87.0276651  74.3408342
  47.8228474  87.2772547  75.8143238  52.0892044  87.7985375  72.3976638
  51.4043082  88.1784276  71.8473671  52.1735893  88.4080702  73.1308585
  49.3442975  85.4445334  78.9971981  49.5559871  86.0877094  78.3206362
  49.2972724  84.6107651  78.5293911  43.7630774  86.6005345  72.3082359
  44.2269119  86.8793048  71.5186981  43.4987572  85.6988790  72.1255450
  40.6554855  86.1476827  75.2462122  41.2256212  86.5764095  74.6079607
  41.2462967  85.8659412  75.9446308  42.6999660  82.7228498  69.1171924
  43.4023703  83.1749541  69.5845850  42.3680288  82.0812317  69.7451817
  41.1480021  81.3140254  83.4923133  40.5178682  81.9956535  83.7258530
  41.0416109  81.2023336  82.5476272  50.4588803  88.3217290  77.1694338
  51.2806247  87.9197477  76.8877020  50.4551206  88.2185524  78.1210454
  44.2245407  87.8701333  79.3255049  44.2889839  88.3321740  80.1613221
  43.5156331  87.2398698  79.4537359  34.7262697  81.2342541  76.8504048
  34.9770735  82.1189551  77.1161624  35.2622245  81.0547142  76.0779140
  43.9393424  89.5369440  69.1934029  43.8039099  90.3820976  69.6218877
  44.4803237  89.7388718  68.4299963  37.3922822  87.0544878  69.7661954
  37.9047342  87.8488129  69.9167519  38.0445535  86.3571169  69.6995556
  39.2017707  90.1710635  71.8484708  39.3784335  91.0928599  71.6605691
  39.9974540  89.8569054  72.2779087  38.4870063  82.2175267  81.7246871
  38.3723578  81.3160524  82.0253970  37.6314581  82.4638963  81.3731687
  45.5661901  90.1593007  83.3234371  45.1225755  89.3729385  83.0055276
  46.2279114  90.3472157  82.6578262  40.3249022  91.6888808  77.8495050
  40.8756447  91.5605872  77.0772044  39.4860498  91.9883697  77.4989943
  47.6643139  90.4395807  81.3515773  47.6461614  91.2604688  80.8596042
  48.5863059  90.3149882  81.5765914  44.1216193  87.9539936  82.1939281
  44.6544530  87.1928224  81.9638589  43.5930274  87.6613588  82.9363435
  35.3571739  85.3833533  70.5421525  36.1946961  85.7930541  70.3255233
  35.5350006  84.4432975  70.5121719  47.2536171  83.0508613  66.2305358
  46.7382794  83.8213218  66.4693745  46.9813479  82.3773749  66.8538419
  45.4868906  87.0825929  69.7058093  44.9590267  86.3478688  69.3931330
  44.9856409  87.8600605  69.4598061  50.4661752  85.2774949  74.8225139
  49.8085426  85.9674211  74.9105268  51.2702151  85.6671381  75.1659126
  43.6321506  84.9006139  62.7093066  42.7248568  84.6695392  62.9084215
  44.1292538  84.1043758  62.8967048  46.5389585  93.6103646  65.6289752
  45.8651284  93.9135343  66.2374710  46.9255407  94.4132727  65.2795209
  44.8109739  85.0018734  67.2317056  43.9020959  84.7177767  67.3289526
  44.8404823  85.4217812  66.3720363  50.0429007  88.6125323  71.0008224
  49.5891334  87.7716233  71.0573414  49.4122974  89.2486722  71.3383004
  48.4861946  90.4501820  71.9358042  48.7784920  91.0106877  71.2170407
  48.9960567  90.7430381  72.6911201  35.3797910  82.7224248  71.2132258
  35.1822310  82.1293609  70.4883325  34.8244574  82.4176458  71.9308197
  43.3594633  82.6147354  73.3326851  43.4143243  81.6621191  73.2569328
  42.5485835  82.7706794  73.8168150  44.5085827  86.5427478  64.5705135
  44.0705257  85.8263336  64.1110772  45.2496268  86.7703592  64.0090226
  43.4495571  91.2282171  73.0251495  43.4071750  91.4543017  72.0960027
  44.3658270  90.9945546  73.1737296  46.8961205  81.6966239  79.9232124
  47.2510593  81.9237712  80.7826590  47.5433336  82.0284615  79.3009380
  52.6528322  86.8861202  75.6392725  53.0864828  86.7936491  76.4875779
  53.3659902  86.8618702  75.0012741  41.5661372  88.1045200  72.8213458
  42.3601971  87.6095520  72.6196033  40.8553064  87.5763063  72.4581163
  46.3856217  90.4863296  77.1725825  46.4393239  91.0554232  77.9403541
  45.5170998  90.6565181  76.8079862  39.2654610  80.1880852  78.6550277
  39.9377663  79.9798214  78.0062926  38.4384396  79.9902938  78.2155509
  53.5143871  86.9284902  78.1725610  53.7079761  87.8330713  78.4184885
  53.4144489  86.4692321  79.0064195  48.5758980  87.0791645  83.7466491
  48.4244486  86.8502197  82.8296574  48.5663659  88.0362246  83.7597836
  45.3444316  84.6523558  78.7312757  46.2736376  84.8034717  78.5581725
  44.9235346  84.7407579  77.8761404  44.1432648  88.6774222  76.5011295
  44.0043734  88.3093007  77.3737233  43.3547244  89.1921862  76.3295253
  44.7380800  93.7783319  67.8436831  44.9132556  93.3071362  68.6582454
  44.0513588  94.4049085  68.0718092  45.6937863  88.0555825  73.8900133
  45.3587696  88.0156595  74.7857782  45.1941809  87.3900541  73.4170543
  39.6682107  83.4623455  79.4152714  39.5301905  82.7303694  80.0164253
  40.5787031  83.3732355  79.1336902  42.2964408  83.1743414  78.9036393
  43.0064026  82.5336606  78.8623012  42.2533716  83.4256309  79.8262574
  50.2851186  90.1110768  81.8242973  50.2263733  89.4269988  81.1573556
  50.6870705  90.8529758  81.3723599  41.0093342  80.1608632  80.7232033
  40.4730699  79.7099371  81.3753629  40.4210050  80.2954541  79.9802497
  39.3041885  96.9272681  74.6176692  39.5438484  97.5591206  75.2955710
  38.4611082  96.5760721  74.9042051  50.2868594  88.0750351  80.0556952
  49.3995373  87.7376273  80.1783351  50.8567145  87.3433383  80.2925718
  31.9397741  84.4074443  73.3800004  32.6268781  84.0936173  72.7921019
  31.7845870  85.3115808  73.1067255  43.8169747  92.7351804  77.0218196
  43.7439919  93.5406775  77.5337500  43.3747140  92.9343770  76.1966217
  43.6059527  91.9723574  70.5321017  42.8227049  92.5145254  70.6259242
  44.3052272  92.4897554  70.9315258  46.2768431  92.6338638  79.1776354
  46.9896403  93.2686103  79.1052256  45.7858459  92.7302504  78.3616356
  47.9985958  86.5389891  70.7493646  47.0642236  86.6591353  70.5798350
  48.1762626  85.6362357  70.4853656  41.3280344  90.3833081  79.9981925
  42.0289804  91.0169564  80.1511319  40.8575459  90.7247813  79.2377564
  49.4534740  88.7251031  68.2829832  49.7294584  88.6107626  69.1923706
  48.5839239  88.3268516  68.2442005  49.1281630  82.9377689  77.8234475
  48.4753080  83.1853596  77.1686928  49.5062010  82.1241827  77.4896953
  46.0888804  92.9737382  71.9262646  46.2711199  92.1559038  72.3890398
  46.9121790  93.1905074  71.4887536  46.4230970  91.9005567  69.1877694
  46.9518736  91.3898022  68.5747856  46.6859189  91.5848097  70.0523227
  45.1769203  83.6797500  84.3100512  44.5009840  83.5791629  84.9802888
  45.9996837  83.5236714  84.7736510  36.9248062  89.9169436  76.9313028
  37.5101499  89.1713124  77.0640932  36.7272901  90.2273393  77.8149692
  39.7786717  92.9520684  71.9475470  39.1097093  93.4366811  71.4639510
  39.6399587  93.1989904  72.8618849  31.5165717  82.4875037  75.6517471
  31.5549817  81.9538627  76.4454589  31.0106010  81.9610242  75.0328448
  43.9191986  94.9864427  78.5458128  44.4710294  95.1496049  79.3107214
  44.2598180  95.5768865  77.8738153  38.3708752  79.4062710  82.7953047
  38.9980791  79.0239787  83.4090572  37.5136671  79.1876912  83.1608740
  48.7702860  89.8125685  84.4006783  49.3142764  90.4255643  83.9061738
  48.1889705  90.3705263  84.9173796  35.1474295  81.2139139  68.7271402
  35.4427736  80.3049817  68.6738456  34.2462330  81.1926878  68.4052405
  47.0560373  92.9346403  75.5321811  46.9311513  92.1336143  75.0232756
  47.7139464  93.4292596  75.0435781  49.1195282  90.7355423  77.1601361
  48.1725617  90.6160774  77.0879687  49.4678055  89.8477921  77.2427622
  46.1241715  90.5308139  73.3605713  45.9766677  89.6024847  73.5413283
  46.9495209  90.5528230  72.8762788  49.7275837  91.3536698  74.4470586
  50.6522384  91.1479559  74.3095037  49.5591140  91.1053099  75.3559927
  49.5171153  91.8722365  69.8032677  49.6908031  91.3068788  69.0506530
  50.0100044  92.6723260  69.6212167  35.3348113  83.8837034  77.8696236
  34.7901581  84.6596842  78.0016510  36.2127463  84.2307839  77.7115357
  50.5046326  91.1889130  66.9029575  51.1997230  91.8095822  67.1216890
  50.8469476  90.3384481  67.1781953  36.1214135  83.0106931  80.7626393
  35.3795871  83.1589566  81.3491023  35.8006879  83.2715196  79.8993142
  44.0657797  92.5522909  80.5606783  44.3744924  92.3072056  81.4329482
  44.8633279  92.7569547  80.0725653  44.0878409  94.7060819  72.7912159
  43.6483400  94.2137197  73.4845016  44.8386526  94.1633786  72.5504235
  36.5670748  90.8972359  72.7936787  37.3928768  90.5976131  72.4135431
  36.2164800  90.1279982  73.2426576  41.5352282  90.2498828  74.8634461
  40.9132291  89.5869533  74.5636689  42.2057149  90.2759959  74.1808109
  34.7679353  88.8158686  73.7525721  33.9311262  88.3880860  73.5709722
  34.7402999  89.0091129  74.6896512  52.0931655  89.2721739  83.7368104
  51.3027198  89.2545878  83.1972604  51.8565009  89.8110033  84.4917141
  52.2129530  86.1214205  81.0500833  52.2627535  85.9564213  81.9916355
  52.1043453  85.2541464  80.6598713  41.0965789  88.8002751  68.3392922
  41.2453909  89.4838215  67.6859594  41.9032232  88.7807841  68.8542377
  49.5033292  82.1045133  82.3660139  50.4043155  81.9651598  82.0744137
  49.5781267  82.2699588  83.3058317  53.7147727  88.5411147  81.2942854
  53.4232535  88.9041127  82.1306315  53.1019858  87.8278155  81.1156186
  51.9634915  83.6643761  79.7622912  52.4389036  83.8571408  78.9541764
  51.0400480  83.7202947  79.5166296  38.8518421  84.8267929  69.3453990
  38.6064463  83.9230259  69.5434201  39.0214336  84.8285079  68.4033468
  44.5961194  91.2950881  65.8104669  44.0235161  91.9141069  65.3575141
  45.1693988  91.8450243  66.3444591  47.8158454  91.5788032  66.9413251
  48.7489127  91.5133593  67.1446127  47.7281667  92.4144298  66.4827784
  50.4446470  90.8953902  63.9017199  50.3660102  90.5613765  64.7952957
  51.2656137  91.3875670  63.9008671  44.8646685  86.6829440  84.6121378
  45.7849695  86.8608039  84.8061425  44.8296268  85.7385486  84.4601078
  34.0828850  81.8768034  73.5374653  33.7631634  81.0233342  73.2449027
  33.5362278  82.0916612  74.2932620  37.8608758  84.5930475  77.2544160
  38.0794767  85.5247583  77.2732193  38.2734531  84.2338449  78.0398963
  42.7336623  80.1663681  86.6446909  42.6333350  81.1158038  86.5759000
  42.5158165  79.8381920  85.7722979  33.9517110  85.4970945  75.5067775
  33.2580582  85.0824898  74.9937729  34.6990101  85.5391482  74.9101194
  42.5967893  83.5960820  85.4611970  42.1134975  84.3961180  85.6675859
  42.6828832  83.6068764  84.5079414  35.8653853  85.4289199  73.3833790
  35.8424541  85.5276886  72.4315673  36.1754489  86.2754350  73.7050956
  38.5241230  87.4865354  77.4980404  39.4784484  87.4549297  77.4310336
  38.3253754  87.0255978  78.3130630  39.1140613  86.0566470  80.0651202
  39.9333502  86.5510549  80.0886039  39.3877420  85.1398438  80.0368769
  36.8791459  93.0284974  74.5150602  36.7445927  92.2685375  73.9488600
  36.4623522  93.7525874  74.0479391  48.0150422  88.2121897  63.5227177
  48.7186272  88.4171900  64.1384833  47.2913071  88.7798659  63.7876261
  40.0360585  93.9254291  74.7269044  39.9192969  94.8699723  74.6247735
  39.2153031  93.6227852  75.1154844  49.9237120  88.6504426  65.5725637
  50.7582724  88.2185625  65.3903112  49.7621463  88.4786440  66.5002532
  49.5783012  85.1536540  66.9381976  49.5231816  84.9880811  65.9970421
  48.9529067  85.8612573  67.0944166  34.3675527  80.3904604  80.7643399
  35.0134390  79.8803558  81.2530624  34.1592678  81.1273286  81.3386824
  46.8928919  87.4585452  86.2635539  47.7620079  87.6326104  85.9022174
  46.4135671  88.2779868  86.1411269  41.0615099  94.5782553  77.9424973
  41.9642346  94.6106163  78.2591468  40.8352469  93.6483004  77.9571309
  42.8168701  93.3313539  74.6035052  41.8664332  93.3315401  74.4899424
  43.1201187  92.5846274  74.0871086  58.5521395  99.1674078  75.6680814
  59.1899805  99.0480825  74.9644154  58.4342238 100.1154922  75.7268766
  55.3611101  99.1201506  75.6042339  55.0229613  99.0042570  74.7162873
  56.2300869  98.7192671  75.5843345  51.2197917 100.9736982  71.5939230
  50.6562782 100.8826919  70.8255517  51.1050312 100.1536887  72.0741722
  55.8430884 100.2736357  81.5628544  55.8319525  99.8789156  80.6909048
  56.0051524  99.5402430  82.1562316  48.7662349 102.4688174  74.4323450
  49.5583641 102.1278998  74.0169749  49.0058999 102.5783149  75.3525603
  56.7997475 104.6407950  66.9053694  56.1485455 105.2262030  66.5187708
  57.5941838 105.1714145  66.9648732  50.7253103 101.7297087  67.3040829
  51.4983979 101.1826074  67.1653705  51.0778501 102.5941336  67.5155290
  52.5638145 103.0573469  80.5107728  52.2728011 103.9619100  80.3954394
  53.1995130 103.0989997  81.2251798  53.4894352 100.4350318  77.1009088
  54.0857924 100.2106340  76.3866051  53.5469324  99.6935063  77.7034536
  53.0619380  97.8889753  64.9359279  53.3144901  97.3671274  64.1742742
  52.1243940  97.7255899  65.0385962  58.1062663  96.8925531  72.7434022
  58.8925752  96.4744955  72.3924439  58.3701368  97.7971624  72.9115670
  58.2772741 102.3298382  67.4422679  57.6418574 102.4033008  68.1543583
  57.9470147 102.9191981  66.7641758  63.5071090  96.8300765  73.6467000
  64.2396262  96.2599981  73.8804830  62.7510446  96.4422365  74.0873506
  52.7815669  99.7917859  67.1383654  52.6651927  99.1162762  67.8064738
  52.8917929  99.3050233  66.3215807  55.1247210  99.2528006  70.8430343
  54.7605417  98.7258627  71.5543264  55.9814326  98.8626475  70.6696828
  61.0296511  90.5422339  78.1061609  60.6979836  91.4117750  77.8822824
  60.4342124  90.2258623  78.7855639  54.7652697  94.2817906  65.8391691
  54.9327099  95.1498142  66.2062162  54.5749866  94.4445188  64.9152981
  57.5228030 102.7434885  77.5057522  57.2228753 103.6459924  77.3973329
  57.1779090 102.4767068  78.3578675  50.9740512  99.1948682  73.5394226
  50.0491008  99.0624896  73.7471918  51.2224925  99.9742901  74.0364169
  60.9225174  95.2617425  75.1854959  60.0142051  95.1932833  74.8913720
  60.8712770  95.7389370  76.0136785  54.7441918  96.7375563  66.8238358
  54.6241543  97.1832614  67.6623839  54.0494506  97.0860881  66.2651896
  48.3349323  98.8381955  74.3738015  48.4641704  99.0916434  75.2877427
  47.6546774  99.4309663  74.0542670  52.5048810 109.5079205  70.4728490
  52.4272840 110.4587030  70.5516970  51.9010454 109.1625078  71.1303416
  54.9966040  96.6807070  83.1289856  54.2199374  97.2400991  83.1192721
  55.6356603  97.1663853  83.6504727  62.7886820  93.4633863  76.9632833
  62.1461201  93.7566396  76.3172628  62.2841749  93.3486784  77.7686030
  60.4426984  97.2097037  67.6518692  61.3544840  97.4424423  67.4766390
  59.9336631  97.7934081  67.0893771  53.2512412  99.4892524  82.6907823
  53.9927097 100.0277568  82.4142647  52.5449398 100.1158813  82.8479375
  58.7267752 101.6321664  81.2879985  59.1351108 101.1904075  80.5434617
  58.0045013 101.0574292  81.5414178  55.0798822  96.5694271  78.6613542
  55.9260017  96.9933685  78.8048191  55.0197460  95.9127895  79.3552105
  59.0496566 102.1922855  75.0432274  58.4205429 102.3568569  74.3408342
  58.6622229 102.6064465  75.8143238  62.9285798 103.1277293  72.3976638
  62.2436836 103.5076194  71.8473671  63.0129648 103.7372619  73.1308585
  58.2298267  94.2298639  80.3194715  57.9859199  94.9840700  79.7828991
  58.5058198  94.6083987  81.1541963  60.1836730 100.7737252  78.9971981
  60.3953625 101.4169012  78.3206362  60.1366478  99.9399568  78.5293911
  57.7862959  93.3855072  75.9008553  56.9247438  93.6836326  76.1925291
  57.8125394  93.6025471  74.9689586  54.6024528 101.9297263  72.3082359
  55.0662874 102.2084966  71.5186981  54.3381326 101.0280708  72.1255450
  51.4948609 101.4768745  75.2462122  52.0649966 101.9056013  74.6079607
  52.0856721 101.1951329  75.9446308  53.5393414  98.0520415  69.1171924
  54.2417458  98.5041459  69.5845850  53.2074043  97.4104234  69.7451817
  51.9873776  96.6432172  83.4923133  51.3572436  97.3248453  83.7258530
  51.8809864  96.5315254  82.5476272  47.2818748  96.3103968  74.4189058
  46.4917802  96.5661497  73.9429168  47.7729996  97.1252306  74.5241098
  61.2982558 103.6509207  77.1694338  62.1200002 103.2489395  76.8877020
  61.2944961 103.5477441  78.1210454  49.2333494  96.6748547  71.3772534
  48.4364657  96.7867242  71.8956030  49.0059086  97.0135200  70.5113425
  55.0639161 103.1993251  79.3255049  55.1283594 103.6613658  80.1613221
  54.3550085 102.5690615  79.4537359  45.5656451  96.5634459  76.8504048
  45.8164490  97.4481468  77.1161624  46.1016000  96.3839060  76.0779140
  69.3888551  99.9947956  73.5179310  68.6352259  99.4255354  73.3623314
  69.5236092  99.9610620  74.4649945  54.7787179 104.8661358  69.1934029
  54.6432854 105.7112894  69.6218877  55.3196991 105.0680636  68.4299963
  51.2654519  90.9452938  85.8548384  50.8721464  90.3919136  86.5296029
  52.0820659  91.2563516  86.2454902  48.2316576 102.3836796  69.7661954
  48.7441097 103.1780046  69.9167519  48.8839289 101.6863087  69.6995556
  50.0411461 105.5002552  71.8484708  50.2178089 106.4220517  71.6605691
  50.8368295 105.1860972  72.2779087  54.1822480  92.3610817  83.4468641
  54.9232193  92.9617970  83.3673103  54.4140402  91.6188455  82.8886684
  49.3263818  97.5467184  81.7246871  49.2117333  96.6452441  82.0253970
  48.4708335  97.7930881  81.3731687  56.4055655 105.4884925  83.3234371
  55.9619510 104.7021303  83.0055276  57.0672869 105.6764075  82.6578262
  51.1642777 107.0180726  77.8495050  51.7150202 106.8897789  77.0772044
  50.3254252 107.3175615  77.4989943  58.5036893 105.7687724  81.3515773
  58.4855369 106.5896606  80.8596042  59.4256813 105.6441800  81.5765914
  54.9609948 103.2831854  82.1939281  55.4938284 102.5220142  81.9638589
  54.4324029 102.9905506  82.9363435  46.1965493 100.7125450  70.5421525
  47.0340715 101.1222459  70.3255233  46.3743761  99.7724893  70.5121719
  58.0929925  98.3800531  66.2305358  57.5776549  99.1505136  66.4693745
  57.8207234  97.7065667  66.8538419  55.6777036  93.2250232  71.2890596
  54.8218633  92.8357082  71.1096235  56.0903988  93.3042193  70.4290382
  57.2076183  90.7596575  75.6882156  56.7040979  90.7226710  74.8749961
  57.5006790  91.6689318  75.7478813  53.4519069  90.8435305  74.6948338
  54.3172066  90.6478113  74.3354227  53.5196578  90.6145657  75.6217694
  63.0664199 101.1332886  68.1658531  62.2893642 100.7944045  67.7213693
  63.7455680 101.1385509  67.4913496  57.8816228  96.2527623  68.0565139
  57.5766364  96.5673772  68.9075282  58.8346671  96.3309043  68.0992472
  56.3262660 102.4117846  69.7058093  55.7984022 101.6770606  69.3931330
  55.8250163 103.1892523  69.4598061  61.3055506 100.6066867  74.8225139
  60.6479181 101.2966128  74.9105268  62.1095906 100.9963299  75.1659126
  51.0581388  93.0737513  72.0664704  51.6325140  92.8512694  71.3337897
  51.6452370  93.1426207  72.8193306  60.1160965  98.9611240  72.8729081
  60.6292847  99.5941231  73.3750791  60.7662189  98.3612435  72.5072441
  51.3850975  95.1041974  66.0860590  50.5488287  95.4416660  66.4069864
  51.2455745  94.9690954  65.1487727  53.3604056  89.9478762  70.7939774
  52.7068468  89.6327779  70.1696389  53.3184530  89.3254502  71.5199597
  54.4715260 100.2298057  62.7093066  53.5642322  99.9987310  62.9084215
  54.9686292  99.4335676  62.8967048  57.3783339 108.9395564  65.6289752
  56.7045038 109.2427261  66.2374710  57.7649161 109.7424644  65.2795209
  56.5941796  96.4360695  75.1187422  55.6764357  96.6575642  74.9609110
  57.0101940  96.5107006  74.2599129  57.3776844  97.8352111  70.2490102
  58.1248663  98.3473508  69.9397224  57.6468433  97.5136164  71.1094495
  55.6503494 100.3310652  67.2317056  54.7414713 100.0469684  67.3289526
  55.6798578 100.7509730  66.3720363  60.8822761 103.9417241  71.0008224
  60.4285088 103.1008151  71.0573414  60.2516728 104.5778639  71.3383004
  59.8255681  94.8709227  72.2308891  59.0878438  94.3586613  72.5619134
  60.0782454  94.4309609  71.4192168  59.3255701 105.7793738  71.9358042
  59.6178675 106.3398795  71.2170407  59.8354321 106.0722299  72.6911201
  46.2191664  98.0516166  71.2132258  46.0216064  97.4585526  70.4883325
  45.6638328  97.7468376  71.9308197  54.1988388  97.9439272  73.3326851
  54.2536998  96.9913109  73.2569328  53.3879590  98.0998711  73.8168150
  55.3479582 101.8719395  64.5705135  54.9099012 101.1555254  64.1110772
  56.0890023 102.0995510  64.0090226  52.1380748  96.5616332  71.0917230
  51.3248613  96.8610502  71.4982422  52.6339742  96.1672021  71.8091713
  54.2889326 106.5574089  73.0251495  54.2465505 106.7834935  72.0960027
  55.2052025 106.3237463  73.1737296  57.7354960  97.0258156  79.9232124
  58.0904347  97.2529630  80.7826590  58.3827091  97.3576533  79.3009380
  63.4652697 100.1476592  70.6281453  63.3270595 100.3378188  69.7002642
  63.1088915 100.9095975  71.0849504  51.6294823  94.1334687  76.7078465
  52.2694202  93.9923447  76.0101429  50.7972353  93.8469201  76.3317067
  63.4922076 102.2153119  75.6392725  63.9258583 102.1228408  76.4875779
  64.2053657 102.1910620  75.0012741  52.4055127 103.4337118  72.8213458
  53.1995725 102.9387438  72.6196033  51.6946819 102.9054981  72.4581163
  57.2249971 105.8155213  77.1725825  57.2786993 106.3846150  77.9403541
  56.3564752 105.9857098  76.8079862  48.7137890  97.5780200  68.8973210
  47.7835478  97.5164655  69.1143173  48.8095362  97.0556152  68.1009852
  48.6323439  94.1035012  71.4851452  48.8930256  95.0180346  71.3760613
  49.4540611  93.6359455  71.6348065  50.1048364  95.5172770  78.6550277
  50.7771418  95.3090132  78.0062926  49.2778151  95.3194856  78.2155509
  64.3537626 102.2576820  78.1725610  64.5473516 103.1622630  78.4184885
  64.2538244 101.7984239  79.0064195  56.0073936  92.1434711  80.6715937
  55.3601851  92.8424660  80.5780414  56.7774952  92.5770854  81.0392186
  59.4152734 102.4083563  83.7466491  59.2638241 102.1794114  82.8296574
  59.4057414 103.3654164  83.7597836  56.1838071  99.9815475  78.7312757
  57.1130131 100.1326635  78.5581725  55.7629101 100.0699496  77.8761404
  54.9826403 104.0066140  76.5011295  54.8437488 103.6384924  77.3737233
  54.1940999 104.5213779  76.3295253  55.5774555 109.1075236  67.8436831
  55.7526310 108.6363279  68.6582454  54.8907343 109.7341003  68.0718092
  56.5331618 103.3847743  73.8900133  56.1981450 103.3448513  74.7857782
  56.0335563 102.7192458  73.4170543  50.5075862  98.7915373  79.4152714
  50.3695660  98.0595611  80.0164253  51.4180785  98.7024273  79.1336902
  59.4690809 100.7303777  64.1637192  58.8519980 100.0050605  64.0670245
  59.0007298 101.4913137  63.8204267  53.1358162  98.5035332  78.9036393
  53.8457781  97.8628524  78.8623012  53.0927470  98.7548227  79.8262574
  61.1244941 105.4402685  81.8242973  61.0657487 104.7561905  81.1573556
  61.5264459 106.1821675  81.3723599  51.8487096  95.4900550  80.7232033
  51.3124453  95.0391288  81.3753629  51.2603805  95.6246459  79.9802497
  50.1435640 112.2564599  74.6176692  50.3832238 112.8883123  75.2955710
  49.3004836 111.9052639  74.9042051  51.2589355  94.9489201  63.2858497
  50.3818822  94.8278002  62.9220743  51.7347108  94.1575279  63.0337385
  61.1262348 103.4042269  80.0556952  60.2389127 103.0668191  80.1783351
  61.6960899 102.6725300  80.2925718  42.7791495  99.7366361  73.3800004
  43.4662535  99.4228091  72.7921019  42.6239624 100.6407726  73.1067255
  47.5826218  94.6256557  77.8085027  47.4984406  94.0182227  77.0735437
  46.7608924  95.1165576  77.8094524  54.6563502 108.0643722  77.0218196
  54.5833673 108.8698693  77.5337500  54.2140895 108.2635687  76.1966217
  54.4453281 107.3015492  70.5321017  53.6620803 107.8437172  70.6259242
  55.1446026 107.8189471  70.9315258  57.7549931  93.1110121  73.1755222
  58.2518631  92.3580083  72.8556293  56.9836913  93.1474438  72.6098432
  65.6079689  98.8150487  74.8173514  65.5969565  99.6975202  74.4467447
  64.7397068  98.4622037  74.6228051  57.1162185 107.9630556  79.1776354
  57.8290157 108.5978020  79.1052256  56.6252214 108.0594422  78.3616356
  58.8379712 101.8681808  70.7493646  57.9035991 101.9883271  70.5798350
  59.0156381 100.9654275  70.4853656  54.3384900  95.2527504  72.9026907
  53.9682688  94.6998544  73.5907813  54.8343993  94.6485637  72.3501907
  62.2252263  97.7099128  71.2843680  62.6912716  98.5427119  71.2103983
  62.6759764  97.2444109  71.9888938  52.1674099 105.7124999  79.9981925
  52.8683558 106.3461482  80.1511319  51.6969214 106.0539731  79.2377564
  60.2928495 104.0542949  68.2829832  60.5688338 103.9399543  69.1923706
  59.4232993 103.6560434  68.2442005  60.1968926  90.0779714  75.3234581
  59.2832006  90.3083941  75.4916788  60.6262028  90.1618159  76.1748614
  59.9675385  98.2669606  77.8234475  59.3146835  98.5145514  77.1686928
  60.3455765  97.4533745  77.4896953  56.9282559 108.3029300  71.9262646
  57.1104953 107.4850956  72.3890398  57.7515545 108.5196992  71.4887536
  57.2624724 107.2297485  69.1877694  57.7912490 106.7189939  68.5747856
  57.5252944 106.9140015  70.0523227  56.0162958  99.0089418  84.3100512
  55.3403595  98.9083547  84.9802888  56.8390592  98.8528631  84.7736510
  47.7641817 105.2461354  76.9313028  48.3495254 104.5005042  77.0640932
  47.5666655 105.5565311  77.8149692  50.6180472 108.2812601  71.9475470
  49.9490847 108.7658729  71.4639510  50.4793342 108.5281822  72.8618849
  42.3559472  97.8166954  75.6517471  42.3943571  97.2830545  76.4454589
  41.8499764  97.2902160  75.0328448  54.7585741 110.3156345  78.5458128
  55.3104049 110.4787966  79.3107214  55.0991934 110.9060783  77.8738153
  49.7350234  92.6631495  79.1480013  49.7991560  93.5246326  78.7357411
  49.6717354  92.0505496  78.4152372  49.2102506  94.7354627  82.7953047
  49.8374545  94.3531705  83.4090572  48.3530425  94.5168829  83.1608740
  59.6096615 105.1417602  84.4006783  60.1536519 105.7547561  83.9061738
  59.0283460 105.6997181  84.9173796  45.9868049  96.5431056  68.7271402
  46.2821490  95.6341735  68.6738456  45.0856085  96.5218796  68.4052405
  57.8954128 108.2638320  75.5321811  57.7705267 107.4628060  75.0232756
  58.5533219 108.7584514  75.0435781  49.5162296  94.6187053  74.7098951
  48.7948882  95.2323021  74.5706424  50.3055552  95.1544818  74.6315597
  59.9589036 106.0647341  77.1601361  59.0119372 105.9452692  77.0879687
  60.3071809 105.1769839  77.2427622  52.3188610  91.9541479  80.9839603
  52.8423011  92.2003776  81.7465912  52.1000943  92.7861514  80.5642740
  47.7155891  94.2245154  68.8510727  47.3868597  93.3442533  68.6685833
  48.0695261  94.1692823  69.7387117  56.9635470 105.8600057  73.3605713
  56.8160432 104.9316764  73.5413283  57.7888963 105.8820148  72.8762788
  50.8297714  94.5118124  69.2186205  51.1693786  95.0404045  68.4964813
  51.2769834  94.8498530  69.9944772  60.5669591 106.6828616  74.4470586
  61.4916139 106.4771477  74.3095037  60.3984895 106.4345017  75.3559927
  53.5241155  92.8955175  78.6689273  53.1837975  92.0962988  79.0709953
  52.8180161  93.1956885  78.0966106  54.1757626  89.9804487  77.1216596
  54.9983696  89.5064965  76.9995486  54.4195690  90.7594971  77.6215282
  52.8165861  93.0092745  67.4179498  53.5374223  93.3873998  66.9143215
  52.1931165  93.7281622  67.5214476  56.9596984  93.7137894  68.3537830
  57.1760598  94.5962532  68.0526658  56.4791051  93.3224108  67.6243472
  51.6996205  96.6723608  74.9308575  51.5540786  96.9863911  75.8232856
  51.2221409  97.2908508  74.3779473  53.5592588  93.6626156  74.9789464
  53.5454157  92.7667249  74.6421762  54.2765016  93.6696819  75.6127750
  55.4118719  94.0963496  77.0242592  55.1536497  95.0180567  77.0226922
  54.8803759  93.6993930  77.7143056  60.3564908 107.2014283  69.8032677
  60.5301785 106.6360705  69.0506530  60.8493799 108.0015178  69.6212167
  46.1741867  99.2128952  77.8696236  45.6295335  99.9888760  78.0016510
  47.0521217  99.5599757  77.7115357  52.9629484  92.5440536  70.2477034
  53.0845395  91.6157182  70.4467922  52.6731526  92.5579222  69.3355350
  55.8320674  90.2295446  73.3843754  55.8542371  90.2934779  72.4295734
  56.2488733  89.3899955  73.5784260  66.2104299  99.9650706  71.4222977
  66.6535445  99.2158031  71.0242100  65.3330809  99.9560842  71.0396709
  61.3440080 106.5181047  66.9029575  62.0390985 107.1387740  67.1216890
  61.6863230 105.6676399  67.1781953  46.9607889  98.3398848  80.7626393
  46.2189625  98.4881484  81.3491023  46.6400634  98.6007114  79.8993142
  63.2431503 103.9680753  68.4316906  63.7682827 104.3068026  67.7066226
  63.1553856 103.0327768  68.2480041  54.9051552 107.8814827  80.5606783
  55.2138678 107.6363973  81.4329482  55.7027034 108.0861465  80.0725653
  54.9272164 110.0352736  72.7912159  54.4877154 109.5429115  73.4845016
  55.6780281 109.4925704  72.5504235  47.4064503 106.2264277  72.7936787
  48.2322523 105.9268049  72.4135431  47.0558555 105.4571899  73.2426576
  52.3746036 105.5790745  74.8634461  51.7526045 104.9161450  74.5636689
  53.0450903 105.6051877  74.1808109  45.6073108 104.1450604  73.7525721
  44.7705016 103.7172778  73.5709722  45.5796753 104.3383047  74.6896512
  52.4470564  94.0572533  84.4566967  52.4958719  94.9334656  84.0744737
  52.9893078  93.5149926  83.8838610  62.9325409 104.6013657  83.7368104
  62.1420953 104.5837795  83.1972604  62.6958764 105.1401950  84.4917141
  63.0523284 101.4506123  81.0500833  63.1021289 101.2856130  81.9916355
  62.9437208 100.5833382  80.6598713  51.9359543 104.1294669  68.3392922
  52.0847663 104.8130133  67.6859594  52.7425986 104.1099759  68.8542377
  60.3427047  97.4337051  82.3660139  61.2436909  97.2943516  82.0744137
  60.4175021  97.5991506  83.3058317  54.6769852  94.8103906  81.2113326
  53.8073161  95.1037472  80.9395914  54.9129332  95.3944351  81.9320589
  64.5541481 103.8703064  81.2942854  64.2626289 104.2333045  82.1306315
  63.9413612 103.1570073  81.1156186  65.7537163 101.4355944  73.8145424
  66.5884055 101.8745748  73.9782985  65.8896292 100.9594597  72.9953670
  62.8028669  98.9935679  79.7622912  63.2782791  99.1863325  78.9541764
  61.8794235  99.0494865  79.5166296  49.6912176 100.1559846  69.3453990
  49.4458218  99.2522176  69.5434201  49.8608091 100.1576997  68.4033468
  57.3808886  91.0283523  78.7278746  57.8990830  91.7644550  78.4025235
  57.0264019  91.3347516  79.5625505  48.9607824  95.8888204  66.8440152
  48.2677068  95.9632559  66.1880188  48.7159575  95.1248547  67.3661669
  55.4354949 106.6242799  65.8104669  54.8628916 107.2432986  65.3575141
  56.0087742 107.1742161  66.3444591  61.5030338  95.8701439  77.9951218
  62.4547761  95.9699537  78.0163442  61.3333789  95.0779708  78.5049302
  59.5244718  92.9557022  78.1810619  58.9294650  93.2362035  77.4857107
  59.2394415  93.4450923  78.9527360  58.6552208 106.9079949  66.9413251
  59.5882881 106.8425511  67.1446127  58.5675421 107.7436216  66.4827784
  61.2840225 106.2245820  63.9017199  61.2053857 105.8905683  64.7952957
  62.1049892 106.7167587  63.9008671  63.9818416  99.0907559  77.1093517
  63.9494736  98.1523560  77.2953201  64.5919040  99.1691596  76.3759342
  55.8201747  97.9603612  63.1520721  56.7660852  97.8309820  63.2209139
  55.4415992  97.2218274  63.6290150  64.1312905  95.8818602  77.1551801
  63.6151953  95.0977059  76.9681729  65.0152853  95.5537319  77.3198320
  69.7994966 100.1523566  76.2499554  70.5298354  99.8908854  76.8107258
  69.1901911  99.4152288  76.2901622  67.8810263  98.2931428  76.8474005
  67.1543427  98.1587393  76.2390497  67.4657550  98.6008257  77.6530723
  55.7040440 102.0121358  84.6121378  56.6243449 102.1899957  84.8061425
  55.6690023 101.0677403  84.4601078  54.0044664  95.8853588  63.0875607
  53.0976120  95.5886701  63.1638320  54.2820645  95.5883406  62.2209893
  44.9222605  97.2059952  73.5374653  44.6025389  96.3525260  73.2449027
  44.3756033  97.4208530  74.2932620  48.7002512  99.9222393  77.2544160
  48.9188522 100.8539500  77.2732193  49.1128286  99.5630367  78.0398963
  53.5730377  95.4955598  86.6446909  53.4727104  96.4449955  86.5759000
  53.3551919  95.1673837  85.7722979  52.7743449  92.7440523  63.2287586
  53.6362613  93.0695422  63.4883403  52.9593793  91.9572019  62.7160652
  44.7910865 100.8262863  75.5067775  44.0974336 100.4116816  74.9937729
  45.5383856 100.8683400  74.9101194  60.9276085  91.6169050  70.3722809
  60.3474754  92.2753854  69.9900861  60.6612018  90.7946394  69.9610226
  59.3779652  91.0174108  72.5744129  59.8779430  91.1290642  71.7658448
  60.0215260  90.7135160  73.2144938  53.4361647  98.9252737  85.4611970
  52.9528729  99.7253097  85.6675859  53.5222587  98.9360682  84.5079414
  46.7047607 100.7581117  73.3833790  46.6818295 100.8568804  72.4315673
  47.0148244 101.6046268  73.7050956  49.3634985 102.8157272  77.4980404
  50.3178239 102.7841214  77.4310336  49.1647509 102.3547896  78.3130630
  49.9534367 101.3858388  80.0651202  50.7727256 101.8802467  80.0886039
  50.2271175 100.4690356  80.0368769  59.7100963  93.7769140  69.4279157
  58.8226818  94.0618791  69.2099352  60.1254952  93.6162904  68.5806434
  63.0615499  93.8015661  73.1433496  63.8375890  94.2912114  73.4158113
  62.3363634  94.2273715  73.6005366  65.4988058  94.5143280  74.2007437
  66.0932549  94.2739016  73.4900745  65.5714642  93.7950411  74.8280973
  47.7185214 108.3576891  74.5150602  47.5839682 107.5977292  73.9488600
  47.3017276 109.0817791  74.0479391  58.8544177 103.5413815  63.5227177
  59.5580027 103.7463817  64.1384833  58.1306826 104.1090577  63.7876261
  59.6841987  99.2923676  69.6429447  59.6277188  99.7492228  68.8037080
  60.2370330  98.5314361  69.4652290  63.4946793  95.0813408  70.4679567
  63.2383727  94.6810044  71.2987774  62.8699661  95.7957202  70.3429706
  67.8059131  97.8209481  72.9750858  67.2458689  97.8902671  73.7482420
  67.2002634  97.6450466  72.2550354  50.8754340 109.2546208  74.7269044
  50.7586724 110.1991641  74.6247735  50.0546786 108.9519770  75.1154844
  60.7630874 103.9796344  65.5725637  61.5976478 103.5477543  65.3903112
  60.6015217 103.8078358  66.5002532  60.4176766 100.4828457  66.9381976
  60.3625570 100.3172729  65.9970421  59.7922822 101.1904490  67.0944166
  45.2069281  95.7196522  80.7643399  45.8528145  95.2095476  81.2530624
  44.9986432  96.4565203  81.3386824  57.7322674 102.7877369  86.2635539
  58.6013833 102.9618022  85.9022174  57.2529425 103.6071786  86.1411269
  51.9008854 109.9074470  77.9424973  52.8036100 109.9398081  78.2591468
  51.6746224 108.9774921  77.9571309  53.6562456 108.6605457  74.6035052
  52.7058087 108.6607318  74.4899424  53.9594942 107.9138191  74.0871086
  49.5466772  92.8664139  84.8618413  50.4098234  92.5100944  85.0721738
  48.9732183  92.5278034  85.5493817  69.3915149 114.4965995  75.6680814
  70.0293559 114.3772743  74.9644154  69.2735992 115.4446839  75.7268766
  66.2004856 114.4493423  75.6042339  65.8623367 114.3334488  74.7162873
  67.0694624 114.0484588  75.5843345  62.0591671 116.3028900  71.5939230
  61.4956536 116.2118837  70.8255517  61.9444066 115.4828804  72.0741722
  66.6824639 115.6028275  81.5628544  66.6713279 115.2081073  80.6909048
  66.8445278 114.8694348  82.1562316  59.6056103 117.7980091  74.4323450
  60.3977395 117.4570916  74.0169749  59.8452753 117.9075066  75.3525603
  67.6391230 119.9699867  66.9053694  66.9879210 120.5553948  66.5187708
  68.4335593 120.5006062  66.9648732  61.5646857 117.0589005  67.3040829
  62.3377733 116.5117992  67.1653705  61.9172256 117.9233254  67.5155290
  63.4031900 118.3865387  80.5107728  63.1121766 119.2911018  80.3954394
  64.0388884 118.4281914  81.2251798  64.3288107 115.7642235  77.1009088
  64.9251679 115.5398258  76.3866051  64.3863078 115.0226981  77.7034536
  63.9013135 113.2181671  64.9359279  64.1538656 112.6963192  64.1742742
  62.9637694 113.0547816  65.0385962  68.9456418 112.2217449  72.7434022
  69.7319507 111.8036872  72.3924439  69.2095122 113.1263541  72.9115670
  69.1166495 117.6590299  67.4422679  68.4812328 117.7324926  68.1543583
  68.7863902 118.2483898  66.7641758  74.3464845 112.1592682  73.6467000
  75.0790017 111.5891899  73.8804830  73.5904201 111.7714283  74.0873506
  63.6209424 115.1209777  67.1383654  63.5045682 114.4454680  67.8064738
  63.7311684 114.6342151  66.3215807  65.9640965 114.5819924  70.8430343
  65.5999172 114.0550545  71.5543264  66.8208081 114.1918393  70.6696828
  71.8690265 105.8714256  78.1061609  71.5373590 106.7409667  77.8822824
  71.2735879 105.5550540  78.7855639  65.6046452 109.6109823  65.8391691
  65.7720854 110.4790060  66.2062162  65.4143621 109.7737105  64.9152981
  68.3621785 118.0726802  77.5057522  68.0622508 118.9751841  77.3973329
  68.0172844 117.8058986  78.3578675  61.8134266 114.5240599  73.5394226
  60.8884763 114.3916813  73.7471918  62.0618679 115.3034818  74.0364169
  71.7618929 110.5909343  75.1854959  70.8535806 110.5224751  74.8913720
  71.7106524 111.0681288  76.0136785  65.5835672 112.0667481  66.8238358
  65.4635298 112.5124532  67.6623839  64.8888261 112.4152799  66.2651896
  59.1743077 114.1673873  74.3738015  59.3035458 114.4208352  75.2877427
  58.4940529 114.7601581  74.0542670  63.3442565 124.8371123  70.4728490
  63.2666594 125.7878948  70.5516970  62.7404208 124.4916995  71.1303416
  65.8359794 112.0098988  83.1289856  65.0593128 112.5692908  83.1192721
  66.4750357 112.4955771  83.6504727  73.6280575 108.7925781  76.9632833
  72.9854955 109.0858314  76.3172628  73.1235503 108.6778701  77.7686030
  71.2820739 112.5388954  67.6518692  72.1938595 112.7716341  67.4766390
  70.7730386 113.1225998  67.0893771  64.0906167 114.8184442  82.6907823
  64.8320851 115.3569486  82.4142647  63.3843152 115.4450730  82.8479375
  69.5661506 116.9613582  81.2879985  69.9744862 116.5195993  80.5434617
  68.8438768 116.3866210  81.5414178  65.9192576 111.8986189  78.6613542
  66.7653772 112.3225602  78.8048191  65.8591214 111.2419813  79.3552105
  69.8890321 117.5214773  75.0432274  69.2599183 117.6860487  74.3408342
  69.5015983 117.9356382  75.8143238  73.7679553 118.4569210  72.3976638
  73.0830591 118.8368112  71.8473671  73.8523402 119.0664537  73.1308585
  69.0692022 109.5590557  80.3194715  68.8252954 110.3132618  79.7828991
  69.3451952 109.9375905  81.1541963  71.0230484 116.1029169  78.9971981
  71.2347380 116.7460929  78.3206362  70.9760233 115.2691486  78.5293911
  68.6256713 108.7146990  75.9008553  67.7641192 109.0128244  76.1925291
  68.6519148 108.9317389  74.9689586  65.4418283 117.2589181  72.3082359
  65.9056628 117.5376884  71.5186981  65.1775081 116.3572625  72.1255450
  62.3342364 116.8060662  75.2462122  62.9043721 117.2347931  74.6079607
  62.9250476 116.5243247  75.9446308  64.3787169 113.3812333  69.1171924
  65.0811212 113.8333377  69.5845850  64.0467797 112.7396152  69.7451817
  62.8267530 111.9724090  83.4923133  62.1966191 112.6540371  83.7258530
  62.7203618 111.8607171  82.5476272  58.1212503 111.6395886  74.4189058
  57.3311557 111.8953414  73.9429168  58.6123750 112.4544224  74.5241098
  72.1376312 118.9801125  77.1694338  72.9593756 118.5781312  76.8877020
  72.1338715 118.8769359  78.1210454  60.0727248 112.0040465  71.3772534
  59.2758411 112.1159159  71.8956030  59.8452840 112.3427117  70.5113425
  65.9032916 118.5285168  79.3255049  65.9677348 118.9905575  80.1613221
  65.1943840 117.8982533  79.4537359  56.4050206 111.8926376  76.8504048
  56.6558244 112.7773386  77.1161624  56.9409754 111.7130978  76.0779140
  80.2282305 115.3239873  73.5179310  79.4746014 114.7547271  73.3623314
  80.3629847 115.2902538  74.4649945  65.6180933 120.1953276  69.1934029
  65.4826608 121.0404811  69.6218877  66.1590746 120.3972553  68.4299963
  62.1048273 106.2744856  85.8548384  61.7115219 105.7211054  86.5296029
  62.9214413 106.5855434  86.2454902  59.0710331 117.7128714  69.7661954
  59.5834851 118.5071964  69.9167519  59.7233044 117.0155004  69.6995556
  60.8805216 120.8294470  71.8484708  61.0571844 121.7512435  71.6605691
  61.6762049 120.5152889  72.2779087  65.0216234 107.6902735  83.4468641
  65.7625947 108.2909888  83.3673103  65.2534157 106.9480372  82.8886684
  60.1657572 112.8759102  81.7246871  60.0511087 111.9744359  82.0253970
  59.3102090 113.1222799  81.3731687  67.2449410 120.8176842  83.3234371
  66.8013264 120.0313221  83.0055276  67.9066623 121.0055993  82.6578262
  62.0036531 122.3472644  77.8495050  62.5543956 122.2189707  77.0772044
  61.1648007 122.6467533  77.4989943  69.3430648 121.0979642  81.3515773
  69.3249123 121.9188523  80.8596042  70.2650568 120.9733717  81.5765914
  65.8003702 118.6123772  82.1939281  66.3332039 117.8512060  81.9638589
  65.2717783 118.3197423  82.9363435  68.9673397 103.7183838  77.7232923
  68.6237666 104.6085479  77.6472033  69.3352360 103.5285495  76.8602508
  57.0359248 116.0417368  70.5421525  57.8734470 116.4514376  70.3255233
  57.2137515 115.1016810  70.5121719  68.9323680 113.7092449  66.2305358
  68.4170303 114.4797053  66.4693745  68.6600988 113.0357585  66.8538419
  66.5170791 108.5542149  71.2890596  65.6612387 108.1649000  71.1096235
  66.9297743 108.6334110  70.4290382  68.0469937 106.0888493  75.6882156
  67.5434733 106.0518628  74.8749961  68.3400544 106.9981235  75.7478813
  64.2912823 106.1727222  74.6948338  65.1565820 105.9770031  74.3354227
  64.3590332 105.9437574  75.6217694  73.9057954 116.4624803  68.1658531
  73.1287397 116.1235963  67.7213693  74.5849435 116.4677427  67.4913496
  68.7209983 111.5819541  68.0565139  68.4160119 111.8965690  68.9075282
  69.6740425 111.6600961  68.0992472  67.1656415 117.7409764  69.7058093
  66.6377776 117.0062524  69.3931330  66.6643918 118.5184440  69.4598061
  72.1449261 115.9358785  74.8225139  71.4872935 116.6258046  74.9105268
  72.9489660 116.3255217  75.1659126  61.8975142 108.4029430  72.0664704
  62.4718894 108.1804612  71.3337897  62.4846125 108.4718125  72.8193306
  70.9554720 114.2903157  72.8729081  71.4686601 114.9233149  73.3750791
  71.6055943 113.6904353  72.5072441  62.2244730 110.4333891  66.0860590
  61.3882042 110.7708578  66.4069864  62.0849499 110.2982871  65.1487727
  64.1997810 105.2770679  70.7939774  63.5462222 104.9619696  70.1696389
  64.1578284 104.6546420  71.5199597  65.3109015 115.5589974  62.7093066
  64.4036077 115.3279228  62.9084215  65.8080047 114.7627594  62.8967048
  68.2177094 124.2687482  65.6289752  67.5438793 124.5719178  66.2374710
  68.6042916 125.0716562  65.2795209  67.4335550 111.7652613  75.1187422
  66.5158112 111.9867560  74.9609110  67.8495694 111.8398923  74.2599129
  68.2170598 113.1644029  70.2490102  68.9642417 113.6765426  69.9397224
  68.4862188 112.8428081  71.1094495  66.4897248 115.6602569  67.2317056
  65.5808468 115.3761602  67.3289526  66.5192332 116.0801648  66.3720363
  71.7216516 119.2709159  71.0008224  71.2678843 118.4300069  71.0573414
  71.0910483 119.9070557  71.3383004  70.6649435 110.2001145  72.2308891
  69.9272192 109.6878531  72.5619134  70.9176209 109.7601526  71.4192168
  70.1649455 121.1085655  71.9358042  70.4572429 121.6690713  71.2170407
  70.6748076 121.4014216  72.6911201  70.7661063 102.9777397  72.8250660
  71.0719940 102.1174760  72.5376575  71.4913668 103.5695017  72.6249654
  57.0585419 113.3808083  71.2132258  56.8609819 112.7877444  70.4883325
  56.5032083 113.0760294  71.9308197  65.0382142 113.2731190  73.3326851
  65.0930752 112.3205026  73.2569328  64.2273344 113.4290629  73.8168150
  66.1873336 117.2011313  64.5705135  65.7492766 116.4847172  64.1110772
  66.9283777 117.4287428  64.0090226  62.9774502 111.8908250  71.0917230
  62.1642368 112.1902420  71.4982422  63.4733497 111.4963938  71.8091713
  65.1283080 121.8866007  73.0251495  65.0859259 122.1126853  72.0960027
  66.0445779 121.6529381  73.1737296  68.5748714 112.3550074  79.9232124
  68.9298102 112.5821547  80.7826590  69.2220845 112.6868451  79.3009380
  74.3046451 115.4768510  70.6281453  74.1664350 115.6670106  69.7002642
  73.9482670 116.2387893  71.0849504  62.4688577 109.4626605  76.7078465
  63.1087956 109.3215364  76.0101429  61.6366108 109.1761118  76.3317067
  74.3315831 117.5445037  75.6392725  74.7652337 117.4520326  76.4875779
  75.0447411 117.5202537  75.0012741  63.2448881 118.7629036  72.8213458
  64.0389480 118.2679356  72.6196033  62.5340573 118.2346899  72.4581163
  68.0643726 121.1447131  77.1725825  68.1180748 121.7138067  77.9403541
  67.1958507 121.3149016  76.8079862  59.5531644 112.9072117  68.8973210
  58.6229233 112.8456573  69.1143173  59.6489116 112.3848070  68.1009852
  59.4717194 109.4326930  71.4851452  59.7324011 110.3472263  71.3760613
  60.2934366 108.9651373  71.6348065  60.9442119 110.8464687  78.6550277
  61.6165172 110.6382049  78.0062926  60.1171905 110.6486773  78.2155509
  75.1931380 117.5868738  78.1725610  75.3867270 118.4914548  78.4184885
  75.0931998 117.1276157  79.0064195  66.8467691 107.4726628  80.6715937
  66.1995606 108.1716578  80.5780414  67.6168706 107.9062772  81.0392186
  70.2546489 117.7375480  83.7466491  70.1031995 117.5086032  82.8296574
  70.2451168 118.6946082  83.7597836  67.0231825 115.3107393  78.7312757
  67.9523885 115.4618553  78.5581725  66.6022855 115.3991414  77.8761404
  65.8220157 119.3358058  76.5011295  65.6831243 118.9676842  77.3737233
  65.0334753 119.8505697  76.3295253  66.4168309 124.4367154  67.8436831
  66.5920065 123.9655197  68.6582454  65.7301097 125.0632920  68.0718092
  67.3725372 118.7139660  73.8900133  67.0375205 118.6740430  74.7857782
  66.8729318 118.0484376  73.4170543  61.3469616 114.1207290  79.4152714
  61.2089414 113.3887529  80.0164253  62.2574540 114.0316190  79.1336902
  70.3084564 116.0595695  64.1637192  69.6913734 115.3342523  64.0670245
  69.8401052 116.8205055  63.8204267  63.9751917 113.8327250  78.9036393
  64.6851535 113.1920442  78.8623012  63.9321225 114.0840144  79.8262574
  71.9638695 120.7694603  81.8242973  71.9051242 120.0853823  81.1573556
  72.3658214 121.5113593  81.3723599  62.6880851 110.8192467  80.7232033
  62.1518208 110.3683206  81.3753629  62.0997559 110.9538376  79.9802497
  62.0983110 110.2781119  63.2858497  61.2212576 110.1569920  62.9220743
  62.5740863 109.4867197  63.0337385  71.9656103 118.7334187  80.0556952
  71.0782882 118.3960109  80.1783351  72.5354654 118.0017218  80.2925718
  53.6185250 115.0658279  73.3800004  54.3056290 114.7520009  72.7921019
  53.4633379 115.9699643  73.1067255  58.4219972 109.9548475  77.8085027
  58.3378161 109.3474145  77.0735437  57.6002678 110.4457493  77.8094524
  65.4957256 123.3935639  77.0218196  65.4227428 124.1990611  77.5337500
  65.0534649 123.5927605  76.1966217  65.2847036 122.6307409  70.5321017
  64.5014558 123.1729089  70.6259242  65.9839781 123.1481389  70.9315258
  68.5943686 108.4402039  73.1755222  69.0912385 107.6872001  72.8556293
  67.8230667 108.4766355  72.6098432  76.4473443 114.1442404  74.8173514
  76.4363320 115.0267120  74.4467447  75.5790823 113.7913955  74.6228051
  67.9555940 123.2922473  79.1776354  68.6683912 123.9269938  79.1052256
  67.4645968 123.3886339  78.3616356  69.6773467 117.1973726  70.7493646
  68.7429745 117.3175188  70.5798350  69.8550135 116.2946193  70.4853656
  65.1778655 110.5819422  72.9026907  64.8076442 110.0290462  73.5907813
  65.6737747 109.9777555  72.3501907  73.0646018 113.0391045  71.2843680
  73.5306470 113.8719037  71.2103983  73.5153518 112.5736027  71.9888938
  63.0067853 121.0416917  79.9981925  63.7077313 121.6753400  80.1511319
  62.5362968 121.3831648  79.2377564  71.1322249 119.3834866  68.2829832
  71.4082093 119.2691461  69.1923706  70.2626748 118.9852351  68.2442005
  71.0362681 105.4071632  75.3234581  70.1225760 105.6375859  75.4916788
  71.4655782 105.4910076  76.1748614  70.8069139 113.5961524  77.8234475
  70.1540589 113.8437432  77.1686928  71.1849519 112.7825662  77.4896953
  67.7676313 123.6321217  71.9262646  67.9498708 122.8142873  72.3890398
  68.5909299 123.8488910  71.4887536  68.1018479 122.5589402  69.1877694
  68.6306245 122.0481857  68.5747856  68.3646698 122.2431933  70.0523227
  66.8556712 114.3381335  84.3100512  66.1797349 114.2375465  84.9802888
  67.6784346 114.1820549  84.7736510  58.6035571 120.5753272  76.9313028
  59.1889008 119.8296960  77.0640932  58.4060410 120.8857228  77.8149692
  61.4574226 123.6104519  71.9475470  60.7884602 124.0950647  71.4639510
  61.3187096 123.8573740  72.8618849  53.1953226 113.1458872  75.6517471
  53.2337326 112.6122463  76.4454589  52.6893519 112.6194077  75.0328448
  65.5979495 125.6448263  78.5458128  66.1497803 125.8079884  79.3107214
  65.9385689 126.2352700  77.8738153  60.5743988 107.9923412  79.1480013
  60.6385315 108.8538243  78.7357411  60.5111109 107.3797414  78.4152372
  60.0496261 110.0646545  82.7953047  60.6768300 109.6823622  83.4090572
  59.1924180 109.8460747  83.1608740  70.4490369 120.4709520  84.4006783
  70.9930273 121.0839478  83.9061738  69.8677214 121.0289099  84.9173796
  56.8261804 111.8722974  68.7271402  57.1215245 110.9633653  68.6738456
  55.9249839 111.8510714  68.4052405  68.7347882 123.5930238  75.5321811
  68.6099022 122.7919978  75.0232756  69.3926973 124.0876432  75.0435781
  60.3556051 109.9478971  74.7098951  59.6342636 110.5614938  74.5706424
  61.1449306 110.4836735  74.6315597  70.7982791 121.3939258  77.1601361
  69.8513126 121.2744609  77.0879687  71.1465564 120.5061756  77.2427622
  63.1582364 107.2833397  80.9839603  63.6816766 107.5295694  81.7465912
  62.9394697 108.1153432  80.5642740  58.5549645 109.5537072  68.8510727
  58.2262351 108.6734451  68.6685833  58.9089016 109.4984740  69.7387117
  67.8029224 121.1891974  73.3605713  67.6554186 120.2608682  73.5413283
  68.6282718 121.2112065  72.8762788  61.6691468 109.8410042  69.2186205
  62.0087541 110.3695963  68.4964813  62.1163589 110.1790448  69.9944772
  71.4063346 122.0120533  74.4470586  72.3309893 121.8063395  74.3095037
  71.2378649 121.7636934  75.3559927  64.3634909 108.2247092  78.6689273
  64.0231730 107.4254905  79.0709953  63.6573915 108.5248803  78.0966106
  65.0151381 105.3096405  77.1216596  65.8377450 104.8356883  76.9995486
  65.2589444 106.0886888  77.6215282  63.6559615 108.3384663  67.4179498
  64.3767978 108.7165916  66.9143215  63.0324920 109.0573540  67.5214476
  67.7990738 109.0429812  68.3537830  68.0154353 109.9254450  68.0526658
  67.3184805 108.6516026  67.6243472  62.5389960 112.0015525  74.9308575
  62.3934540 112.3155828  75.8232856  62.0615163 112.6200426  74.3779473
  64.3986343 108.9918073  74.9789464  64.3847911 108.0959167  74.6421762
  65.1158771 108.9988737  75.6127750  66.2512473 109.4255414  77.0242592
  65.9930251 110.3472484  77.0226922  65.7197514 109.0285848  77.7143056
  71.1958662 122.5306201  69.8032677  71.3695540 121.9652623  69.0506530
  71.6887553 123.3307096  69.6212167  57.0135622 114.5420870  77.8696236
  56.4689090 115.3180678  78.0016510  57.8914972 114.8891674  77.7115357
  63.8023239 107.8732454  70.2477034  63.9239150 106.9449100  70.4467922
  63.5125281 107.8871140  69.3355350  66.6714429 105.5587364  73.3843754
  66.6936126 105.6226697  72.4295734  67.0882488 104.7191873  73.5784260
  77.0498053 115.2942624  71.4222977  77.4929199 114.5449949  71.0242100
  76.1724564 115.2852760  71.0396709  72.1833835 121.8472965  66.9029575
  72.8784739 122.4679658  67.1216890  72.5256985 120.9968316  67.1781953
  57.8001644 113.6690766  80.7626393  57.0583380 113.8173401  81.3491023
  57.4794388 113.9299032  79.8993142  74.0825258 119.2972671  68.4316906
  74.6076582 119.6359943  67.7066226  73.9947610 118.3619686  68.2480041
  65.7445306 123.2106744  80.5606783  66.0532433 122.9655891  81.4329482
  66.5420788 123.4153383  80.0725653  65.7665918 125.3644654  72.7912159
  65.3270909 124.8721033  73.4845016  66.5174035 124.8217622  72.5504235
  58.2458257 121.5556195  72.7936787  59.0716277 121.2559967  72.4135431
  57.8952309 120.7863817  73.2426576  63.2139791 120.9082663  74.8634461
  62.5919800 120.2453368  74.5636689  63.8844657 120.9343795  74.1808109
  56.4466862 119.4742521  73.7525721  55.6098771 119.0464696  73.5709722
  56.4190508 119.6674965  74.6896512  63.2864318 109.3864451  84.4566967
  63.3352474 110.2626574  84.0744737  63.8286832 108.8441844  83.8838610
  73.7719164 119.9305574  83.7368104  72.9814707 119.9129713  83.1972604
  73.5352518 120.4693868  84.4917141  73.8917039 116.7798041  81.0500833
  73.9415044 116.6148048  81.9916355  73.7830962 115.9125300  80.6598713
  62.7753297 119.4586586  68.3392922  62.9241418 120.1422051  67.6859594
  63.5819741 119.4391676  68.8542377  71.1820801 112.7628969  82.3660139
  72.0830664 112.6235433  82.0744137  71.2568776 112.9283423  83.3058317
  65.5163607 110.1395823  81.2113326  64.6466916 110.4329389  80.9395914
  65.7523087 110.7236268  81.9320589  75.3935236 119.1994982  81.2942854
  75.1020044 119.5624963  82.1306315  74.7807367 118.4861990  81.1156186
  76.5930918 116.7647862  73.8145424  77.4277809 117.2037666  73.9782985
  76.7290047 116.2886515  72.9953670  73.6422424 114.3227597  79.7622912
  74.1176545 114.5155243  78.9541764  72.7187989 114.3786783  79.5166296
  60.5305930 115.4851764  69.3453990  60.2851972 114.5814094  69.5434201
  60.7001845 115.4868914  68.4033468  68.2202640 106.3575440  78.7278746
  68.7384584 107.0936467  78.4025235  67.8657773 106.6639434  79.5625505
  59.8001578 111.2180122  66.8440152  59.1070823 111.2924476  66.1880188
  59.5553330 110.4540465  67.3661669  68.4715235 102.7775723  74.2479643
  68.7516988 102.1098912  74.8740069  69.2565841 102.9704818  73.7354306
  66.2748703 121.9534717  65.8104669  65.7022670 122.5724904  65.3575141
  66.8481497 122.5034078  66.3444591  72.3424093 111.1993357  77.9951218
  73.2941516 111.2991454  78.0163442  72.1727543 110.4071625  78.5049302
  70.3638472 108.2848940  78.1810619  69.7688404 108.5653953  77.4857107
  70.0788169 108.7742841  78.9527360  69.4945963 122.2371867  66.9413251
  70.4276636 122.1717429  67.1446127  69.4069176 123.0728134  66.4827784
  72.1233979 121.5537737  63.9017199  72.0447611 121.2197601  64.7952957
  72.9443646 122.0459505  63.9008671  74.8212171 114.4199477  77.1093517
  74.7888491 113.4815477  77.2953201  75.4312794 114.4983513  76.3759342
  66.6595502 113.2895530  63.1520721  67.6054606 113.1601738  63.2209139
  66.2809746 112.5510191  63.6290150  74.9706659 111.2110520  77.1551801
  74.4545708 110.4268977  76.9681729  75.8546608 110.8829237  77.3198320
  72.6317386 104.9551536  73.1147613  72.4342207 104.6466624  73.9990945
  73.2417092 105.6813174  73.2445543  80.6388721 115.4815483  76.2499554
  81.3692109 115.2200771  76.8107258  80.0295666 114.7444205  76.2901622
  78.7204018 113.6223346  76.8474005  77.9937181 113.4879311  76.2390497
  78.3051305 113.9300175  77.6530723  66.5434194 117.3413276  84.6121378
  67.4637204 117.5191875  84.8061425  66.5083777 116.3969321  84.4601078
  64.8438419 111.2145506  63.0875607  63.9369874 110.9178619  63.1638320
  65.1214400 110.9175324  62.2209893  55.7616359 112.5351869  73.5374653
  55.4419143 111.6817177  73.2449027  55.2149787 112.7500447  74.2932620
  59.5396267 115.2514310  77.2544160  59.7582276 116.1831418  77.2732193
  59.9522040 114.8922285  78.0398963  66.4600484 105.7582396  69.2419848
  65.6501213 105.4129481  69.6175094  67.1484901 105.4489939  69.8307460
  68.3891033 104.8360442  70.8644145  68.9422071 105.2555896  71.5234168
  68.6261119 103.9096191  70.9067101  64.4124132 110.8247516  86.6446909
  64.3120859 111.7741873  86.5759000  64.1945674 110.4965755  85.7722979
  63.6137203 108.0732441  63.2287586  64.4756367 108.3987339  63.4883403
  63.7987547 107.2863937  62.7160652  55.6304619 116.1554781  75.5067775
  54.9368090 115.7408734  74.9937729  56.3777610 116.1975317  74.9101194
  71.7669840 106.9460968  70.3722809  71.1868509 107.6045772  69.9900861
  71.5005772 106.1238312  69.9610226  70.2173406 106.3466025  72.5744129
  70.7173185 106.4582560  71.7658448  70.8609014 106.0427078  73.2144938
  64.2755402 114.2544655  85.4611970  63.7922484 115.0545015  85.6675859
  64.3616341 114.2652600  84.5079414  57.5441362 116.0873035  73.3833790
  57.5212050 116.1860722  72.4315673  57.8541998 116.9338185  73.7050956
  60.2028739 118.1449190  77.4980404  61.1571993 118.1133132  77.4310336
  60.0041263 117.6839813  78.3130630  60.7928122 116.7150306  80.0651202
  61.6121011 117.2094384  80.0886039  61.0664929 115.7982274  80.0368769
  70.5494718 109.1061058  69.4279157  69.6620573 109.3910709  69.2099352
  70.9648707 108.9454821  68.5806434  73.9009254 109.1307579  73.1433496
  74.6769644 109.6204031  73.4158113  73.1757388 109.5565633  73.6005366
  76.3381813 109.8435198  74.2007437  76.9326303 109.6030934  73.4900745
  76.4108396 109.1242329  74.8280973  69.6937931 118.8705733  63.5227177
  70.3973781 119.0755735  64.1384833  68.9700580 119.4382495  63.7876261
  70.5235742 114.6215594  69.6429447  70.4670943 115.0784145  68.8037080
  71.0764084 113.8606278  69.4652290  74.3340547 110.4105326  70.4679567
  74.0777482 110.0101961  71.2987774  73.7093415 111.1249120  70.3429706
  78.6452885 113.1501399  72.9750858  78.0852443 113.2194588  73.7482420
  78.0396389 112.9742384  72.2550354  71.6024629 119.3088262  65.5725637
  72.4370233 118.8769460  65.3903112  71.4408972 119.1370276  66.5002532
  71.2570521 115.8120375  66.9381976  71.2019325 115.6464647  65.9970421
  70.6316576 116.5196408  67.0944166  56.0463036 111.0488440  80.7643399
  56.6921899 110.5387393  81.2530624  55.8380187 111.7857121  81.3386824
  68.5716428 118.1169287  86.2635539  69.4407588 118.2909939  85.9022174
  68.0923180 118.9363704  86.1411269  64.5666646 105.3128484  66.5167295
  64.5545316 106.2570324  66.6735566  65.4590068 105.1298630  66.2226756
  62.7402608 125.2366388  77.9424973  63.6429855 125.2689998  78.2591468
  62.5139978 124.3066839  77.9571309  64.4956210 123.9897375  74.6035052
  63.5451841 123.9899236  74.4899424  64.7988696 123.2430109  74.0871086
  68.3818766 101.9071261  70.7713232  67.6151162 101.3529747  70.9169914
  68.7929471 101.9793130  71.6327383  60.3860527 108.1956057  84.8618413
  61.2491988 107.8392861  85.0721738  59.8125937 107.8569951  85.5493817
  80.2308904 129.8257913  75.6680814  80.8687314 129.7064660  74.9644154
  80.1129747 130.7738757  75.7268766  77.0398610 129.7785341  75.6042339
  76.7017122 129.6626406  74.7162873  77.9088378 129.3776506  75.5843345
  77.5218393 130.9320193  81.5628544  77.5107034 130.5372991  80.6909048
  77.6839033 130.1986265  82.1562316  74.7406889 128.5473588  64.9359279
  74.9932410 128.0255110  64.1742742  73.8031449 128.3839734  65.0385962
  79.7850172 127.5509367  72.7434022  80.5713261 127.1328790  72.3924439
  80.0488877 128.4555459  72.9115670  85.1858599 127.4884600  73.6467000
  85.9183771 126.9183817  73.8804830  84.4297955 127.1006200  74.0873506
  76.8034719 129.9111841  70.8430343  76.4392926 129.3842462  71.5543264
  77.6601835 129.5210311  70.6696828  82.7084020 121.2006174  78.1061609
  82.3767345 122.0701585  77.8822824  82.1129633 120.8842458  78.7855639
  76.4440206 124.9401741  65.8391691  76.6114608 125.8081978  66.2062162
  76.2537375 125.1029023  64.9152981  82.6012683 125.9201260  75.1854959
  81.6929560 125.8516669  74.8913720  82.5500279 126.3973205  76.0136785
  76.4229427 127.3959399  66.8238358  76.3029052 127.8416449  67.6623839
  75.7282015 127.7444716  66.2651896  76.6753549 127.3390906  83.1289856
  75.8986883 127.8984826  83.1192721  77.3144112 127.8247689  83.6504727
  84.4674329 124.1217699  76.9632833  83.8248710 124.4150232  76.3172628
  83.9629258 124.0070619  77.7686030  82.1214493 127.8680872  67.6518692
  83.0332349 128.1008259  67.4766390  81.6124140 128.4517916  67.0893771
  76.7586331 127.2278106  78.6613542  77.6047526 127.6517520  78.8048191
  76.6984968 126.5711731  79.3552105  79.9085776 124.8882475  80.3194715
  79.6646708 125.6424535  79.7828991  80.1845707 125.2667822  81.1541963
  79.4650468 124.0438908  75.9008553  78.6034947 124.3420161  76.1925291
  79.4912903 124.2609307  74.9689586  75.2180923 128.7104251  69.1171924
  75.9204967 129.1625294  69.5845850  74.8861552 128.0688070  69.7451817
  73.6661285 127.3016007  83.4923133  73.0359945 127.9832288  83.7258530
  73.5597373 127.1899089  82.5476272  68.9606257 126.9687803  74.4189058
  68.1705311 127.2245332  73.9429168  69.4517505 127.7836141  74.5241098
  70.9121003 127.3332383  71.3772534  70.1152166 127.4451077  71.8956030
  70.6846595 127.6719035  70.5113425  72.9442028 121.6036773  85.8548384
  72.5508973 121.0502972  86.5296029  73.7608168 121.9147352  86.2454902
  75.8609989 123.0194652  83.4468641  76.6019702 123.6201805  83.3673103
  76.0927911 122.2772290  82.8886684  79.8067152 119.0475755  77.7232923
  79.4631421 119.9377397  77.6472033  80.1746114 118.8577413  76.8602508
  79.7717434 129.0384366  66.2305358  79.2564058 129.8088971  66.4693745
  79.4994743 128.3649503  66.8538419  77.3564545 123.8834067  71.2890596
  76.5006142 123.4940918  71.1096235  77.7691497 123.9626028  70.4290382
  78.8863692 121.4180410  75.6882156  78.3828488 121.3810546  74.8749961
  79.1794299 122.3273153  75.7478813  75.1306578 121.5019140  74.6948338
  75.9959575 121.3061949  74.3354227  75.1984087 121.2729492  75.6217694
  79.5603737 126.9111458  68.0565139  79.2553873 127.2257608  68.9075282
  80.5134180 126.9892878  68.0992472  72.7368897 123.7321348  72.0664704
  73.3112649 123.5096530  71.3337897  73.3239879 123.8010043  72.8193306
  81.7948474 129.6195075  72.8729081  82.3080356 130.2525067  73.3750791
  82.4449698 129.0196270  72.5072441  73.0638484 125.7625809  66.0860590
  72.2275796 126.1000496  66.4069864  72.9243254 125.6274789  65.1487727
  75.0391565 120.6062597  70.7939774  74.3855977 120.2911614  70.1696389
  74.9972039 119.9838337  71.5199597  78.2729305 127.0944531  75.1187422
  77.3551866 127.3159478  74.9609110  78.6889449 127.1690841  74.2599129
  79.0564353 128.4935946  70.2490102  79.8036172 129.0057343  69.9397224
  79.3255942 128.1719999  71.1094495  81.5043190 125.5293062  72.2308891
  80.7665947 125.0170449  72.5619134  81.7569963 125.0893444  71.4192168
  81.6054817 118.3069314  72.8250660  81.9113694 117.4466678  72.5376575
  82.3307422 118.8986935  72.6249654  75.8775897 128.6023108  73.3326851
  75.9324507 127.6496944  73.2569328  75.0667099 128.7582547  73.8168150
  73.8168257 127.2200167  71.0917230  73.0036122 127.5194338  71.4982422
  74.3127251 126.8255856  71.8091713  79.4142469 127.6841992  79.9232124
  79.7691856 127.9113465  80.7826590  80.0614600 128.0160369  79.3009380
  73.3082332 124.7918523  76.7078465  73.9481711 124.6507282  76.0101429
  72.4759862 124.5053036  76.3317067  70.3925399 128.2364035  68.8973210
  69.4622987 128.1748490  69.1143173  70.4882871 127.7139988  68.1009852
  70.3110948 124.7618848  71.4851452  70.5717765 125.6764181  71.3760613
  71.1328120 124.2943290  71.6348065  71.7835873 126.1756605  78.6550277
  72.4558927 125.9673967  78.0062926  70.9565660 125.9778691  78.2155509
  77.6861445 122.8018546  80.6715937  77.0389360 123.5008496  80.5780414
  78.4562461 123.2354690  81.0392186  77.8625580 130.6399311  78.7312757
  78.7917640 130.7910470  78.5581725  77.4416610 130.7283332  77.8761404
  81.1478318 131.3887612  64.1637192  80.5307489 130.6634440  64.0670245
  80.6794807 132.1496973  63.8204267  74.8145671 129.1619167  78.9036393
  75.5245290 128.5212359  78.8623012  74.7714979 129.4132062  79.8262574
  73.5274605 126.1484385  80.7232033  72.9911962 125.6975124  81.3753629
  72.9391314 126.2830294  79.9802497  72.9376864 125.6073037  63.2858497
  72.0606331 125.4861837  62.9220743  73.4134617 124.8159115  63.0337385
  69.2613727 125.2840393  77.8085027  69.1771915 124.6766062  77.0735437
  68.4396433 125.7749411  77.8094524  79.4337440 123.7693956  73.1755222
  79.9306140 123.0163919  72.8556293  78.6624422 123.8058273  72.6098432
  76.0172409 125.9111339  72.9026907  75.6470197 125.3582380  73.5907813
  76.5131502 125.3069473  72.3501907  83.9039772 128.3682963  71.2843680
  84.3700225 129.2010954  71.2103983  84.3547273 127.9027944  71.9888938
  81.8756435 120.7363550  75.3234581  80.9619515 120.9667777  75.4916788
  82.3049537 120.8201994  76.1748614  81.6462894 128.9253442  77.8234475
  80.9934344 129.1729349  77.1686928  82.0243274 128.1117580  77.4896953
  77.6950467 129.6673253  84.3100512  77.0191104 129.5667382  84.9802888
  78.5178101 129.5112467  84.7736510  71.4137743 123.3215330  79.1480013
  71.4779069 124.1830161  78.7357411  71.3504863 122.7089332  78.4152372
  70.8890015 125.3938463  82.7953047  71.5162054 125.0115540  83.4090572
  70.0317934 125.1752665  83.1608740  67.6655558 127.2014892  68.7271402
  67.9608999 126.2925570  68.6738456  66.7643594 127.1802631  68.4052405
  71.1949805 125.2770888  74.7098951  70.4736391 125.8906856  74.5706424
  71.9843061 125.8128653  74.6315597  73.9976119 122.6125315  80.9839603
  74.5210520 122.8587611  81.7465912  73.7788452 123.4445350  80.5642740
  69.3943400 124.8828989  68.8510727  69.0656106 124.0026368  68.6685833
  69.7482770 124.8276658  69.7387117  72.5085223 125.1701959  69.2186205
  72.8481295 125.6987880  68.4964813  72.9557343 125.5082365  69.9944772
  75.2028664 123.5539010  78.6689273  74.8625484 122.7546823  79.0709953
  74.4967670 123.8540721  78.0966106  75.8545135 120.6388322  77.1216596
  76.6771205 120.1648801  76.9995486  76.0983199 121.4178806  77.6215282
  74.4953370 123.6676581  67.4179498  75.2161732 124.0457834  66.9143215
  73.8718674 124.3865458  67.5214476  78.6384493 124.3721730  68.3537830
  78.8548107 125.2546368  68.0526658  78.1578560 123.9807943  67.6243472
  73.3783714 127.3307443  74.9308575  73.2328295 127.6447746  75.8232856
  72.9008918 127.9492343  74.3779473  75.2380097 124.3209991  74.9789464
  75.2241666 123.4251084  74.6421762  75.9552525 124.3280655  75.6127750
  77.0906228 124.7547331  77.0242592  76.8324006 125.6764402  77.0226922
  76.5591268 124.3577766  77.7143056  74.6416993 123.2024371  70.2477034
  74.7632904 122.2741017  70.4467922  74.3519035 123.2163057  69.3355350
  77.5108183 120.8879282  73.3843754  77.5329880 120.9518615  72.4295734
  77.9276242 120.0483790  73.5784260  74.1258073 124.7156369  84.4566967
  74.1746228 125.5918491  84.0744737  74.6680587 124.1733762  83.8838610
  82.0214556 128.0920886  82.3660139  82.9224418 127.9527351  82.0744137
  82.0962530 128.2575341  83.3058317  76.3557361 125.4687741  81.2113326
  75.4860670 125.7621307  80.9395914  76.5916841 126.0528186  81.9320589
  79.0596395 121.6867358  78.7278746  79.5778339 122.4228385  78.4025235
  78.7051528 121.9931351  79.5625505  70.6395333 126.5472039  66.8440152
  69.9464577 126.6216394  66.1880188  70.3947084 125.7832383  67.3661669
  79.3108989 118.1067641  74.2479643  79.5910743 117.4390830  74.8740069
  80.0959596 118.2996736  73.7354306  83.1817847 126.5285275  77.9951218
  84.1335270 126.6283372  78.0163442  83.0121298 125.7363543  78.5049302
  81.2032227 123.6140858  78.1810619  80.6082159 123.8945870  77.4857107
  80.9181924 124.1034759  78.9527360  77.4989256 128.6187447  63.1520721
  78.4448361 128.4893655  63.2209139  77.1203501 127.8802109  63.6290150
  85.8100414 126.5402438  77.1551801  85.2939462 125.7560894  76.9681729
  86.6940362 126.2121154  77.3198320  83.4711141 120.2843453  73.1147613
  83.2735962 119.9758541  73.9990945  84.0810846 121.0105092  73.2445543
  75.6832173 126.5437424  63.0875607  74.7763629 126.2470536  63.1638320
  75.9608154 126.2467242  62.2209893  77.2994239 121.0874313  69.2419848
  76.4894967 120.7421398  69.6175094  77.9878656 120.7781857  69.8307460
  79.2284787 120.1652360  70.8644145  79.7815826 120.5847814  71.5234168
  79.4654874 119.2388108  70.9067101  75.2517886 126.1539434  86.6446909
  75.1514613 127.1033791  86.5759000  75.0339428 125.8257673  85.7722979
  74.4530958 123.4024359  63.2287586  75.3150122 123.7279257  63.4883403
  74.6381302 122.6155855  62.7160652  82.6063594 122.2752885  70.3722809
  82.0262263 122.9337689  69.9900861  82.3399527 121.4530230  69.9610226
  81.0567161 121.6757943  72.5744129  81.5566939 121.7874477  71.7658448
  81.7002769 121.3718996  73.2144938  81.3888472 124.4352976  69.4279157
  80.5014327 124.7202626  69.2099352  81.8042461 124.2746739  68.5806434
  84.7403008 124.4599497  73.1433496  85.5163399 124.9495949  73.4158113
  84.0151143 124.8857551  73.6005366  87.1775567 125.1727116  74.2007437
  87.7720058 124.9322852  73.4900745  87.2502151 124.4534246  74.8280973
  81.3629496 129.9507512  69.6429447  81.3064697 130.4076063  68.8037080
  81.9157838 129.1898196  69.4652290  85.1734302 125.7397243  70.4679567
  84.9171236 125.3393879  71.2987774  84.5487170 126.4541037  70.3429706
  82.0964275 131.1412293  66.9381976  82.0413079 130.9756564  65.9970421
  81.4710331 131.8488326  67.0944166  66.8856790 126.3780357  80.7643399
  67.5315654 125.8679311  81.2530624  66.6773941 127.1149039  81.3386824
  75.4060401 120.6420402  66.5167295  75.3939071 121.5862242  66.6735566
  76.2983823 120.4590547  66.2226756  79.2212520 117.2363178  70.7713232
  78.4544916 116.6821665  70.9169914  79.6323225 117.3085047  71.6327383
  71.2254281 123.5247974  84.8618413  72.0885743 123.1684779  85.0721738
  70.6519692 123.1861869  85.5493817  15.1946378  14.8568529  62.3926121
  15.8324788  14.7375277  61.6889461  15.0767221  15.8049373  62.4514073
  12.0036084  14.8095958  62.3287645  11.6654596  14.6937022  61.4408180
  12.8725853  14.4087123  62.3088651   7.8622900  16.6631434  58.3184536
   7.2987765  16.5721371  57.5500824   7.7475295  15.8431338  58.7987029
  12.4855867  15.9630809  68.2873851  12.4744508  15.5683608  67.4154354
  12.6476507  15.2296882  68.8807622   5.4087332  18.1582626  61.1568757
   6.2008624  17.8173450  60.7415056   5.6483982  18.2677601  62.0770910
  13.4422459  20.3302402  53.6299001  12.7910439  20.9156482  53.2433015
  14.2366822  20.8608597  53.6894039   7.3678086  17.4191539  54.0286135
   8.1408962  16.8720526  53.8899011   7.7203485  18.2835788  54.2400597
   9.2063128  18.7467921  67.2353035   8.9152994  19.6513552  67.1199701
   9.8420113  18.7884449  67.9497104  10.1319335  16.1244770  63.8254394
  10.7282908  15.9000792  63.1111357  10.1894307  15.3829515  64.4279842
   9.7044364  13.5784205  51.6604585   9.9569884  13.0565726  50.8988048
   8.7668923  13.4150350  51.7631269  14.7487647  12.5819983  59.4679329
  15.5350736  12.1639406  59.1169746  15.0126351  13.4866075  59.6360977
  14.9197724  18.0192834  54.1667985  14.2843557  18.0927460  54.8788890
  14.5895130  18.6086432  53.4887065  20.1496074  12.5195217  60.3712307
  20.8821246  11.9494433  60.6050137  19.3935429  12.1316817  60.8118813
   9.4240652  15.4812311  53.8628960   9.3076911  14.8057214  54.5310045
   9.5342912  14.9944685  53.0461113  11.7672193  14.9422458  57.5675650
  11.4030401  14.4153079  58.2788571  12.6239309  14.5520927  57.3942135
  14.1653014  18.4329337  64.2302828  13.8653737  19.3354375  64.1218636
  13.8204073  18.1661520  65.0823981   7.6165495  14.8843133  60.2639533
   6.6915992  14.7519348  60.4717225   7.8649908  15.6637353  60.7609475
  17.5650157  10.9511877  61.9100266  16.6567035  10.8827285  61.6159027
  17.5137753  11.4283822  62.7382091  11.3866901  12.4270015  53.5483665
  11.2666526  12.8727066  54.3869145  10.6919490  12.7755333  52.9897203
   9.1473793  25.1973657  57.1973796   9.0697823  26.1481482  57.2762277
   8.5435437  24.8519529  57.8548722  11.6391023  12.3701522  69.8535163
  10.8624357  12.9295443  69.8438028  12.2781586  12.8558305  70.3750033
  19.4311804   9.1528315  63.6878140  18.7886184   9.4460848  63.0417934
  18.9266732   9.0381236  64.4931336  17.0851967  12.8991488  54.3763999
  17.9969824  13.1318875  54.2011697  16.5761615  13.4828533  53.8139078
   9.8937395  15.1786976  69.4153130  10.6352080  15.7172020  69.1387954
   9.1874381  15.8053265  69.5724682  15.3692735  17.3216116  68.0125292
  15.7776091  16.8798527  67.2679924  14.6469997  16.7468744  68.2659484
  11.7223805  12.2588723  65.3858848  12.5685000  12.6828137  65.5293497
  11.6622443  11.6022347  66.0797412  15.6921550  17.8817307  61.7677580
  15.0630412  18.0463021  61.0653648  15.3047212  18.2958916  62.5388544
  19.5710782  18.8171745  59.1221944  18.8861820  19.1970646  58.5718977
  19.6554631  19.4267071  59.8553892  14.8723250   9.9193091  67.0440022
  14.6284182  10.6735152  66.5074298  15.1483181  10.2978439  67.8787269
  16.8261713  16.4631704  65.7217288  17.0378608  17.1063464  65.0451669
  16.7791461  15.6294020  65.2539218  14.4287942   9.0749524  62.6253860
  13.5672421   9.3730778  62.9170597  14.4550377   9.2919923  61.6934892
  11.2449512  17.6191715  59.0327666  11.7087857  17.8979418  58.2432288
  10.9806310  16.7175160  58.8500756   8.1373593  17.1663196  61.9707429
   8.7074950  17.5950465  61.3324913   8.7281705  16.8845781  62.6691614
  10.1818398  13.7414867  55.8417231  10.8842441  14.1935911  56.3091157
   9.8499026  13.0998686  56.4697124  17.9407541  19.3403659  63.8939645
  18.7624985  18.9383846  63.6122327  17.9369944  19.2371893  64.8455761
  11.7064145  18.8887702  66.0500356  11.7708577  19.3508110  66.8858527
  10.9975069  18.2585067  66.1782665  26.0313534  15.6842408  60.2424617
  25.2777243  15.1149806  60.0868621  26.1661075  15.6505072  61.1895251
  11.4212162  20.5555810  55.9179336  11.2857837  21.4007346  56.3464184
  11.9621975  20.7575088  55.1545270   4.8741560  18.0731248  56.4907261
   5.3866080  18.8674498  56.6412826   5.5264273  17.3757538  56.4240862
   6.6836444  21.1897004  58.5730014   6.8603073  22.1114969  58.3850998
   7.4793278  20.8755423  59.0024394  13.0480639  21.1779376  70.0479678
  12.6044493  20.3915755  69.7300582  13.7097852  21.3658527  69.3823569
   7.8067760  22.7075178  64.5740356   8.3575185  22.5792241  63.8017350
   6.9679236  23.0070067  64.2235249  15.1461877  21.4582176  68.0761079
  15.1280352  22.2791057  67.5841348  16.0681797  21.3336252  68.3011220
  11.6034931  18.9726306  68.9184588  12.1363268  18.2114594  68.6883896
  11.0749012  18.6799958  69.6608742  14.7354909  14.0694983  52.9550664
  14.2201532  14.8399588  53.1939052  14.4632217  13.3960119  53.5783726
  19.7089183  16.8227338  54.8903838  18.9318625  16.4838497  54.4459000
  20.3880664  16.8279961  54.2158803  14.5241212  11.9422075  54.7810446
  14.2191347  12.2568224  55.6320589  15.4771654  12.0203495  54.8237779
  12.9687644  18.1012298  56.4303400  12.4409005  17.3665058  56.1176637
  12.4675146  18.8786975  56.1843368  17.9480490  16.2961319  61.5470446
  17.2904164  16.9860580  61.6350575  18.7520889  16.6857751  61.8904432
  16.7585948  14.6505691  59.5974388  17.2717830  15.2835683  60.0996097
  17.4087172  14.0506887  59.2317748  11.1140244  15.9192509  49.4338373
  10.2067306  15.6881762  49.6329522  11.6111276  15.1230128  49.6212354
  14.0208323  24.6290016  52.3535059  13.3470021  24.9321713  52.9620017
  14.4074145  25.4319096  52.0040516  13.2366779  12.1255147  61.8432728
  12.3189341  12.3470094  61.6854416  13.6526923  12.2001458  60.9844436
  14.0201827  13.5246563  56.9735408  14.7673646  14.0367960  56.6642530
  14.2893417  13.2030615  57.8339802  12.2928477  16.0205103  53.9562363
  11.3839696  15.7364136  54.0534832  12.3223561  16.4404182  53.0965670
  17.5247745  19.6311693  57.7253530  17.0710072  18.7902603  57.7818721
  16.8941711  20.2673091  58.0628310  16.4680664  10.5603679  58.9554198
  15.7303421  10.0481065  59.2864440  16.7207438  10.1204061  58.1437475
  15.9680684  21.4688190  58.6603348  16.2603658  22.0293247  57.9415714
  16.4779304  21.7616751  59.4156508  10.8413371  13.6333724  60.0572158
  10.8961981  12.6807560  59.9814635  10.0304573  13.7893163  60.5413457
  11.9904565  17.5613847  51.2950441  11.5523995  16.8449706  50.8356079
  12.7315006  17.7889962  50.7335533  10.9314309  22.2468541  59.7496802
  10.8890488  22.4729387  58.8205334  11.8477008  22.0131915  59.8982603
  14.3779943  12.7152608  66.6477431  14.7329331  12.9424081  67.5071897
  15.0252074  13.0470985  66.0254686  20.1077680  15.8371044  57.3526760
  19.9695578  16.0272640  56.4247949  19.7513899  16.5990427  57.8094811
  20.1347059  17.9047571  62.3638031  20.5683566  17.8122860  63.2121085
  20.8478640  17.8805072  61.7258047   9.0480110  19.1231570  59.5458764
   9.8420708  18.6281890  59.3441339   8.3371802  18.5949433  59.1826470
  13.8674954  21.5049665  63.8971132  13.9211977  22.0740602  64.6648848
  12.9989736  21.6751550  63.5325169  20.9962609  17.9471272  64.8970917
  21.1898499  18.8517082  65.1430192  20.8963227  17.4878691  65.7309502
  16.0577718  18.0978015  70.4711797  15.9063224  17.8688566  69.5541881
  16.0482397  19.0548616  70.4843142  12.8263054  15.6709927  65.4558064
  13.7555114  15.8221087  65.2827031  12.4054084  15.7593948  64.6006710
  11.6251386  19.6960592  63.2256601  11.4862472  19.3279376  64.0982540
  10.8365982  20.2108231  63.0540559  12.2199538  24.7969688  54.5682138
  12.3951293  24.3257731  55.3827761  11.5332326  25.4235454  54.7963399
  13.1756601  19.0742194  60.6145439  12.8406434  19.0342964  61.5103089
  12.6760547  18.4086910  60.1415849   7.1500845  14.4809824  66.1398020
   7.0120643  13.7490063  66.7409559   8.0605768  14.3918725  65.8582208
  16.1115793  16.4198229  50.8882499  15.4944963  15.6945057  50.7915552
  15.6432281  17.1807589  50.5449573   9.7783146  14.1929784  65.6281700
  10.4882764  13.5522976  65.5868318   9.7352454  14.4442679  66.5507881
  17.7669924  21.1297137  68.5488279  17.7082470  20.4456357  67.8818862
  18.1689443  21.8716127  68.0968905   6.7860623  27.9459051  61.3421998
   7.0257221  28.5777575  62.0201017   5.9429820  27.5947091  61.6287357
  17.7687332  19.0936721  66.7802259  16.8814110  18.7562643  66.9028658
  18.3385883  18.3619752  67.0171024  11.2988485  23.7538173  63.7463502
  11.2258656  24.5593145  64.2582807  10.8565878  23.9530139  62.9211524
  11.0878265  22.9909943  57.2566324  10.3045786  23.5331624  57.3504548
  11.7871010  23.5083923  57.6560565  14.3974915   8.8004573  59.9000529
  14.8943614   8.0474535  59.5801599  13.6261896   8.8368890  59.3343738
  22.2504672  14.5044938  61.5418821  22.2394548  15.3869654  61.1712754
  21.3822052  14.1516489  61.3473358  13.7587168  23.6525007  65.9021661
  14.4715141  24.2872472  65.8297562  13.2677197  23.7488873  65.0861663
  15.4804695  17.5576260  57.4738952  14.5460974  17.6777723  57.3043657
  15.6581364  16.6548727  57.2098962  18.8677247  13.3993579  58.0088987
  19.3337699  14.2321571  57.9349289  19.3184747  12.9338561  58.7134245
   8.8099082  21.4019451  66.7227232   9.5108542  22.0355934  66.8756626
   8.3394197  21.7434182  65.9622871  16.9353478  19.7437401  55.0075139
  17.2113322  19.6293995  55.9169013  16.0657977  19.3454886  54.9687312
  16.6100368  13.9564058  64.5479782  15.9571818  14.2039966  63.8932235
  16.9880748  13.1428197  64.2142259  13.5707542  23.9923752  58.6507952
  13.7529936  23.1745407  59.1135705  14.3940528  24.2091444  58.2132842
  13.9049707  22.9191937  55.9123001  14.4337474  22.4084391  55.2993163
  14.1677927  22.6034467  56.7768534  12.6587941  14.6983869  71.0345819
  11.9828578  14.5977999  71.7048194  13.4815575  14.5423083  71.4981816
   4.4066800  20.9355806  63.6558334   4.9920237  20.1899494  63.7886239
   4.2091639  21.2459763  64.5394998   7.2605455  23.9707053  58.6720777
   6.5915831  24.4553181  58.1884817   7.1218325  24.2176274  59.5864155
  11.4010724  26.0050797  65.2703435  11.9529032  26.1682418  66.0352520
  11.7416917  26.5955235  64.5983460  16.2521598  20.8312054  71.1252089
  16.7961502  21.4442013  70.6307044  15.6708443  21.3891633  71.6419102
  14.5379111  23.9532772  62.2567117  14.4130251  23.1522512  61.7478063
  15.1958202  24.4478966  61.7681087  16.6014020  21.7541792  63.8846667
  15.6544355  21.6347144  63.8124994  16.9496793  20.8664291  63.9672929
  13.6060453  21.5494509  60.0851020  13.4585415  20.6211216  60.2658590
  14.4313946  21.5714599  59.6008095  17.2094575  22.3723067  61.1715892
  18.1341122  22.1665929  61.0340343  17.0409878  22.1239469  62.0805234
  16.9989891  22.8908735  56.5277984  17.1726768  22.3255157  55.7751836
  17.4918782  23.6909630  56.3457474  22.8529282  15.6545158  58.1468283
  23.2960428  14.9052483  57.7487407  21.9755792  15.6455294  57.7642015
  17.9865063  22.2075499  53.6274882  18.6815968  22.8282192  53.8462197
  18.3288214  21.3570850  53.9027260  19.8856487  19.6575205  55.1562213
  20.4107811  19.9962478  54.4311533  19.7978839  18.7222220  54.9725347
  11.5476535  23.5709278  67.2852089  11.8563662  23.3258425  68.1574789
  12.3452017  23.7755917  66.7970960  11.5697147  25.7247188  59.5157466
  11.1302138  25.2323567  60.2090323  12.3205264  25.1820156  59.2749541
   4.0489486  21.9158729  59.5182094   4.8747506  21.6162501  59.1380738
   3.6983538  21.1466351  59.9671883   9.0171019  21.2685197  61.5879768
   8.3951029  20.6055902  61.2881995   9.6875886  21.2946329  60.9053415
   2.2498091  19.8345055  60.4771028   1.4130000  19.4067230  60.2955029
   2.2221737  20.0277499  61.4141819  19.5750393  20.2908108  70.4613411
  18.7845936  20.2732247  69.9217910  19.3383747  20.8296402  71.2162447
  19.6948268  17.1400575  67.7746139  19.7446273  16.9750582  68.7161662
  19.5862191  16.2727834  67.3844020   8.5784526  19.8189121  55.0638228
   8.7272647  20.5024585  54.4104901   9.3850970  19.7994211  55.5787684
  16.9852030  13.1231503  69.0905446  17.8861893  12.9837968  68.7989444
  17.0600005  13.2885958  70.0303623  21.1966464  19.5597516  68.0188161
  20.9051273  19.9227497  68.8551622  20.5838596  18.8464525  67.8401493
  22.3962147  17.1250396  60.5390731  23.2309038  17.5640200  60.7028291
  22.5321276  16.6489049  59.7198977  19.4453653  14.6830131  66.4868219
  19.9207774  14.8757777  65.6787070  18.5219218  14.7389317  66.2411602
   6.3337159  15.8454298  56.0699297   6.0883201  14.9416628  56.2679507
   6.5033074  15.8471449  55.1278775  12.0779932  22.3137251  52.5349976
  11.5053899  22.9327438  52.0820447  12.6512726  22.8636613  53.0689898
  18.1455322  11.5595891  64.7196524  19.0972745  11.6593989  64.7408748
  17.9758772  10.7674160  65.2294609  16.1669701   8.6451474  64.9055925
  15.5719633   8.9256487  64.2102414  15.8819398   9.1345375  65.6772666
  15.2977192  22.5974401  53.6658558  16.2307865  22.5319963  53.8691433
  15.2100404  23.4330668  53.2073091  17.9265208  21.9140271  50.6262505
  17.8478840  21.5800135  51.5198263  18.7474875  22.4062039  50.6253978
  20.6243399  14.7802011  63.8338824  20.5919720  13.8418011  64.0198508
  21.2344023  14.8586047  63.1004649  12.4626730  13.6498064  49.8766028
  13.4085835  13.5204272  49.9454446  12.0840975  12.9112726  50.3535456
  20.7737888  11.5713054  63.8797107  20.2576937  10.7871511  63.6927036
  21.6577836  11.2431771  64.0443627  26.4419949  15.8418018  62.9744861
  27.1723338  15.5803306  63.5352564  25.8326895  15.1046740  63.0146929
  24.5235246  13.9825880  63.5719312  23.7968410  13.8481845  62.9635804
  24.1082533  14.2902709  64.3776030  12.3465423  17.7015810  71.3366685
  13.2668432  17.8794409  71.5306732  12.3115006  16.7571855  71.1846384
   5.3427495  15.6116845  63.9789466   5.5613505  16.5433952  63.9977500
   5.7553269  15.2524819  64.7644270  17.5701069   7.3063502  57.0968116
  16.9899738   7.9648306  56.7146168  17.3037001   6.4840846  56.6855533
  10.0786631  14.6147189  72.1857277   9.5953712  15.4147549  72.3921166
  10.1647570  14.6255134  71.2324721   3.3472590  16.4475569  60.1079096
   3.3243279  16.5463256  59.1560979   3.6573227  17.2940720  60.4296262
   6.0059968  18.5051724  64.2225711   6.9603222  18.4735666  64.1555642
   5.8072492  18.0442348  65.0375937   6.5959350  17.0752840  66.7896508
   7.4152239  17.5696919  66.8131346   6.8696158  16.1584808  66.7614076
  16.3525947   9.4663592  56.1524464  15.4651802   9.7513243  55.9344659
  16.7679936   9.3057356  55.3051741  19.7040483   9.4910113  59.8678803
  20.4800873   9.9806566  60.1403420  18.9788617   9.9168167  60.3250673
  22.1413041  10.2037732  60.9252744  22.7357532   9.9633468  60.2146052
  22.2139625   9.4844863  61.5526280   4.3610197  24.0471343  61.2395908
   4.2264665  23.2871744  60.6733907   3.9442259  24.7712243  60.7724697
  15.4969160  19.2308267  50.2472484  16.2005010  19.4358269  50.8630139
  14.7731809  19.7985029  50.5121567  16.3266970  14.9818128  56.3674754
  16.2702172  15.4386680  55.5282386  16.8795313  14.2208813  56.1897597
  20.1371776  10.7707860  57.1924873  19.8808710  10.3704496  58.0233081
  19.5124644  11.4851654  57.0675013  24.4484114  13.5103933  59.6996165
  23.8883672  13.5797123  60.4727727  23.8427617  13.3344918  58.9795661
   7.5179323  24.9440660  61.4514351   7.4011707  25.8886093  61.3493041
   6.6971769  24.6414222  61.8400150  17.4055857  19.6690796  52.2970944
  18.2401461  19.2371995  52.1148419  17.2440200  19.4972810  53.2247838
  17.0601750  16.1722909  53.6627283  17.0050553  16.0067181  52.7215727
  16.4347805  16.8798942  53.8189473  14.3747657  18.4771821  72.9880846
  15.2438816  18.6512473  72.6267481  13.8954408  19.2966238  72.8656575
   8.5433837  25.5968922  64.6670280   9.4461084  25.6292532  64.9836775
   8.3171207  24.6669373  64.6816615  10.2987439  24.3499909  61.3280358
   9.3483070  24.3501770  61.2144730  10.6019925  23.6032643  60.8116393
  26.0340133  30.1860447  62.3926121  26.6718543  30.0667195  61.6889461
  25.9160975  31.1341291  62.4514073  22.8429839  30.1387875  62.3287645
  22.5048350  30.0228940  61.4408180  23.7119607  29.7379040  62.3088651
  18.7016655  31.9923352  58.3184536  18.1381520  31.9013289  57.5500824
  18.5869050  31.1723256  58.7987029  23.3249622  31.2922727  68.2873851
  23.3138263  30.8975525  67.4154354  23.4870261  30.5588800  68.8807622
  16.2481086  33.4874543  61.1568757  17.0402378  33.1465368  60.7415056
  16.4877737  33.5969518  62.0770910  24.2816213  35.6594319  53.6299001
  23.6304193  36.2448400  53.2433015  25.0760576  36.1900514  53.6894039
  18.2071840  32.7483457  54.0286135  18.9802716  32.2012444  53.8899011
  18.5597239  33.6127706  54.2400597  20.0456883  34.0759839  67.2353035
  19.7546749  34.9805470  67.1199701  20.6813867  34.1176366  67.9497104
  20.9713090  31.4536687  63.8254394  21.5676662  31.2292710  63.1111357
  21.0288061  30.7121433  64.4279842  20.5438118  28.9076123  51.6604585
  20.7963639  28.3857644  50.8988048  19.6062677  28.7442268  51.7631269
  25.5881401  27.9111901  59.4679329  26.3744490  27.4931324  59.1169746
  25.8520105  28.8157993  59.6360977  25.7591478  33.3484751  54.1667985
  25.1237311  33.4219378  54.8788890  25.4288885  33.9378350  53.4887065
  30.9889828  27.8487134  60.3712307  31.7215000  27.2786351  60.6050137
  30.2329184  27.4608735  60.8118813  20.2634407  30.8104229  53.8628960
  20.1470665  30.1349132  54.5310045  20.3736667  30.3236603  53.0461113
  22.6065948  30.2714376  57.5675650  22.2424155  29.7444997  58.2788571
  23.4633064  29.8812845  57.3942135  28.5115249  21.5608708  64.8306916
  28.1798573  22.4304119  64.6068131  27.9160862  21.2444992  65.5100946
  22.2471435  25.3004275  52.5636998  22.4145837  26.1684512  52.9307469
  22.0568604  25.4631557  51.6398287  25.0046768  33.7621254  64.2302828
  24.7047491  34.6646293  64.1218636  24.6597828  33.4953438  65.0823981
  18.4559250  30.2135051  60.2639533  17.5309746  30.0811265  60.4717225
  18.7043663  30.9929270  60.7609475  28.4043912  26.2803794  61.9100266
  27.4960789  26.2119203  61.6159027  28.3531508  26.7575739  62.7382091
  22.2260656  27.7561933  53.5483665  22.1060281  28.2018984  54.3869145
  21.5313244  28.1047251  52.9897203  15.8168061  29.8568325  61.0983322
  15.9460442  30.1102804  62.0122734  15.1365512  30.4496033  60.7787977
  19.9867548  40.5265575  57.1973796  19.9091578  41.4773400  57.2762277
  19.3829191  40.1811447  57.8548722  22.4784778  27.6993440  69.8535163
  21.7018112  28.2587360  69.8438028  23.1175341  28.1850223  70.3750033
  30.2705558  24.4820233  63.6878140  29.6279938  24.7752766  63.0417934
  29.7660487  24.3673153  64.4931336  27.9245722  28.2283406  54.3763999
  28.8363578  28.4610793  54.2011697  27.4155369  28.8120450  53.8139078
  20.7331150  30.5078893  69.4153130  21.4745834  31.0463937  69.1387954
  20.0268135  31.1345182  69.5724682  26.2086490  32.6508034  68.0125292
  26.6169846  32.2090444  67.2679924  25.4863751  32.0760661  68.2659484
  22.5617560  27.5880641  65.3858848  23.4078755  28.0120054  65.5293497
  22.5016197  26.9314265  66.0797412  26.5315304  33.2109225  61.7677580
  25.9024167  33.3754939  61.0653648  26.1440966  33.6250834  62.5388544
  30.4104536  34.1463662  59.1221944  29.7255574  34.5262564  58.5718977
  30.4948385  34.7558989  59.8553892  25.7117005  25.2485009  67.0440022
  25.4677937  26.0027070  66.5074298  25.9876935  25.6270357  67.8787269
  27.6655468  31.7923621  65.7217288  27.8772363  32.4355381  65.0451669
  27.6185216  30.9585938  65.2539218  25.2681697  24.4041442  62.6253860
  24.4066176  24.7022696  62.9170597  25.2944131  24.6211841  61.6934892
  22.0843266  32.9483633  59.0327666  22.5481612  33.2271336  58.2432288
  21.8200064  32.0467077  58.8500756  18.9767347  32.4955114  61.9707429
  19.5468704  32.9242383  61.3324913  19.5675459  32.2137699  62.6691614
  21.0212152  29.0706785  55.8417231  21.7236196  29.5227829  56.3091157
  20.6892781  28.4290604  56.4697124  19.4692514  27.6618542  70.2168440
  18.8391174  28.3434822  70.4503837  19.3628602  27.5501623  69.2721578
  14.7637486  27.3290338  61.1434364  13.9736540  27.5847866  60.6674475
  15.2548733  28.1438675  61.2486405  28.7801296  34.6695577  63.8939645
  29.6018739  34.2675764  63.6122327  28.7763699  34.5663811  64.8455761
  16.7152231  27.6934917  58.1017841  15.9183395  27.8053611  58.6201337
  16.4877824  28.0321569  57.2358731  22.5457899  34.2179620  66.0500356
  22.6102332  34.6800027  66.8858527  21.8368823  33.5876985  66.1782665
  13.0475189  27.5820828  63.5749355  13.2983228  28.4667838  63.8406931
  13.5834738  27.4025430  62.8024447  36.8707289  31.0134325  60.2424617
  36.1170997  30.4441723  60.0868621  37.0054830  30.9796990  61.1895251
  22.2605917  35.8847728  55.9179336  22.1251592  36.7299263  56.3464184
  22.8015729  36.0867005  55.1545270  18.7473256  21.9639307  72.5793691
  18.3540202  21.4105506  73.2541335  19.5639397  22.2749886  72.9700209
  15.7135314  33.4023166  56.4907261  16.2259835  34.1966416  56.6412826
  16.3658027  32.7049456  56.4240862  17.5230199  36.5188922  58.5730014
  17.6996827  37.4406887  58.3850998  18.3187032  36.2047341  59.0024394
  21.6641217  23.3797187  70.1713948  22.4050931  23.9804340  70.0918410
  21.8959140  22.6374824  69.6131990  16.8082555  28.5653554  68.4492177
  16.6936071  27.6638811  68.7499276  15.9527073  28.8117251  68.0976994
  23.8874393  36.5071294  70.0479678  23.4438247  35.7207673  69.7300582
  24.5491607  36.6950445  69.3823569  18.6461514  38.0367096  64.5740356
  19.1968939  37.9084159  63.8017350  17.8072990  38.3361985  64.2235249
  25.9855631  36.7874094  68.0761079  25.9674107  37.6082975  67.5841348
  26.9075551  36.6628169  68.3011220  22.4428685  34.3018224  68.9184588
  22.9757022  33.5406512  68.6883896  21.9142766  34.0091875  69.6608742
  25.6098380  19.4078289  64.4478229  25.2662650  20.2979931  64.3717340
  25.9777343  19.2179947  63.5847814  13.6784231  31.7311820  57.2666831
  14.5159453  32.1408828  57.0500539  13.8562499  30.7911262  57.2367025
  25.5748663  29.3986901  52.9550664  25.0595287  30.1691505  53.1939052
  25.3025972  28.7252037  53.5783726  23.1595774  24.2436601  58.0135903
  22.3037370  23.8543452  57.8341542  23.5722726  24.3228562  57.1535688
  24.6894921  21.7782945  62.4127463  24.1859716  21.7413080  61.5995268
  24.9825528  22.6875687  62.4724119  20.9337807  21.8621674  61.4193644
  21.7990803  21.6664483  61.0599534  21.0015316  21.6332026  62.3463001
  30.5482937  32.1519255  54.8903838  29.7712380  31.8130415  54.4459000
  31.2274418  32.1571878  54.2158803  25.3634966  27.2713993  54.7810446
  25.0585102  27.5860142  55.6320589  26.3165408  27.3495413  54.8237779
  23.8081398  33.4304216  56.4303400  23.2802760  32.6956976  56.1176637
  23.3068901  34.2078892  56.1843368  28.7874244  31.6253236  61.5470446
  28.1297919  32.3152498  61.6350575  29.5914643  32.0149668  61.8904432
  18.5400126  24.0923882  58.7910011  19.1143878  23.8699064  58.0583204
  19.1271108  24.1612577  59.5438612  27.5979703  29.9797609  59.5974388
  28.1111585  30.6127601  60.0996097  28.2480927  29.3798805  59.2317748
  18.8669713  26.1228343  52.8105896  18.0307025  26.4603030  53.1315171
  18.7274482  25.9877323  51.8733033  20.8422793  20.9665131  57.5185081
  20.1887206  20.6514148  56.8941695  20.8003268  20.3440872  58.2444903
  21.9533998  31.2484426  49.4338373  21.0461060  31.0173680  49.6329522
  22.4505030  30.4522046  49.6212354  24.8602077  39.9581933  52.3535059
  24.1863776  40.2613630  52.9620017  25.2467899  40.7611014  52.0040516
  24.0760534  27.4547065  61.8432728  23.1583095  27.6762012  61.6854416
  24.4920677  27.5293375  60.9844436  24.8595582  28.8538480  56.9735408
  25.6067400  29.3659878  56.6642530  25.1287171  28.5322533  57.8339802
  23.1322232  31.3497021  53.9562363  22.2233451  31.0656054  54.0534832
  23.1617316  31.7696100  53.0965670  28.3641499  34.9603611  57.7253530
  27.9103826  34.1194521  57.7818721  27.7335466  35.5965009  58.0628310
  27.3074419  25.8895597  58.9554198  26.5697175  25.3772983  59.2864440
  27.5601192  25.4495978  58.1437475  26.8074438  36.7980107  58.6603348
  27.0997413  37.3585164  57.9415714  27.3173059  37.0908668  59.4156508
  27.4086046  18.6671849  59.5495967  27.7144923  17.8069212  59.2621882
  28.1338651  19.2589469  59.3494961  13.7010402  29.0702535  57.9377565
  13.5034802  28.4771896  57.2128632  13.1457066  28.7654745  58.6553504
  21.6807126  28.9625642  60.0572158  21.7355736  28.0099478  59.9814635
  20.8698328  29.1185081  60.5413457  22.8298320  32.8905765  51.2950441
  22.3917749  32.1741624  50.8356079  23.5708760  33.1181880  50.7335533
  19.6199486  27.5802701  57.8162537  18.8067351  27.8796872  58.2227729
  20.1158480  27.1858390  58.5337019  21.7708064  37.5760458  59.7496802
  21.7284242  37.8021305  58.8205334  22.6870762  37.3423833  59.8982603
  25.2173697  28.0444526  66.6477431  25.5723085  28.2715999  67.5071897
  25.8645829  28.3762903  66.0254686  30.9471434  31.1662962  57.3526760
  30.8089333  31.3564558  56.4247949  30.5907653  31.9282345  57.8094811
  19.1113560  25.1521057  63.4323772  19.7512940  25.0109816  62.7346735
  18.2791091  24.8655570  63.0562374  30.9740814  33.2339489  62.3638031
  31.4077321  33.1414778  63.2121085  31.6872395  33.2096989  61.7258047
  19.8873864  34.4523487  59.5458764  20.6814463  33.9573808  59.3441339
  19.1765557  33.9241351  59.1826470  24.7068709  36.8341583  63.8971132
  24.7605731  37.4032519  64.6648848  23.8383490  37.0043468  63.5325169
  16.1956628  28.5966569  55.6218517  15.2654216  28.5351025  55.8388479
  16.2914100  28.0742522  54.8255158  16.1142177  25.1221382  58.2096759
  16.3748994  26.0366715  58.1005919  16.9359349  24.6545825  58.3593372
  17.5867102  26.5359139  65.3795583  18.2590156  26.3276501  64.7308232
  16.7596889  26.3381225  64.9400816  31.8356363  33.2763189  64.8970917
  32.0292254  34.1809000  65.1430192  31.7356982  32.8170609  65.7309502
  23.4892674  23.1621080  67.3961244  22.8420589  23.8611030  67.3025721
  24.2593690  23.5957224  67.7637492  26.8971472  33.4269932  70.4711797
  26.7456979  33.1980484  69.5541881  26.8876152  34.3840534  70.4843142
  23.6656809  31.0001845  65.4558064  24.5948869  31.1513005  65.2827031
  23.2447839  31.0885866  64.6006710  22.4645140  35.0252509  63.2256601
  22.3256226  34.6571294  64.0982540  21.6759737  35.5400149  63.0540559
  23.0593292  40.1261606  54.5682138  23.2345048  39.6549649  55.3827761
  22.3726080  40.7527372  54.7963399  24.0150355  34.4034112  60.6145439
  23.6800188  34.3634882  61.5103089  23.5154301  33.7378828  60.1415849
  17.9894599  29.8101742  66.1398020  17.8514397  29.0781981  66.7409559
  18.8999523  29.7210642  65.8582208  26.9509547  31.7490146  50.8882499
  26.3338718  31.0236975  50.7915552  26.4826036  32.5099507  50.5449573
  20.6176900  29.5221701  65.6281700  21.3276519  28.8814894  65.5868318
  20.5746208  29.7734596  66.5507881  28.6063679  36.4589055  68.5488279
  28.5476225  35.7748275  67.8818862  29.0083197  37.2008045  68.0968905
  19.3305834  26.5086919  67.4477340  18.7943191  26.0577658  68.0998936
  18.7422543  26.6432828  66.7047804  17.6254378  43.2750969  61.3421998
  17.8650976  43.9069493  62.0201017  16.7823574  42.9239009  61.6287357
  18.7408093  25.9675571  50.0103803  17.8637559  25.8464372  49.6466050
  19.2165846  25.1761649  49.7582692  28.6081086  34.4228639  66.7802259
  27.7207865  34.0854561  66.9028658  29.1779637  33.6911670  67.0171024
  10.2610233  30.7552730  60.1045310  10.9481273  30.4414461  59.5166326
  10.1058362  31.6594095  59.8312562  15.0644955  25.6442927  64.5330334
  14.9803144  25.0368597  63.7980744  14.2427662  26.1351945  64.5339830
  22.1382239  39.0830091  63.7463502  22.0652411  39.8885063  64.2582807
  21.6959633  39.2822057  62.9211524  21.9272019  38.3201861  57.2566324
  21.1439541  38.8623541  57.3504548  22.6264764  38.8375841  57.6560565
  25.2368669  24.1296491  59.9000529  25.7337369  23.3766453  59.5801599
  24.4655651  24.1660807  59.3343738  33.0898427  29.8336856  61.5418821
  33.0788303  30.7161572  61.1712754  32.2215806  29.4808407  61.3473358
  24.5980923  38.9816925  65.9021661  25.3108895  39.6164390  65.8297562
  24.1070952  39.0780791  65.0861663  26.3198450  32.8868178  57.4738952
  25.3854729  33.0069640  57.3043657  26.4975118  31.9840645  57.2098962
  21.8203638  26.2713874  59.6272214  21.4501425  25.7184914  60.3153119
  22.3162730  25.6672007  59.0747214  29.7071001  28.7285497  58.0088987
  30.1731453  29.5613489  57.9349289  30.1578502  28.2630479  58.7134245
  19.6492836  36.7311369  66.7227232  20.3502296  37.3647852  66.8756626
  19.1787951  37.0726100  65.9622871  27.7747232  35.0729318  55.0075139
  28.0507076  34.9585913  55.9169013  26.9051731  34.6746803  54.9687312
  27.6787664  21.0966084  62.0479888  26.7650744  21.3270311  62.2162095
  28.1080765  21.1804528  62.8993920  27.4494122  29.2855976  64.5479782
  26.7965573  29.5331883  63.8932235  27.8274502  28.4720114  64.2142259
  24.4101296  39.3215669  58.6507952  24.5923691  38.5037325  59.1135705
  25.2334282  39.5383361  58.2132842  24.7443462  38.2483854  55.9123001
  25.2731228  37.7376309  55.2993163  25.0071681  37.9326385  56.7768534
  23.4981695  30.0275787  71.0345819  22.8222333  29.9269916  71.7048194
  24.3209329  29.8715001  71.4981816  15.2460555  36.2647724  63.6558334
  15.8313991  35.5191412  63.7886239  15.0485393  36.5751680  64.5394998
  18.0999210  39.2998971  58.6720777  17.4309585  39.7845099  58.1884817
  17.9612079  39.5468191  59.5864155   9.8378209  28.8353324  62.3762777
   9.8762309  28.3016915  63.1699896   9.3318502  28.3088529  61.7573755
  22.2404478  41.3342715  65.2703435  22.7922786  41.4974336  66.0352520
  22.5810672  41.9247152  64.5983460  17.2168972  23.6817864  65.8725320
  17.2810298  24.5432695  65.4602717  17.1536092  23.0691866  65.1397678
  16.6921244  25.7540997  69.5198354  17.3193283  25.3718074  70.1335878
  15.8349163  25.5355199  69.8854047  27.0915353  36.1603972  71.1252089
  27.6355257  36.7733930  70.6307044  26.5102198  36.7183550  71.6419102
  13.4686787  27.5617426  55.4516709  13.7640228  26.6528104  55.3983763
  12.5674823  27.5405165  55.1297711  25.3772866  39.2824690  62.2567117
  25.2524005  38.4814430  61.7478063  26.0351957  39.7770883  61.7681087
  16.9981034  25.6373423  61.4344257  16.2767620  26.2509390  61.2951731
  17.7874290  26.1731187  61.3560903  27.4407774  37.0833710  63.8846667
  26.4938110  36.9639061  63.8124994  27.7890547  36.1956208  63.9672929
  19.8007347  22.9727849  67.7084909  20.3241749  23.2190146  68.4711219
  19.5819681  23.8047884  67.2888047  15.1974628  25.2431524  55.5756034
  14.8687335  24.3628903  55.3931140  15.5513999  25.1879192  56.4632423
  24.4454207  36.8786426  60.0851020  24.2979170  35.9503134  60.2658590
  25.2707701  36.9006517  59.6008095  18.3116452  25.5304493  55.9431512
  18.6512524  26.0590415  55.2210120  18.7588572  25.8684900  56.7190078
  28.0488329  37.7014985  61.1715892  28.9734877  37.4957846  61.0340343
  27.8803633  37.4531386  62.0805234  21.0059892  23.9141544  65.3934580
  20.6656713  23.1149357  65.7955260  20.2998899  24.2143255  64.8211413
  21.6576364  20.9990857  63.8461903  22.4802434  20.5251335  63.7240793
  21.9014428  21.7781340  64.3460589  20.2984599  24.0279115  54.1424804
  21.0192961  24.4060368  53.6388521  19.6749903  24.7467992  54.2459782
  24.4415722  24.7324264  55.0783137  24.6579336  25.6148902  54.7771965
  23.9609789  24.3410477  54.3488779  19.1814943  27.6909977  61.6553881
  19.0359524  28.0050280  62.5478163  18.7040147  28.3094878  61.1024780
  21.0411326  24.6812525  61.7034771  21.0272895  23.7853619  61.3667069
  21.7583754  24.6883189  62.3373057  22.8937457  25.1149865  63.7487898
  22.6355234  26.0366936  63.7472229  22.3622497  24.7180300  64.4388362
  27.8383645  38.2200653  56.5277984  28.0120523  37.6547075  55.7751836
  28.3312537  39.0201547  56.3457474  13.6560605  30.2315322  64.5941543
  13.1114073  31.0075130  64.7261817  14.5339955  30.5786126  64.4360664
  20.4448222  23.5626906  56.9722341  20.5664133  22.6343552  57.1713229
  20.1550264  23.5765591  56.0600656  23.3139412  21.2481816  60.1089061
  23.3361109  21.3121149  59.1541040  23.7307471  20.4086325  60.3029567
  33.6923037  30.9837075  58.1468283  34.1354183  30.2344401  57.7487407
  32.8149547  30.9747212  57.7642015  28.8258818  37.5367417  53.6274882
  29.5209722  38.1574110  53.8462197  29.1681968  36.6862768  53.9027260
  14.4426627  29.3585218  67.4871699  13.7008363  29.5067853  68.0736330
  14.1219371  29.6193484  66.6238449  30.7250241  34.9867122  55.1562213
  31.2501565  35.3254395  54.4311533  30.6372594  34.0514138  54.9725347
  22.3870290  38.9001196  67.2852089  22.6957416  38.6550343  68.1574789
  23.1845772  39.1047835  66.7970960  22.4090902  41.0539106  59.5157466
  21.9695892  40.5615484  60.2090323  23.1599019  40.5112073  59.2749541
  14.8883241  37.2450647  59.5182094  15.7141261  36.9454418  59.1380738
  14.5377293  36.4758269  59.9671883  19.8564774  36.5977115  61.5879768
  19.2344783  35.9347820  61.2881995  20.5269641  36.6238247  60.9053415
  13.0891846  35.1636973  60.4771028  12.2523754  34.7359147  60.2955029
  13.0615491  35.3569416  61.4141819  19.9289301  25.0758903  71.1812274
  19.9777457  25.9521026  70.7990043  20.4711816  24.5336296  70.6083917
  30.4144147  35.6200026  70.4613411  29.6239691  35.6024165  69.9217910
  30.1777502  36.1588320  71.2162447  30.5342022  32.4692492  67.7746139
  30.5840027  32.3042500  68.7161662  30.4255945  31.6019752  67.3844020
  19.4178281  35.1481038  55.0638228  19.5666401  35.8316503  54.4104901
  20.2244724  35.1286128  55.5787684  27.8245785  28.4523421  69.0905446
  28.7255647  28.3129885  68.7989444  27.8993759  28.6177875  70.0303623
  22.1588590  25.8290275  67.9358632  21.2891899  26.1223841  67.6641221
  22.3948070  26.4130720  68.6565896  32.0360219  34.8889434  68.0188161
  31.7445027  35.2519415  68.8551622  31.4232350  34.1756442  67.8401493
  33.2355901  32.4542314  60.5390731  34.0702793  32.8932118  60.7028291
  33.3715030  31.9780967  59.7198977  30.2847407  30.0122049  66.4868219
  30.7601529  30.2049695  65.6787070  29.3612973  30.0681234  66.2411602
  17.1730914  31.1746216  56.0699297  16.9276956  30.2708546  56.2679507
  17.3426828  31.1763366  55.1278775  24.8627624  22.0469892  65.4524053
  25.3809568  22.7830919  65.1270541  24.5082756  22.3533885  66.2870812
  16.4426561  26.9074573  53.5685459  15.7495806  26.9818928  52.9125495
  16.1978313  26.1434917  54.0906975  25.1140218  18.4670175  60.9724949
  25.3941972  17.7993364  61.5985376  25.8990825  18.6599270  60.4599613
  22.9173686  37.6429169  52.5349976  22.3447653  38.2619356  52.0820447
  23.4906480  38.1928530  53.0689898  28.9849076  26.8887809  64.7196524
  29.9366499  26.9885906  64.7408748  28.8152527  26.0966077  65.2294609
  27.0063456  23.9743392  64.9055925  26.4113388  24.2548405  64.2102414
  26.7213152  24.4637293  65.6772666  26.1370946  37.9266319  53.6658558
  27.0701619  37.8611880  53.8691433  26.0494159  38.7622586  53.2073091
  28.7658963  37.2432189  50.6262505  28.6872594  36.9092053  51.5198263
  29.5868630  37.7353957  50.6253978  31.4637154  30.1093928  63.8338824
  31.4313474  29.1709929  64.0198508  32.0737778  30.1877965  63.1004649
  23.3020485  28.9789981  49.8766028  24.2479590  28.8496189  49.9454446
  22.9234730  28.2404643  50.3535456  31.6131642  26.9004972  63.8797107
  31.0970691  26.1163428  63.6927036  32.4971591  26.5723688  64.0443627
  29.2742369  20.6445987  59.8392920  29.0767191  20.3361076  60.7236252
  29.8842075  21.3707626  59.9690850  37.2813704  31.1709935  62.9744861
  38.0117092  30.9095223  63.5352564  36.6720649  30.4338657  63.0146929
  35.3629001  29.3117798  63.5719312  34.6362165  29.1773763  62.9635804
  34.9476288  29.6194626  64.3776030  23.1859177  33.0307728  71.3366685
  24.1062187  33.2086327  71.5306732  23.1508760  32.0863773  71.1846384
  21.4863402  26.9039958  49.8120913  20.5794857  26.6073070  49.8883627
  21.7639383  26.6069776  48.9455200  12.4041342  28.2246321  60.2619960
  12.0844127  27.3711629  59.9694334  11.8574771  28.4394899  61.0177927
  16.1821250  30.9408762  63.9789466  16.4007260  31.8725870  63.9977500
  16.5947024  30.5816737  64.7644270  23.1025468  21.4476847  55.9665155
  22.2926196  21.1023932  56.3420401  23.7909885  21.1384391  56.5552766
  25.0316016  20.5254894  57.5889451  25.5847055  20.9450348  58.2479474
  25.2686102  19.5990642  57.6312407  21.0549115  26.5141968  73.3692215
  20.9545842  27.4636325  73.3004306  20.8370657  26.1860207  72.4968285
  20.2562187  23.7626893  49.9532893  21.1181351  24.0881791  50.2128710
  20.4412531  22.9758389  49.4405958  12.2729602  31.8449233  62.2313081
  11.5793074  31.4303185  61.7183036  13.0202593  31.8869769  61.6346500
  28.4094823  22.6355419  57.0968116  27.8293492  23.2940223  56.7146168
  28.1430756  21.8132764  56.6855533  26.8598389  22.0360477  59.2989436
  27.3598168  22.1477012  58.4903755  27.5033997  21.7321530  59.9390244
  20.9180385  29.9439107  72.1857277  20.4347467  30.7439467  72.3921166
  21.0041324  29.9547052  71.2324721  14.1866345  31.7767486  60.1079096
  14.1637033  31.8755174  59.1560979  14.4966981  32.6232637  60.4296262
  16.8453723  33.8343641  64.2225711  17.7996976  33.8027584  64.1555642
  16.6466246  33.3734265  65.0375937  17.4353105  32.4044758  66.7896508
  18.2545994  32.8988836  66.8131346  17.7089913  31.4876726  66.7614076
  27.1919701  24.7955510  56.1524464  26.3045556  25.0805160  55.9344659
  27.6073690  24.6349273  55.3051741  30.5434237  24.8202031  59.8678803
  31.3194627  25.3098483  60.1403420  29.8182371  25.2460085  60.3250673
  32.9806796  25.5329650  60.9252744  33.5751287  25.2925386  60.2146052
  33.0533380  24.8136781  61.5526280  15.2003952  39.3763261  61.2395908
  15.0658419  38.6163662  60.6733907  14.7836014  40.1004161  60.7724697
  26.3362915  34.5600185  50.2472484  27.0398765  34.7650187  50.8630139
  25.6125563  35.1276946  50.5121567  27.1660725  30.3110046  56.3674754
  27.1095926  30.7678597  55.5282386  27.7189067  29.5500730  56.1897597
  30.9765531  26.0999778  57.1924873  30.7202465  25.6996413  58.0233081
  30.3518399  26.8143572  57.0675013  35.2877869  28.8395851  59.6996165
  34.7277427  28.9089040  60.4727727  34.6821372  28.6636836  58.9795661
  18.3573077  40.2732578  61.4514351  18.2405462  41.2178010  61.3493041
  17.5365524  39.9706140  61.8400150  28.2449612  34.9982714  52.2970944
  29.0795216  34.5663912  52.1148419  28.0833955  34.8264727  53.2247838
  27.8995504  31.5014827  53.6627283  27.8444308  31.3359098  52.7215727
  27.2741559  32.2090860  53.8189473  12.6888019  26.7382891  67.4888705
  13.3346883  26.2281845  67.9775931  12.4805170  27.4751573  68.0632131
  25.2141411  33.8063739  72.9880846  26.0832571  33.9804391  72.6267481
  24.7348163  34.6258156  72.8656575  21.2091630  21.0022936  53.2412602
  21.1970299  21.9464776  53.3980872  22.1015051  20.8193081  52.9472063
  19.3827592  40.9260840  64.6670280  20.2854838  40.9584450  64.9836775
  19.1564962  39.9961291  64.6816615  21.1381194  39.6791826  61.3280358
  20.1876825  39.6793688  61.2144730  21.4413680  38.9324561  60.8116393
  25.0243749  17.5965713  57.4958538  24.2576145  17.0424199  57.6415221
  25.4354454  17.6687581  58.3572690  17.0285510  23.8850508  71.5863720
  17.8916972  23.5287313  71.7967044  16.4550921  23.5464403  72.2739124
  36.8733887  45.5152365  62.3926121  37.5112297  45.3959112  61.6889461
  36.7554730  46.4633209  62.4514073  33.6823593  45.4679793  62.3287645
  33.3442105  45.3520858  61.4408180  34.5513362  45.0670958  62.3088651
  29.5410409  47.3215269  58.3184536  28.9775274  47.2305206  57.5500824
  29.4262804  46.5015174  58.7987029  34.1643376  46.6214645  68.2873851
  34.1532017  46.2267443  67.4154354  34.3264016  45.8880717  68.8807622
  27.0874841  48.8166461  61.1568757  27.8796133  48.4757286  60.7415056
  27.3271491  48.9261436  62.0770910  29.0465595  48.0775374  54.0286135
  29.8196471  47.5304361  53.8899011  29.3990994  48.9419624  54.2400597
  30.8850637  49.4051756  67.2353035  30.5940503  50.3097387  67.1199701
  31.5207622  49.4468284  67.9497104  31.8106844  46.7828605  63.8254394
  32.4070417  46.5584627  63.1111357  31.8681816  46.0413350  64.4279842
  31.3831873  44.2368040  51.6604585  31.6357393  43.7149562  50.8988048
  30.4456432  44.0734186  51.7631269  36.4275156  43.2403819  59.4679329
  37.2138245  42.8223242  59.1169746  36.6913860  44.1449911  59.6360977
  36.5985233  48.6776669  54.1667985  35.9631066  48.7511295  54.8788890
  36.2682639  49.2670268  53.4887065  31.1028161  46.1396146  53.8628960
  30.9864420  45.4641050  54.5310045  31.2130421  45.6528520  53.0461113
  33.4459702  45.6006293  57.5675650  33.0817910  45.0736914  58.2788571
  34.3026818  45.2104762  57.3942135  39.3509003  36.8900626  64.8306916
  39.0192328  37.7596037  64.6068131  38.7554616  36.5736910  65.5100946
  33.0865189  40.6296193  52.5636998  33.2539592  41.4976429  52.9307469
  32.8962358  40.7923475  51.6398287  35.8440523  49.0913172  64.2302828
  35.5441246  49.9938211  64.1218636  35.4991582  48.8245355  65.0823981
  29.2953004  45.5426969  60.2639533  28.3703501  45.4103183  60.4717225
  29.5437417  46.3221188  60.7609475  39.2437666  41.6095712  61.9100266
  38.3354544  41.5411121  61.6159027  39.1925262  42.0867657  62.7382091
  33.0654410  43.0853851  53.5483665  32.9454035  43.5310901  54.3869145
  32.3706999  43.4339168  52.9897203  26.6561815  45.1860242  61.0983322
  26.7854196  45.4394721  62.0122734  25.9759266  45.7787950  60.7787977
  33.3178532  43.0285358  69.8535163  32.5411866  43.5879278  69.8438028
  33.9569095  43.5142141  70.3750033  41.1099313  39.8112151  63.6878140
  40.4673693  40.1044684  63.0417934  40.6054241  39.6965071  64.4931336
  38.7639476  43.5575324  54.3763999  39.6757333  43.7902710  54.2011697
  38.2549123  44.1412368  53.8139078  31.5724904  45.8370811  69.4153130
  32.3139589  46.3755855  69.1387954  30.8661890  46.4637100  69.5724682
  37.0480244  47.9799952  68.0125292  37.4563600  47.5382362  67.2679924
  36.3257506  47.4052579  68.2659484  33.4011314  42.9172558  65.3858848
  34.2472509  43.3411972  65.5293497  33.3409952  42.2606183  66.0797412
  36.5510759  40.5776927  67.0440022  36.3071691  41.3318987  66.5074298
  36.8270690  40.9562274  67.8787269  36.1075451  39.7333360  62.6253860
  35.2459930  40.0314613  62.9170597  36.1337886  39.9503759  61.6934892
  32.9237021  48.2775550  59.0327666  33.3875366  48.5563253  58.2432288
  32.6593819  47.3758995  58.8500756  29.8161102  47.8247032  61.9707429
  30.3862459  48.2534300  61.3324913  30.4069214  47.5429617  62.6691614
  31.8605907  44.3998703  55.8417231  32.5629950  44.8519746  56.3091157
  31.5286535  43.7582522  56.4697124  30.3086268  42.9910459  70.2168440
  29.6784929  43.6726740  70.4503837  30.2022356  42.8793541  69.2721578
  25.6031241  42.6582255  61.1434364  24.8130295  42.9139784  60.6674475
  26.0942488  43.4730593  61.2486405  27.5545986  43.0226835  58.1017841
  26.7577149  43.1345529  58.6201337  27.3271578  43.3613487  57.2358731
  33.3851654  49.5471538  66.0500356  33.4496086  50.0091945  66.8858527
  32.6762577  48.9168903  66.1782665  23.8868944  42.9112746  63.5749355
  24.1376982  43.7959756  63.8406931  24.4228492  42.7317347  62.8024447
  29.5867011  37.2931225  72.5793691  29.1933956  36.7397424  73.2541335
  30.4033151  37.6041804  72.9700209  26.5529069  48.7315083  56.4907261
  27.0653589  49.5258334  56.6412826  27.2051781  48.0341374  56.4240862
  28.3623953  51.8480840  58.5730014  28.5390582  52.7698804  58.3850998
  29.1580787  51.5339259  59.0024394  32.5034972  38.7089104  70.1713948
  33.2444685  39.3096257  70.0918410  32.7352895  37.9666742  69.6131990
  27.6476310  43.8945471  68.4492177  27.5329825  42.9930729  68.7499276
  26.7920828  44.1409168  68.0976994  34.7268148  51.8363212  70.0479678
  34.2832002  51.0499590  69.7300582  35.3885361  52.0242362  69.3823569
  29.4855269  53.3659013  64.5740356  30.0362694  53.2376077  63.8017350
  28.6466745  53.6653902  64.2235249  33.2822440  49.6310141  68.9184588
  33.8150777  48.8698429  68.6883896  32.7536521  49.3383793  69.6608742
  36.4492135  34.7370207  64.4478229  36.1056404  35.6271849  64.3717340
  36.8171097  34.5471865  63.5847814  24.5177985  47.0603738  57.2666831
  25.3553207  47.4700746  57.0500539  24.6956253  46.1203180  57.2367025
  36.4142418  44.7278818  52.9550664  35.8989041  45.4983423  53.1939052
  36.1419726  44.0543954  53.5783726  33.9989529  39.5728519  58.0135903
  33.1431125  39.1835369  57.8341542  34.4116480  39.6520480  57.1535688
  35.5288675  37.1074862  62.4127463  35.0253471  37.0704997  61.5995268
  35.8219282  38.0167605  62.4724119  31.7731561  37.1913592  61.4193644
  32.6384558  36.9956401  61.0599534  31.8409070  36.9623944  62.3463001
  36.2028721  42.6005910  54.7810446  35.8978856  42.9152060  55.6320589
  37.1559163  42.6787330  54.8237779  29.3793880  39.4215800  58.7910011
  29.9537632  39.1990981  58.0583204  29.9664863  39.4904494  59.5438612
  38.4373457  45.3089527  59.5974388  38.9505339  45.9419519  60.0996097
  39.0874681  44.7090722  59.2317748  29.7063467  41.4520261  52.8105896
  28.8700780  41.7894948  53.1315171  29.5668237  41.3169241  51.8733033
  31.6816548  36.2957049  57.5185081  31.0280960  35.9806066  56.8941695
  31.6397022  35.6732789  58.2444903  32.7927753  46.5776344  49.4338373
  31.8854814  46.3465597  49.6329522  33.2898785  45.7813963  49.6212354
  34.9154288  42.7838982  61.8432728  33.9976850  43.0053929  61.6854416
  35.3314432  42.8585293  60.9844436  35.6989336  44.1830398  56.9735408
  36.4461155  44.6951795  56.6642530  35.9680926  43.8614451  57.8339802
  33.9715986  46.6788939  53.9562363  33.0627205  46.3947972  54.0534832
  34.0011070  47.0988017  53.0965670  38.1468173  41.2187514  58.9554198
  37.4090930  40.7064901  59.2864440  38.3994947  40.7787896  58.1437475
  38.2479800  33.9963766  59.5495967  38.5538677  33.1361130  59.2621882
  38.9732405  34.5881387  59.3494961  24.5404157  44.3994453  57.9377565
  24.3428556  43.8063814  57.2128632  23.9850821  44.0946663  58.6553504
  32.5200880  44.2917559  60.0572158  32.5749490  43.3391396  59.9814635
  31.7092082  44.4476999  60.5413457  33.6692074  48.2197682  51.2950441
  33.2311504  47.5033541  50.8356079  34.4102515  48.4473797  50.7335533
  30.4593240  42.9094619  57.8162537  29.6461106  43.2088790  58.2227729
  30.9552234  42.5150308  58.5337019  36.0567452  43.3736444  66.6477431
  36.4116840  43.6007917  67.5071897  36.7039583  43.7054820  66.0254686
  29.9507315  40.4812975  63.4323772  30.5906694  40.3401734  62.7346735
  29.1184845  40.1947488  63.0562374  30.7267619  49.7815405  59.5458764
  31.5208217  49.2865725  59.3441339  30.0159311  49.2533268  59.1826470
  27.0350382  43.9258487  55.6218517  26.1047970  43.8642942  55.8388479
  27.1307854  43.4034440  54.8255158  26.9535931  40.4513300  58.2096759
  27.2142749  41.3658633  58.1005919  27.7753104  39.9837742  58.3593372
  28.4260857  41.8651057  65.3795583  29.0983910  41.6568419  64.7308232
  27.5990643  41.6673143  64.9400816  34.3286429  38.4912998  67.3961244
  33.6814344  39.1902947  67.3025721  35.0987444  38.9249142  67.7637492
  37.7365227  48.7561850  70.4711797  37.5850733  48.5272402  69.5541881
  37.7269906  49.7132451  70.4843142  34.5050563  46.3293763  65.4558064
  35.4342623  46.4804922  65.2827031  34.0841593  46.4177783  64.6006710
  28.8288354  45.1393660  66.1398020  28.6908152  44.4073899  66.7409559
  29.7393277  45.0502560  65.8582208  37.7903302  47.0782064  50.8882499
  37.1732472  46.3528892  50.7915552  37.3219790  47.8391424  50.5449573
  31.4570655  44.8513619  65.6281700  32.1670273  44.2106811  65.5868318
  31.4139963  45.1026514  66.5507881  30.1699589  41.8378837  67.4477340
  29.6336946  41.3869575  68.0998936  29.5816297  41.9724746  66.7047804
  28.4648132  58.6042886  61.3421998  28.7044730  59.2361410  62.0201017
  27.6217329  58.2530926  61.6287357  29.5801848  41.2967488  50.0103803
  28.7031314  41.1756289  49.6466050  30.0559601  40.5053567  49.7582692
  21.1003988  46.0844648  60.1045310  21.7875027  45.7706378  59.5166326
  20.9452116  46.9886013  59.8312562  25.9038710  40.9734845  64.5330334
  25.8196899  40.3660514  63.7980744  25.0821416  41.4643863  64.5339830
  36.0762424  39.4588408  59.9000529  36.5731123  38.7058371  59.5801599
  35.3049405  39.4952725  59.3343738  32.6597392  41.6005791  59.6272214
  32.2895180  41.0476832  60.3153119  33.1556485  40.9963925  59.0747214
  30.4886591  52.0603286  66.7227232  31.1896050  52.6939769  66.8756626
  30.0181706  52.4018018  65.9622871  38.5181418  36.4258002  62.0479888
  37.6044498  36.6562229  62.2162095  38.9474520  36.5096446  62.8993920
  38.2887877  44.6147894  64.5479782  37.6359327  44.8623801  63.8932235
  38.6668257  43.8012032  64.2142259  34.3375450  45.3567705  71.0345819
  33.6616087  45.2561834  71.7048194  35.1603084  45.2006918  71.4981816
  26.0854309  51.5939641  63.6558334  26.6707746  50.8483329  63.7886239
  25.8879148  51.9043598  64.5394998  28.9392964  54.6290889  58.6720777
  28.2703340  55.1137016  58.1884817  28.8005834  54.8760109  59.5864155
  20.6771964  44.1645242  62.3762777  20.7156063  43.6308832  63.1699896
  20.1712257  43.6380447  61.7573755  28.0562726  39.0109782  65.8725320
  28.1204053  39.8724613  65.4602717  27.9929846  38.3983784  65.1397678
  27.5314999  41.0832915  69.5198354  28.1587037  40.7009992  70.1335878
  26.6742917  40.8647116  69.8854047  24.3080541  42.8909344  55.4516709
  24.6033982  41.9820022  55.3983763  23.4068577  42.8697083  55.1297711
  27.8374788  40.9665340  61.4344257  27.1161374  41.5801308  61.2951731
  28.6268044  41.5023105  61.3560903  30.6401102  38.3019767  67.7084909
  31.1635504  38.5482063  68.4711219  30.4213435  39.1339802  67.2888047
  26.0368383  40.5723441  55.5756034  25.7081089  39.6920820  55.3931140
  26.3907754  40.5171110  56.4632423  29.1510206  40.8596411  55.9431512
  29.4906279  41.3882332  55.2210120  29.5982327  41.1976817  56.7190078
  31.8453647  39.2433462  65.3934580  31.5050467  38.4441275  65.7955260
  31.1392653  39.5435173  64.8211413  32.4970119  36.3282774  63.8461903
  33.3196188  35.8543252  63.7240793  32.7408182  37.1073258  64.3460589
  31.1378353  39.3571033  54.1424804  31.8586716  39.7352285  53.6388521
  30.5143657  40.0759910  54.2459782  35.2809476  40.0616182  55.0783137
  35.4973091  40.9440820  54.7771965  34.8003543  39.6702395  54.3488779
  30.0208698  43.0201895  61.6553881  29.8753278  43.3342198  62.5478163
  29.5433901  43.6386795  61.1024780  31.8805080  40.0104443  61.7034771
  31.8666649  39.1145536  61.3667069  32.5977509  40.0175107  62.3373057
  33.7331211  40.4441783  63.7487898  33.4748989  41.3658854  63.7472229
  33.2016251  40.0472218  64.4388362  24.4954360  45.5607239  64.5941543
  23.9507828  46.3367047  64.7261817  25.3733710  45.9078044  64.4360664
  31.2841976  38.8918823  56.9722341  31.4057888  37.9635469  57.1713229
  30.9944019  38.9057509  56.0600656  34.1533167  36.5773734  60.1089061
  34.1754864  36.6413067  59.1541040  34.5701226  35.7378242  60.3029567
  25.2820382  44.6877136  67.4871699  24.5402118  44.8359771  68.0736330
  24.9613126  44.9485401  66.6238449  25.7276995  52.5742564  59.5182094
  26.5535015  52.2746336  59.1380738  25.3771047  51.8050187  59.9671883
  30.6958528  51.9269033  61.5879768  30.0738538  51.2639738  61.2881995
  31.3663395  51.9530164  60.9053415  23.9285600  50.4928891  60.4771028
  23.0917509  50.0651065  60.2955029  23.9009246  50.6861334  61.4141819
  30.7683056  40.4050821  71.1812274  30.8171211  41.2812943  70.7990043
  31.3105570  39.8628214  70.6083917  38.6639539  43.7815338  69.0905446
  39.5649402  43.6421803  68.7989444  38.7387513  43.9469793  70.0303623
  32.9982344  41.1582193  67.9358632  32.1285654  41.4515759  67.6641221
  33.2341825  41.7422638  68.6565896  28.0124668  46.5038133  56.0699297
  27.7670710  45.6000463  56.2679507  28.1820583  46.5055284  55.1278775
  35.7021378  37.3761810  65.4524053  36.2203322  38.1122837  65.1270541
  35.3476511  37.6825803  66.2870812  27.2820316  42.2366491  53.5685459
  26.5889561  42.3110846  52.9125495  27.0372068  41.4726835  54.0906975
  35.9533972  33.7962092  60.9724949  36.2335726  33.1285281  61.5985376
  36.7384579  33.9891188  60.4599613  39.8242831  42.2179726  64.7196524
  40.7760254  42.3177824  64.7408748  39.6546281  41.4257995  65.2294609
  37.8457210  39.3035310  64.9055925  37.2507142  39.5840322  64.2102414
  37.5606907  39.7929211  65.6772666  34.1414239  44.3081899  49.8766028
  35.0873344  44.1788107  49.9454446  33.7628484  43.5696561  50.3535456
  40.1136124  35.9737905  59.8392920  39.9160945  35.6652993  60.7236252
  40.7235829  36.6999544  59.9690850  34.0252932  48.3599645  71.3366685
  34.9455941  48.5378244  71.5306732  33.9902515  47.4155691  71.1846384
  32.3257156  42.2331875  49.8120913  31.4188612  41.9364988  49.8883627
  32.6033137  41.9361694  48.9455200  23.2435097  43.5538239  60.2619960
  22.9237881  42.7003547  59.9694334  22.6968525  43.7686817  61.0177927
  27.0215004  46.2700680  63.9789466  27.2401014  47.2017788  63.9977500
  27.4340778  45.9108654  64.7644270  33.9419222  36.7768765  55.9665155
  33.1319951  36.4315850  56.3420401  34.6303639  36.4676309  56.5552766
  35.8709770  35.8546812  57.5889451  36.4240809  36.2742265  58.2479474
  36.1079857  34.9282560  57.6312407  31.8942870  41.8433886  73.3692215
  31.7939597  42.7928243  73.3004306  31.6764412  41.5152125  72.4968285
  31.0955941  39.0918811  49.9532893  31.9575105  39.4173709  50.2128710
  31.2806285  38.3050307  49.4405958  23.1123357  47.1741150  62.2313081
  22.4186828  46.7595103  61.7183036  23.8596348  47.2161687  61.6346500
  39.2488578  37.9647337  57.0968116  38.6687247  38.6232141  56.7146168
  38.9824510  37.1424682  56.6855533  37.6992144  37.3652395  59.2989436
  38.1991922  37.4768929  58.4903755  38.3427752  37.0613448  59.9390244
  31.7574140  45.2731024  72.1857277  31.2741221  46.0731385  72.3921166
  31.8435079  45.2838969  71.2324721  25.0260099  47.1059404  60.1079096
  25.0030787  47.2047091  59.1560979  25.3360736  47.9524555  60.4296262
  27.6847477  49.1635559  64.2225711  28.6390731  49.1319501  64.1555642
  27.4860001  48.7026183  65.0375937  28.2746859  47.7336675  66.7896508
  29.0939748  48.2280754  66.8131346  28.5483667  46.8168643  66.7614076
  38.0313456  40.1247428  56.1524464  37.1439311  40.4097078  55.9344659
  38.4467445  39.9641191  55.3051741  41.3827992  40.1493948  59.8678803
  42.1588382  40.6390401  60.1403420  40.6576126  40.5752003  60.3250673
  26.0397706  54.7055179  61.2395908  25.9052174  53.9455580  60.6733907
  25.6229768  55.4296079  60.7724697  37.1756669  49.8892102  50.2472484
  37.8792519  50.0942105  50.8630139  36.4519318  50.4568864  50.5121567
  38.0054479  45.6401963  56.3674754  37.9489681  46.0970515  55.5282386
  38.5582822  44.8792648  56.1897597  29.1966832  55.6024496  61.4514351
  29.0799216  56.5469928  61.3493041  28.3759278  55.2998057  61.8400150
  38.7389259  46.8306745  53.6627283  38.6838062  46.6651016  52.7215727
  38.1135314  47.5382778  53.8189473  23.5281774  42.0674809  67.4888705
  24.1740637  41.5573763  67.9775931  23.3198925  42.8043491  68.0632131
  36.0535166  49.1355657  72.9880846  36.9226325  49.3096309  72.6267481
  35.5741917  49.9550073  72.8656575  32.0485384  36.3314854  53.2412602
  32.0364054  37.2756694  53.3980872  32.9408806  36.1484999  52.9472063
  35.8637504  32.9257630  57.4958538  35.0969899  32.3716117  57.6415221
  36.2748209  32.9979499  58.3572690  27.8679265  39.2142426  71.5863720
  28.7310726  38.8579231  71.7967044  27.2944675  38.8756321  72.2739124
  50.4446472  67.9016024  50.6262505  50.3660103  67.5675888  51.5198263
  51.2656139  68.3937792  50.6253978  56.7997477  81.6470072  53.6299001
  56.1485456  82.2324153  53.2433015  57.5941840  82.1776267  53.6894039
  53.0619382  74.8951876  51.6604585  53.3144902  74.3733397  50.8988048
  52.1243941  74.7318021  51.7631269  58.2772742  79.3360504  54.1667985
  57.6418575  79.4095131  54.8788890  57.9470148  79.9254103  53.4887065
  54.7441919  73.7437686  53.5483665  54.6241544  74.1894737  54.3869145
  54.0494508  74.0923004  52.9897203  53.5393416  75.0582538  55.8417231
  54.2417459  75.5103582  56.3091157  53.2074044  74.4166357  56.4697124
  49.2333495  73.6810670  58.1017841  48.4364658  73.7929364  58.6201337
  49.0059087  74.0197322  57.2358731  46.1965494  77.7187573  57.2666831
  47.0340716  78.1284581  57.0500539  46.3743762  76.7787015  57.2367025
  58.0929927  75.3862654  52.9550664  57.5776550  76.1567258  53.1939052
  57.8207235  74.7127790  53.5783726  63.0664201  78.1395008  54.8903838
  62.2893643  77.8006168  54.4459000  63.7455682  78.1447631  54.2158803
  57.8816230  73.2589746  54.7810446  57.5766365  73.5735895  55.6320589
  58.8346672  73.3371166  54.8237779  56.3262662  79.4179969  56.4303400
  55.7984023  78.6832729  56.1176637  55.8250164  80.1954645  56.1843368
  51.3850976  72.1104096  52.8105896  50.5488289  72.4478783  53.1315171
  51.2455746  71.9753076  51.8733033  54.4715262  77.2360179  49.4338373
  53.5642323  77.0049433  49.6329522  54.9686294  76.4397799  49.6212354
  55.6503495  77.3372774  53.9562363  54.7414714  77.0531807  54.0534832
  55.6798579  77.7571853  53.0965670  60.8822763  80.9479364  57.7253530
  60.4285090  80.1070274  57.7818721  60.2516729  81.5840762  58.0628310
  55.3479583  78.8781518  51.2950441  54.9099013  78.1617377  50.8356079
  56.0890024  79.1057633  50.7335533  52.1380749  73.5678455  57.8162537
  51.3248615  73.8672625  58.2227729  52.6339743  73.1734143  58.5337019
  48.7137891  74.5842322  55.6218517  47.7835479  74.5226778  55.8388479
  48.8095363  74.0618275  54.8255158  59.4690811  77.7365899  50.8882499
  58.8519981  77.0112728  50.7915552  59.0007299  78.4975260  50.5449573
  51.2589357  71.9551324  50.0103803  50.3818823  71.8340125  49.6466050
  51.7347110  71.1637402  49.7582692  42.7791497  76.7428484  60.1045310
  43.4662536  76.4290214  59.5166326  42.6239625  77.6469848  59.8312562
  60.2928496  81.0605071  55.0075139  60.5688340  80.9461666  55.9169013
  59.4232995  80.6622556  54.9687312  56.9596985  70.7200017  55.0783137
  57.1760600  71.6024655  54.7771965  56.4791052  70.3286230  54.3488779
  61.3440081  83.5243170  53.6274882  62.0390986  84.1449863  53.8462197
  61.6863231  82.6738521  53.9027260  63.2431504  80.9742876  55.1562213
  63.7682829  81.3130148  54.4311533  63.1553857  80.0389891  54.9725347
  45.6073109  81.1512726  60.4771028  44.7705018  80.7234900  60.2955029
  45.5796755  81.3445169  61.4141819  48.9607825  72.8950326  53.5685459
  48.2677070  72.9694681  52.9125495  48.7159577  72.1310670  54.0906975
  55.4354950  83.6304922  52.5349976  54.8628917  84.2495109  52.0820447
  56.0087743  84.1804283  53.0689898  61.2840226  83.2307942  50.6262505
  61.2053858  82.8967806  51.5198263  62.1049893  83.7229710  50.6253978
  55.8201748  74.9665734  49.8766028  56.7660853  74.8371943  49.9454446
  55.4415993  74.2280396  50.3535456  54.0044665  72.8915711  49.8120913
  53.0976121  72.5948824  49.8883627  54.2820646  72.5945529  48.9455200
  58.8544178  80.5475938  50.2472484  59.5580028  80.7525940  50.8630139
  58.1306827  81.1152699  50.5121567  60.7630875  80.9858467  52.2970944
  61.5976479  80.5539665  52.1148419  60.6015218  80.8140480  53.2247838
  60.4176768  77.4890580  53.6627283  60.3625571  77.3234851  52.7215727
  59.7922823  78.1966613  53.8189473  51.9008855  86.9136593  64.6670280
  52.8036102  86.9460203  64.9836775  51.6746225  85.9837044  64.6816615
  69.3915151  91.5028118  62.3926121  70.0293560  91.3834865  61.6889461
  69.2735993  92.4508962  62.4514073  66.2004857  91.4555546  62.3287645
  65.8623368  91.3396611  61.4408180  67.0694625  91.0546711  62.3088651
  62.0591672  93.3091022  58.3184536  61.4956538  93.2180959  57.5500824
  61.9444068  92.4890927  58.7987029  59.6056104  94.8042214  61.1568757
  60.3977396  94.4633039  60.7415056  59.8452755  94.9137189  62.0770910
  67.6391231  96.9761990  53.6299001  66.9879211  97.5616070  53.2433015
  68.4335594  97.5068185  53.6894039  61.5646858  94.0651127  54.0286135
  62.3377734  93.5180114  53.8899011  61.9172257  94.9295377  54.2400597
  63.4031901  95.3927509  67.2353035  63.1121767  96.2973140  67.1199701
  64.0388885  95.4344037  67.9497104  64.3288108  92.7704358  63.8254394
  64.9251680  92.5460380  63.1111357  64.3863079  92.0289103  64.4279842
  63.9013136  90.2243793  51.6604585  64.1538657  89.7025315  50.8988048
  62.9637695  90.0609939  51.7631269  68.9456419  89.2279572  59.4679329
  69.7319508  88.8098995  59.1169746  69.2095123  90.1325664  59.6360977
  69.1166496  94.6652422  54.1667985  68.4812329  94.7387049  54.8788890
  68.7863903  95.2546021  53.4887065  74.3464846  89.1654805  60.3712307
  75.0790018  88.5954022  60.6050137  73.5904202  88.7776405  60.8118813
  63.6209425  92.1271899  53.8628960  63.5045683  91.4516803  54.5310045
  63.7311685  91.6404273  53.0461113  65.9640966  91.5882046  57.5675650
  65.5999173  91.0612667  58.2788571  66.8208082  91.1980515  57.3942135
  65.6046453  86.6171946  52.5636998  65.7720855  87.4852182  52.9307469
  65.4143622  86.7799228  51.6398287  68.3621786  95.0788925  64.2302828
  68.0622509  95.9813964  64.1218636  68.0172846  94.8121108  65.0823981
  61.8134267  91.5302722  60.2639533  60.8884764  91.3978936  60.4717225
  62.0618681  92.3096941  60.7609475  65.5835674  89.0729604  53.5483665
  65.4635299  89.5186654  54.3869145  64.8888262  89.4214921  52.9897203
  59.1743079  91.1735995  61.0983322  59.3035460  91.4270474  62.0122734
  58.4940530  91.7663703  60.7787977  63.3442566 101.8433245  57.1973796
  63.2666596 102.7941070  57.2762277  62.7404209 101.4979118  57.8548722
  71.2820740  89.5451077  54.3763999  72.1938596  89.7778464  54.2011697
  70.7730387  90.1288121  53.8139078  64.0906168  91.8246564  69.4153130
  64.8320852  92.3631608  69.1387954  63.3843153  92.4512853  69.5724682
  69.8890322  94.5276895  61.7677580  69.2599185  94.6922609  61.0653648
  69.5015984  94.9418505  62.5388544  73.7679554  95.4631333  59.1221944
  73.0830592  95.8430234  58.5718977  73.8523403  96.0726660  59.8553892
  71.0230486  93.1091292  65.7217288  71.2347381  93.7523052  65.0451669
  70.9760234  92.2753609  65.2539218  65.4418284  94.2651303  59.0327666
  65.9056630  94.5439006  58.2432288  65.1775082  93.3634748  58.8500756
  62.3342365  93.8122785  61.9707429  62.9043722  94.2410053  61.3324913
  62.9250477  93.5305370  62.6691614  64.3787170  90.3874456  55.8417231
  65.0811213  90.8395499  56.3091157  64.0467799  89.7458275  56.4697124
  72.1376314  95.9863248  63.8939645  72.9593757  95.5843435  63.6122327
  72.1338717  95.8831482  64.8455761  65.9032917  95.5347291  66.0500356
  65.9677350  95.9967698  66.8858527  65.1943841  94.9044656  66.1782665
  80.2282307  92.3301996  60.2424617  79.4746015  91.7609394  60.0868621
  80.3629848  92.2964660  61.1895251  65.6180935  97.2015398  55.9179336
  65.4826610  98.0466934  56.3464184  66.1590747  97.4034676  55.1545270
  59.0710332  94.7190836  56.4907261  59.5834853  95.5134087  56.6412826
  59.7233045  94.0217127  56.4240862  60.8805217  97.8356593  58.5730014
  61.0571845  98.7574557  58.3850998  61.6762050  97.5215012  59.0024394
  60.1657573  89.8821225  68.4492177  60.0511089  88.9806482  68.7499276
  59.3102091  90.1284921  68.0976994  67.2449411  97.8238965  70.0479678
  66.8013265  97.0375343  69.7300582  67.9066625  98.0118115  69.3823569
  62.0036532  99.3534766  64.5740356  62.5543957  99.2251830  63.8017350
  61.1648008  99.6529655  64.2235249  69.3430649  98.1041765  68.0761079
  69.3249125  98.9250646  67.5841348  70.2650569  97.9795840  68.3011220
  65.8003703  95.6185894  68.9184588  66.3332040  94.8574182  68.6883896
  65.2717784  95.3259546  69.6608742  57.0359249  93.0479491  57.2666831
  57.8734471  93.4576499  57.0500539  57.2137517  92.1078933  57.2367025
  68.9323681  90.7154571  52.9550664  68.4170304  91.4859176  53.1939052
  68.6600989  90.0419707  53.5783726  73.9057955  93.4686926  54.8903838
  73.1287398  93.1298085  54.4459000  74.5849436  93.4739549  54.2158803
  68.7209984  88.5881663  54.7810446  68.4160120  88.9027813  55.6320589
  69.6740426  88.6663083  54.8237779  67.1656416  94.7471887  56.4303400
  66.6377778  94.0124646  56.1176637  66.6643919  95.5246563  56.1843368
  72.1449262  92.9420907  61.5470446  71.4872937  93.6320169  61.6350575
  72.9489661  93.3317339  61.8904432  70.9554721  91.2965280  59.5974388
  71.4686603  91.9295272  60.0996097  71.6055945  90.6966475  59.2317748
  62.2244731  87.4396014  52.8105896  61.3882043  87.7770701  53.1315171
  62.0849500  87.3044994  51.8733033  65.3109016  92.5652097  49.4338373
  64.4036078  92.3341350  49.6329522  65.8080048  91.7689716  49.6212354
  68.2177095 101.2749604  52.3535059  67.5438794 101.5781301  52.9620017
  68.6042917 102.0778684  52.0040516  68.2170599  90.1706151  56.9735408
  68.9642418  90.6827548  56.6642530  68.4862189  89.8490204  57.8339802
  66.4897250  92.6664692  53.9562363  65.5808469  92.3823725  54.0534832
  66.5192333  93.0863770  53.0965670  71.7216517  96.2771281  57.7253530
  71.2678844  95.4362191  57.7818721  71.0910484  96.9132680  58.0628310
  70.1649456  98.1147778  58.6603348  70.4572431  98.6752835  57.9415714
  70.6748077  98.4076339  59.4156508  65.0382144  90.2793312  60.0572158
  65.0930753  89.3267149  59.9814635  64.2273346  90.4352752  60.5413457
  66.1873337  94.2073436  51.2950441  65.7492767  93.4909294  50.8356079
  66.9283778  94.4349550  50.7335533  65.1283082  98.8928129  59.7496802
  65.0859260  99.1188975  58.8205334  66.0445780  98.6591504  59.8982603
  74.3046452  92.4830633  57.3526760  74.1664351  92.6732229  56.4247949
  73.9482671  93.2450015  57.8094811  74.3315832  94.5507160  62.3638031
  74.7652339  94.4582449  63.2121085  75.0447413  94.5264660  61.7258047
  63.2448882  95.7691158  59.5458764  64.0389481  95.2741478  59.3441339
  62.5340575  95.2409021  59.1826470  68.0643727  98.1509254  63.8971132
  68.1180749  98.7200190  64.6648848  67.1958508  98.3211139  63.5325169
  75.1931381  94.5930860  64.8970917  75.3867271  95.4976671  65.1430192
  75.0932000  94.1338279  65.7309502  70.2546490  94.7437603  70.4711797
  70.1031997  94.5148155  69.5541881  70.2451170  95.7008204  70.4843142
  67.0231827  92.3169516  65.4558064  67.9523887  92.4680675  65.2827031
  66.6022857  92.4053536  64.6006710  65.8220158  96.3420180  63.2256601
  65.6831244  95.9738965  64.0982540  65.0334755  96.8567820  63.0540559
  66.4168310 101.4429277  54.5682138  66.5920066 100.9717320  55.3827761
  65.7301098 102.0695043  54.7963399  67.3725373  95.7201783  60.6145439
  67.0375206  95.6802553  61.5103089  66.8729319  95.0546499  60.1415849
  61.3469617  91.1269413  66.1398020  61.2089415  90.3949652  66.7409559
  62.2574541  91.0378313  65.8582208  70.3084565  93.0657817  50.8882499
  69.6913736  92.3404645  50.7915552  69.8401054  93.8267177  50.5449573
  63.9751918  90.8389372  65.6281700  64.6851537  90.1982564  65.5868318
  63.9321226  91.0902267  66.5507881  71.9638697  97.7756725  68.5488279
  71.9051243  97.0915946  67.8818862  72.3658215  98.5175716  68.0968905
  60.9829396 104.5918639  61.3421998  61.2225994 105.2237164  62.0201017
  60.1398592 104.2406679  61.6287357  62.0983111  87.2843241  50.0103803
  61.2212577  87.1632042  49.6466050  62.5740864  86.4929320  49.7582692
  71.9656104  95.7396309  66.7802259  71.0782883  95.4022231  66.9028658
  72.5354655  95.0079341  67.0171024  53.6185251  92.0720401  60.1045310
  54.3056291  91.7582131  59.5166326  53.4633380  92.9761766  59.8312562
  65.4957257 100.3997762  63.7463502  65.4227429 101.2052733  64.2582807
  65.0534651 100.5989728  62.9211524  65.2847037  99.6369532  57.2566324
  64.5014559 100.1791212  57.3504548  65.9839782 100.1543511  57.6560565
  76.4473445  91.1504527  61.5418821  76.4363321  92.0329242  61.1712754
  75.5790824  90.7976078  61.3473358  67.9555941 100.2984596  65.9021661
  68.6683913 100.9332061  65.8297562  67.4645970 100.3948462  65.0861663
  69.6773468  94.2035848  57.4738952  68.7429747  94.3237311  57.3043657
  69.8550136  93.3008315  57.2098962  73.0646019  90.0453168  58.0088987
  73.5306471  90.8781159  57.9349289  73.5153520  89.5798149  58.7134245
  63.0067854  98.0479039  66.7227232  63.7077314  98.6815522  66.8756626
  62.5362969  98.3893771  65.9622871  71.1322250  96.3896989  55.0075139
  71.4082094  96.2753584  55.9169013  70.2626749  95.9914474  54.9687312
  70.8069140  90.6023647  64.5479782  70.1540591  90.8499554  63.8932235
  71.1849520  89.7887785  64.2142259  67.7676314 100.6383340  58.6507952
  67.9498709  99.8204996  59.1135705  68.5909300 100.8551032  58.2132842
  68.1018480  99.5651525  55.9123001  68.6306246  99.0543980  55.2993163
  68.3646699  99.2494055  56.7768534  58.6035573  97.5815394  63.6558334
  59.1889009  96.8359082  63.7886239  58.4060411  97.8919351  64.5394998
  61.4574228 100.6166642  58.6720777  60.7884603 101.1012769  58.1884817
  61.3187097 100.8635862  59.5864155  53.1953227  90.1520995  62.3762777
  53.2337327  89.6184585  63.1699896  52.6893520  89.6256200  61.7573755
  65.5979496 102.6510385  65.2703435  66.1497804 102.8142007  66.0352520
  65.9385690 103.2414823  64.5983460  70.4490371  97.4771643  71.1252089
  70.9930275  98.0901601  70.6307044  69.8677215  98.0351221  71.6419102
  68.7347884 100.5992361  62.2567117  68.6099023  99.7982101  61.7478063
  69.3926975 101.0938554  61.7681087  70.7982792  98.4001381  63.8846667
  69.8513128  98.2806732  63.8124994  71.1465565  97.5123879  63.9672929
  67.8029225  98.1954097  60.0851020  67.6554188  97.2670804  60.2658590
  68.6282719  98.2174188  59.6008095  61.6691470  86.8472164  55.9431512
  62.0087542  87.3758085  55.2210120  62.1163590  87.1852570  56.7190078
  71.4063347  99.0182656  61.1715892  72.3309895  98.8125517  61.0340343
  71.2378651  98.7699057  62.0805234  63.6559617  85.3446786  54.1424804
  64.3767979  85.7228039  53.6388521  63.0324921  86.0635663  54.2459782
  62.5389961  89.0077648  61.6553881  62.3934542  89.3217951  62.5478163
  62.0615165  89.6262548  61.1024780  71.1958663  99.5368323  56.5277984
  71.3695541  98.9714746  55.7751836  71.6887555 100.3369218  56.3457474
  77.0498055  92.3004746  58.1468283  77.4929201  91.5512071  57.7487407
  76.1724565  92.2914883  57.7642015  72.1833836  98.8535088  53.6274882
  72.8784740  99.4741780  53.8462197  72.5256986  98.0030439  53.9027260
  74.0825259  96.3034793  55.1562213  74.6076583  96.6422066  54.4311533
  73.9947612  95.3681809  54.9725347  65.7445308 100.2168867  67.2852089
  66.0532434  99.9718014  68.1574789  66.5420790 100.4215505  66.7970960
  65.7665920 102.3706776  59.5157466  65.3270910 101.8783155  60.2090323
  66.5174037 101.8279744  59.2749541  58.2458259  98.5618317  59.5182094
  59.0716279  98.2622089  59.1380738  57.8952311  97.7925940  59.9671883
  63.2139792  97.9144786  61.5879768  62.5919801  97.2515491  61.2881995
  63.8844659  97.9405917  60.9053415  56.4466864  96.4804644  60.4771028
  55.6098772  96.0526818  60.2955029  56.4190509  96.6737087  61.4141819
  73.7719165  96.9367697  70.4613411  72.9814709  96.9191836  69.9217910
  73.5352520  97.4755991  71.2162447  73.8917040  93.7860163  67.7746139
  73.9415045  93.6210171  68.7161662  73.7830963  92.9187422  67.3844020
  62.7753299  96.4648709  55.0638228  62.9241419  97.1484173  54.4104901
  63.5819742  96.4453799  55.5787684  75.3935237  96.2057105  68.0188161
  75.1020045  96.5687085  68.8551622  74.7807368  95.4924113  67.8401493
  76.5930919  93.7709984  60.5390731  77.4277811  94.2099789  60.7028291
  76.7290048  93.2948638  59.7198977  73.6422425  91.3289719  66.4868219
  74.1176547  91.5217366  65.6787070  72.7187991  91.3848905  66.2411602
  60.5305932  92.4913887  56.0699297  60.2851974  91.5876217  56.2679507
  60.7001846  92.4931037  55.1278775  66.2748704  98.9596839  52.5349976
  65.7022671  99.5787026  52.0820447  66.8481498  99.5096201  53.0689898
  69.4945964  99.2433989  53.6658558  70.4276637  99.1779551  53.8691433
  69.4069177 100.0790256  53.2073091  72.1233981  98.5599860  50.6262505
  72.0447612  98.2259723  51.5198263  72.9443648  99.0521628  50.6253978
  74.8212172  91.4261599  63.8338824  74.7888492  90.4877600  64.0198508
  75.4312796  91.5045636  63.1004649  66.6595503  90.2957652  49.8766028
  67.6054608  90.1663860  49.9454446  66.2809748  89.5572314  50.3535456
  80.6388722  92.4877606  62.9744861  81.3692110  92.2262894  63.5352564
  80.0295667  91.7506328  63.0146929  78.7204019  90.6285469  63.5719312
  77.9937182  90.4941433  62.9635804  78.3051306  90.9362297  64.3776030
  66.5434195  94.3475398  71.3366685  67.4637205  94.5253997  71.5306732
  66.5083778  93.4031444  71.1846384  64.8438420  88.2207628  49.8120913
  63.9369875  87.9240741  49.8883627  65.1214401  87.9237447  48.9455200
  59.5396268  92.2576433  63.9789466  59.7582278  93.1893541  63.9977500
  59.9522042  91.8984407  64.7644270  66.4600486  82.7644518  55.9665155
  65.6501214  82.4191603  56.3420401  67.1484903  82.4552062  56.5552766
  63.6137205  85.0794564  49.9532893  64.4756369  85.4049462  50.2128710
  63.7987549  84.2926060  49.4405958  55.6304620  93.1616903  62.2313081
  54.9368092  92.7470856  61.7183036  56.3777611  93.2037440  61.6346500
  64.2755403  91.2606777  72.1857277  63.7922485  92.0607138  72.3921166
  64.3616342  91.2714722  71.2324721  57.5441363  93.0935157  60.1079096
  57.5212051  93.1922844  59.1560979  57.8541999  93.9400308  60.4296262
  60.2028741  95.1511312  64.2225711  61.1571994  95.1195255  64.1555642
  60.0041264  94.6901936  65.0375937  60.7928123  93.7212428  66.7896508
  61.6121012  94.2156507  66.8131346  61.0664931  92.8044396  66.7614076
  76.3381814  86.8497321  60.9252744  76.9326305  86.6093057  60.2146052
  76.4108398  86.1304451  61.5526280  58.5578970 100.6930932  61.2395908
  58.4233437  99.9331333  60.6733907  58.1411032 101.4171832  60.7724697
  69.6937933  95.8767855  50.2472484  70.3973783  96.0817858  50.8630139
  68.9700581  96.4444617  50.5121567  70.5235743  91.6277716  56.3674754
  70.4670944  92.0846268  55.5282386  71.0764085  90.8668401  56.1897597
  74.3340549  87.4167448  57.1924873  74.0777483  87.0164084  58.0233081
  73.7093417  88.1311242  57.0675013  78.6452887  90.1563522  59.6996165
  78.0852445  90.2256711  60.4727727  78.0396390  89.9804506  58.9795661
  61.7148095 101.5900249  61.4514351  61.5980480 102.5345681  61.3493041
  60.8940542 101.2873810  61.8400150  71.6024630  96.3150384  52.2970944
  72.4370234  95.8831583  52.1148419  71.4408973  96.1432398  53.2247838
  71.2570522  92.8182498  53.6627283  71.2019326  92.6526769  52.7215727
  70.6316577  93.5258531  53.8189473  68.5716429  95.1231410  72.9880846
  69.4407589  95.2972062  72.6267481  68.0923181  95.9425826  72.8656575
  64.5666648  82.3190607  53.2412602  64.5545317  83.2632447  53.3980872
  65.4590069  82.1360752  52.9472063  62.7402610 102.2428511  64.6670280
  63.6429856 102.2752121  64.9836775  62.5139980 101.3128962  64.6816615
  64.4956212 100.9959497  61.3280358  63.5451843 100.9961359  61.2144730
  64.7988698 100.2492232  60.8116393  80.2308905 106.8320036  62.3926121
  80.8687315 106.7126783  61.6889461  80.1129748 107.7800879  62.4514073
  77.0398611 106.7847464  62.3287645  76.7017123 106.6688528  61.4408180
  77.9088379 106.3838629  62.3088651  72.8985427 108.6382940  58.3184536
  72.3350292 108.5472877  57.5500824  72.7837822 107.8182844  58.7987029
  77.5218394 107.9382315  68.2873851  77.5107035 107.5435114  67.4154354
  77.6839034 107.2048388  68.8807622  70.4449859 110.1334132  61.1568757
  71.2371151 109.7924956  60.7415056  70.6846509 110.2429107  62.0770910
  78.4784986 112.3053908  53.6299001  77.8272965 112.8907988  53.2433015
  79.2729349 112.8360103  53.6894039  72.4040613 109.3943045  54.0286135
  73.1771489 108.8472032  53.8899011  72.7566012 110.2587294  54.2400597
  74.2425655 110.7219427  67.2353035  73.9515521 111.6265058  67.1199701
  74.8782640 110.7635955  67.9497104  75.1681862 108.0996276  63.8254394
  75.7645435 107.8752298  63.1111357  75.2256834 107.3581021  64.4279842
  74.7406891 105.5535711  51.6604585  74.9932411 105.0317232  50.8988048
  73.8031450 105.3901856  51.7631269  79.7850174 104.5571489  59.4679329
  80.5713263 104.1390913  59.1169746  80.0488878 105.4617582  59.6360977
  79.9560251 109.9944340  54.1667985  79.3206084 110.0678966  54.8788890
  79.6257657 110.5837939  53.4887065  85.1858601 104.4946723  60.3712307
  85.9183773 103.9245939  60.6050137  84.4297956 104.1068323  60.8118813
  74.4603179 107.4563817  53.8628960  74.3439438 106.7808720  54.5310045
  74.5705439 106.9696191  53.0461113  76.8034720 106.9173964  57.5675650
  76.4392928 106.3904585  58.2788571  77.6601836 106.5272433  57.3942135
  82.7084021  98.2068297  64.8306916  82.3767346  99.0763708  64.6068131
  82.1129634  97.8904581  65.5100946  76.4440207 101.9463864  52.5636998
  76.6114610 102.8144100  52.9307469  76.2537376 102.1091145  51.6398287
  79.2015541 110.4080843  64.2302828  78.9016264 111.3105881  64.1218636
  78.8566600 110.1413026  65.0823981  72.6528022 106.8594640  60.2639533
  71.7278518 106.7270854  60.4717225  72.9012435 107.6388859  60.7609475
  82.6012684 102.9263383  61.9100266  81.6929562 102.8578791  61.6159027
  82.5500280 103.4035328  62.7382091  76.4229428 104.4021521  53.5483665
  76.3029053 104.8478572  54.3869145  75.7282017 104.7506839  52.9897203
  70.0136833 106.5027913  61.0983322  70.1429214 106.7562392  62.0122734
  69.3334284 107.0955621  60.7787977  74.1836320 117.1725163  57.1973796
  74.1060350 118.1232988  57.2762277  73.5797964 116.8271036  57.8548722
  76.6753550 104.3453028  69.8535163  75.8986884 104.9046949  69.8438028
  77.3144113 104.8309811  70.3750033  84.4674331 101.1279821  63.6878140
  83.8248711 101.4212354  63.0417934  83.9629259 101.0132742  64.4931336
  82.1214494 104.8742994  54.3763999  83.0332350 105.1070381  54.2011697
  81.6124141 105.4580039  53.8139078  74.9299922 107.1538482  69.4153130
  75.6714607 107.6923526  69.1387954  74.2236908 107.7804771  69.5724682
  80.4055262 109.2967622  68.0125292  80.8138618 108.8550033  67.2679924
  79.6832524 108.7220250  68.2659484  76.7586332 104.2340229  65.3858848
  77.6047527 104.6579643  65.5293497  76.6984970 103.5773853  66.0797412
  80.7284077 109.8568813  61.7677580  80.0992939 110.0214527  61.0653648
  80.3409739 110.2710422  62.5388544  84.6073309 110.7923251  59.1221944
  83.9224347 111.1722152  58.5718977  84.6917158 111.4018577  59.8553892
  79.9085777 101.8944597  67.0440022  79.6646709 102.6486658  66.5074298
  80.1845708 102.2729945  67.8787269  81.8624240 108.4383210  65.7217288
  82.0741135 109.0814970  65.0451669  81.8153988 107.6045526  65.2539218
  79.4650469 101.0501030  62.6253860  78.6034948 101.3482284  62.9170597
  79.4912904 101.2671429  61.6934892  76.2812039 109.5943221  59.0327666
  76.7450384 109.8730924  58.2432288  76.0168837 108.6926666  58.8500756
  73.1736120 109.1414703  61.9707429  73.7437477 109.5701971  61.3324913
  73.7644231 108.8597287  62.6691614  75.2180925 105.7166373  55.8417231
  75.9204968 106.1687417  56.3091157  74.8861553 105.0750192  56.4697124
  73.6661286 104.3078130  70.2168440  73.0359947 104.9894411  70.4503837
  73.5597374 104.1961212  69.2721578  68.9606259 103.9749926  61.1434364
  68.1705313 104.2307455  60.6674475  69.4517506 104.7898264  61.2486405
  82.9770068 111.3155165  63.8939645  83.7987512 110.9135352  63.6122327
  82.9732471 111.2123399  64.8455761  70.9121004 104.3394505  58.1017841
  70.1152167 104.4513200  58.6201337  70.6846596 104.6781157  57.2358731
  76.7426672 110.8639208  66.0500356  76.8071104 111.3259616  66.8858527
  76.0337595 110.2336573  66.1782665  67.2443962 104.2280416  63.5749355
  67.4952000 105.1127426  63.8406931  67.7803510 104.0485018  62.8024447
  91.0676061 107.6593914  60.2424617  90.3139770 107.0901312  60.0868621
  91.2023602 107.6256578  61.1895251  76.4574689 112.5307316  55.9179336
  76.3220364 113.3758852  56.3464184  76.9984502 112.7326594  55.1545270
  72.9442029  98.6098896  72.5793691  72.5508974  98.0565094  73.2541335
  73.7608169  98.9209474  72.9700209  69.9104087 110.0482754  56.4907261
  70.4228607 110.8426004  56.6412826  70.5626799 109.3509044  56.4240862
  71.7198971 113.1648510  58.5730014  71.8965600 114.0866475  58.3850998
  72.5155805 112.8506930  59.0024394  75.8609990 100.0256775  70.1713948
  76.6019703 100.6263928  70.0918410  76.0927913  99.2834413  69.6131990
  71.0051328 105.2113142  68.4492177  70.8904843 104.3098399  68.7499276
  70.1495846 105.4576839  68.0976994  78.0843166 113.1530882  70.0479678
  77.6407020 112.3667261  69.7300582  78.7460379 113.3410033  69.3823569
  72.8430287 114.6826684  64.5740356  73.3937712 114.5543747  63.8017350
  72.0041763 114.9821573  64.2235249  80.1824404 113.4333682  68.0761079
  80.1642879 114.2542563  67.5841348  81.1044324 113.3087758  68.3011220
  76.6397458 110.9477812  68.9184588  77.1725795 110.1866100  68.6883896
  76.1111539 110.6551464  69.6608742  79.8067153  96.0537878  64.4478229
  79.4631422  96.9439520  64.3717340  80.1746115  95.8639535  63.5847814
  67.8753003 108.3771408  57.2666831  68.7128225 108.7868417  57.0500539
  68.0531271 107.4370850  57.2367025  79.7717436 106.0446489  52.9550664
  79.2564059 106.8151094  53.1939052  79.4994744 105.3711625  53.5783726
  77.3564547 100.8896190  58.0135903  76.5006143 100.5003040  57.8341542
  77.7691498 100.9688151  57.1535688  78.8863693  98.4242533  62.4127463
  78.3828489  98.3872668  61.5995268  79.1794300  99.3335276  62.4724119
  75.1306579  98.5081263  61.4193644  75.9959576  98.3124071  61.0599534
  75.1984088  98.2791615  62.3463001  84.7451710 108.7978844  54.8903838
  83.9681152 108.4590003  54.4459000  85.4243191 108.8031467  54.2158803
  79.5603739 103.9173581  54.7810446  79.2553874 104.2319730  55.6320589
  80.5134181 103.9955001  54.8237779  78.0050171 110.0763804  56.4303400
  77.4771532 109.3416564  56.1176637  77.5037673 110.8538481  56.1843368
  82.9843017 108.2712825  61.5470446  82.3266691 108.9612086  61.6350575
  83.7883416 108.6609257  61.8904432  72.7368898 100.7383471  58.7910011
  73.3112650 100.5158652  58.0583204  73.3239881 100.8072165  59.5438612
  81.7948475 106.6257198  59.5974388  82.3080357 107.2587189  60.0996097
  82.4449699 106.0258393  59.2317748  73.0638485 102.7687932  52.8105896
  72.2275798 103.1062618  53.1315171  72.9243255 102.6336911  51.8733033
  75.0391566  97.6124720  57.5185081  74.3855978  97.2973737  56.8941695
  74.9972040  96.9900460  58.2444903  76.1502771 107.8944015  49.4338373
  75.2429832 107.6633268  49.6329522  76.6473803 107.0981634  49.6212354
  79.0570850 116.6041522  52.3535059  78.3832548 116.9073219  52.9620017
  79.4436672 117.4070602  52.0040516  78.2729306 104.1006653  61.8432728
  77.3551868 104.3221600  61.6854416  78.6889450 104.1752964  60.9844436
  79.0564354 105.4998069  56.9735408  79.8036173 106.0119466  56.6642530
  79.3255944 105.1782122  57.8339802  77.3291004 107.9956610  53.9562363
  76.4202223 107.7115642  54.0534832  77.3586088 108.4155688  53.0965670
  82.5610272 111.6063199  57.7253530  82.1072599 110.7654109  57.7818721
  81.9304238 112.2424597  58.0628310  81.5043191 102.5355185  58.9554198
  80.7665948 102.0232571  59.2864440  81.7569965 102.0955567  58.1437475
  81.0043211 113.4439696  58.6603348  81.2966185 114.0044753  57.9415714
  81.5141831 113.7368257  59.4156508  81.6054818  95.3131437  59.5495967
  81.9113695  94.4528800  59.2621882  82.3307423  95.9049057  59.3494961
  67.8979175 105.7162124  57.9377565  67.7003574 105.1231484  57.2128632
  67.3425839 105.4114334  58.6553504  75.8775898 105.6085230  60.0572158
  75.9324508 104.6559067  59.9814635  75.0667100 105.7644669  60.5413457
  77.0267092 109.5365353  51.2950441  76.5886522 108.8201212  50.8356079
  77.7677533 109.7641468  50.7335533  73.8168258 104.2262290  57.8162537
  73.0036124 104.5256460  58.2227729  74.3127252 103.8317979  58.5337019
  75.9676836 114.2220047  59.7496802  75.9253015 114.4480893  58.8205334
  76.8839535 113.9883421  59.8982603  79.4142470 104.6904114  66.6477431
  79.7691858 104.9175587  67.5071897  80.0614601 105.0222491  66.0254686
  85.1440207 107.8122550  57.3526760  85.0058105 108.0024146  56.4247949
  84.7876426 108.5741933  57.8094811  73.3082333 101.7980645  63.4323772
  73.9481712 101.6569404  62.7346735  72.4759863 101.5115159  63.0562374
  85.1709586 109.8799077  62.3638031  85.6046093 109.7874366  63.2121085
  85.8841167 109.8556578  61.7258047  74.0842637 111.0983076  59.5458764
  74.8783235 110.6033396  59.3441339  73.3734329 110.5700939  59.1826470
  78.9037481 113.4801171  63.8971132  78.9574504 114.0492108  64.6648848
  78.0352263 113.6503056  63.5325169  70.3925400 105.2426158  55.6218517
  69.4622988 105.1810613  55.8388479  70.4882872 104.7202110  54.8255158
  70.3110949 101.7680970  58.2096759  70.5717767 102.6826304  58.1005919
  71.1328122 101.3005413  58.3593372  71.7835875 103.1818728  65.3795583
  72.4558928 102.9736090  64.7308232  70.9565661 102.9840814  64.9400816
  86.0325136 109.9222778  64.8970917  86.2261026 110.8268588  65.1430192
  85.9325754 109.4630197  65.7309502  77.6861447  99.8080668  67.3961244
  77.0389362 100.5070618  67.3025721  78.4562462 100.2416812  67.7637492
  81.0940245 110.0729521  70.4711797  80.9425751 109.8440072  69.5541881
  81.0844924 111.0300122  70.4843142  77.8625581 107.6461433  65.4558064
  78.7917641 107.7972593  65.2827031  77.4416611 107.7345454  64.6006710
  76.6613913 111.6712098  63.2256601  76.5224998 111.3030882  64.0982540
  75.8728509 112.1859737  63.0540559  77.2562065 116.7721194  54.5682138
  77.4313820 116.3009237  55.3827761  76.5694853 117.3986960  54.7963399
  78.2119128 111.0493700  60.6145439  77.8768961 111.0094470  61.5103089
  77.7123074 110.3838416  60.1415849  72.1863372 106.4561331  66.1398020
  72.0483170 105.7241569  66.7409559  73.0968295 106.3670231  65.8582208
  81.1478320 108.3949735  50.8882499  80.5307490 107.6696563  50.7915552
  80.6794808 109.1559095  50.5449573  74.8145673 106.1681290  65.6281700
  75.5245291 105.5274482  65.5868318  74.7714981 106.4194185  66.5507881
  82.8032451 113.1048643  68.5488279  82.7444997 112.4207863  67.8818862
  83.2051970 113.8467633  68.0968905  73.5274607 103.1546508  67.4477340
  72.9911964 102.7037246  68.0998936  72.9391315 103.2892417  66.7047804
  71.8223150 119.9210557  61.3421998  72.0619748 120.5529081  62.0201017
  70.9792347 119.5698597  61.6287357  72.9376865 102.6135159  50.0103803
  72.0606332 102.4923960  49.6466050  73.4134619 101.8221237  49.7582692
  82.8049859 111.0688227  66.7802259  81.9176637 110.7314149  66.9028658
  83.3748410 110.3371258  67.0171024  64.4579006 107.4012319  60.1045310
  65.1450045 107.0874049  59.5166326  64.3027134 108.3053683  59.8312562
  69.2613728 102.2902515  64.5330334  69.1771916 101.6828185  63.7980744
  68.4396434 102.7811534  64.5339830  76.3351012 115.7289679  63.7463502
  76.2621183 116.5344651  64.2582807  75.8928405 115.9281645  62.9211524
  76.1240792 114.9661449  57.2566324  75.3408313 115.5083130  57.3504548
  76.8233537 115.4835429  57.6560565  79.4337442 100.7756079  59.9000529
  79.9306141 100.0226041  59.5801599  78.6624423 100.8120396  59.3343738
  87.2867199 106.4796444  61.5418821  87.2757075 107.3621160  61.1712754
  86.4184578 106.1267995  61.3473358  78.7949695 115.6276513  65.9021661
  79.5077668 116.2623978  65.8297562  78.3039724 115.7240379  65.0861663
  80.5167222 109.5327766  57.4738952  79.5823501 109.6529229  57.3043657
  80.6943891 108.6300233  57.2098962  76.0172410 102.9173462  59.6272214
  75.6470198 102.3644502  60.3153119  76.5131503 102.3131595  59.0747214
  83.9039774 105.3745085  58.0088987  84.3700226 106.2073077  57.9349289
  84.3547274 104.9090067  58.7134245  73.8461609 113.3770957  66.7227232
  74.5471068 114.0107440  66.8756626  73.3756724 113.7185689  65.9622871
  81.9716005 111.7188907  55.0075139  82.2475849 111.6045501  55.9169013
  81.1020504 111.3206392  54.9687312  81.8756436  97.7425672  62.0479888
  80.9619516  97.9729899  62.2162095  82.3049538  97.8264117  62.8993920
  81.6462895 105.9315564  64.5479782  80.9934345 106.1791472  63.8932235
  82.0243275 105.1179703  64.2142259  78.6070069 115.9675258  58.6507952
  78.7892463 115.1496914  59.1135705  79.4303055 116.1842950  58.2132842
  78.9412234 114.8943443  55.9123001  79.4700001 114.3835897  55.2993163
  79.2040454 114.5785973  56.7768534  77.6950468 106.6735375  71.0345819
  77.0191105 106.5729505  71.7048194  78.5178102 106.5174589  71.4981816
  69.4429327 112.9107312  63.6558334  70.0282764 112.1651000  63.7886239
  69.2454165 113.2211269  64.5394998  72.2967982 115.9458559  58.6720777
  71.6278357 116.4304687  58.1884817  72.1580852 116.1927780  59.5864155
  64.0346982 105.4812912  62.3762777  64.0731081 104.9476503  63.1699896
  63.5287275 104.9548118  61.7573755  76.4373251 117.9802303  65.2703435
  76.9891559 118.1433924  66.0352520  76.7779444 118.5706741  64.5983460
  71.4137744 100.3277453  65.8725320  71.4779071 101.1892284  65.4602717
  71.3504864  99.7151454  65.1397678  70.8890017 102.4000585  69.5198354
  71.5162055 102.0177663  70.1335878  70.0317935 102.1814787  69.8854047
  81.2884125 112.8063560  71.1252089  81.8324029 113.4193519  70.6307044
  80.7070970 113.3643139  71.6419102  67.6655559 104.2077014  55.4516709
  67.9609000 103.2987693  55.3983763  66.7643595 104.1864754  55.1297711
  79.5741638 115.9284278  62.2567117  79.4492778 115.1274018  61.7478063
  80.2320729 116.4230472  61.7681087  71.1949806 102.2833011  61.4344257
  70.4736392 102.8968979  61.2951731  71.9843062 102.8190776  61.3560903
  81.6376546 113.7293299  63.8846667  80.6906882 113.6098650  63.8124994
  81.9859320 112.8415797  63.9672929  73.9976120  99.6187437  67.7084909
  74.5210522  99.8649734  68.4711219  73.7788453 100.4507472  67.2888047
  69.3943401 101.8891112  55.5756034  69.0656107 101.0088491  55.3931140
  69.7482772 101.8338781  56.4632423  78.6422980 113.5246015  60.0851020
  78.4947942 112.5962722  60.2658590  79.4676473 113.5466105  59.6008095
  72.5085224 102.1764082  55.9431512  72.8481297 102.7050003  55.2210120
  72.9557345 102.5144488  56.7190078  82.2457102 114.3474573  61.1715892
  83.1703649 114.1417435  61.0340343  82.0772405 114.0990975  62.0805234
  75.2028665 100.5601133  65.3934580  74.8625485  99.7608946  65.7955260
  74.4967671 100.8602843  64.8211413  75.8545137  97.6450445  63.8461903
  76.6771206  97.1710923  63.7240793  76.0983200  98.4240929  64.3460589
  74.4953371 100.6738703  54.1424804  75.2161734 101.0519956  53.6388521
  73.8718675 101.3927580  54.2459782  78.6384494 101.3783852  55.0783137
  78.8548108 102.2608490  54.7771965  78.1578561 100.9870066  54.3488779
  73.3783715 104.3369566  61.6553881  73.2328296 104.6509869  62.5478163
  72.9008919 104.9554466  61.1024780  75.2380098 101.3272114  61.7034771
  75.2241667 100.4313207  61.3667069  75.9552526 101.3342777  62.3373057
  77.0906229 101.7609454  63.7487898  76.8324007 102.6826524  63.7472229
  76.5591269 101.3639888  64.4388362  82.0352418 114.8660241  56.5277984
  82.2089295 114.3006663  55.7751836  82.5281309 115.6661136  56.3457474
  67.8529378 106.8774910  64.5941543  67.3082846 107.6534718  64.7261817
  68.7308728 107.2245714  64.4360664  74.6416994 100.2086494  56.9722341
  74.7632905  99.2803140  57.1713229  74.3519037 100.2225180  56.0600656
  77.5108185  97.8941404  60.1089061  77.5329881  97.9580737  59.1541040
  77.9276244  97.0545913  60.3029567  87.8891809 107.6296664  58.1468283
  88.3322955 106.8803989  57.7487407  87.0118319 107.6206800  57.7642015
  83.0227590 114.1827005  53.6274882  83.7178495 114.8033698  53.8462197
  83.3650740 113.3322357  53.9027260  68.6395399 106.0044806  67.4871699
  67.8977136 106.1527442  68.0736330  68.3188144 106.2653072  66.6238449
  84.9219013 111.6326711  55.1562213  85.4470338 111.9713984  54.4311533
  84.8341366 110.6973726  54.9725347  76.5839062 115.5460785  67.2852089
  76.8926189 115.3009931  68.1574789  77.3814544 115.7507423  66.7970960
  76.6059674 117.6998694  59.5157466  76.1664664 117.2075073  60.2090323
  77.3567791 117.1571662  59.2749541  69.0852013 113.8910235  59.5182094
  69.9110033 113.5914007  59.1380738  68.7346065 113.1217857  59.9671883
  74.0533546 113.2436703  61.5879768  73.4313556 112.5807408  61.2881995
  74.7238413 113.2697835  60.9053415  67.2860618 111.8096561  60.4771028
  66.4492527 111.3818736  60.2955029  67.2584264 112.0029005  61.4141819
  74.1258074 101.7218491  71.1812274  74.1746229 102.5980614  70.7990043
  74.6680588 101.1795884  70.6083917  84.6112920 112.2659615  70.4613411
  83.8208463 112.2483753  69.9217910  84.3746274 112.8047908  71.2162447
  84.7310795 109.1152081  67.7746139  84.7808799 108.9502088  68.7161662
  84.6224718 108.2479340  67.3844020  73.6147053 111.7940627  55.0638228
  73.7635174 112.4776091  54.4104901  74.4213497 111.7745717  55.5787684
  82.0214557 105.0983009  69.0905446  82.9224420 104.9589474  68.7989444
  82.0962531 105.2637464  70.0303623  76.3557362 102.4749864  67.9358632
  75.4860672 102.7683430  67.6641221  76.5916843 103.0590309  68.6565896
  86.2328991 111.5349022  68.0188161  85.9413800 111.8979003  68.8551622
  85.6201123 110.8216031  67.8401493  87.4324674 109.1001902  60.5390731
  88.2671565 109.5391706  60.7028291  87.5683802 108.6240555  59.7198977
  84.4816180 106.6581637  66.4868219  84.9570301 106.8509283  65.6787070
  83.5581745 106.7140823  66.2411602  71.3699686 107.8205804  56.0699297
  71.1245728 106.9168134  56.2679507  71.5395601 107.8222955  55.1278775
  79.0596396  98.6929481  65.4524053  79.5778340  99.4290508  65.1270541
  78.7051529  98.9993474  66.2870812  70.6395334 103.5534162  53.5685459
  69.9464579 103.6278517  52.9125495  70.3947086 102.7894505  54.0906975
  79.3108990  95.1129763  60.9724949  79.5910744  94.4452952  61.5985376
  80.0959597  95.3058859  60.4599613  77.1142459 114.2888757  52.5349976
  76.5416426 114.9078944  52.0820447  77.6875252 114.8388119  53.0689898
  83.1817849 103.5347397  64.7196524  84.1335272 103.6345495  64.7408748
  83.0121299 102.7425666  65.2294609  81.2032228 100.6202980  64.9055925
  80.6082160 100.9007993  64.2102414  80.9181925 101.1096881  65.6772666
  80.3339719 114.5725907  53.6658558  81.2670392 114.5071469  53.8691433
  80.2462931 115.4082174  53.2073091  82.9627735 113.8891777  50.6262505
  82.8841367 113.5551641  51.5198263  83.7837402 114.3813545  50.6253978
  85.6605926 106.7553517  63.8338824  85.6282247 105.8169518  64.0198508
  86.2706550 106.8337554  63.1004649  77.4989257 105.6249570  49.8766028
  78.4448362 105.4955778  49.9454446  77.1203502 104.8864232  50.3535456
  85.8100415 103.5464560  63.8797107  85.2939464 102.7623017  63.6927036
  86.6940363 103.2183277  64.0443627  83.4711142  97.2905576  59.8392920
  83.2735963  96.9820664  60.7236252  84.0810847  98.0167215  59.9690850
  91.4782476 107.8169524  62.9744861  92.2085865 107.5554812  63.5352564
  90.8689422 107.0798246  63.0146929  89.5597773 105.9577386  63.5719312
  88.8330937 105.8233351  62.9635804  89.1445060 106.2654215  64.3776030
  77.3827950 109.6767316  71.3366685  78.3030959 109.8545915  71.5306732
  77.3477533 108.7323361  71.1846384  75.6832174 103.5499546  49.8120913
  74.7763630 103.2532659  49.8883627  75.9608155 103.2529364  48.9455200
  66.6010115 104.8705910  60.2619960  66.2812899 104.0171218  59.9694334
  66.0543543 105.0854488  61.0177927  70.3790022 107.5868351  63.9789466
  70.5976032 108.5185458  63.9977500  70.7915796 107.2276325  64.7644270
  77.2994240  98.0936436  55.9665155  76.4894968  97.7483521  56.3420401
  77.9878657  97.7843980  56.5552766  79.2284788  97.1714483  57.5889451
  79.7815827  97.5909936  58.2479474  79.4654875  96.2450231  57.6312407
  75.2517888 103.1601556  73.3692215  75.1514615 104.1095913  73.3004306
  75.0339430 102.8319795  72.4968285  74.4530959 100.4086481  49.9532893
  75.3150123 100.7341380  50.2128710  74.6381303  99.6217977  49.4405958
  66.4698375 108.4908821  62.2313081  65.7761846 108.0762774  61.7183036
  67.2171366 108.5329358  61.6346500  82.6063596  99.2815008  57.0968116
  82.0262265  99.9399812  56.7146168  82.3399528  98.4592352  56.6855533
  81.0567162  98.6820066  59.2989436  81.5566940  98.7936600  58.4903755
  81.7002770  98.3781118  59.9390244  75.1149158 106.5898695  72.1857277
  74.6316239 107.3899055  72.3921166  75.2010097 106.6006640  71.2324721
  68.3835117 108.4227075  60.1079096  68.3605805 108.5214762  59.1560979
  68.6935754 109.2692226  60.4296262  71.0422495 110.4803230  64.2225711
  71.9965749 110.4487172  64.1555642  70.8435019 110.0193854  65.0375937
  71.6321877 109.0504346  66.7896508  72.4514766 109.5448425  66.8131346
  71.9058685 108.1336314  66.7614076  81.3888474 101.4415098  56.1524464
  80.5014329 101.7264749  55.9344659  81.8042463 101.2808862  55.3051741
  84.7403010 101.4661619  59.8678803  85.5163400 101.9558072  60.1403420
  84.0151144 101.8919673  60.3250673  87.1775568 102.1789238  60.9252744
  87.7720059 101.9384974  60.2146052  87.2502152 101.4596369  61.5526280
  69.3972724 116.0222849  61.2395908  69.2627192 115.2623250  60.6733907
  68.9804786 116.7463749  60.7724697  80.5331687 111.2059773  50.2472484
  81.2367537 111.4109775  50.8630139  79.8094336 111.7736535  50.5121567
  81.3629497 106.9569634  56.3674754  81.3064699 107.4138186  55.5282386
  81.9157840 106.1960319  56.1897597  85.1734303 102.7459366  57.1924873
  84.9171237 102.3456002  58.0233081  84.5487171 103.4603160  57.0675013
  89.4846641 105.4855439  59.6996165  88.9246199 105.5548629  60.4727727
  88.8790144 105.3096424  58.9795661  72.5541850 116.9192166  61.4514351
  72.4374234 117.8637599  61.3493041  71.7334296 116.6165728  61.8400150
  82.4418384 111.6442302  52.2970944  83.2763988 111.2123501  52.1148419
  82.2802727 111.4724316  53.2247838  82.0964277 108.1474415  53.6627283
  82.0413080 107.9818687  52.7215727  81.4710332 108.8550448  53.8189473
  66.8856792 103.3842480  67.4888705  67.5315655 102.8741434  67.9775931
  66.6773943 104.1211161  68.0632131  79.4110184 110.4523327  72.9880846
  80.2801343 110.6263980  72.6267481  78.9316935 111.2717744  72.8656575
  75.4060402  97.6482524  53.2412602  75.3939072  98.5924364  53.3980872
  76.2983824  97.4652670  52.9472063  73.5796364 117.5720428  64.6670280
  74.4823611 117.6044039  64.9836775  73.3533734 116.6420879  64.6816615
  75.3349966 116.3251415  61.3280358  74.3845597 116.3253276  61.2144730
  75.6382452 115.5784149  60.8116393  79.2212522  94.2425301  57.4958538
  78.4544917  93.6883788  57.6415221  79.6323226  94.3147170  58.3572690
  71.2254283 100.5310097  71.5863720  72.0885744 100.1746902  71.7967044
  70.6519693 100.1923992  72.2739124  91.0702660 122.1611953  62.3926121
  91.7081069 122.0418701  61.6889461  90.9523502 123.1092797  62.4514073
  87.8792366 122.1139381  62.3287645  87.5410877 121.9980446  61.4408180
  88.7482134 121.7130546  62.3088651  83.7379181 123.9674858  58.3184536
  83.1744047 123.8764795  57.5500824  83.6231577 123.1474762  58.7987029
  88.3612149 123.2674233  68.2873851  88.3500790 122.8727031  67.4154354
  88.5232788 122.5340306  68.8807622  81.2843613 125.4626049  61.1568757
  82.0764905 125.1216874  60.7415056  81.5240264 125.5721024  62.0770910
  83.2434367 124.7234963  54.0286135  84.0165243 124.1763950  53.8899011
  83.5959766 125.5879212  54.2400597  85.0819410 126.0511345  67.2353035
  84.7909276 126.9556976  67.1199701  85.7176394 126.0927872  67.9497104
  86.0075617 123.4288193  63.8254394  86.6039189 123.2044216  63.1111357
  86.0650588 122.6872939  64.4279842  85.5800645 120.8827629  51.6604585
  85.8326166 120.3609150  50.8988048  84.6425204 120.7193774  51.7631269
  90.6243928 119.8863407  59.4679329  91.4107017 119.4682830  59.1169746
  90.8882632 120.7909499  59.6360977  96.0252355 119.8238640  60.3712307
  96.7577527 119.2537857  60.6050137  95.2691711 119.4360241  60.8118813
  85.2996934 122.7855735  53.8628960  85.1833192 122.1100638  54.5310045
  85.4099194 122.2988109  53.0461113  87.6428475 122.2465882  57.5675650
  87.2786682 121.7196503  58.2788571  88.4995591 121.8564351  57.3942135
  93.5477775 113.5360214  64.8306916  93.2161100 114.4055625  64.6068131
  92.9523389 113.2196498  65.5100946  87.2833962 117.2755781  52.5636998
  87.4508364 118.1436018  52.9307469  87.0931131 117.4383063  51.6398287
  83.4921776 122.1886557  60.2639533  82.5672273 122.0562771  60.4717225
  83.7406190 122.9680776  60.7609475  93.4406439 118.2555301  61.9100266
  92.5323316 118.1870709  61.6159027  93.3894035 118.7327245  62.7382091
  87.2623183 119.7313439  53.5483665  87.1422808 120.1770490  54.3869145
  86.5675771 120.0798757  52.9897203  80.8530588 121.8319831  61.0983322
  80.9822969 122.0854310  62.0122734  80.1728039 122.4247539  60.7787977
  87.5147305 119.6744946  69.8535163  86.7380639 120.2338866  69.8438028
  88.1537868 120.1601729  70.3750033  95.3068085 116.4571739  63.6878140
  94.6642465 116.7504272  63.0417934  94.8023014 116.3424659  64.4931336
  92.9608249 120.2034912  54.3763999  93.8726105 120.4362299  54.2011697
  92.4517896 120.7871956  53.8139078  85.7693677 122.4830399  69.4153130
  86.5108361 123.0215443  69.1387954  85.0630662 123.1096688  69.5724682
  91.2449017 124.6259540  68.0125292  91.6532373 124.1841950  67.2679924
  90.5226278 124.0512167  68.2659484  87.5980087 119.5632147  65.3858848
  88.4441282 119.9871560  65.5293497  87.5378724 118.9065771  66.0797412
  90.7479532 117.2236515  67.0440022  90.5040464 117.9778576  66.5074298
  91.0239462 117.6021863  67.8787269  90.3044224 116.3792948  62.6253860
  89.4428703 116.6774202  62.9170597  90.3306658 116.5963347  61.6934892
  87.1205793 124.9235139  59.0327666  87.5844139 125.2022842  58.2432288
  86.8562591 124.0218583  58.8500756  84.0129874 124.4706620  61.9707429
  84.5831231 124.8993889  61.3324913  84.6037986 124.1889205  62.6691614
  86.0574679 121.0458291  55.8417231  86.7598722 121.4979335  56.3091157
  85.7255308 120.4042110  56.4697124  84.5055041 119.6370048  70.2168440
  83.8753701 120.3186329  70.4503837  84.3991129 119.5253129  69.2721578
  79.8000013 119.3041844  61.1434364  79.0099067 119.5599372  60.6674475
  80.2911260 120.1190182  61.2486405  81.7514758 119.6686423  58.1017841
  80.9545922 119.7805117  58.6201337  81.5240351 120.0073075  57.2358731
  87.5820426 126.1931126  66.0500356  87.6464859 126.6551533  66.8858527
  86.8731350 125.5628491  66.1782665  78.0837716 119.5572334  63.5749355
  78.3345754 120.4419344  63.8406931  78.6197264 119.3776936  62.8024447
  83.7835783 113.9390814  72.5793691  83.3902729 113.3857012  73.2541335
  84.6001924 114.2501392  72.9700209  80.7497841 125.3774672  56.4907261
  81.2622362 126.1717922  56.6412826  81.4020554 124.6800962  56.4240862
  82.5592726 128.4940428  58.5730014  82.7359354 129.4158393  58.3850998
  83.3549559 128.1798847  59.0024394  86.7003744 115.3548693  70.1713948
  87.4413458 115.9555846  70.0918410  86.9321667 114.6126330  69.6131990
  81.8445082 120.5405060  68.4492177  81.7298597 119.6390317  68.7499276
  80.9889600 120.7868757  68.0976994  83.6824041 130.0118602  64.5740356
  84.2331466 129.8835665  63.8017350  82.8435517 130.3113491  64.2235249
  87.4791212 126.2769730  68.9184588  88.0119549 125.5158018  68.6883896
  86.9505293 125.9843381  69.6608742  90.6460907 111.3829796  64.4478229
  90.3025177 112.2731437  64.3717340  91.0139870 111.1931453  63.5847814
  78.7146758 123.7063326  57.2666831  79.5521980 124.1160334  57.0500539
  78.8925026 122.7662768  57.2367025  90.6111190 121.3738407  52.9550664
  90.0957813 122.1443011  53.1939052  90.3388498 120.7003543  53.5783726
  88.1958301 116.2188107  58.0135903  87.3399897 115.8294958  57.8341542
  88.6085253 116.2980068  57.1535688  89.7257448 113.7534451  62.4127463
  89.2222243 113.7164586  61.5995268  90.0188055 114.6627193  62.4724119
  85.9700334 113.8373180  61.4193644  86.8353330 113.6415989  61.0599534
  86.0377842 113.6083532  62.3463001  90.3997493 119.2465499  54.7810446
  90.0947629 119.5611648  55.6320589  91.3527935 119.3246919  54.8237779
  88.8443925 125.4055722  56.4303400  88.3165287 124.6708482  56.1176637
  88.3431428 126.1830398  56.1843368  83.5762653 116.0675388  58.7910011
  84.1506405 115.8450570  58.0583204  84.1633635 116.1364083  59.5438612
  92.6342230 121.9549115  59.5974388  93.1474112 122.5879107  60.0996097
  93.2843454 121.3550311  59.2317748  83.9032240 118.0979849  52.8105896
  83.0669552 118.4354536  53.1315171  83.7637009 117.9628829  51.8733033
  85.8785320 112.9416637  57.5185081  85.2249733 112.6265654  56.8941695
  85.8365794 112.3192378  58.2444903  86.9896525 123.2235932  49.4338373
  86.0823587 122.9925186  49.6329522  87.4867557 122.4273552  49.6212354
  89.1123061 119.4298571  61.8432728  88.1945622 119.6513518  61.6854416
  89.5283204 119.5044881  60.9844436  89.8958108 120.8289986  56.9735408
  90.6429927 121.3411384  56.6642530  90.1649698 120.5074039  57.8339802
  88.1684759 123.3248527  53.9562363  87.2595978 123.0407560  54.0534832
  88.1979842 123.7447606  53.0965670  92.3436946 117.8647103  58.9554198
  91.6059702 117.3524489  59.2864440  92.5963719 117.4247484  58.1437475
  92.4448573 110.6423355  59.5495967  92.7507450 109.7820718  59.2621882
  93.1701178 111.2340975  59.3494961  78.7372929 121.0454041  57.9377565
  78.5397329 120.4523402  57.2128632  78.1819593 120.7406252  58.6553504
  86.7169653 120.9377148  60.0572158  86.7718262 119.9850984  59.9814635
  85.9060855 121.0936587  60.5413457  87.8660846 124.8657271  51.2950441
  87.4280276 124.1493130  50.8356079  88.6071287 125.0933386  50.7335533
  84.6562013 119.5554208  57.8162537  83.8429878 119.8548378  58.2227729
  85.1521007 119.1609896  58.5337019  90.2536224 120.0196032  66.6477431
  90.6085612 120.2467505  67.5071897  90.9008356 120.3514409  66.0254686
  84.1476087 117.1272563  63.4323772  84.7875467 116.9861322  62.7346735
  83.3153618 116.8407076  63.0562374  84.9236391 126.4274993  59.5458764
  85.7176990 125.9325314  59.3441339  84.2128084 125.8992857  59.1826470
  81.2319155 120.5718075  55.6218517  80.3016743 120.5102531  55.8388479
  81.3276627 120.0494028  54.8255158  81.1504704 117.0972888  58.2096759
  81.4111521 118.0118221  58.1005919  81.9721876 116.6297331  58.3593372
  82.6229629 118.5110645  65.3795583  83.2952683 118.3028007  64.7308232
  81.7959416 118.3132731  64.9400816  88.5255201 115.1372586  67.3961244
  87.8783116 115.8362536  67.3025721  89.2956217 115.5708730  67.7637492
  88.7019335 122.9753351  65.4558064  89.6311395 123.1264511  65.2827031
  88.2810365 123.0637372  64.6006710  87.5007667 127.0004015  63.2256601
  87.3618753 126.6322800  64.0982540  86.7122263 127.5151655  63.0540559
  89.0512882 126.3785618  60.6145439  88.7162715 126.3386388  61.5103089
  88.5516828 125.7130334  60.1415849  83.0257126 121.7853248  66.1398020
  82.8876924 121.0533487  66.7409559  83.9362050 121.6962148  65.8582208
  91.9872074 123.7241653  50.8882499  91.3701245 122.9988481  50.7915552
  91.5188563 124.4851013  50.5449573  85.6539427 121.4973208  65.6281700
  86.3639046 120.8566400  65.5868318  85.6108735 121.7486102  66.5507881
  84.3668361 118.4838425  67.4477340  83.8305718 118.0329164  68.0998936
  83.7785069 118.6184334  66.7047804  83.7770620 117.9427077  50.0103803
  82.9000086 117.8215878  49.6466050  84.2528373 117.1513155  49.7582692
  75.2972760 122.7304237  60.1045310  75.9843800 122.4165967  59.5166326
  75.1420889 123.6345601  59.8312562  80.1007482 117.6194433  64.5330334
  80.0165671 117.0120103  63.7980744  79.2790189 118.1103451  64.5339830
  90.2731196 116.1047997  59.9000529  90.7699896 115.3517959  59.5801599
  89.5018178 116.1412313  59.3343738  91.3560977 124.8619684  57.4738952
  90.4217256 124.9821146  57.3043657  91.5337645 123.9592151  57.2098962
  86.8566165 118.2465380  59.6272214  86.4863952 117.6936420  60.3153119
  87.3525257 117.6423513  59.0747214  94.7433528 120.7037003  58.0088987
  95.2093980 121.5364995  57.9349289  95.1941029 120.2381985  58.7134245
  84.6855363 128.7062875  66.7227232  85.3864823 129.3399358  66.8756626
  84.2150478 129.0477606  65.9622871  92.7150191 113.0717590  62.0479888
  91.8013271 113.3021817  62.2162095  93.1443292 113.1556034  62.8993920
  92.4856649 121.2607482  64.5479782  91.8328100 121.5083390  63.8932235
  92.8637029 120.4471620  64.2142259  88.5344222 122.0027293  71.0345819
  87.8584859 121.9021422  71.7048194  89.3571856 121.8466507  71.4981816
  80.2823081 128.2399230  63.6558334  80.8676518 127.4942918  63.7886239
  80.0847920 128.5503186  64.5394998  74.8740736 120.8104830  62.3762777
  74.9124836 120.2768421  63.1699896  74.3681029 120.2840035  61.7573755
  82.2531499 115.6569370  65.8725320  82.3172825 116.5184201  65.4602717
  82.1898619 115.0443372  65.1397678  81.7283771 117.7292503  69.5198354
  82.3555810 117.3469580  70.1335878  80.8711690 117.5106705  69.8854047
  78.5049314 119.5368932  55.4516709  78.8002755 118.6279610  55.3983763
  77.6037350 119.5156671  55.1297711  82.0343561 117.6124929  61.4344257
  81.3130147 118.2260896  61.2951731  82.8236817 118.1482693  61.3560903
  84.8369874 114.9479355  67.7084909  85.3604276 115.1941652  68.4711219
  84.6182208 115.7799390  67.2888047  80.2337155 117.2183030  55.5756034
  79.9049862 116.3380409  55.3931140  80.5876526 117.1630698  56.4632423
  83.3478979 117.5056000  55.9431512  83.6875051 118.0341921  55.2210120
  83.7951099 117.8436406  56.7190078  86.0422419 115.8893050  65.3934580
  85.7019240 115.0900863  65.7955260  85.3361426 116.1894761  64.8211413
  86.6938891 112.9742363  63.8461903  87.5164961 112.5002841  63.7240793
  86.9376955 113.7532846  64.3460589  85.3347126 116.0030621  54.1424804
  86.0555488 116.3811874  53.6388521  84.7112430 116.7219498  54.2459782
  89.4778249 116.7075770  55.0783137  89.6941863 117.5900408  54.7771965
  88.9972316 116.3161983  54.3488779  84.2177470 119.6661483  61.6553881
  84.0722051 119.9801786  62.5478163  83.7402674 120.2846384  61.1024780
  86.0773853 116.6564031  61.7034771  86.0635422 115.7605125  61.3667069
  86.7946281 116.6634695  62.3373057  87.9299984 117.0901371  63.7487898
  87.6717761 118.0118442  63.7472229  87.3985024 116.6931806  64.4388362
  78.6923132 122.2066828  64.5941543  78.1476600 122.9826636  64.7261817
  79.5702482 122.5537632  64.4360664  85.4810749 115.5378412  56.9722341
  85.6026660 114.6095058  57.1713229  85.1912791 115.5517098  56.0600656
  88.3501939 113.2233322  60.1089061  88.3723636 113.2872655  59.1541040
  88.7669998 112.3837831  60.3029567  79.4789154 121.3336724  67.4871699
  78.7370890 121.4819359  68.0736330  79.1581898 121.5944990  66.6238449
  79.9245768 129.2202153  59.5182094  80.7503788 128.9205925  59.1380738
  79.5739820 128.4509775  59.9671883  84.8927301 128.5728621  61.5879768
  84.2707310 127.9099326  61.2881995  85.5632168 128.5989753  60.9053415
  78.1254373 127.1388479  60.4771028  77.2886281 126.7110653  60.2955029
  78.0978018 127.3320922  61.4141819  84.9651828 117.0510409  71.1812274
  85.0139984 117.9272532  70.7990043  85.5074343 116.5087802  70.6083917
  84.4540808 127.1232544  55.0638228  84.6028928 127.8068009  54.4104901
  85.2607251 127.1037634  55.5787684  92.8608311 120.4274927  69.0905446
  93.7618174 120.2881391  68.7989444  92.9356286 120.5929381  70.0303623
  87.1951117 117.8041781  67.9358632  86.3254426 118.0975347  67.6641221
  87.4310597 118.3882226  68.6565896  82.2093441 123.1497722  56.0699297
  81.9639483 122.2460052  56.2679507  82.3789355 123.1514872  55.1278775
  89.8990151 114.0221398  65.4524053  90.4172094 114.7582425  65.1270541
  89.5445283 114.3285392  66.2870812  81.4789088 118.8826079  53.5685459
  80.7858333 118.9570434  52.9125495  81.2340840 118.1186423  54.0906975
  90.1502745 110.4421681  60.9724949  90.4304499 109.7744870  61.5985376
  90.9353352 110.6350776  60.4599613  94.0211603 118.8639315  64.7196524
  94.9729026 118.9637412  64.7408748  93.8515054 118.0717583  65.2294609
  92.0425983 115.9494898  64.9055925  91.4475915 116.2299911  64.2102414
  91.7575679 116.4388799  65.6772666  88.3383012 120.9541487  49.8766028
  89.2842116 120.8247696  49.9454446  87.9597257 120.2156149  50.3535456
  96.6494169 118.8756478  63.8797107  96.1333218 118.0914935  63.6927036
  97.5334118 118.5475195  64.0443627  94.3104896 112.6197493  59.8392920
  94.1129717 112.3112582  60.7236252  94.9204602 113.3459132  59.9690850
  88.2221704 125.0059234  71.3366685  89.1424714 125.1837833  71.5306732
  88.1871287 124.0615279  71.1846384  86.5225929 118.8791464  49.8120913
  85.6157384 118.5824577  49.8883627  86.8001910 118.5821282  48.9455200
  77.4403869 120.1997827  60.2619960  77.1206654 119.3463135  59.9694334
  76.8937297 120.4146405  61.0177927  81.2183777 122.9160268  63.9789466
  81.4369787 123.8477376  63.9977500  81.6309551 122.5568243  64.7644270
  88.1387995 113.4228354  55.9665155  87.3288723 113.0775439  56.3420401
  88.8272412 113.1135897  56.5552766  90.0678543 112.5006400  57.5889451
  90.6209582 112.9201854  58.2479474  90.3048629 111.5742148  57.6312407
  86.0911642 118.4893474  73.3692215  85.9908369 119.4387831  73.3004306
  85.8733184 118.1611713  72.4968285  85.2924714 115.7378399  49.9532893
  86.1543878 116.0633297  50.2128710  85.4775058 114.9509895  49.4405958
  77.3092129 123.8200739  62.2313081  76.6155601 123.4054692  61.7183036
  78.0565120 123.8621275  61.6346500  93.4457350 114.6106926  57.0968116
  92.8656019 115.2691730  56.7146168  93.1793283 113.7884270  56.6855533
  91.8960916 114.0111983  59.2989436  92.3960695 114.1228518  58.4903755
  92.5396524 113.7073036  59.9390244  85.9542912 121.9190613  72.1857277
  85.4709994 122.7190973  72.3921166  86.0403851 121.9298558  71.2324721
  79.2228872 123.7518993  60.1079096  79.1999560 123.8506680  59.1560979
  79.5329508 124.5984143  60.4296262  81.8816250 125.8095148  64.2225711
  82.8359503 125.7779090  64.1555642  81.6828773 125.3485771  65.0375937
  82.4715632 124.3796264  66.7896508  83.2908521 124.8740342  66.8131346
  82.7452440 123.4628232  66.7614076  92.2282228 116.7707016  56.1524464
  91.3408083 117.0556667  55.9344659  92.6436217 116.6100779  55.3051741
  95.5796764 116.7953537  59.8678803  96.3557154 117.2849989  60.1403420
  94.8544898 117.2211591  60.3250673  98.0169323 117.5081156  60.9252744
  98.6113814 117.2676892  60.2146052  98.0895906 116.7888287  61.5526280
  92.2023252 122.2861552  56.3674754  92.1458453 122.7430103  55.5282386
  92.7551594 121.5252236  56.1897597  96.0128058 118.0751284  57.1924873
  95.7564992 117.6747919  58.0233081  95.3880926 118.7895078  57.0675013
  92.9358031 123.4766333  53.6627283  92.8806835 123.3110605  52.7215727
  92.3104086 124.1842366  53.8189473  77.7250546 118.7134397  67.4888705
  78.3709410 118.2033351  67.9775931  77.5167697 119.4503079  68.0632131
  86.2454157 112.9774442  53.2412602  86.2332826 113.9216282  53.3980872
  87.1377578 112.7944587  52.9472063  90.0606276 109.5717219  57.4958538
  89.2938672 109.0175705  57.6415221  90.4716981 109.6439087  58.3572690
  82.0648037 115.8602015  71.5863720  82.9279499 115.5038819  71.7967044
  81.4913448 115.5215909  72.2739124  26.0340134   7.1922570  49.1171427
  26.6718544   7.0729317  48.4134767  25.9160977   8.1403414  49.1759379
  22.8429840   7.1449998  49.0532952  22.5048352   7.0291063  48.1653487
  23.7119608   6.7441163  49.0333958  18.7016656   8.9985474  45.0429843
  18.1381521   8.9075411  44.2746131  18.5869051   8.1785379  45.5232335
  23.3249623   8.2984850  55.0119157  23.3138264   7.9037648  54.1399661
  23.4870263   7.5650922  55.6052929  16.2481088  10.4936666  47.8814063
  17.0402380  10.1527490  47.4660363  16.4877738  10.6031641  48.8016217
  24.2816215  12.6656442  40.3544308  23.6304194  13.2510522  39.9678322
  25.0760577  13.1962637  40.4139345  18.2071842   9.7545579  40.7531442
  18.9802718   9.2074566  40.6144318  18.5597241  10.6189828  40.9645903
  20.0456884  11.0821961  53.9598341  19.7546750  11.9867592  53.8445008
  20.6813869  11.1238489  54.6742411  20.9713091   8.4598810  50.5499701
  21.5676663   8.2354832  49.8356664  21.0288063   7.7183555  51.1525149
  20.5438120   5.9138245  38.3849892  20.7963640   5.3919766  37.6233355
  19.6062679   5.7504391  38.4876576  25.5881402   4.9174024  46.1924635
  26.3744492   4.4993447  45.8415052  25.8520107   5.8220116  46.3606284
  25.7591480  10.3546874  40.8913292  25.1237313  10.4281500  41.6034197
  25.4288886  10.9440473  40.2132371  30.9889829   4.8549257  47.0957614
  31.7215001   4.2848474  47.3295443  30.2329185   4.4670857  47.5364119
  20.2634408   7.8166351  40.5874267  20.1470666   7.1411255  41.2555351
  20.3736668   7.3298725  39.7706420  22.6065949   7.2776498  44.2920956
  22.2424156   6.7507119  45.0033878  23.4633065   6.8874967  44.1187442
  25.0046769  10.7683377  50.9548135  24.7047492  11.6708416  50.8463942
  24.6597829  10.5015560  51.8069288  18.4559251   7.2197174  46.9884840
  17.5309747   7.0873388  47.1962531  18.7043664   7.9991393  47.4854782
  28.4043913   3.2865917  48.6345572  27.4960790   3.2181326  48.3404333
  28.3531509   3.7637862  49.4627398  22.2260657   4.7624055  40.2728972
  22.1060282   5.2081106  41.1114452  21.5313245   5.1109373  39.7142510
  19.9867549  17.5327697  43.9219103  19.9091579  18.4835522  44.0007583
  19.3829193  17.1873570  44.5794029  22.4784779   4.7055563  56.5780470
  21.7018113   5.2649483  56.5683334  23.1175342   5.1912346  57.0995340
  30.2705560   1.4882355  50.4123446  29.6279940   1.7814889  49.7663241
  29.7660488   1.3735276  51.2176643  27.9245723   5.2345529  41.1009306
  28.8363579   5.4672915  40.9257003  27.4155370   5.8182573  40.5384384
  20.7331151   7.5141016  56.1398437  21.4745836   8.0526060  55.8633260
  20.0268137   8.1407305  56.2969988  26.2086491   9.6570156  54.7370598
  26.6169847   9.2152567  53.9925231  25.4863752   9.0822784  54.9904791
  22.5617561   4.5942763  52.1104155  23.4078756   5.0182177  52.2538804
  22.5016199   3.9376388  52.8042718  26.5315305  10.2171347  48.4922887
  25.9024168  10.3817061  47.7898955  26.1440968  10.6312957  49.2633851
  30.4104537  11.1525785  45.8467251  29.7255576  11.5324686  45.2964284
  30.4948387  11.7621112  46.5799199  25.7117006   2.2547132  53.7685329
  25.4677938   3.0089192  53.2319604  25.9876937   2.6332479  54.6032576
  27.6655469   8.7985744  52.4462594  27.8772364   9.4417504  51.7696975
  27.6185217   7.9648061  51.9784524  25.2681698   1.4103565  49.3499166
  24.4066177   1.7084818  49.6415904  25.2944133   1.6273964  48.4180199
  22.0843267   9.9545755  45.7572972  22.5481613  10.2333458  44.9677595
  21.8200065   9.0529200  45.5746063  18.9767348   9.5017237  48.6952735
  19.5468705   9.9304505  48.0570220  19.5675460   9.2199821  49.3936921
  21.0212153   6.0768908  42.5662537  21.7236197   6.5289951  43.0336464
  20.6892782   5.4352726  43.1942430  28.7801297  11.6757699  50.6184952
  29.6018741  11.2737887  50.3367633  28.7763700  11.5725934  51.5701067
  22.5457900  11.2241743  52.7745662  22.6102333  11.6862150  53.6103834
  21.8368824  10.5939108  52.9027972  36.8707290   8.0196448  46.9669923
  36.1170998   7.4503846  46.8113928  37.0054831   7.9859112  47.9140558
  22.2605918  12.8909850  42.6424643  22.1251593  13.7361386  43.0709490
  22.8015731  13.0929128  41.8790576  15.7135315  10.4085288  43.2152568
  16.2259836  11.2028538  43.3658132  16.3658028   9.7111579  43.1486169
  17.5230200  13.5251045  45.2975321  17.6996828  14.4469009  45.1096305
  18.3187034  13.2109464  45.7269701  23.8874394  13.5133417  56.7724985
  23.4438249  12.7269795  56.4545889  24.5491608  13.7012567  56.1068875
  18.6461516  15.0429218  51.2985663  19.1968941  14.9146282  50.5262657
  17.8072991  15.3424107  50.9480556  25.9855632  13.7936217  54.8006386
  25.9674108  14.6145098  54.3086655  26.9075553  13.6690292  55.0256527
  22.4428687  11.3080346  55.6429894  22.9757023  10.5468634  55.4129202
  21.9142768  11.0153998  56.3854049  25.5748664   6.4049023  39.6795971
  25.0595288   7.1753628  39.9184358  25.3025973   5.7314159  40.3029033
  30.5482938   9.1581378  41.6149145  29.7712381   8.8192537  41.1704307
  31.2274419   9.1634001  40.9404110  25.3634967   4.2776115  41.5055752
  25.0585103   4.5922264  42.3565895  26.3165410   4.3557535  41.5483085
  23.8081399  10.4366339  43.1548706  23.2802761   9.7019098  42.8421944
  23.3068902  11.2141015  42.9088675  28.7874245   8.6315359  48.2715753
  28.1297920   9.3214620  48.3595881  29.5914645   9.0211791  48.6149739
  27.5979704   6.9859732  46.3219694  28.1111586   7.6189724  46.8241404
  28.2480928   6.3860927  45.9563054  21.9534000   8.2546549  36.1583679
  21.0461061   8.0235802  36.3574828  22.4505032   7.4584168  36.3457661
  24.8602078  16.9644056  39.0780365  24.1863777  17.2675753  39.6865323
  25.2467900  17.7673136  38.7285823  24.0760535   4.4609187  48.5678035
  23.1583096   4.6824134  48.4099723  24.4920679   4.5355498  47.7089742
  24.8595583   5.8600603  43.6980715  25.6067402   6.3722000  43.3887837
  25.1287172   5.5384656  44.5585109  23.1322233   8.3559144  40.6807669
  22.2233452   8.0718177  40.7780139  23.1617317   8.7758222  39.8210976
  28.3641500  11.9665733  44.4498837  27.9103827  11.1256643  44.5064027
  27.7335467  12.6027132  44.7873617  27.3074420   2.8957719  45.6799504
  26.5697177   2.3835105  46.0109747  27.5601193   2.4558101  44.8682781
  26.8074440  13.8042230  45.3848655  27.0997414  14.3647287  44.6661021
  27.3173060  14.0970791  46.1401814  21.6807127   5.9687764  46.7817465
  21.7355737   5.0161601  46.7059941  20.8698329   6.1247203  47.2658763
  22.8298321   9.8967887  38.0195748  22.3917751   9.1803746  37.5601385
  23.5708762  10.1244002  37.4580839  21.7708065  14.5822581  46.4742108
  21.7284244  14.8083427  45.5450640  22.6870764  14.3485956  46.6227909
  25.2173699   5.0506649  53.3722737  25.5723086   5.2778122  54.2317203
  25.8645830   5.3825025  52.7499993  30.9471436   8.1725084  44.0772067
  30.8089334   8.3626680  43.1493256  30.5907654   8.9344467  44.5340118
  30.9740815  10.2401611  49.0883338  31.4077322  10.1476901  49.9366392
  31.6872396  10.2159112  48.4503354  19.8873866  11.4585610  46.2704071
  20.6814464  10.9635930  46.0686646  19.1765558  10.9303473  45.9071777
  24.7068710  13.8403706  50.6216439  24.7605732  14.4094642  51.3894155
  23.8383491  14.0105591  50.2570476  31.8356365  10.2825312  51.6216223
  32.0292255  11.1871123  51.8675498  31.7356983   9.8232731  52.4554808
  26.8971473  10.4332055  57.1957104  26.7456980  10.2042607  56.2787188
  26.8876153  11.3902656  57.2088449  23.6656810   8.0063968  52.1803370
  24.5948870   8.1575127  52.0072338  23.2447840   8.0947988  51.3252017
  22.4645142  12.0314632  49.9501908  22.3256227  11.6633416  50.8227846
  21.6759738  12.5462271  49.7785866  23.0593294  17.1323728  41.2927445
  23.2345049  16.6611772  42.1073067  22.3726082  17.7589495  41.5208705
  24.0150357  11.4096235  47.3390746  23.6800189  11.3697005  48.2348396
  23.5154302  10.7440951  46.8661156  17.9894601   6.8163865  52.8643327
  17.8514399   6.0844104  53.4654866  18.8999524   6.7272765  52.5827515
  26.9509548   8.7552269  37.6127806  26.3338719   8.0299097  37.5160858
  26.4826037   9.5161629  37.2694880  20.6176901   6.5283824  52.3527007
  21.3276520   5.8877016  52.3113625  20.5746210   6.7796719  53.2753187
  28.6063680  13.4651177  55.2733586  28.5476226  12.7810398  54.6064169
  29.0083198  14.2070167  54.8214212  17.6254379  20.2813091  48.0667305
  17.8650977  20.9131615  48.7446323  16.7823575  19.9301131  48.3532664
  28.6081087  11.4290761  53.5047566  27.7207866  11.0916683  53.6273964
  29.1779638  10.6973793  53.7416331  22.1382241  16.0892214  50.4708809
  22.0652412  16.8947185  50.9828113  21.6959634  16.2884179  49.6456830
  21.9272020  15.3263984  43.9811630  21.1439542  15.8685664  44.0749855
  22.6264765  15.8437963  44.3805871  25.2368670   1.1358613  46.6245836
  25.7337370   0.3828575  46.3046906  24.4655652   1.1722930  46.0589045
  33.0898428   6.8398979  48.2664127  33.0788304   7.7223694  47.8958060
  32.2215807   6.4870530  48.0718664  24.5980924  15.9879048  52.6266967
  25.3108896  16.6226513  52.5542869  24.1070953  16.0842914  51.8106969
  26.3198451   9.8930300  44.1984259  25.3854730  10.0131763  44.0288963
  26.4975120   8.9902767  43.9344269  29.7071002   5.7347620  44.7334293
  30.1731455   6.5675611  44.6594596  30.1578503   5.2692601  45.4379552
  19.6492838  13.7373491  53.4472538  20.3502297  14.3709974  53.6001932
  19.1787953  14.0788223  52.6868178  27.7747234  12.0791441  41.7320445
  28.0507077  11.9648036  42.6414319  26.9051732  11.6808926  41.6932618
  27.4494124   6.2918099  51.2725089  26.7965574   6.5394006  50.6177541
  27.8274504   5.4782237  50.9387566  24.4101298  16.3277792  45.3753259
  24.5923692  15.5099448  45.8381011  25.2334284  16.5445484  44.9378149
  24.7443463  15.2545977  42.6368307  25.2731230  14.7438432  42.0238469
  25.0071683  14.9388507  43.5013840  23.4981697   7.0337910  57.7591126
  22.8222334   6.9332039  58.4293501  24.3209331   6.8777123  58.2227123
  15.2460556  13.2709846  50.3803641  15.8313993  12.5253534  50.5131545
  15.0485394  13.5813803  51.2640305  18.0999211  16.3061094  45.3966083
  17.4309586  16.7907221  44.9130123  17.9612081  16.5530314  46.3109462
  22.2404480  18.3404837  51.9948742  22.7922788  18.5036459  52.7597827
  22.5810673  18.9309275  51.3228767  27.0915354  13.1666095  57.8497396
  27.6355258  13.7796053  57.3552351  26.5102199  13.7245673  58.3664409
  25.3772867  16.2886813  48.9812424  25.2524006  15.4876553  48.4723369
  26.0351958  16.7833006  48.4926394  27.4407775  14.0895833  50.6091974
  26.4938111  13.9701184  50.5370301  27.7890548  13.2018331  50.6918235
  24.4454209  13.8848549  46.8096326  24.2979171  12.9565256  46.9903896
  25.2707702  13.9068640  46.3253401  28.0488330  14.7077108  47.8961199
  28.9734878  14.5019969  47.7585650  27.8803634  14.4593509  48.8050540
  27.8383647  15.2262775  43.2523290  28.0120524  14.6609198  42.4997143
  28.3312538  16.0263670  43.0702780  33.6923038   7.9899198  44.8713590
  34.1354184   7.2406523  44.4732713  32.8149548   7.9809334  44.4887322
  28.8258819  14.5429540  40.3520189  29.5209724  15.1636232  40.5707503
  29.1681969  13.6924891  40.6272567  30.7250242  11.9929245  41.8807519
  31.2501566  12.3316518  41.1556839  30.6372595  11.0576260  41.6970654
  22.3870291  15.9063319  54.0097396  22.6957417  15.6612465  54.8820096
  23.1845773  16.1109957  53.5216266  22.4090903  18.0601228  46.2402773
  21.9695893  17.5677607  46.9335629  23.1599020  17.5174196  45.9994848
  14.8883242  14.2512769  46.2427401  15.7141262  13.9516541  45.8626044
  14.5377294  13.4820392  46.6917189  19.8564775  13.6039237  48.3125074
  19.2344784  12.9409942  48.0127302  20.5269642  13.6300369  47.6298722
  13.0891847  12.1699096  47.2016334  12.2523755  11.7421270  47.0200336
  13.0615492  12.3631539  48.1387125  30.4144148  12.6262149  57.1858717
  29.6239692  12.6086288  56.6463217  30.1777503  13.1650442  57.9407754
  30.5342023   9.4754615  54.4991446  30.5840028   9.3104623  55.4406969
  30.4255947   8.6081874  54.1089327  19.4178282  12.1543161  41.7883535
  19.5666402  12.8378625  41.1350208  20.2244726  12.1348251  42.3032991
  27.8245786   5.4585543  55.8150753  28.7255649   5.3192008  55.5234750
  27.8993760   5.6239998  56.7548930  32.0360220  11.8951557  54.7433467
  31.7445028  12.2581537  55.5796928  31.4232351  11.1818565  54.5646800
  33.2355903   9.4604436  47.2636038  34.0702794   9.8994240  47.4273598
  33.3715031   8.9843090  46.4444283  30.2847408   7.0184171  53.2113525
  30.7601530   7.2111818  52.4032377  29.3612974   7.0743357  52.9656909
  17.1730915   8.1808338  42.7944604  16.9276957   7.2770668  42.9924814
  17.3426830   8.1825489  41.8524082  22.9173688  14.6491291  39.2595282
  22.3447655  15.2681478  38.8065754  23.4906481  15.1990653  39.7935204
  28.9849077   3.8949931  51.4441831  29.9366500   3.9948029  51.4654055
  28.8152528   3.1028200  51.9539915  27.0063457   0.9805515  51.6301232
  26.4113389   1.2610527  50.9347721  26.7213154   1.4699415  52.4017973
  26.1370947  14.9328441  40.3903865  27.0701621  14.8674003  40.5936740
  26.0494160  15.7684708  39.9318397  28.7658964  14.2494312  37.3507812
  28.6872596  13.9154175  38.2443570  29.5868631  14.7416080  37.3499284
  31.4637155   7.1156051  50.5584131  31.4313475   6.1772052  50.7443815
  32.0737779   7.1940088  49.8249956  23.3020486   5.9852104  36.6011335
  24.2479591   5.8558312  36.6699753  22.9234731   5.2466766  37.0780763
  31.6131644   3.9067094  50.6042414  31.0970692   3.1225551  50.4172343
  32.4971592   3.5785811  50.7688933  37.2813705   8.1772058  49.6990167
  38.0117094   7.9157346  50.2597871  36.6720651   7.4400780  49.7392235
  35.3629002   6.3179920  50.2964619  34.6362166   6.1835885  49.6881110
  34.9476289   6.6256749  51.1021337  23.1859179  10.0369850  58.0611992
  24.1062188  10.2148449  58.2552038  23.1508762   9.0925895  57.9091691
  16.1821251   7.9470885  50.7034773  16.4007261   8.8787993  50.7222807
  16.5947025   7.5878859  51.4889577  28.4094824  -0.3582458  43.8213422
  27.8293493   0.3002346  43.4391475  28.1430757  -1.1805113  43.4100840
  20.9180387   6.9501229  58.9102583  20.4347468   7.7501589  59.1166472
  21.0041326   6.9609174  57.9570027  14.1866346   8.7829609  46.8324403
  14.1637034   8.8817296  45.8806286  14.4966983   9.6294760  47.1541569
  16.8453724  10.8405764  50.9471017  17.7996978  10.8089706  50.8800949
  16.6466248  10.3796388  51.7621243  17.4353106   9.4106880  53.5141815
  18.2545995   9.9050959  53.5376652  17.7089914   8.4938848  53.4859382
  27.1919702   1.8017632  42.8769770  26.3045557   2.0867283  42.6589965
  27.6073691   1.6411396  42.0297047  30.5434238   1.8264153  46.5924110
  31.3194629   2.3160606  46.8648726  29.8182373   2.2522208  47.0495979
  32.9806797   2.5391773  47.6498050  33.5751288   2.2987509  46.9391359
  33.0533381   1.8198903  48.2771587  15.2003953  16.3825384  47.9641215
  15.0658421  15.6225784  47.3979213  14.7836015  17.1066283  47.4970004
  26.3362916  11.5662307  36.9717790  27.0398766  11.7712310  37.5875446
  25.6125565  12.1339069  37.2366874  27.1660726   7.3172168  43.0920061
  27.1095928   7.7740720  42.2527693  27.7189069   6.5562853  42.9142903
  30.9765532   3.1061900  43.9170180  30.7202466   2.7058536  44.7478388
  30.3518400   3.8205694  43.7920319  35.2877870   5.8457973  46.4241471
  34.7277428   5.9151163  47.1973034  34.6821373   5.6698958  45.7040968
  18.3573079  17.2794701  48.1759658  18.2405463  18.2240133  48.0738348
  17.5365525  16.9768262  48.5645457  28.2449613  12.0044836  39.0216250
  29.0795217  11.5726035  38.8393725  28.0833956  11.8326850  39.9493145
  27.8995505   8.5076950  40.3872590  27.8444309   8.3421221  39.4461034
  27.2741561   9.2152983  40.5434779  25.2141413  10.8125861  59.7126153
  26.0832572  10.9866514  59.3512787  24.7348164  11.6320278  59.5901882
  19.3827593  17.9322962  51.3915586  20.2854840  17.9646573  51.7082081
  19.1564963  17.0023413  51.4061922  21.1381195  16.6853949  48.0525665
  20.1876826  16.6855811  47.9390037  21.4413681  15.9386684  47.5361699
  36.8733888  22.5214487  49.1171427  37.5112298  22.4021235  48.4134767
  36.7554731  23.4695331  49.1759379  33.6823595  22.4741916  49.0532952
  33.3442106  22.3582980  48.1653487  34.5513363  22.0733081  49.0333958
  29.5410410  24.3277392  45.0429843  28.9775275  24.2367329  44.2746131
  29.4262805  23.5077296  45.5232335  34.1643378  23.6276767  55.0119157
  34.1532018  23.2329566  54.1399661  34.3264017  22.8942840  55.6052929
  27.0874842  25.8228584  47.8814063  27.8796134  25.4819408  47.4660363
  27.3271492  25.9323559  48.8016217  35.1209969  27.9948360  40.3544308
  34.4697949  28.5802440  39.9678322  35.9154332  28.5254555  40.4139345
  29.0465596  25.0837497  40.7531442  29.8196472  24.5366484  40.6144318
  29.3990995  25.9481746  40.9645903  30.8850639  26.4113879  53.9598341
  30.5940505  27.3159510  53.8445008  31.5207623  26.4530407  54.6742411
  31.8106846  23.7890728  50.5499701  32.4070418  23.5646750  49.8356664
  31.8681817  23.0475473  51.1525149  31.3831874  21.2430163  38.3849892
  31.6357395  20.7211684  37.6233355  30.4456433  21.0796308  38.4876576
  36.4275157  20.2465941  46.1924635  37.2138246  19.8285364  45.8415052
  36.6913861  21.1512033  46.3606284  36.5985234  25.6838792  40.8913292
  35.9631067  25.7573418  41.6034197  36.2682641  26.2732390  40.2132371
  41.8283584  20.1841174  47.0957614  42.5608756  19.6140391  47.3295443
  41.0722940  19.7962775  47.5364119  31.1028163  23.1458269  40.5874267
  30.9864421  22.4703172  41.2555351  31.2130423  22.6590643  39.7706420
  33.4459704  22.6068416  44.2920956  33.0817911  22.0799037  45.0033878
  34.3026820  22.2166885  44.1187442  39.3509004  13.8962749  51.5552222
  39.0192329  14.7658160  51.3313437  38.7554618  13.5799033  52.2346253
  33.0865191  17.6358316  39.2882305  33.2539593  18.5038552  39.6552776
  32.8962360  17.7985597  38.3643594  35.8440524  26.0975295  50.9548135
  35.5441247  27.0000333  50.8463942  35.4991583  25.8307478  51.8069288
  29.2953005  22.5489091  46.9884840  28.3703502  22.4165306  47.1962531
  29.5437418  23.3283311  47.4854782  39.2437668  18.6157835  48.6345572
  38.3354545  18.5473243  48.3404333  39.1925263  19.0929780  49.4627398
  33.0654412  20.0915973  40.2728972  32.9454037  20.5373024  41.1114452
  32.3707000  20.4401291  39.7142510  26.6561816  22.1922365  47.8228629
  26.7854198  22.4456844  48.7368040  25.9759268  22.7850073  47.5033284
  30.8261304  32.8619615  43.9219103  30.7485333  33.8127440  44.0007583
  30.2222947  32.5165487  44.5794029  33.3178533  20.0347480  56.5780470
  32.5411867  20.5941400  56.5683334  33.9569096  20.5204263  57.0995340
  41.1099314  16.8174273  50.4123446  40.4673694  17.1106806  49.7663241
  40.6054243  16.7027193  51.2176643  38.7639478  20.5637446  41.1009306
  39.6757334  20.7964833  40.9257003  38.2549125  21.1474491  40.5384384
  31.5724906  22.8432934  56.1398437  32.3139590  23.3817978  55.8633260
  30.8661891  23.4699222  56.2969988  37.0480245  24.9862074  54.7370598
  37.4563601  24.5444485  53.9925231  36.3257507  24.4114702  54.9904791
  33.4011315  19.9234681  52.1104155  34.2472511  20.3474094  52.2538804
  33.3409953  19.2668305  52.8042718  37.3709060  25.5463265  48.4922887
  36.7417922  25.7108979  47.7898955  36.9834722  25.9604874  49.2633851
  41.2498292  26.4817703  45.8467251  40.5649330  26.8616604  45.2964284
  41.3342141  27.0913029  46.5799199  36.5510761  17.5839049  53.7685329
  36.3071693  18.3381110  53.2319604  36.8270691  17.9624397  54.6032576
  38.5049223  24.1277662  52.4462594  38.7166119  24.7709422  51.7696975
  38.4578972  23.2939978  51.9784524  36.1075452  16.7395482  49.3499166
  35.2459931  17.0376736  49.6415904  36.1337887  16.9565881  48.4180199
  32.9237022  25.2837673  45.7572972  33.3875367  25.5625376  44.9677595
  32.6593820  24.3821117  45.5746063  29.8161103  24.8309154  48.6952735
  30.3862460  25.2596423  48.0570220  30.4069215  24.5491739  49.3936921
  31.8605908  21.4060825  42.5662537  32.5629951  21.8581869  43.0336464
  31.5286536  20.7644644  43.1942430  30.3086269  19.9972582  56.9413747
  29.6784930  20.6788863  57.1749143  30.2022357  19.8855663  55.9966885
  25.6031242  19.6644378  47.8679671  24.8130296  19.9201906  47.3919781
  26.0942489  20.4792716  47.9731711  39.6195051  27.0049617  50.6184952
  40.4412495  26.6029804  50.3367633  39.6157454  26.9017851  51.5701067
  27.5545987  20.0288957  44.8263148  26.7577151  20.1407651  45.3446643
  27.3271579  20.3675609  43.9604038  33.3851655  26.5533660  52.7745662
  33.4496087  27.0154068  53.6103834  32.6762579  25.9231025  52.9027972
  23.8868945  19.9174868  50.2994662  24.1376983  20.8021878  50.5652238
  24.4228493  19.7379470  49.5269753  47.7101044  23.3488366  46.9669923
  46.9564753  22.7795764  46.8113928  47.8448586  23.3151030  47.9140558
  33.0999673  28.2201768  42.6424643  32.9645347  29.0653304  43.0709490
  33.6409485  28.4221046  41.8790576  29.5867012  14.2993348  59.3038998
  29.1933958  13.7459546  59.9786642  30.4033152  14.6103926  59.6945515
  26.5529070  25.7377206  43.2152568  27.0653590  26.5320456  43.3658132
  27.2051783  25.0403496  43.1486169  28.3623955  28.8542962  45.2975321
  28.5390583  29.7760927  45.1096305  29.1580788  28.5401381  45.7269701
  32.5034973  15.7151227  56.8959254  33.2444687  16.3158380  56.8163717
  32.7352896  14.9728865  56.3377297  27.6476311  20.9007594  55.1737484
  27.5329826  19.9992851  55.4744583  26.7920829  21.1471291  54.8222301
  34.7268149  28.8425334  56.7724985  34.2832003  28.0561713  56.4545889
  35.3885362  29.0304485  56.1068875  29.4855270  30.3721136  51.2985663
  30.0362695  30.2438199  50.5262657  28.6466746  30.6716025  50.9480556
  36.8249387  29.1228134  54.8006386  36.8067862  29.9437015  54.3086655
  37.7469307  28.9982210  55.0256527  33.2822441  26.6372264  55.6429894
  33.8150778  25.8760552  55.4129202  32.7536522  26.3445916  56.3854049
  36.4492136  11.7432330  51.1723536  36.1056405  12.6333971  51.0962647
  36.8171099  11.5533987  50.3093121  24.5177987  24.0665860  43.9912138
  25.3553209  24.4762869  43.7745846  24.6956254  23.1265302  43.9612332
  36.4142419  21.7340941  39.6795971  35.8989042  22.5045545  39.9184358
  36.1419727  21.0606077  40.3029033  33.9989530  16.5790642  44.7381209
  33.1431126  16.1897492  44.5586848  34.4116482  16.6582602  43.8780995
  35.5288676  14.1136985  49.1372769  35.0253472  14.0767120  48.3240575
  35.8219283  15.0229728  49.1969426  31.7731562  14.1975715  48.1438951
  32.6384559  14.0018523  47.7844840  31.8409071  13.9686066  49.0708308
  41.3876693  24.4873296  41.6149145  40.6106136  24.1484455  41.1704307
  42.0668174  24.4925919  40.9404110  36.2028722  19.6068033  41.5055752
  35.8978858  19.9214182  42.3565895  37.1559164  19.6849453  41.5483085
  34.6475154  25.7658256  43.1548706  34.1196515  25.0311016  42.8421944
  34.1462657  26.5432933  42.9088675  39.6268000  23.9607277  48.2715753
  38.9691674  24.6506538  48.3595881  40.4308399  24.3503709  48.6149739
  29.3793881  16.4277923  45.5155318  29.9537633  16.2053104  44.7828511
  29.9664864  16.4966617  46.2683919  38.4373459  22.3151649  46.3219694
  38.9505340  22.9481641  46.8241404  39.0874683  21.7152845  45.9563054
  29.7063469  18.4582384  39.5351203  28.8700781  18.7957070  39.8560478
  29.5668238  18.3231363  38.5978340  31.6816549  13.3019171  44.2430387
  31.0280961  12.9868189  43.6187002  31.6397023  12.6794912  44.9690210
  32.7927754  23.5838467  36.1583679  31.8854816  23.3527720  36.3574828
  33.2898786  22.7876086  36.3457661  35.6995833  32.2935974  39.0780365
  35.0257532  32.5967670  39.6865323  36.0861655  33.0965054  38.7285823
  34.9154290  19.7901105  48.5678035  33.9976851  20.0116052  48.4099723
  35.3314433  19.8647415  47.7089742  35.6989337  21.1892521  43.6980715
  36.4461156  21.7013918  43.3887837  35.9680927  20.8676573  44.5585109
  33.9715987  23.6851061  40.6807669  33.0627207  23.4010094  40.7780139
  34.0011071  24.1050140  39.8210976  39.2035255  27.2957651  44.4498837
  38.7497582  26.4548561  44.5064027  38.5729222  27.9319049  44.7873617
  38.1468174  18.2249637  45.6799504  37.4090931  17.7127023  46.0109747
  38.3994948  17.7850019  44.8682781  37.6468194  29.1334148  45.3848655
  37.9391168  29.6939205  44.6661021  38.1566815  29.4262709  46.1401814
  38.2479802  11.0025889  46.2741274  38.5538679  10.1423252  45.9867189
  38.9732407  11.5943509  46.0740268  24.5404158  21.4056576  44.6622872
  24.3428558  20.8125936  43.9373938  23.9850822  21.1008786  45.3798810
  32.5200881  21.2979682  46.7817465  32.5749491  20.3453518  46.7059941
  31.7092084  21.4539121  47.2658763  33.6692075  25.2259805  38.0195748
  33.2311505  24.5095664  37.5601385  34.4102516  25.4535920  37.4580839
  30.4593241  19.9156742  44.5407844  29.6461107  20.2150912  44.9473036
  30.9552236  19.5212431  45.2582326  32.6101819  29.9114499  46.4742108
  32.5677998  30.1375345  45.5450640  33.5264518  29.6777873  46.6227909
  36.0567453  20.3798566  53.3722737  36.4116841  20.6070039  54.2317203
  36.7039584  20.7116943  52.7499993  41.7865190  23.5017002  44.0772067
  41.6483089  23.6918598  43.1493256  41.4301409  24.2636385  44.5340118
  29.9507316  17.4875097  50.1569079  30.5906695  17.3463856  49.4592042
  29.1184847  17.2009611  49.7807681  41.8134570  25.5693529  49.0883338
  42.2471076  25.4768818  49.9366392  42.5266150  25.5451030  48.4503354
  30.7267620  26.7877528  46.2704071  31.5208219  26.2927848  46.0686646
  30.0159312  26.2595391  45.9071777  35.5462465  29.1695623  50.6216439
  35.5999487  29.7386560  51.3894155  34.6777246  29.3397508  50.2570476
  27.0350384  20.9320609  42.3463824  26.1047972  20.8705065  42.5633786
  27.1307856  20.4096562  41.5500465  26.9535933  17.4575422  44.9342065
  27.2142750  18.3720756  44.8251226  27.7753105  16.9899865  45.0838678
  28.4260858  18.8713179  52.1040890  29.0983911  18.6630542  51.4553539
  27.5990644  18.6735265  51.6646122  42.6750119  25.6117230  51.6216223
  42.8686009  26.5163040  51.8675498  42.5750737  25.1524649  52.4554808
  34.3286430  15.4975120  54.1206551  33.6814345  16.1965070  54.0271027
  35.0987445  15.9311264  54.4882799  37.7365228  25.7623973  57.1957104
  37.5850734  25.5334524  56.2787188  37.7269907  26.7194574  57.2088449
  34.5050564  23.3355885  52.1803370  35.4342624  23.4867045  52.0072338
  34.0841594  23.4239906  51.3252017  33.3038896  27.3606550  49.9501908
  33.1649982  26.9925334  50.8227846  32.5153492  27.8754189  49.7785866
  33.8987048  32.4615646  41.2927445  34.0738804  31.9903689  42.1073067
  33.2119836  33.0881412  41.5208705  34.8544111  26.7388152  47.3390746
  34.5193944  26.6988922  48.2348396  34.3548057  26.0732868  46.8661156
  28.8288355  22.1455782  52.8643327  28.6908153  21.4136021  53.4654866
  29.7393279  22.0564683  52.5827515  37.7903303  24.0844187  37.6127806
  37.1732474  23.3591015  37.5160858  37.3219791  24.8453547  37.2694880
  31.4570656  21.8575742  52.3527007  32.1670274  21.2168934  52.3113625
  31.4139964  22.1088637  53.2753187  39.4457435  28.7943095  55.2733586
  39.3869981  28.1102315  54.6064169  39.8476953  29.5362085  54.8214212
  30.1699590  18.8440960  54.1722646  29.6336947  18.3931698  54.8244242
  29.5816298  18.9786868  53.4293111  28.4648133  35.6105009  48.0667305
  28.7044732  36.2423533  48.7446323  27.6217330  35.2593049  48.3532664
  29.5801849  18.3029611  36.7349110  28.7031315  18.1818412  36.3711356
  30.0559602  17.5115689  36.4827998  39.4474842  26.7582679  53.5047566
  38.5601621  26.4208601  53.6273964  40.0173393  26.0265710  53.7416331
  21.1003989  23.0906771  46.8290617  21.7875029  22.7768501  46.2411632
  20.9452118  23.9948135  46.5557868  25.9038711  17.9796967  51.2575641
  25.8196900  17.3722637  50.5226051  25.0821417  18.4705986  51.2585137
  32.9775995  31.4184131  50.4708809  32.9046167  32.2239103  50.9828113
  32.5353388  31.6176097  49.6456830  32.7665775  30.6555901  43.9811630
  31.9833297  31.1977582  44.0749855  33.4658520  31.1729881  44.3805871
  36.0762425  16.4650531  46.6245836  36.5731124  15.7120493  46.3046906
  35.3049406  16.5014847  46.0589045  43.9292182  22.1690896  48.2664127
  43.9182059  23.0515612  47.8958060  43.0609562  21.8162447  48.0718664
  35.4374679  31.3170965  52.6266967  36.1502651  31.9518430  52.5542869
  34.9464707  31.4134831  51.8106969  37.1592206  25.2222218  44.1984259
  36.2248484  25.3423681  44.0288963  37.3368874  24.3194685  43.9344269
  32.6597394  18.6067914  46.3517520  32.2895181  18.0538954  47.0398426
  33.1556486  18.0026047  45.7992520  40.5464757  21.0639537  44.7334293
  41.0125209  21.8967529  44.6594596  40.9972257  20.5984519  45.4379552
  30.4886592  29.0665409  53.4472538  31.1896052  29.7001892  53.6001932
  30.0181707  29.4080140  52.6868178  38.6140988  27.4083359  41.7320445
  38.8900832  27.2939953  42.6414319  37.7445487  27.0100843  41.6932618
  38.5181420  13.4320124  48.7725195  37.6044500  13.6624351  48.9407402
  38.9474521  13.5158568  49.6239227  38.2887878  21.6210016  51.2725089
  37.6359328  21.8685924  50.6177541  38.6668258  20.8074154  50.9387566
  35.2495052  31.6569709  45.3753259  35.4317447  30.8391365  45.8381011
  36.0728038  31.8737402  44.9378149  35.5837218  30.5837895  42.6368307
  36.1124984  30.0730349  42.0238469  35.8465437  30.2680425  43.5013840
  34.3375451  22.3629827  57.7591126  33.6616088  22.2623957  58.4293501
  35.1603085  22.2069041  58.2227123  26.0854310  28.6001764  50.3803641
  26.6707747  27.8545452  50.5131545  25.8879149  28.9105721  51.2640305
  28.9392966  31.6353011  45.3966083  28.2703341  32.1199139  44.9130123
  28.8005835  31.8822232  46.3109462  20.6771965  21.1707364  49.1008084
  20.7156065  20.6370955  49.8945202  20.1712258  20.6442570  48.4819061
  33.0798234  33.6696755  51.9948742  33.6316542  33.8328376  52.7597827
  33.4204428  34.2601193  51.3228767  28.0562727  16.0171905  52.5970626
  28.1204054  16.8786736  52.1848024  27.9929848  15.4045906  51.8642985
  27.5315000  18.0895037  56.2443661  28.1587039  17.7072114  56.8581185
  26.6742919  17.8709239  56.6099353  37.9309108  28.4958012  57.8497396
  38.4749012  29.1087971  57.3552351  37.3495953  29.0537591  58.3664409
  24.3080543  19.8971466  42.1762015  24.6033984  18.9882145  42.1229069
  23.4068578  19.8759206  41.8543018  36.2166621  31.6178730  48.9812424
  36.0917761  30.8168470  48.4723369  36.8745713  32.1124924  48.4926394
  27.8374790  17.9727463  48.1589564  27.1161375  18.5863431  48.0197037
  28.6268045  18.5085228  48.0806210  38.2801530  29.4187750  50.6091974
  37.3331865  29.2993102  50.5370301  38.6284303  28.5310248  50.6918235
  30.6401103  15.3081889  54.4330216  31.1635505  15.5544186  55.1956525
  30.4213436  16.1401924  54.0133353  26.0368384  17.5785564  42.3001341
  25.7081090  16.6982943  42.1176447  26.3907755  17.5233233  43.1877730
  35.2847963  29.2140467  46.8096326  35.1372926  28.2857174  46.9903896
  36.1101457  29.2360557  46.3253401  29.1510207  17.8658534  42.6676818
  29.4906280  18.3944455  41.9455427  29.5982328  18.2038940  43.4435385
  38.8882085  30.0369025  47.8961199  39.8128632  29.8311887  47.7585650
  38.7197388  29.7885427  48.8050540  31.8453648  16.2495584  52.1179886
  31.5050469  15.4503398  52.5200566  31.1392654  16.5497295  51.5456720
  32.4970120  13.3344897  50.5707209  33.3196189  12.8605375  50.4486100
  32.7408184  14.1135381  51.0705896  31.1378355  16.3633155  40.8670111
  31.8586717  16.7414408  40.3633828  30.5143659  17.0822032  40.9705089
  35.2809477  17.0678304  41.8028443  35.4973092  17.9502942  41.5017272
  34.8003545  16.6764518  41.0734085  30.0208699  20.0264018  48.3799188
  29.8753279  20.3404321  49.2723470  29.5433902  20.6448918  47.8270087
  31.8805082  17.0166565  48.4280078  31.8666650  16.1207659  48.0912375
  32.5977510  17.0237229  49.0618364  33.7331212  17.4503906  50.4733205
  33.4748990  18.3720976  50.4717535  33.2016253  17.0534340  51.1633669
  38.6777401  30.5554693  43.2523290  38.8514279  29.9901115  42.4997143
  39.1706292  31.3555588  43.0702780  24.4954361  22.5669362  51.3186849
  23.9507829  23.3429170  51.4507124  25.3733711  22.9140166  51.1605971
  31.2841978  15.8980946  43.6967648  31.4057889  14.9697592  43.8958535
  30.9944020  15.9119632  42.7845963  34.1533168  13.5835856  46.8334368
  34.1754865  13.6475189  45.8786347  34.5701227  12.7440365  47.0274874
  44.5316792  23.3191116  44.8713590  44.9747938  22.5698441  44.4732713
  43.6543303  23.3101252  44.4887322  39.6652574  29.8721457  40.3520189
  40.3603478  30.4928150  40.5707503  40.0075724  29.0216808  40.6272567
  25.2820383  21.6939258  54.2117006  24.5402119  21.8421894  54.7981636
  24.9613127  21.9547524  53.3483755  41.5643997  27.3221163  41.8807519
  42.0895321  27.6608436  41.1556839  41.4766349  26.3868178  41.6970654
  33.2264045  31.2355236  54.0097396  33.5351172  30.9904383  54.8820096
  34.0239527  31.4401875  53.5216266  33.2484657  33.3893146  46.2402773
  32.8089648  32.8969525  46.9335629  33.9992774  32.8466114  45.9994848
  25.7276996  29.5804687  46.2427401  26.5535016  29.2808459  45.8626044
  25.3771048  28.8112309  46.6917189  30.6958530  28.9331155  48.3125074
  30.0738539  28.2701860  48.0127302  31.3663397  28.9592287  47.6298722
  23.9285602  27.4991013  47.2016334  23.0917510  27.0713188  47.0200336
  23.9009247  27.6923457  48.1387125  30.7683057  17.4112943  57.9057580
  30.8171213  18.2875066  57.5235350  31.3105571  16.8690336  57.3329224
  41.2537903  27.9554066  57.1858717  40.4633447  27.9378205  56.6463217
  41.0171257  28.4942360  57.9407754  41.3735778  24.8046533  54.4991446
  41.4233783  24.6396540  55.4406969  41.2649701  23.9373792  54.1089327
  30.2572037  27.4835078  41.7883535  30.4060157  28.1670543  41.1350208
  31.0638480  27.4640169  42.3032991  38.6639540  20.7877461  55.8150753
  39.5649403  20.6483926  55.5234750  38.7387515  20.9531916  56.7548930
  32.9982346  18.1644316  54.6603939  32.1285655  18.4577882  54.3886527
  33.2341826  18.7484761  55.3811203  42.8753975  27.2243474  54.7433467
  42.5838783  27.5873455  55.5796928  42.2626106  26.5110483  54.5646800
  44.0749657  24.7896354  47.2636038  44.9096548  25.2286158  47.4273598
  44.2108786  24.3135007  46.4444283  41.1241163  22.3476089  53.2113525
  41.5995285  22.5403735  52.4032377  40.2006728  22.4035275  52.9656909
  28.0124670  23.5100256  42.7944604  27.7670711  22.6062586  42.9924814
  28.1820584  23.5117407  41.8524082  35.7021379  14.3823932  52.1769359
  36.2203323  15.1184959  51.8515848  35.3476512  14.6887926  53.0116118
  27.2820317  19.2428614  40.2930765  26.5889562  19.3172969  39.6370801
  27.0372069  18.4788957  40.8152282  35.9533974  10.8024215  47.6970256
  36.2335727  10.1347404  48.3230682  36.7384581  10.9953311  47.1844920
  33.7567442  29.9783209  39.2595282  33.1841409  30.5973396  38.8065754
  34.3300236  30.5282571  39.7935204  39.8242832  19.2241849  51.4441831
  40.7760255  19.3239947  51.4654055  39.6546282  18.4320118  51.9539915
  37.8457211  16.3097432  51.6301232  37.2507144  16.5902445  50.9347721
  37.5606908  16.7991333  52.4017973  36.9764702  30.2620359  40.3903865
  37.9095375  30.1965921  40.5936740  36.8887915  31.0976626  39.9318397
  39.6052719  29.5786229  37.3507812  39.5266350  29.2446093  38.2443570
  40.4262385  30.0707997  37.3499284  42.3030910  22.4447969  50.5584131
  42.2707230  21.5063969  50.7443815  42.9131533  22.5232005  49.8249956
  34.1414241  21.3144022  36.6011335  35.0873345  21.1850230  36.6699753
  33.7628486  20.5758684  37.0780763  42.4525398  19.2359012  50.6042414
  41.9364447  18.4517469  50.4172343  43.3365347  18.9077729  50.7688933
  40.1136125  12.9800028  46.5638227  39.9160946  12.6715116  47.4481559
  40.7235831  13.7061667  46.6936156  48.1207460  23.5063976  49.6990167
  48.8510848  23.2449264  50.2597871  47.5114405  22.7692697  49.7392235
  46.2022757  21.6471838  50.2964619  45.4755920  21.5127803  49.6881110
  45.7870044  21.9548667  51.1021337  34.0252933  25.3661768  58.0611992
  34.9455943  25.5440367  58.2552038  33.9902516  24.4217813  57.9091691
  32.3257158  19.2393998  36.5366220  31.4188613  18.9427111  36.6128934
  32.6033139  18.9423816  35.6700506  23.2435098  20.5600361  46.9865266
  22.9237882  19.7065670  46.6939640  22.6968526  20.7748940  47.7423234
  27.0215006  23.2762802  50.7034773  27.2401015  24.2079910  50.7222807
  27.4340779  22.9170777  51.4889577  33.9419223  13.7830888  42.6910461
  33.1319952  13.4377973  43.0665707  34.6303640  13.4738431  43.2798073
  35.8709772  12.8608935  44.3134758  36.4240810  13.2804388  44.9724781
  36.1079858  11.9344683  44.3557714  31.8942871  18.8496008  60.0937522
  31.7939598  19.7990365  60.0249613  31.6764413  18.5214247  59.2213592
  31.0955942  16.0980933  36.6778199  31.9575106  16.4235832  36.9374016
  31.2806287  15.3112429  36.1651265  23.1123358  24.1803273  48.9558388
  22.4186830  23.7657226  48.4428342  23.8596349  24.2223809  48.3591807
  39.2488579  14.9709460  43.8213422  38.6687248  15.6294264  43.4391475
  38.9824512  14.1486804  43.4100840  37.6992145  14.3714517  46.0234742
  38.1991924  14.4831052  45.2149061  38.3427753  14.0675570  46.6635551
  31.7574141  22.2793147  58.9102583  31.2741223  23.0793507  59.1166472
  31.8435080  22.2901092  57.9570027  25.0260101  24.1121527  46.8324403
  25.0030789  24.2109214  45.8806286  25.3360737  24.9586678  47.1541569
  27.6847479  26.1697682  50.9471017  28.6390732  26.1381624  50.8800949
  27.4860002  25.7088305  51.7621243  28.2746861  24.7398798  53.5141815
  29.0939750  25.2342876  53.5376652  28.5483668  23.8230766  53.4859382
  38.0313457  17.1309550  42.8769770  37.1439312  17.4159201  42.6589965
  38.4467446  16.9703313  42.0297047  41.3827993  17.1556071  46.5924110
  42.1588383  17.6452524  46.8648726  40.6576127  17.5814125  47.0495979
  43.8200552  17.8683690  47.6498050  44.4145042  17.6279426  46.9391359
  43.8927135  17.1490821  48.2771587  26.0397707  31.7117301  47.9641215
  25.9052175  30.9517702  47.3979213  25.6229770  32.4358201  47.4970004
  37.1756670  26.8954225  36.9717790  37.8792520  27.1004227  37.5875446
  36.4519319  27.4630987  37.2366874  38.0054481  22.6464086  43.0920061
  37.9489682  23.1032637  42.2527693  38.5582823  21.8854771  42.9142903
  41.8159287  18.4353818  43.9170180  41.5596221  18.0350454  44.7478388
  41.1912155  19.1497612  43.7920319  46.1271624  21.1749891  46.4241471
  45.5671182  21.2443080  47.1973034  45.5215128  20.9990876  45.7040968
  29.1966833  32.6086618  48.1759658  29.0799217  33.5532051  48.0738348
  28.3759279  32.3060180  48.5645457  39.0843368  27.3336754  39.0216250
  39.9188972  26.9017952  38.8393725  38.9227711  27.1618768  39.9493145
  38.7389260  23.8368867  40.3872590  38.6838064  23.6713139  39.4461034
  38.1135315  24.5444900  40.5434779  23.5281775  19.0736932  54.2134012
  24.1740638  18.5635886  54.7021237  23.3198926  19.8105613  54.7877437
  36.0535167  26.1417779  59.7126153  36.9226327  26.3158431  59.3512787
  35.5741919  26.9612196  59.5901882  32.0485385  13.3376976  39.9657908
  32.0364055  14.2818816  40.1226179  32.9408807  13.1547122  39.6717369
  30.2221347  33.2614880  51.3915586  31.1248594  33.2938490  51.7082081
  29.9958717  32.3315331  51.4061922  31.9774949  32.0145867  48.0525665
  31.0270580  32.0147728  47.9390037  32.2807435  31.2678601  47.5361699
  35.8637505   9.9319753  44.2203845  35.0969901   9.3778240  44.3660527
  36.2748210  10.0041622  45.0817997  27.8679266  16.2204549  58.3109026
  28.7310727  15.8641354  58.5212351  27.2944677  15.8818444  58.9984430
  47.7127643  37.8506405  49.1171427  48.3506053  37.7313152  48.4134767
  47.5948486  38.7987249  49.1759379  44.5217349  37.8033833  49.0532952
  44.1835861  37.6874898  48.1653487  45.3907117  37.4024998  49.0333958
  40.3804165  39.6569310  45.0429843  39.8169030  39.5659247  44.2746131
  40.2656560  38.8369214  45.5232335  37.9268597  41.1520501  47.8814063
  38.7189889  40.8111326  47.4660363  38.1665247  41.2615476  48.8016217
  45.9603724  43.3240277  40.3544308  45.3091703  43.9094358  39.9678322
  46.7548086  43.8546472  40.4139345  39.8859351  40.4129414  40.7531442
  40.6590227  39.8658402  40.6144318  40.2384750  41.2773664  40.9645903
  42.6500600  39.1182645  50.5499701  43.2464172  38.8938668  49.8356664
  42.7075572  38.3767391  51.1525149  42.2225628  36.5722081  38.3849892
  42.4751149  36.0503602  37.6233355  41.2850188  36.4088226  38.4876576
  47.2668911  35.5757859  46.1924635  48.0532001  35.1577282  45.8415052
  47.5307616  36.4803951  46.3606284  47.4378989  41.0130709  40.8913292
  46.8024822  41.0865336  41.6034197  47.1076395  41.6024308  40.2132371
  52.6677338  35.5133092  47.0957614  53.4002510  34.9432309  47.3295443
  51.9116694  35.1254693  47.5364119  41.9421917  38.4750187  40.5874267
  41.8258175  37.7995090  41.2555351  42.0524177  37.9882560  39.7706420
  44.2853458  37.9360334  44.2920956  43.9211665  37.4090955  45.0033878
  45.1420574  37.5458803  44.1187442  50.1902759  29.2254666  51.5552222
  49.8586084  30.0950077  51.3313437  49.5948372  28.9090950  52.2346253
  43.9258945  32.9650233  39.2882305  44.0933347  33.8330470  39.6552776
  43.7356114  33.1277515  38.3643594  46.6834278  41.4267212  50.9548135
  46.3835001  42.3292251  50.8463942  46.3385338  41.1599395  51.8069288
  40.1346760  37.8781009  46.9884840  39.2097256  37.7457223  47.1962531
  40.3831173  38.6575228  47.4854782  50.0831422  33.9449752  48.6345572
  49.1748299  33.8765161  48.3404333  50.0319018  34.4221697  49.4627398
  43.9048166  35.4207891  40.2728972  43.7847791  35.8664942  41.1114452
  43.2100754  35.7693209  39.7142510  37.4955571  37.5214283  47.8228629
  37.6247952  37.7748762  48.7368040  36.8153022  38.1141991  47.5033284
  41.6655058  48.1911533  43.9219103  41.5879088  49.1419358  44.0007583
  41.0616702  47.8457405  44.5794029  51.9493068  32.1466191  50.4123446
  51.3067449  32.4398724  49.7663241  51.4447997  32.0319111  51.2176643
  49.6033232  35.8929364  41.1009306  50.5151088  36.1256751  40.9257003
  49.0942879  36.4766408  40.5384384  48.2102814  40.8755182  48.4922887
  47.5811677  41.0400897  47.7898955  47.8228477  41.2896792  49.2633851
  52.0892046  41.8109620  45.8467251  51.4043085  42.1908522  45.2964284
  52.1735896  42.4204947  46.5799199  46.9469207  32.0687400  49.3499166
  46.0853686  32.3668654  49.6415904  46.9731642  32.2857799  48.4180199
  43.7630776  40.6129591  45.7572972  44.2269122  40.8917294  44.9677595
  43.4987574  39.7113035  45.5746063  40.6554857  40.1601072  48.6952735
  41.2256214  40.5888340  48.0570220  41.2462969  39.8783657  49.3936921
  42.6999662  36.7352743  42.5662537  43.4023706  37.1873787  43.0336464
  42.3680291  36.0936562  43.1942430  41.1480024  35.3264500  56.9413747
  40.5178685  36.0080780  57.1749143  41.0416112  35.2147581  55.9966885
  36.4424996  34.9936296  47.8679671  35.6524050  35.2493824  47.3919781
  36.9336244  35.8084633  47.9731711  38.3939742  35.3580875  44.8263148
  37.5970905  35.4699569  45.3446643  38.1665334  35.6967527  43.9604038
  44.2245409  41.8825578  52.7745662  44.2889842  42.3445985  53.6103834
  43.5156333  41.2522943  52.9027972  34.7262699  35.2466786  50.2994662
  34.9770738  36.1313796  50.5652238  35.2622248  35.0671388  49.5269753
  58.5494799  38.6780283  46.9669923  57.7958507  38.1087681  46.8113928
  58.6842340  38.6442948  47.9140558  43.9393427  43.5493686  42.6424643
  43.8039102  44.3945221  43.0709490  44.4803240  43.7512963  41.8790576
  40.4260767  29.6285265  59.3038998  40.0327712  29.0751464  59.9786642
  41.2426907  29.9395844  59.6945515  37.3922824  41.0669124  43.2152568
  37.9047345  41.8612374  43.3658132  38.0445537  40.3695414  43.1486169
  39.2017709  44.1834880  45.2975321  39.3784337  45.1052845  45.1096305
  39.9974543  43.8693299  45.7269701  43.3428728  31.0443144  56.8959254
  44.0838441  31.6450298  56.8163717  43.5746650  30.3020782  56.3377297
  38.4870066  36.2299512  55.1737484  38.3723581  35.3284769  55.4744583
  37.6314583  36.4763209  54.8222301  40.3249025  45.7013054  51.2985663
  40.8756450  45.5730117  50.5262657  39.4860500  46.0007943  50.9480556
  47.2885891  27.0724247  51.1723536  46.9450160  27.9625889  51.0962647
  47.6564853  26.8825905  50.3093121  35.3571741  39.3957778  43.9912138
  36.1946963  39.8054786  43.7745846  35.5350009  38.4557220  43.9612332
  47.2536173  37.0632859  39.6795971  46.7382797  37.8337463  39.9184358
  46.9813482  36.3897995  40.3029033  44.8383284  31.9082559  44.7381209
  43.9824881  31.5189410  44.5586848  45.2510236  31.9874520  43.8780995
  46.3682431  29.4428903  49.1372769  45.8647227  29.4059038  48.3240575
  46.6613038  30.3521645  49.1969426  42.6125317  29.5267632  48.1438951
  43.4778314  29.3310441  47.7844840  42.6802826  29.2977984  49.0708308
  52.2270447  39.8165213  41.6149145  51.4499890  39.4776373  41.1704307
  52.9061928  39.8217836  40.9404110  47.0422476  34.9359951  41.5055752
  46.7372612  35.2506100  42.3565895  47.9952919  35.0141371  41.5483085
  45.4868908  41.0950174  43.1548706  44.9590270  40.3602934  42.8421944
  44.9856411  41.8724850  42.9088675  50.4661754  39.2899194  48.2715753
  49.8085429  39.9798456  48.3595881  51.2702154  39.6795626  48.6149739
  40.2187636  31.7569840  45.5155318  40.7931388  31.5345022  44.7828511
  40.8058618  31.8258535  46.2683919  49.2767213  37.6443567  46.3219694
  49.7899095  38.2773559  46.8241404  49.9268437  37.0444763  45.9563054
  40.5457223  33.7874301  39.5351203  39.7094535  34.1248988  39.8560478
  40.4061993  33.6523281  38.5978340  42.5210304  28.6311089  44.2430387
  41.8674716  28.3160106  43.6187002  42.4790778  28.0086830  44.9690210
  43.6321508  38.9130384  36.1583679  42.7248570  38.6819638  36.3574828
  44.1292540  38.1168003  36.3457661  46.5389587  47.6227891  39.0780365
  45.8651286  47.9259588  39.6865323  46.9255409  48.4256972  38.7285823
  45.7548044  35.1193023  48.5678035  44.8370605  35.3407970  48.4099723
  46.1708188  35.1939333  47.7089742  46.5383092  36.5184438  43.6980715
  47.2854911  37.0305836  43.3887837  46.8074681  36.1968491  44.5585109
  44.8109742  39.0142979  40.6807669  43.9020961  38.7302012  40.7780139
  44.8404826  39.4342058  39.8210976  48.9861929  33.5541555  45.6799504
  48.2484686  33.0418941  46.0109747  49.2388702  33.1141936  44.8682781
  49.0873556  26.3317807  46.2741274  49.3932433  25.4715170  45.9867189
  49.8126161  26.9235427  46.0740268  35.3797912  36.7348493  44.6622872
  35.1822312  36.1417854  43.9373938  34.8244576  36.4300703  45.3798810
  43.3594636  36.6271600  46.7817465  43.4143246  35.6745436  46.7059941
  42.5485838  36.7831039  47.2658763  44.5085830  40.5551723  38.0195748
  44.0705260  39.8387582  37.5601385  45.2496271  40.7827838  37.4580839
  41.2986996  35.2448659  44.5407844  40.4854861  35.5442830  44.9473036
  41.7945990  34.8504348  45.2582326  43.4495574  45.2406416  46.4742108
  43.4071753  45.4667263  45.5450640  44.3658273  45.0069791  46.6227909
  52.6258945  38.8308920  44.0772067  52.4876843  39.0210516  43.1493256
  52.2695163  39.5928303  44.5340118  40.7901071  32.8167015  50.1569079
  41.4300450  32.6755774  49.4592042  39.9578601  32.5301528  49.7807681
  52.6528324  40.8985447  49.0883338  53.0864831  40.8060736  49.9366392
  53.3659905  40.8742947  48.4503354  41.5661375  42.1169445  46.2704071
  42.3601973  41.6219766  46.0686646  40.8553067  41.5887309  45.9071777
  37.8744138  36.2612527  42.3463824  36.9441726  36.1996983  42.5633786
  37.9701610  35.7388480  41.5500465  37.7929687  32.7867340  44.9342065
  38.0536504  33.7012673  44.8251226  38.6146859  32.3191783  45.0838678
  39.2654612  34.2005097  52.1040890  39.9377666  33.9922459  51.4553539
  38.4384399  34.0027183  51.6646122  45.1680184  30.8267038  54.1206551
  44.5208099  31.5256988  54.0271027  45.9381200  31.2603182  54.4882799
  44.1432651  42.6898467  49.9501908  44.0043736  42.3217252  50.8227846
  43.3547247  43.2046107  49.7785866  44.7380803  47.7907564  41.2927445
  44.9132558  47.3195607  42.1073067  44.0513591  48.4173330  41.5208705
  45.6937866  42.0680070  47.3390746  45.3587698  42.0280840  48.2348396
  45.1941811  41.4024786  46.8661156  39.6682110  37.4747700  52.8643327
  39.5301908  36.7427939  53.4654866  40.5787033  37.3856600  52.5827515
  48.6297057  39.4136104  37.6127806  48.0126228  38.6882933  37.5160858
  48.1613546  40.1745465  37.2694880  42.2964410  37.1867659  52.3527007
  43.0064029  36.5460852  52.3113625  42.2533718  37.4380554  53.2753187
  41.0093344  34.1732877  54.1722646  40.4730701  33.7223616  54.8244242
  40.4210053  34.3078786  53.4293111  40.4195603  33.6321529  36.7349110
  39.5425070  33.5110329  36.3711356  40.8953356  32.8407607  36.4827998
  31.9397743  38.4198688  46.8290617  32.6268783  38.1060418  46.2411632
  31.7845872  39.3240053  46.5557868  36.7432466  33.3088885  51.2575641
  36.6590654  32.7014555  50.5226051  35.9215172  33.7997903  51.2585137
  43.6059529  45.9847819  43.9811630  42.8227051  46.5269499  44.0749855
  44.3052274  46.5021799  44.3805871  46.9156179  31.7942449  46.6245836
  47.4124879  31.0412411  46.3046906  46.1443161  31.8306765  46.0589045
  54.7685937  37.4982814  48.2664127  54.7575813  38.3807529  47.8958060
  53.9003316  37.1454365  48.0718664  47.9985960  40.5514136  44.1984259
  47.0642239  40.6715598  44.0288963  48.1762629  39.6486603  43.9344269
  43.4991148  33.9359832  46.3517520  43.1288936  33.3830872  47.0398426
  43.9950241  33.3317965  45.7992520  51.3858511  36.3931455  44.7334293
  51.8518964  37.2259447  44.6594596  51.8366012  35.9276437  45.4379552
  49.3575174  28.7612042  48.7725195  48.4438254  28.9916269  48.9407402
  49.7868276  28.8450486  49.6239227  36.9248065  43.9293682  50.3803641
  37.5101502  43.1837369  50.5131545  36.7272903  44.2397638  51.2640305
  39.7786720  46.9644929  45.3966083  39.1097095  47.4491057  44.9130123
  39.6399590  47.2114149  46.3109462  31.5165720  36.4999282  49.1008084
  31.5549819  35.9662872  49.8945202  31.0106012  35.9734487  48.4819061
  38.8956482  31.3463822  52.5970626  38.9597808  32.2078653  52.1848024
  38.8323602  30.7337824  51.8642985  38.3708754  33.4186955  56.2443661
  38.9980793  33.0364032  56.8581185  37.5136673  33.2001157  56.6099353
  35.1474297  35.2263384  42.1762015  35.4427738  34.3174062  42.1229069
  34.2462333  35.2051123  41.8543018  38.6768544  33.3019381  48.1589564
  37.9555130  33.9155348  48.0197037  39.4661800  33.8377145  48.0806210
  41.4794858  30.6373807  54.4330216  42.0029259  30.8836104  55.1956525
  41.2607191  31.4693842  54.0133353  36.8762139  32.9077482  42.3001341
  36.5474845  32.0274861  42.1176447  37.2301509  32.8525150  43.1877730
  39.9903962  33.1950451  42.6676818  40.3300034  33.7236373  41.9455427
  40.4376082  33.5330858  43.4435385  42.6847403  31.5787502  52.1179886
  42.3444223  30.7795315  52.5200566  41.9786409  31.8789213  51.5456720
  43.3363874  28.6636815  50.5707209  44.1589944  28.1897293  50.4486100
  43.5801938  29.4427298  51.0705896  41.9772109  31.6925073  40.8670111
  42.6980471  32.0706326  40.3633828  41.3537413  32.4113950  40.9705089
  46.1203232  32.3970222  41.8028443  46.3366846  33.2794860  41.5017272
  45.6397299  32.0056435  41.0734085  40.8602453  35.3555935  48.3799188
  40.7147034  35.6696238  49.2723470  40.3827657  35.9740836  47.8270087
  42.7198836  32.3458483  48.4280078  42.7060405  31.4499576  48.0912375
  43.4371264  32.3529147  49.0618364  44.5724967  32.7795823  50.4733205
  44.3142745  33.7012894  50.4717535  44.0410007  32.3826258  51.1633669
  35.3348115  37.8961280  51.3186849  34.7901583  38.6721088  51.4507124
  36.2127465  38.2432084  51.1605971  42.1235732  31.2272863  43.6967648
  42.2451643  30.2989510  43.8958535  41.8337774  31.2411549  42.7845963
  44.9926922  28.9127774  46.8334368  45.0148619  28.9767107  45.8786347
  45.4094981  28.0732283  47.0274874  55.3710547  38.6483033  44.8713590
  55.8141693  37.8990359  44.4732713  54.4937057  38.6393170  44.4887322
  36.1214137  37.0231176  54.2117006  35.3795873  37.1713811  54.7981636
  35.8006882  37.2839441  53.3483755  36.5670751  44.9096605  46.2427401
  37.3928771  44.6100376  45.8626044  36.2164803  44.1404227  46.6917189
  41.5352284  44.2623073  48.3125074  40.9132293  43.5993778  48.0127302
  42.2057151  44.2884205  47.6298722  34.7679356  42.8282931  47.2016334
  33.9311264  42.4005105  47.0200336  34.7403001  43.0215374  48.1387125
  41.6076812  32.7404861  57.9057580  41.6564967  33.6166984  57.5235350
  42.1499326  32.1982254  57.3329224  41.0965791  42.8126996  41.7883535
  41.2453911  43.4962461  41.1350208  41.9032234  42.7932086  42.3032991
  43.8376100  33.4936233  54.6603939  42.9679409  33.7869799  54.3886527
  44.0735580  34.0776678  55.3811203  54.9143411  40.1188272  47.2636038
  55.7490303  40.5578076  47.4273598  55.0502540  39.6426925  46.4444283
  38.8518424  38.8392174  42.7944604  38.6064466  37.9354504  42.9924814
  39.0214339  38.8409324  41.8524082  46.5415134  29.7115850  52.1769359
  47.0597078  30.4476877  51.8515848  46.1870267  30.0179843  53.0116118
  38.1214072  34.5720531  40.2930765  37.4283316  34.6464886  39.6370801
  37.8765823  33.8080875  40.8152282  46.7927728  26.1316133  47.6970256
  47.0729482  25.4639322  48.3230682  47.5778335  26.3245228  47.1844920
  44.5961197  45.3075127  39.2595282  44.0235164  45.9265314  38.8065754
  45.1693990  45.8574488  39.7935204  48.6850966  31.6389350  51.6301232
  48.0900898  31.9194363  50.9347721  48.4000663  32.1283251  52.4017973
  50.4446473  44.9078147  37.3507812  50.3660105  44.5738011  38.2443570
  51.2656140  45.3999915  37.3499284  53.1424664  37.7739886  50.5584131
  53.1100984  36.8355887  50.7443815  53.7525288  37.8523923  49.8249956
  44.9807995  36.6435939  36.6011335  45.9267100  36.5142147  36.6699753
  44.6022240  35.9050601  37.0780763  53.2919153  34.5650930  50.6042414
  52.7758201  33.7809386  50.4172343  54.1759101  34.2369646  50.7688933
  50.9529880  28.3091945  46.5638227  50.7554701  28.0007034  47.4481559
  51.5629585  29.0353584  46.6936156  58.9601214  38.8355893  49.6990167
  59.6904603  38.5741181  50.2597871  58.3508160  38.0984615  49.7392235
  57.0416511  36.9763756  50.2964619  56.3149675  36.8419721  49.6881110
  56.6263798  37.2840584  51.1021337  43.1650912  34.5685916  36.5366220
  42.2582368  34.2719028  36.6128934  43.4426893  34.2715734  35.6700506
  34.0828853  35.8892279  46.9865266  33.7631637  35.0357587  46.6939640
  33.5362281  36.1040857  47.7423234  37.8608760  38.6054720  50.7034773
  38.0794770  39.5371828  50.7222807  38.2734534  38.2462695  51.4889577
  44.7812978  29.1122805  42.6910461  43.9713706  28.7669890  43.0665707
  45.4697395  28.8030349  43.2798073  46.7103526  28.1900852  44.3134758
  47.2634565  28.6096306  44.9724781  46.9473613  27.2636600  44.3557714
  42.7336625  34.1787926  60.0937522  42.6333352  35.1282283  60.0249613
  42.5158168  33.8506165  59.2213592  41.9349697  31.4272851  36.6778199
  42.7968861  31.7527749  36.9374016  42.1200041  30.6404347  36.1651265
  33.9517113  39.5095191  48.9558388  33.2580584  39.0949143  48.4428342
  34.6990104  39.5515727  48.3591807  50.0882333  30.3001377  43.8213422
  49.5081002  30.9586181  43.4391475  49.8218266  29.4778722  43.4100840
  48.5385900  29.7006435  46.0234742  49.0385678  29.8122970  45.2149061
  49.1821508  29.3967488  46.6635551  35.8653855  39.4413444  46.8324403
  35.8424543  39.5401132  45.8806286  36.1754492  40.2878595  47.1541569
  38.5241233  41.4989599  50.9471017  39.4784487  41.4673542  50.8800949
  38.3253757  41.0380223  51.7621243  39.1140615  40.0690715  53.5141815
  39.9333504  40.5634794  53.5376652  39.3877423  39.1522684  53.4859382
  48.8707211  32.4601468  42.8769770  47.9833066  32.7451118  42.6589965
  49.2861200  32.2995231  42.0297047  52.2221747  32.4847989  46.5924110
  52.9982138  32.9744441  46.8648726  51.4969882  32.9106043  47.0495979
  54.6594306  33.1975608  47.6498050  55.2538797  32.9571344  46.9391359
  54.7320890  32.4782739  48.2771587  36.8791462  47.0409219  47.9641215
  36.7445930  46.2809620  47.3979213  36.4623524  47.7650119  47.4970004
  48.0150425  42.2246142  36.9717790  48.7186275  42.4296145  37.5875446
  47.2913074  42.7922904  37.2366874  48.8448235  37.9756004  43.0920061
  48.7883436  38.4324555  42.2527693  49.3976578  37.2146688  42.9142903
  52.6553041  33.7645736  43.9170180  52.3989975  33.3642371  44.7478388
  52.0305909  34.4789530  43.7920319  56.9665379  36.5041809  46.4241471
  56.4064937  36.5734998  47.1973034  56.3608882  36.3282793  45.7040968
  40.0360588  47.9378536  48.1759658  39.9192972  48.8823968  48.0738348
  39.2153034  47.6352097  48.5645457  49.5783014  39.1660785  40.3872590
  49.5231818  39.0005056  39.4461034  48.9529070  39.8736818  40.5434779
  34.3675529  34.4028849  54.2134012  35.0134393  33.8927803  54.7021237
  34.1592680  35.1397531  54.7877437  42.8879140  28.6668894  39.9657908
  42.8757810  29.6110734  40.1226179  43.7802562  28.4839039  39.6717369
  42.8168704  47.3437784  48.0525665  41.8664335  47.3439646  47.9390037
  43.1201190  46.5970519  47.5361699  46.7031259  25.2611671  44.2203845
  45.9363655  24.7070157  44.3660527  47.1141964  25.3333539  45.0817997
  38.7073020  31.5496466  58.3109026  39.5704482  31.1933271  58.5212351
  38.1338431  31.2110361  58.9984430  53.0619383  51.9013998  38.3849892
  53.3144904  51.3795520  37.6233355  52.1243942  51.7380144  38.4876576
  54.7652700  48.2942151  39.2882305  54.9327102  49.1622387  39.6552776
  54.5749869  48.4569433  38.3643594  53.3604058  43.9603007  44.2430387
  52.7068470  43.6452024  43.6187002  53.3184532  43.3378747  44.9690210
  59.8255683  48.8833472  45.6799504  59.0878440  48.3710858  46.0109747
  60.0782457  48.4433854  44.8682781  51.2589358  48.9613446  36.7349110
  50.3818824  48.8402247  36.3711356  51.7347111  48.1699525  36.4827998
  56.9596986  47.7262140  41.8028443  57.1760601  48.6086778  41.5017272
  56.4791054  47.3348353  41.0734085  55.8320677  44.2419692  46.8334368
  55.8542374  44.3059025  45.8786347  56.2488736  43.4024200  47.0274874
  54.0044667  49.8977833  36.5366220  53.0976122  49.6010946  36.6128934
  54.2820648  49.6007651  35.6700506  55.6206732  44.4414723  42.6910461
  54.8107461  44.0961808  43.0665707  56.3091149  44.1322267  43.2798073
  57.5497281  43.5192770  44.3134758  58.1028319  43.9388223  44.9724781
  57.7867367  42.5928518  44.3557714  52.7743451  46.7564769  36.6778199
  53.6362615  47.0819667  36.9374016  52.9593795  45.9696265  36.1651265
  60.9276088  45.6293295  43.8213422  60.3474757  46.2878099  43.4391475
  60.6612020  44.8070640  43.4100840  57.5425014  40.5903588  44.2203845
  56.7757410  40.0362075  44.3660527  57.9535719  40.6625457  45.0817997
  59.6056106  71.8104337  47.8814063  60.3977398  71.4695161  47.4660363
  59.8452756  71.9199312  48.8016217  67.6391232  73.9824113  40.3544308
  66.9879212  74.5678193  39.9678322  68.4335595  74.5130308  40.4139345
  61.5646860  71.0713250  40.7531442  62.3377736  70.5242237  40.6144318
  61.9172259  71.9357499  40.9645903  63.3442567  78.8495368  43.9219103
  63.2666597  79.8003193  44.0007583  62.7404211  78.5041240  44.5794029
  73.7679555  72.4693456  45.8467251  73.0830593  72.8492357  45.2964284
  73.8523405  73.0788782  46.5799199  80.2282308  69.3364119  46.9669923
  79.4746016  68.7671517  46.8113928  80.3629849  69.3026783  47.9140558
  65.6180936  74.2077521  42.6424643  65.4826611  75.0529057  43.0709490
  66.1590748  74.4096799  41.8790576  59.0710333  71.7252959  43.2152568
  59.5834854  72.5196209  43.3658132  59.7233046  71.0279249  43.1486169
  60.8805218  74.8418715  45.2975321  61.0571846  75.7636680  45.1096305
  61.6762052  74.5277134  45.7269701  62.0036534  76.3596889  51.2985663
  62.5543959  76.2313952  50.5262657  61.1648009  76.6591778  50.9480556
  57.0359250  70.0541613  43.9912138  57.8734472  70.4638622  43.7745846
  57.2137518  69.1141055  43.9612332  68.2177096  78.2811727  39.0780365
  67.5438795  78.5843424  39.6865323  68.6042918  79.0840807  38.7285823
  70.1649458  75.1209901  45.3848655  70.4572432  75.6814958  44.6661021
  70.6748078  75.4138462  46.1401814  65.1283083  75.8990252  46.4742108
  65.0859262  76.1251098  45.5450640  66.0445782  75.6653626  46.6227909
  63.2448884  72.7753281  46.2704071  64.0389482  72.2803601  46.0686646
  62.5340576  72.2471144  45.9071777  68.0643728  75.1571376  50.6216439
  68.1180750  75.7262313  51.3894155  67.1958509  75.3273261  50.2570476
  65.8220160  73.3482303  49.9501908  65.6831245  72.9801087  50.8227846
  65.0334756  73.8629942  49.7785866  66.4168312  78.4491399  41.2927445
  66.5920067  77.9779442  42.1073067  65.7301100  79.0757165  41.5208705
  60.9829397  81.5980762  48.0667305  61.2225995  82.2299286  48.7446323
  60.1398593  81.2468802  48.3532664  53.6185252  69.0782524  46.8290617
  54.3056292  68.7644254  46.2411632  53.4633381  69.9823888  46.5557868
  65.4957259  77.4059884  50.4708809  65.4227430  78.2114856  50.9828113
  65.0534652  77.6051850  49.6456830  65.2847038  76.6431654  43.9811630
  64.5014560  77.1853335  44.0749855  65.9839783  77.1605634  44.3805871
  76.4473446  68.1566649  48.2664127  76.4363322  69.0391365  47.8958060
  75.5790825  67.8038200  48.0718664  67.9555942  77.3046718  52.6266967
  68.6683914  77.9394183  52.5542869  67.4645971  77.4010584  51.8106969
  67.7676316  77.6445463  45.3753259  67.9498710  76.8267118  45.8381011
  68.5909302  77.8613155  44.9378149  68.1018481  76.5713648  42.6368307
  68.6306247  76.0606102  42.0238469  68.3646701  76.2556178  43.5013840
  58.6035574  74.5877517  50.3803641  59.1889011  73.8421205  50.5131545
  58.4060412  74.8981474  51.2640305  61.4574229  77.6228764  45.3966083
  60.7884604  78.1074892  44.9130123  61.3187099  77.8697985  46.3109462
  65.5979498  79.6572508  51.9948742  66.1497806  79.8204129  52.7597827
  65.9385691  80.2476946  51.3228767  68.7347885  77.6054483  48.9812424
  68.6099024  76.8044223  48.4723369  69.3926976  78.1000677  48.4926394
  70.7982793  75.4063503  50.6091974  69.8513129  75.2868855  50.5370301
  71.1465566  74.5186001  50.6918235  67.8029227  75.2016220  46.8096326
  67.6554189  74.2732927  46.9903896  68.6282720  75.2236310  46.3253401
  71.4063348  76.0244778  47.8961199  72.3309896  75.8187640  47.7585650
  71.2378652  75.7761180  48.8050540  71.1958665  76.5430446  43.2523290
  71.3695542  75.9776868  42.4997143  71.6887556  77.3431341  43.0702780
  72.1833837  75.8597210  40.3520189  72.8784742  76.4803903  40.5707503
  72.5256987  75.0092561  40.6272567  74.0825260  73.3096916  41.8807519
  74.6076584  73.6484189  41.1556839  73.9947613  72.3743931  41.6970654
  65.7665921  79.3768899  46.2402773  65.3270911  78.8845278  46.9335629
  66.5174038  78.8341867  45.9994848  58.2458260  75.5680440  46.2427401
  59.0716280  75.2684212  45.8626044  57.8952312  74.7988062  46.6917189
  63.2139793  74.9206908  48.3125074  62.5919802  74.2577613  48.0127302
  63.8844660  74.9468040  47.6298722  56.4466865  73.4866766  47.2016334
  55.6098773  73.0588941  47.0200336  56.4190510  73.6799210  48.1387125
  62.7753300  73.4710831  41.7883535  62.9241420  74.1546296  41.1350208
  63.5819743  73.4515922  42.3032991  76.5930920  70.7772107  47.2636038
  77.4277812  71.2161911  47.4273598  76.7290049  70.3010760  46.4444283
  60.5305933  69.4976009  42.7944604  60.2851975  68.5938339  42.9924814
  60.7001848  69.4993160  41.8524082  66.2748706  75.9658962  39.2595282
  65.7022673  76.5849149  38.8065754  66.8481499  76.5158324  39.7935204
  69.4945965  76.2496112  40.3903865  70.4276638  76.1841674  40.5936740
  69.4069178  77.0852379  39.9318397  80.6388723  69.4939729  49.6990167
  81.3692112  69.2325017  50.2597871  80.0295669  68.7568450  49.7392235
  57.5441364  70.0997280  46.8324403  57.5212052  70.1984967  45.8806286
  57.8542001  70.9462431  47.1541569  58.5578971  77.6993054  47.9641215
  58.4233439  76.9393455  47.3979213  58.1411033  78.4233954  47.4970004
  78.6452888  67.1625644  46.4241471  78.0852446  67.2318834  47.1973034
  78.0396391  66.9866629  45.7040968  61.7148097  78.5962371  48.1759658
  61.5980481  79.5407804  48.0738348  60.8940543  78.2935933  48.5645457
  62.7402611  79.2490633  51.3915586  63.6429857  79.2814243  51.7082081
  62.5139981  78.3191084  51.4061922  64.4956213  78.0021620  48.0525665
  63.5451844  78.0023481  47.9390037  64.7988699  77.2554354  47.5361699
  80.2308906  83.8382158  49.1171427  80.8687316  83.7188905  48.4134767
  80.1129749  84.7863002  49.1759379  77.0398613  83.7909586  49.0532952
  76.7017124  83.6750651  48.1653487  77.9088381  83.3900751  49.0333958
  72.8985428  85.6445063  45.0429843  72.3350293  85.5535000  44.2746131
  72.7837823  84.8244967  45.5232335  70.4449860  87.1396254  47.8814063
  71.2371152  86.7987079  47.4660363  70.6846510  87.2491229  48.8016217
  78.4784987  89.3116030  40.3544308  77.8272967  89.8970111  39.9678322
  79.2729350  89.8422225  40.4139345  72.4040614  86.4005167  40.7531442
  73.1771490  85.8534155  40.6144318  72.7566013  87.2649417  40.9645903
  74.2425657  87.7281550  53.9598341  73.9515523  88.6327181  53.8445008
  74.8782641  87.7698077  54.6742411  75.1681864  85.1058398  50.5499701
  75.7645436  84.8814421  49.8356664  75.2256835  84.3643144  51.1525149
  74.7406892  82.5597834  38.3849892  74.9932413  82.0379355  37.6233355
  73.8031451  82.3963979  38.4876576  79.7850175  81.5633612  46.1924635
  80.5713264  81.1453035  45.8415052  80.0488879  82.4679704  46.3606284
  79.9560252  87.0006462  40.8913292  79.3206085  87.0741089  41.6034197
  79.6257659  87.5900061  40.2132371  85.1858602  81.5008845  47.0957614
  85.9183774  80.9308062  47.3295443  84.4297958  81.1130446  47.5364119
  74.4603181  84.4625940  40.5874267  74.3439439  83.7870843  41.2555351
  74.5705441  83.9758313  39.7706420  76.8034722  83.9236087  44.2920956
  76.4392929  83.3966708  45.0033878  77.6601838  83.5334556  44.1187442
  82.7084022  75.2130419  51.5552222  82.3767347  76.0825830  51.3313437
  82.1129636  74.8966703  52.2346253  76.4440209  78.9525986  39.2882305
  76.6114611  79.8206223  39.6552776  76.2537378  79.1153268  38.3643594
  79.2015542  87.4142965  50.9548135  78.9016265  88.3168004  50.8463942
  78.8566601  87.1475148  51.8069288  72.6528023  83.8656762  46.9884840
  71.7278520  83.7332976  47.1962531  72.9012436  84.6450981  47.4854782
  82.6012686  79.9325505  48.6345572  81.6929563  79.8640914  48.3404333
  82.5500281  80.4097450  49.4627398  76.4229429  81.4083644  40.2728972
  76.3029055  81.8540695  41.1114452  75.7282018  81.7568962  39.7142510
  70.0136834  83.5090036  47.8228629  70.1429215  83.7624515  48.7368040
  69.3334286  84.1017744  47.5033284  74.1836322  94.1787286  43.9219103
  74.1060351  95.1295111  44.0007583  73.5797965  93.8333158  44.5794029
  84.4674332  78.1341944  50.4123446  83.8248712  78.4274477  49.7663241
  83.9629260  78.0194864  51.2176643  82.1214496  81.8805117  41.1009306
  83.0332352  82.1132504  40.9257003  81.6124143  82.4642161  40.5384384
  80.4055263  86.3029745  54.7370598  80.8138619  85.8612155  53.9925231
  79.6832525  85.7282372  54.9904791  80.7284078  86.8630935  48.4922887
  80.0992940  87.0276650  47.7898955  80.3409740  87.2772545  49.2633851
  84.6073310  87.7985373  45.8467251  83.9224348  88.1784275  45.2964284
  84.6917159  88.4080700  46.5799199  79.9085779  78.9006720  53.7685329
  79.6646711  79.6548781  53.2319604  80.1845709  79.2792068  54.6032576
  81.8624241  85.4445332  52.4462594  82.0741137  86.0877092  51.7696975
  81.8153990  84.6107649  51.9784524  79.4650470  78.0563153  49.3499166
  78.6034949  78.3544407  49.6415904  79.4912905  78.2733552  48.4180199
  76.2812040  86.6005344  45.7572972  76.7450385  86.8793047  44.9677595
  76.0168838  85.6988788  45.5746063  73.1736121  86.1476825  48.6952735
  73.7437478  86.5764093  48.0570220  73.7644233  85.8659410  49.3936921
  75.2180926  82.7228496  42.5662537  75.9204969  83.1749540  43.0336464
  74.8861554  82.0812315  43.1942430  68.9606260  80.9812049  47.8679671
  68.1705314  81.2369577  47.3919781  69.4517507  81.7960386  47.9731711
  82.9770069  88.3217288  50.6184952  83.7987513  87.9197475  50.3367633
  82.9732472  88.2185522  51.5701067  70.9121005  81.3456628  44.8263148
  70.1152168  81.4575322  45.3446643  70.6846597  81.6843280  43.9604038
  76.7426673  87.8701331  52.7745662  76.8071105  88.3321738  53.6103834
  76.0337597  87.2398696  52.9027972  67.2443963  81.2342539  50.2994662
  67.4952001  82.1189549  50.5652238  67.7803511  81.0547141  49.5269753
  91.0676062  84.6656036  46.9669923  90.3139771  84.0963434  46.8113928
  91.2023604  84.6318701  47.9140558  76.4574690  89.5369439  42.6424643
  76.3220365  90.3820974  43.0709490  76.9984503  89.7388716  41.8790576
  69.9104088  87.0544877  43.2152568  70.4228608  87.8488127  43.3658132
  70.5626801  86.3571167  43.1486169  71.7198973  90.1710633  45.2975321
  71.8965601  91.0928598  45.1096305  72.5155806  89.8569052  45.7269701
  78.0843167  90.1593005  56.7724985  77.6407021  89.3729384  56.4545889
  78.7460380  90.3472156  56.1068875  72.8430288  91.6888807  51.2985663
  73.3937713  91.5605870  50.5262657  72.0041764  91.9883696  50.9480556
  80.1824405  90.4395805  54.8006386  80.1642880  91.2604686  54.3086655
  81.1044325  90.3149880  55.0256527  76.6397459  87.9539935  55.6429894
  77.1725796  87.1928223  55.4129202  76.1111540  87.6613586  56.3854049
  79.8067154  73.0600000  51.1723536  79.4631423  73.9501642  51.0962647
  80.1746117  72.8701658  50.3093121  67.8753005  85.3833531  43.9912138
  68.7128227  85.7930539  43.7745846  68.0531272  84.4432973  43.9612332
  79.7717437  83.0508612  39.6795971  79.2564060  83.8213216  39.9184358
  79.4994745  82.3773748  40.3029033  77.3564548  77.8958312  44.7381209
  76.5006144  77.5065163  44.5586848  77.7691500  77.9750273  43.8780995
  78.8863694  75.4304656  49.1372769  78.3828490  75.3934791  48.3240575
  79.1794301  76.3397398  49.1969426  75.1306580  75.5143385  48.1438951
  75.9959577  75.3186194  47.7844840  75.1984089  75.2853737  49.0708308
  84.7451711  85.8040966  41.6149145  83.9681154  85.4652126  41.1704307
  85.4243192  85.8093589  40.9404110  79.5603740  80.9235704  41.5055752
  79.2553876  81.2381853  42.3565895  80.5134182  81.0017124  41.5483085
  78.0050172  87.0825927  43.1548706  77.4771533  86.3478687  42.8421944
  77.5037675  87.8600603  42.9088675  82.9843018  85.2774947  48.2715753
  82.3266692  85.9674209  48.3595881  83.7883417  85.6671379  48.6149739
  72.7368899  77.7445593  45.5155318  73.3112651  77.5220775  44.7828511
  73.3239882  77.8134288  46.2683919  81.7948477  83.6319320  46.3219694
  82.3080358  84.2649312  46.8241404  82.4449700  83.0320516  45.9563054
  73.0638487  79.7750054  39.5351203  72.2275799  80.1124741  39.8560478
  72.9243256  79.6399034  38.5978340  75.0391567  74.6186842  44.2430387
  74.3855979  74.3035859  43.6187002  74.9972041  73.9962583  44.9690210
  76.1502772  84.9006137  36.1583679  75.2429834  84.6695391  36.3574828
  76.6473804  84.1043756  36.3457661  79.0570851  93.6103644  39.0780365
  78.3832550  93.9135341  39.6865323  79.4436673  94.4132725  38.7285823
  78.2729307  81.1068776  48.5678035  77.3551869  81.3283723  48.4099723
  78.6889451  81.1815086  47.7089742  79.0564355  82.5060191  43.6980715
  79.8036174  83.0181589  43.3887837  79.3255945  82.1844244  44.5585109
  77.3291005  85.0018732  40.6807669  76.4202225  84.7177765  40.7780139
  77.3586089  85.4217811  39.8210976  82.5610273  88.6125322  44.4498837
  82.1072600  87.7716231  44.5064027  81.9304240  89.2486720  44.7873617
  81.5043192  79.5417308  45.6799504  80.7665949  79.0294694  46.0109747
  81.7569966  79.1017689  44.8682781  81.0043212  90.4501818  45.3848655
  81.2966186  91.0106875  44.6661021  81.5141833  90.7430379  46.1401814
  81.6054820  72.3193560  46.2741274  81.9113697  71.4590923  45.9867189
  82.3307425  72.9111180  46.0740268  67.8979176  82.7224246  44.6622872
  67.7003576  82.1293607  43.9373938  67.3425840  82.4176456  45.3798810
  75.8775899  82.6147353  46.7817465  75.9324509  81.6621189  46.7059941
  75.0667101  82.7706792  47.2658763  77.0267093  86.5427476  38.0195748
  76.5886523  85.8263335  37.5601385  77.7677534  86.7703591  37.4580839
  73.8168259  81.2324412  44.5407844  73.0036125  81.5318583  44.9473036
  74.3127254  80.8380101  45.2582326  75.9676837  91.2282169  46.4742108
  75.9253016  91.4543016  45.5450640  76.8839536  90.9945544  46.6227909
  79.4142471  81.6966237  53.3722737  79.7691859  81.9237710  54.2317203
  80.0614602  82.0284614  52.7499993  85.1440208  84.8184673  44.0772067
  85.0058107  85.0086269  43.1493256  84.7876427  85.5804056  44.5340118
  73.3082334  78.8042768  50.1569079  73.9481713  78.6631527  49.4592042
  72.4759865  78.5177281  49.7807681  85.1709588  86.8861200  49.0883338
  85.6046094  86.7936489  49.9366392  85.8841168  86.8618700  48.4503354
  74.0842638  88.1045198  46.2704071  74.8783237  87.6095519  46.0686646
  73.3734330  87.5763062  45.9071777  78.9037483  90.4863294  50.6216439
  78.9574505  91.0554230  51.3894155  78.0352264  90.6565179  50.2570476
  70.3925402  82.2488280  42.3463824  69.4622990  82.1872736  42.5633786
  70.4882873  81.7264233  41.5500465  70.3110951  78.7743093  44.9342065
  70.5717768  79.6888426  44.8251226  71.1328123  78.3067536  45.0838678
  71.7835876  80.1880850  52.1040890  72.4558929  79.9798212  51.4553539
  70.9565662  79.9902936  51.6646122  86.0325137  86.9284900  51.6216223
  86.2261027  87.8330711  51.8675498  85.9325755  86.4692320  52.4554808
  81.0940246  87.0791643  57.1957104  80.9425752  86.8502195  56.2787188
  81.0844925  88.0362245  57.2088449  77.8625582  84.6523556  52.1803370
  78.7917642  84.8034716  52.0072338  77.4416612  84.7407577  51.3252017
  76.6613914  88.6774220  49.9501908  76.5225000  88.3093005  50.8227846
  75.8728510  89.1921860  49.7785866  77.2562066  93.7783317  41.2927445
  77.4313822  93.3071360  42.1073067  76.5694854  94.4049083  41.5208705
  78.2119129  88.0555823  47.3390746  77.8768962  88.0156593  48.2348396
  77.7123075  87.3900539  46.8661156  72.1863373  83.4623453  52.8643327
  72.0483171  82.7303692  53.4654866  73.0968297  83.3732353  52.5827515
  81.1478321  85.4011857  37.6127806  80.5307491  84.6758686  37.5160858
  80.6794809  86.1621218  37.2694880  82.8032452  90.1110766  55.2733586
  82.7444999  89.4269986  54.6064169  83.2051971  90.8529756  54.8214212
  71.8223151  96.9272680  48.0667305  72.0619750  97.5591204  48.7446323
  70.9792348  96.5760720  48.3532664  72.9376867  79.6197282  36.7349110
  72.0606333  79.4986083  36.3711356  73.4134620  78.8283360  36.4827998
  82.8049860  88.0750350  53.5047566  81.9176639  87.7376271  53.6273964
  83.3748411  87.3433381  53.7416331  64.4579007  84.4074441  46.8290617
  65.1450047  84.0936171  46.2411632  64.3027136  85.3115806  46.5557868
  69.2613729  79.2964638  51.2575641  69.1771918  78.6890308  50.5226051
  68.4396435  79.7873656  51.2585137  76.3351013  92.7351802  50.4708809
  76.2621185  93.5406774  50.9828113  75.8928406  92.9343768  49.6456830
  76.1240793  91.9723572  43.9811630  75.3408315  92.5145252  44.0749855
  76.8233538  92.4897552  44.3805871  79.4337443  77.7818202  46.6245836
  79.9306142  77.0288164  46.3046906  78.6624424  77.8182518  46.0589045
  87.2867200  83.4858567  48.2664127  87.2757077  84.3683283  47.8958060
  86.4184580  83.1330118  48.0718664  78.7949697  92.6338636  52.6266967
  79.5077669  93.2686101  52.5542869  78.3039725  92.7302502  51.8106969
  80.5167224  86.5389889  44.1984259  79.5823502  86.6591351  44.0288963
  80.6943892  85.6362356  43.9344269  76.0172412  79.9235585  46.3517520
  75.6470199  79.3706625  47.0398426  76.5131504  79.3193718  45.7992520
  83.9039775  82.3807208  44.7334293  84.3700227  83.2135200  44.6594596
  84.3547275  81.9152190  45.4379552  73.8461610  90.3833080  53.4472538
  74.5471070  91.0169563  53.6001932  73.3756725  90.7247811  52.6868178
  81.9716006  88.7251029  41.7320445  82.2475850  88.6107624  42.6414319
  81.1020505  88.3268514  41.6932618  81.8756438  74.7487795  48.7725195
  80.9619517  74.9792022  48.9407402  82.3049539  74.8326239  49.6239227
  81.6462896  82.9377687  51.2725089  80.9934346  83.1853594  50.6177541
  82.0243276  82.1241825  50.9387566  78.6070070  92.9737380  45.3753259
  78.7892465  92.1559036  45.8381011  79.4303056  93.1905072  44.9378149
  78.9412236  91.9005565  42.6368307  79.4700002  91.3898020  42.0238469
  79.2040455  91.5848096  43.5013840  69.4429328  89.9169435  50.3803641
  70.0282765  89.1713123  50.5131545  69.2454167  90.2273391  51.2640305
  72.2967983  92.9520682  45.3966083  71.6278359  93.4366810  44.9130123
  72.1580853  93.1989902  46.3109462  64.0346983  82.4875035  49.1008084
  64.0731083  81.9538626  49.8945202  63.5287276  81.9610240  48.4819061
  76.4373252  94.9864426  51.9948742  76.9891560  95.1496047  52.7597827
  76.7779446  95.5768863  51.3228767  81.2884126  89.8125683  57.8497396
  81.8324030  90.4255641  57.3552351  80.7070971  90.3705261  58.3664409
  67.6655561  81.2139137  42.1762015  67.9609002  80.3049815  42.1229069
  66.7643596  81.1926876  41.8543018  79.5741639  92.9346401  48.9812424
  79.4492779  92.1336141  48.4723369  80.2320730  93.4292594  48.4926394
  71.1949808  79.2895134  48.1589564  70.4736393  79.9031101  48.0197037
  71.9843063  79.8252898  48.0806210  81.6376548  90.7355421  50.6091974
  80.6906883  90.6160772  50.5370301  81.9859321  89.8477919  50.6918235
  69.3943402  78.8953235  42.3001341  69.0656108  78.0150614  42.1176447
  69.7482773  78.8400903  43.1877730  78.6422981  90.5308137  46.8096326
  78.4947943  89.6024845  46.9903896  79.4676475  90.5528228  46.3253401
  72.5085225  79.1826204  42.6676818  72.8481298  79.7112126  41.9455427
  72.9557346  79.5206611  43.4435385  82.2457103  91.3536696  47.8961199
  83.1703650  91.1479557  47.7585650  82.0772406  91.1053097  48.8050540
  74.4953372  77.6800826  40.8670111  75.2161735  78.0582079  40.3633828
  73.8718677  78.3989703  40.9705089  78.6384495  78.3845975  41.8028443
  78.8548110  79.2670613  41.5017272  78.1578562  77.9932188  41.0734085
  73.3783717  81.3431688  48.3799188  73.2328297  81.6571991  49.2723470
  72.9008920  81.9616589  47.8270087  75.2380100  78.3334236  48.4280078
  75.2241668  77.4375330  48.0912375  75.9552528  78.3404900  49.0618364
  77.0906230  78.7671576  50.4733205  76.8324008  79.6888647  50.4717535
  76.5591271  78.3702011  51.1633669  82.0352419  91.8722364  43.2523290
  82.2089297  91.3068786  42.4997143  82.5281310  92.6723258  43.0702780
  67.8529379  83.8837033  51.3186849  67.3082847  84.6596841  51.4507124
  68.7308729  84.2307837  51.1605971  74.6416996  77.2148616  43.6967648
  74.7632907  76.2865263  43.8958535  74.3519038  77.2287302  42.7845963
  77.5108186  74.9003527  46.8334368  77.5329883  74.9642860  45.8786347
  77.9276245  74.0608036  47.0274874  87.8891810  84.6358786  44.8713590
  88.3322956  83.8866112  44.4732713  87.0118321  84.6268923  44.4887322
  83.0227592  91.1889128  40.3520189  83.7178496  91.8095821  40.5707503
  83.3650742  90.3384479  40.6272567  68.6395401  83.0106929  54.2117006
  67.8977137  83.1589564  54.7981636  68.3188145  83.2715194  53.3483755
  84.9219015  88.6388833  41.8807519  85.4470339  88.9776106  41.1556839
  84.8341367  87.7035849  41.6970654  76.5839063  92.5522907  54.0097396
  76.8926190  92.3072054  54.8820096  77.3814545  92.7569546  53.5216266
  76.6059675  94.7060817  46.2402773  76.1664666  94.2137195  46.9335629
  77.3567792  94.1633784  45.9994848  69.0852014  90.8972358  46.2427401
  69.9110034  90.5976129  45.8626044  68.7346066  90.1279980  46.6917189
  74.0533548  90.2498826  48.3125074  73.4313557  89.5869531  48.0127302
  74.7238414  90.2759958  47.6298722  67.2860619  88.8158684  47.2016334
  66.4492528  88.3880858  47.0200336  67.2584265  89.0091127  48.1387125
  84.6112921  89.2721737  57.1858717  83.8208464  89.2545876  56.6463217
  84.3746275  89.8110031  57.9407754  84.7310796  86.1214203  54.4991446
  84.7808801  85.9564211  55.4406969  84.6224719  85.2541462  54.1089327
  73.6147054  88.8002749  41.7883535  73.7635175  89.4838214  41.1350208
  74.4213498  88.7807839  42.3032991  82.0214558  82.1045131  55.8150753
  82.9224421  81.9651596  55.5234750  82.0962533  82.2699586  56.7548930
  86.2328993  88.5411145  54.7433467  85.9413801  88.9041126  55.5796928
  85.6201124  87.8278153  54.5646800  87.4324675  86.1064025  47.2636038
  88.2671566  86.5453829  47.4273598  87.5683804  85.6302678  46.4444283
  84.4816181  83.6643760  53.2113525  84.9570302  83.8571406  52.4032377
  83.5581746  83.7202945  52.9656909  71.3699687  84.8267927  42.7944604
  71.1245729  83.9230257  42.9924814  71.5395602  84.8285077  41.8524082
  79.0596397  75.6991603  52.1769359  79.5778341  76.4352630  51.8515848
  78.7051530  76.0055596  53.0116118  70.6395335  80.5596284  40.2930765
  69.9464580  80.6340639  39.6370801  70.3947087  79.7956628  40.8152282
  79.3108992  72.1191886  47.6970256  79.5910745  71.4515075  48.3230682
  80.0959598  72.3120981  47.1844920  77.1142460  91.2950880  39.2595282
  76.5416427  91.9141067  38.8065754  77.6875254  91.8450241  39.7935204
  83.1817850  80.5409520  51.4441831  84.1335273  80.6407617  51.4654055
  83.0121300  79.7487788  51.9539915  81.2032229  77.6265103  51.6301232
  80.6082161  77.9070116  50.9347721  80.9181926  78.1159004  52.4017973
  80.3339720  91.5788030  40.3903865  81.2670393  91.5133591  40.5936740
  80.2462933  92.4144297  39.9318397  82.9627736  90.8953900  37.3507812
  82.8841368  90.5613764  38.2443570  83.7837403  91.3875668  37.3499284
  85.6605928  83.7615639  50.5584131  85.6282248  82.8231640  50.7443815
  86.2706551  83.8399676  49.8249956  77.4989259  82.6311692  36.6011335
  78.4448363  82.5017900  36.6699753  77.1203503  81.8926354  37.0780763
  85.8100416  80.5526683  50.6042414  85.2939465  79.7685139  50.4172343
  86.6940365  80.2245399  50.7688933  83.4711143  74.2967698  46.5638227
  83.2735964  73.9882787  47.4481559  84.0810849  75.0229337  46.6936156
  91.4782478  84.8231646  49.6990167  92.2085866  84.5616934  50.2597871
  90.8689423  84.0860368  49.7392235  89.5597775  82.9639509  50.2964619
  88.8330938  82.8295474  49.6881110  89.1445062  83.2716337  51.1021337
  75.6832176  80.5561669  36.5366220  74.7763631  80.2594781  36.6128934
  75.9608157  80.2591487  35.6700506  66.6010116  81.8768032  46.9865266
  66.2812900  81.0233340  46.6939640  66.0543544  82.0916610  47.7423234
  70.3790024  84.5930473  50.7034773  70.5976033  85.5247581  50.7222807
  70.7915797  84.2338448  51.4889577  77.2994241  75.0998558  42.6910461
  76.4894970  74.7545643  43.0665707  77.9878658  74.7906102  43.2798073
  79.2284790  74.1776605  44.3134758  79.7815828  74.5972059  44.9724781
  79.4654876  73.2512353  44.3557714  66.4698376  85.4970944  48.9558388
  65.7761847  85.0824896  48.4428342  67.2171367  85.5391480  48.3591807
  82.6063597  76.2877130  43.8213422  82.0262266  76.9461934  43.4391475
  82.3399529  75.4654475  43.4100840  81.0567163  75.6882188  46.0234742
  81.5566942  75.7998723  45.2149061  81.7002771  75.3843241  46.6635551
  68.3835119  85.4289197  46.8324403  68.3605807  85.5276885  45.8806286
  68.6935755  86.2754348  47.1541569  71.0422496  87.4865352  50.9471017
  71.9965750  87.4549295  50.8800949  70.8435020  87.0255976  51.7621243
  71.6321879  86.0566469  53.5141815  72.4514768  86.5510547  53.5376652
  71.9058686  85.1398437  53.4859382  81.3888475  78.4477221  42.8769770
  80.5014330  78.7326871  42.6589965  81.8042464  78.2870984  42.0297047
  84.7403011  78.4723742  46.5924110  85.5163401  78.9620194  46.8648726
  84.0151145  78.8981796  47.0495979  87.1775570  79.1851361  47.6498050
  87.7720060  78.9447097  46.9391359  87.2502153  78.4658492  48.2771587
  69.3972725  93.0284972  47.9641215  69.2627193  92.2685373  47.3979213
  68.9804788  93.7525872  47.4970004  80.5331688  88.2121895  36.9717790
  81.2367538  88.4171898  37.5875446  79.8094337  88.7798657  37.2366874
  81.3629499  83.9631757  43.0920061  81.3064700  84.4200308  42.2527693
  81.9157841  83.2022441  42.9142903  85.1734304  79.7521489  43.9170180
  84.9171239  79.3518124  44.7478388  84.5487172  80.4665283  43.7920319
  89.4846642  82.4917562  46.4241471  88.9246200  82.5610751  47.1973034
  88.8790146  82.3158546  45.7040968  72.5541851  93.9254289  48.1759658
  72.4374235  94.8699721  48.0738348  71.7334297  93.6227851  48.5645457
  82.4418386  88.6504425  39.0216250  83.2763990  88.2185623  38.8393725
  82.2802729  88.4786438  39.9493145  82.0964278  85.1536538  40.3872590
  82.0413082  84.9880809  39.4461034  81.4710333  85.8612571  40.5434779
  66.8856793  80.3904602  54.2134012  67.5315656  79.8803556  54.7021237
  66.6773944  81.1273284  54.7877437  79.4110185  87.4585450  59.7126153
  80.2801345  87.6326102  59.3512787  78.9316937  88.2779867  59.5901882
  75.4060403  74.6544647  39.9657908  75.3939073  75.5986487  40.1226179
  76.2983825  74.4714792  39.6717369  73.5796365  94.5782551  51.3915586
  74.4823612  94.6106161  51.7082081  73.3533735  93.6483002  51.4061922
  75.3349967  93.3313537  48.0525665  74.3845598  93.3315399  47.9390037
  75.6382453  92.5846272  47.5361699  79.2212523  71.2487424  44.2203845
  78.4544919  70.6945910  44.3660527  79.6323228  71.3209292  45.0817997
  91.0702661  99.1674076  49.1171427  91.7081071  99.0480823  48.4134767
  90.9523504 100.1154920  49.1759379  87.8792367  99.1201504  49.0532952
  87.5410879  99.0042569  48.1653487  88.7482135  98.7192669  49.0333958
  83.7379183 100.9736980  45.0429843  83.1744048 100.8826917  44.2746131
  83.6231578 100.1536885  45.5232335  88.3612150 100.2736356  55.0119157
  88.3500791  99.8789154  54.1399661  88.5232790  99.5402428  55.6052929
  81.2843615 102.4688172  47.8814063  82.0764907 102.1278997  47.4660363
  81.5240265 102.5783147  48.8016217  89.3178741 104.6407948  40.3544308
  88.6666721 105.2262028  39.9678322  90.1123104 105.1714143  40.4139345
  83.2434369 101.7297085  40.7531442  84.0165245 101.1826072  40.6144318
  83.5959767 102.5941334  40.9645903  85.0819411 103.0573467  53.9598341
  84.7909277 103.9619098  53.8445008  85.7176396 103.0989995  54.6742411
  86.0075618 100.4350316  50.5499701  86.6039190 100.2106338  49.8356664
  86.0650590  99.6935061  51.1525149  85.5800646  97.8889751  38.3849892
  85.8326167  97.3671273  37.6233355  84.6425206  97.7255897  38.4876576
  90.6243929  96.8925530  46.1924635  91.4107018  96.4744953  45.8415052
  90.8882634  97.7971622  46.3606284  90.7954007 102.3298380  40.8913292
  90.1599840 102.4033006  41.6034197  90.4651413 102.9191979  40.2132371
  96.0252356  96.8300763  47.0957614  96.7577528  96.2599980  47.3295443
  95.2691712  96.4422363  47.5364119  85.2996935  99.7917857  40.5874267
  85.1833193  99.1162761  41.2555351  85.4099195  99.3050231  39.7706420
  87.6428476  99.2528004  44.2920956  87.2786683  98.7258625  45.0033878
  88.4995592  98.8626473  44.1187442  93.5477777  90.5422337  51.5552222
  93.2161102  91.4117748  51.3313437  92.9523390  90.2258621  52.2346253
  87.2833963  94.2817904  39.2882305  87.4508365  95.1498140  39.6552776
  87.0931132  94.4445186  38.3643594  90.0409296 102.7434883  50.9548135
  89.7410019 103.6459922  50.8463942  89.6960356 102.4767066  51.8069288
  83.4921778  99.1948680  46.9884840  82.5672274  99.0624894  47.1962531
  83.7406191  99.9742899  47.4854782  93.4406440  95.2617423  48.6345572
  92.5323317  95.1932832  48.3404333  93.3894036  95.7389368  49.4627398
  87.2623184  96.7375562  40.2728972  87.1422809  97.1832612  41.1114452
  86.5675772  97.0860879  39.7142510  80.8530589  98.8381953  47.8228629
  80.9822970  99.0916432  48.7368040  80.1728040  99.4309661  47.5033284
  85.0230076 109.5079203  43.9219103  84.9454106 110.4587028  44.0007583
  84.4191720 109.1625076  44.5794029  87.5147306  96.6807069  56.5780470
  86.7380640  97.2400989  56.5683334  88.1537869  97.1663852  57.0995340
  95.3068086  93.4633862  50.4123446  94.6642467  93.7566395  49.7663241
  94.8023015  93.3486782  51.2176643  92.9608250  97.2097035  41.1009306
  93.8726106  97.4424421  40.9257003  92.4517897  97.7934079  40.5384384
  85.7693678  99.4892522  56.1398437  86.5108363 100.0277566  55.8633260
  85.0630664 100.1158811  56.2969988  91.2449018 101.6321663  54.7370598
  91.6532374 101.1904073  53.9925231  90.5226279 101.0574290  54.9904791
  87.5980088  96.5694269  52.1104155  88.4441283  96.9933683  52.2538804
  87.5378725  95.9127894  52.8042718  91.5677832 102.1922853  48.4922887
  90.9386695 102.3568567  47.7898955  91.1803495 102.6064463  49.2633851
  95.4467064 103.1277291  45.8467251  94.7618102 103.5076192  45.2964284
  95.5310914 103.7372618  46.5799199  90.7479533  94.2298638  53.7685329
  90.5040465  94.9840698  53.2319604  91.0239464  94.6083985  54.6032576
  92.7017996 100.7737250  52.4462594  92.9134891 101.4169010  51.7696975
  92.6547744  99.9399567  51.9784524  90.3044225  93.3855071  49.3499166
  89.4428704  93.6836324  49.6415904  90.3306660  93.6025470  48.4180199
  87.1205794 101.9297261  45.7572972  87.5844140 102.2084964  44.9677595
  86.8562592 101.0280706  45.5746063  84.0129875 101.4768743  48.6952735
  84.5831232 101.9056011  48.0570220  84.6037987 101.1951327  49.3936921
  86.0574680  98.0520414  42.5662537  86.7598724  98.5041457  43.0336464
  85.7255309  97.4104232  43.1942430  84.5055042  96.6432170  56.9413747
  83.8753702  97.3248451  57.1749143  84.3991130  96.5315252  55.9966885
  79.8000014  96.3103966  47.8679671  79.0099068  96.5661495  47.3919781
  80.2911262  97.1252304  47.9731711  93.8163824 103.6509205  50.6184952
  94.6381268 103.2489393  50.3367633  93.8126227 103.5477440  51.5701067
  81.7514760  96.6748546  44.8263148  80.9545923  96.7867240  45.3446643
  81.5240352  97.0135198  43.9604038  87.5820427 103.1993249  52.7745662
  87.6464860 103.6613656  53.6103834  86.8731351 102.5690614  52.9027972
  78.0837717  96.5634457  50.2994662  78.3345756  97.4481467  50.5652238
  78.6197266  96.3839058  49.5269753 101.9069817  99.9947954  46.9669923
 101.1533525  99.4255352  46.8113928 102.0417358  99.9610618  47.9140558
  87.2968445 104.8661356  42.6424643  87.1614120 105.7112892  43.0709490
  87.8378257 105.0680634  41.8790576  83.7835785  90.9452936  59.3038998
  83.3902730  90.3919135  59.9786642  84.6001925  91.2563515  59.6945515
  80.7497842 102.3836794  43.2152568  81.2622363 103.1780045  43.3658132
  81.4020555 101.6863085  43.1486169  82.5592727 105.5002551  45.2975321
  82.7359355 106.4220515  45.1096305  83.3549561 105.1860970  45.7269701
  86.7003746  92.3610815  56.8959254  87.4413459  92.9617968  56.8163717
  86.9321668  91.6188453  56.3377297  81.8445084  97.5467182  55.1737484
  81.7298599  96.6452440  55.4744583  80.9889601  97.7930879  54.8222301
  88.9236921 105.4884923  56.7724985  88.4800776 104.7021301  56.4545889
  89.5854135 105.6764073  56.1068875  83.6824043 107.0180724  51.2985663
  84.2331468 106.8897788  50.5262657  82.8435518 107.3175613  50.9480556
  91.0218159 105.7687723  54.8006386  91.0036635 106.5896604  54.3086655
  91.9438079 105.6441798  55.0256527  87.4791214 103.2831852  55.6429894
  88.0119550 102.5220140  55.4129202  86.9505295 102.9905504  56.3854049
  90.6460909  88.3891918  51.1723536  90.3025178  89.2793560  51.0962647
  91.0139871  88.1993576  50.3093121  78.7146759 100.7125449  43.9912138
  79.5521981 101.1222457  43.7745846  78.8925027  99.7724891  43.9612332
  90.6111191  98.3800529  39.6795971  90.0957815  99.1505134  39.9184358
  90.3388500  97.7065665  40.3029033  88.1958302  93.2250230  44.7381209
  87.3399899  92.8357080  44.5586848  88.6085254  93.3042191  43.8780995
  89.7257449  90.7596573  49.1372769  89.2222245  90.7226708  48.3240575
  90.0188056  91.6689316  49.1969426  85.9700335  90.8435303  48.1438951
  86.8353332  90.6478112  47.7844840  86.0377844  90.6145655  49.0708308
  95.5845465 101.1332884  41.6149145  94.8074908 100.7944043  41.1704307
  96.2636946 101.1385507  40.9404110  90.3997494  96.2527621  41.5055752
  90.0947630  96.5673771  42.3565895  91.3527937  96.3309041  41.5483085
  88.8443926 102.4117845  43.1548706  88.3165288 101.6770604  42.8421944
  88.3431429 103.1892521  42.9088675  93.8236772 100.6066865  48.2715753
  93.1660447 101.2966127  48.3595881  94.6277172 100.9963297  48.6149739
  83.5762654  93.0737511  45.5155318  84.1506406  92.8512692  44.7828511
  84.1633636  93.1426205  46.2683919  92.6342231  98.9611238  46.3219694
  93.1474113  99.5941230  46.8241404  93.2843455  98.3612433  45.9563054
  83.9032241  95.1041972  39.5351203  83.0669553  95.4416659  39.8560478
  83.7637011  94.9690952  38.5978340  85.8785322  89.9478760  44.2430387
  85.2249734  89.6327777  43.6187002  85.8365796  89.3254500  44.9690210
  86.9896526 100.2298055  36.1583679  86.0823588  99.9987308  36.3574828
  87.4867558  99.4335674  36.3457661  89.8964605 108.9395562  39.0780365
  89.2226304 109.2427259  39.6865323  90.2830427 109.7424642  38.7285823
  89.1123062  96.4360693  48.5678035  88.1945623  96.6575640  48.4099723
  89.5283206  96.5107004  47.7089742  89.8958110  97.8352109  43.6980715
  90.6429929  98.3473506  43.3887837  90.1649699  97.5136162  44.5585109
  88.1684760 100.3310650  40.6807669  87.2595979 100.0469683  40.7780139
  88.1979844 100.7509728  39.8210976  93.4004027 103.9417239  44.4498837
  92.9466354 103.1008149  44.5064027  92.7697994 104.5778638  44.7873617
  92.3436947  94.8709225  45.6799504  91.6059704  94.3586612  46.0109747
  92.5963720  94.4309607  44.8682781  91.8436967 105.7793736  45.3848655
  92.1359941 106.3398793  44.6661021  92.3535587 106.0722297  46.1401814
  92.4448574  87.6485477  46.2741274  92.7507451  86.7882841  45.9867189
  93.1701179  88.2403098  46.0740268  78.7372930  98.0516164  44.6622872
  78.5397330  97.4585525  43.9373938  78.1819594  97.7468374  45.3798810
  86.7169654  97.9439270  46.7817465  86.7718264  96.9913107  46.7059941
  85.9060856  98.0998709  47.2658763  87.8660848 101.8719393  38.0195748
  87.4280278 101.1555252  37.5601385  88.6071289 102.0995508  37.4580839
  84.6562014  96.5616330  44.5407844  83.8429879  96.8610501  44.9473036
  85.1521008  96.1672019  45.2582326  86.8070592 106.5574087  46.4742108
  86.7646771 106.7834933  45.5450640  87.7233291 106.3237462  46.6227909
  90.2536226  97.0258155  53.3722737  90.6085613  97.2529628  54.2317203
  90.9008357  97.3576531  52.7499993  95.9833962 100.1476590  44.0772067
  95.8451861 100.3378186  43.1493256  95.6270181 100.9095973  44.5340118
  84.1476089  94.1334686  50.1569079  84.7875468  93.9923445  49.4592042
  83.3153619  93.8469199  49.7807681  96.0103342 102.2153117  49.0883338
  96.4439849 102.1228407  49.9366392  96.7234923 102.1910618  48.4503354
  84.9236393 103.4337116  46.2704071  85.7176991 102.9387436  46.0686646
  84.2128085 102.9054979  45.9071777  89.7431237 105.8155212  50.6216439
  89.7968259 106.3846148  51.3894155  88.8746018 105.9857097  50.2570476
  81.2319156  97.5780198  42.3463824  80.3016744  97.5164653  42.5633786
  81.3276628  97.0556151  41.5500465  81.1504705  94.1035011  44.9342065
  81.4111522  95.0180344  44.8251226  81.9721877  93.6359453  45.0838678
  82.6229630  95.5172768  52.1040890  83.2952684  95.3090130  51.4553539
  81.7959417  95.3194854  51.6646122  96.8718892 102.2576818  51.6216223
  97.0654782 103.1622629  51.8675498  96.7719510 101.7984237  52.4554808
  88.5255202  92.1434709  54.1206551  87.8783117  92.8424658  54.0271027
  89.2956218  92.5770853  54.4882799  91.9334000 102.4083561  57.1957104
  91.7819507 102.1794113  56.2787188  91.9238680 103.3654162  57.2088449
  88.7019337  99.9815474  52.1803370  89.6311397 100.1326633  52.0072338
  88.2810367 100.0699494  51.3252017  87.5007669 104.0066138  49.9501908
  87.3618754 103.6384922  50.8227846  86.7122265 104.5213777  49.7785866
  88.0955820 109.1075235  41.2927445  88.2707576 108.6363278  42.1073067
  87.4088609 109.7341001  41.5208705  89.0512884 103.3847741  47.3390746
  88.7162716 103.3448511  48.2348396  88.5516829 102.7192457  46.8661156
  83.0257128  98.7915371  52.8643327  82.8876926  98.0595610  53.4654866
  83.9362051  98.7024271  52.5827515  91.9872075 100.7303775  37.6127806
  91.3701246 100.0050603  37.5160858  91.5188564 101.4913135  37.2694880
  93.6426207 105.4402683  55.2733586  93.5838753 104.7561904  54.6064169
  94.0445725 106.1821673  54.8214212  84.3668362  95.4900548  54.1722646
  83.8305719  95.0391286  54.8244242  83.7785071  95.6246457  53.4293111
  82.6616906 112.2564597  48.0667305  82.9013504 112.8883121  48.7446323
  81.8186102 111.9052637  48.3532664  83.7770621  94.9489199  36.7349110
  82.9000088  94.8278000  36.3711356  84.2528374  94.1575278  36.4827998
  93.6443614 103.4042267  53.5047566  92.7570393 103.0668189  53.6273964
  94.2142165 102.6725299  53.7416331  75.2972761  99.7366359  46.8290617
  75.9843801  99.4228089  46.2411632  75.1420890 100.6407724  46.5557868
  80.1007484  94.6256556  51.2575641  80.0165672  94.0182225  50.5226051
  79.2790190  95.1165574  51.2585137  87.1744768 108.0643720  50.4708809
  87.1014939 108.8698691  50.9828113  86.7322161 108.2635686  49.6456830
  86.9634547 107.3015490  43.9811630  86.1802069 107.8437170  44.0749855
  87.6627292 107.8189469  44.3805871  90.2731197  93.1110119  46.6245836
  90.7699897  92.3580082  46.3046906  89.5018179  93.1474436  46.0589045
  98.1260955  98.8150485  48.2664127  98.1150831  99.6975200  47.8958060
  97.2578334  98.4622036  48.0718664  89.6343451 107.9630554  52.6266967
  90.3471423 108.5978019  52.5542869  89.1433480 108.0594420  51.8106969
  91.3560978 101.8681806  44.1984259  90.4217257 101.9883269  44.0288963
  91.5337647 100.9654273  43.9344269  86.8566166  95.2527502  46.3517520
  86.4863954  94.6998543  47.0398426  87.3525259  94.6485636  45.7992520
  94.7433529  97.7099126  44.7334293  95.2093982  98.5427117  44.6594596
  95.1941030  97.2444107  45.4379552  84.6855365 105.7124997  53.4472538
  85.3864824 106.3461480  53.6001932  84.2150480 106.0539729  52.6868178
  92.8109761 104.0542947  41.7320445  93.0869604 103.9399542  42.6414319
  91.9414259 103.6560432  41.6932618  92.7150192  90.0779713  48.7725195
  91.8013272  90.3083940  48.9407402  93.1443294  90.1618157  49.6239227
  92.4856651  98.2669605  51.2725089  91.8328101  98.5145512  50.6177541
  92.8637031  97.4533743  50.9387566  89.4463825 108.3029298  45.3753259
  89.6286219 107.4850954  45.8381011  90.2696811 108.5196990  44.9378149
  89.7805990 107.2297483  42.6368307  90.3093756 106.7189938  42.0238469
  90.0434210 106.9140013  43.5013840  88.5344224  99.0089416  57.7591126
  87.8584861  98.9083545  58.4293501  89.3571858  98.8528629  58.2227123
  80.2823083 105.2461352  50.3803641  80.8676520 104.5005040  50.5131545
  80.0847921 105.5565309  51.2640305  83.1361738 108.2812600  45.3966083
  82.4672113 108.7658727  44.9130123  82.9974608 108.5281820  46.3109462
  74.8740737  97.8166952  49.1008084  74.9124837  97.2830543  49.8945202
  74.3681030  97.2902158  48.4819061  87.2767007 110.3156343  51.9948742
  87.8285315 110.4787965  52.7597827  87.6173200 110.9060781  51.3228767
  82.2531500  92.6631493  52.5970626  82.3172826  93.5246324  52.1848024
  82.1898620  92.0505495  51.8642985  81.7283772  94.7354626  56.2443661
  82.3555811  94.3531703  56.8581185  80.8711691  94.5168827  56.6099353
  92.1277881 105.1417601  57.8497396  92.6717785 105.7547559  57.3552351
  91.5464726 105.6997179  58.3664409  78.5049315  96.5431055  42.1762015
  78.8002756  95.6341733  42.1229069  77.6037351  96.5218794  41.8543018
  90.4135394 108.2638319  48.9812424  90.2886533 107.4628059  48.4723369
  91.0714485 108.7584512  48.4926394  82.0343562  94.6187051  48.1589564
  81.3130148  95.2323019  48.0197037  82.8236818  95.1544816  48.0806210
  92.4770302 106.0647339  50.6091974  91.5300638 105.9452690  50.5370301
  92.8253075 105.1769837  50.6918235  84.8369876  91.9541478  54.4330216
  85.3604277  92.2003774  55.1956525  84.6182209  92.7861513  54.0133353
  80.2337157  94.2245152  42.3001341  79.9049863  93.3442531  42.1176447
  80.5876527  94.1692821  43.1877730  89.4816736 105.8600055  46.8096326
  89.3341698 104.9316762  46.9903896  90.3070229 105.8820146  46.3253401
  83.3478980  94.5118122  42.6676818  83.6875052  95.0404043  41.9455427
  83.7951100  94.8498528  43.4435385  93.0850857 106.6828614  47.8961199
  94.0097405 106.4771475  47.7585650  92.9166161 106.4345015  48.8050540
  86.0422421  92.8955173  52.1179886  85.7019241  92.0962986  52.5200566
  85.3361427  93.1956884  51.5456720  86.6938892  89.9804485  50.5707209
  87.5164962  89.5064963  50.4486100  86.9376956  90.7594969  51.0705896
  85.3347127  93.0092744  40.8670111  86.0555489  93.3873996  40.3633828
  84.7112431  93.7281621  40.9705089  89.4778250  93.7137893  41.8028443
  89.6941864  94.5962531  41.5017272  88.9972317  93.3224106  41.0734085
  84.2177471  96.6723606  48.3799188  84.0722052  96.9863909  49.2723470
  83.7402675  97.2908506  47.8270087  86.0773854  93.6626154  48.4280078
  86.0635423  92.7667247  48.0912375  86.7946282  93.6696818  49.0618364
  87.9299985  94.0963494  50.4733205  87.6717763  95.0180565  50.4717535
  87.3985025  93.6993929  51.1633669  92.8746174 107.2014281  43.2523290
  93.0483051 106.6360704  42.4997143  93.3675065 108.0015176  43.0702780
  78.6923133  99.2128950  51.3186849  78.1476601  99.9888758  51.4507124
  79.5702483  99.5599755  51.1605971  85.4810750  92.5440534  43.6967648
  85.6026661  91.6157180  43.8958535  85.1912792  92.5579220  42.7845963
  88.3501940  90.2295445  46.8334368  88.3723637  90.2934778  45.8786347
  88.7669999  89.3899953  47.0274874  98.7285565  99.9650704  44.8713590
  99.1716711  99.2158029  44.4732713  97.8512075  99.9560841  44.4887322
  93.8621346 106.5181046  40.3520189  94.5572251 107.1387738  40.5707503
  94.2044496 105.6676397  40.6272567  79.4789155  98.3398847  54.2117006
  78.7370891  98.4881482  54.7981636  79.1581900  98.6007112  53.3483755
  95.7612769 103.9680751  41.8807519  96.2864093 104.3068024  41.1556839
  95.6735122 103.0327766  41.6970654  87.4232818 107.8814825  54.0097396
  87.7319944 107.6363972  54.8820096  88.2208300 108.0861463  53.5216266
  87.4453430 110.0352734  46.2402773  87.0058420 109.5429113  46.9335629
  88.1961547 109.4925702  45.9994848  79.9245769 106.2264275  46.2427401
  80.7503789 105.9268047  45.8626044  79.5739821 105.4571898  46.6917189
  84.8927302 105.5790743  48.3125074  84.2707311 104.9161449  48.0127302
  85.5632169 105.6051875  47.6298722  78.1254374 104.1450602  47.2016334
  77.2886282 103.7172776  47.0200336  78.0978019 104.3383045  48.1387125
  84.9651830  94.0572532  57.9057580  85.0139985  94.9334654  57.5235350
  85.5074344  93.5149925  57.3329224  95.4506675 104.6013655  57.1858717
  94.6602219 104.5837794  56.6463217  95.2140030 105.1401948  57.9407754
  95.5704550 101.4506121  54.4991446  95.6202555 101.2856129  55.4406969
  95.4618474 100.5833380  54.1089327  84.4540809 104.1294667  41.7883535
  84.6028929 104.8130131  41.1350208  85.2607252 104.1099757  42.3032991
  92.8608313  97.4337049  55.8150753  93.7618175  97.2943514  55.5234750
  92.9356287  97.5991504  56.7548930  97.0722747 103.8703063  54.7433467
  96.7807555 104.2333043  55.5796928  96.4594878 103.1570071  54.5646800
  98.2718429 101.4355942  47.2636038  99.1065321 101.8745747  47.4273598
  98.4077558 100.9594596  46.4444283  95.3209935  98.9935677  53.2113525
  95.7964057  99.1863324  52.4032377  94.3975501  99.0494863  52.9656909
  82.2093442 100.1559844  42.7944604  81.9639484  99.2522174  42.9924814
  82.3789357 100.1576995  41.8524082  89.8990152  91.0283521  52.1769359
  90.4172096  91.7644548  51.8515848  89.5445285  91.3347514  53.0116118
  81.4789090  95.8888202  40.2930765  80.7858334  95.9632557  39.6370801
  81.2340841  95.1248546  40.8152282  90.1502746  87.4483803  47.6970256
  90.4304500  86.7806992  48.3230682  90.9353353  87.6412899  47.1844920
  87.9536215 106.6242797  39.2595282  87.3810182 107.2432984  38.8065754
  88.5269008 107.1742159  39.7935204  94.0211604  95.8701437  51.4441831
  94.9729027  95.9699535  51.4654055  93.8515055  95.0779706  51.9539915
  92.0425984  92.9557021  51.6301232  91.4475916  93.2362033  50.9347721
  91.7575681  93.4450922  52.4017973  91.1733474 106.9079947  40.3903865
  92.1064147 106.8425509  40.5936740  91.0856687 107.7436214  39.9318397
  93.8021491 106.2245818  37.3507812  93.7235123 105.8905681  38.2443570
  94.6231158 106.7167586  37.3499284  96.4999682  99.0907557  50.5584131
  96.4676002  98.1523558  50.7443815  97.1100306  99.1691594  49.8249956
  88.3383013  97.9603610  36.6011335  89.2842118  97.8309818  36.6699753
  87.9597258  97.2218272  37.0780763  96.6494171  95.8818600  50.6042414
  96.1333219  95.0977057  50.4172343  97.5334119  95.5537317  50.7688933
  94.3104898  89.6259616  46.5638227  94.1129719  89.3174704  47.4481559
  94.9204603  90.3521255  46.6936156 102.3176232 100.1523564  49.6990167
 103.0479620  99.8908852  50.2597871 101.7083177  99.4152286  49.7392235
 100.3991529  98.2931426  50.2964619  99.6724693  98.1587391  49.6881110
  99.9838816  98.6008255  51.1021337  88.2221706 102.0121356  58.0611992
  89.1424715 102.1899955  58.2552038  88.1871289 101.0677402  57.9091691
  86.5225930  95.8853586  36.5366220  85.6157386  95.5886699  36.6128934
  86.8001911  95.5883405  35.6700506  77.4403871  97.2059950  46.9865266
  77.1206655  96.3525258  46.6939640  76.8937299  97.4208528  47.7423234
  81.2183778  99.9222391  50.7034773  81.4369788 100.8539499  50.7222807
  81.6309552  99.5630365  51.4889577  88.1387996  90.4290476  42.6910461
  87.3288724  90.0837561  43.0665707  88.8272413  90.1198020  43.2798073
  90.0678544  89.5068523  44.3134758  90.6209583  89.9263976  44.9724781
  90.3048631  88.5804271  44.3557714  86.0911643  95.4955597  60.0937522
  85.9908370  96.4449954  60.0249613  85.8733185  95.1673835  59.2213592
  85.2924715  92.7440522  36.6778199  86.1543879  93.0695420  36.9374016
  85.4775059  91.9572018  36.1651265  77.3092131 100.8262861  48.9558388
  76.6155602 100.4116814  48.4428342  78.0565122 100.8683398  48.3591807
  93.4457351  91.6169048  43.8213422  92.8656020  92.2753852  43.4391475
  93.1793284  90.7946393  43.4100840  91.8960918  91.0174106  46.0234742
  92.3960696  91.1290640  45.2149061  92.5396526  90.7135159  46.6635551
  85.9542913  98.9252735  58.9102583  85.4709995  99.7253096  59.1166472
  86.0403853  98.9360680  57.9570027  79.2228873 100.7581115  46.8324403
  79.1999561 100.8568802  45.8806286  79.5329510 101.6046266  47.1541569
  81.8816251 102.8157270  50.9471017  82.8359505 102.7841212  50.8800949
  81.6828775 102.3547894  51.7621243  82.4715633 101.3858386  53.5141815
  83.2908522 101.8802465  53.5376652  82.7452441 100.4690354  53.4859382
  92.2282229  93.7769138  42.8769770  91.3408084  94.0618789  42.6589965
  92.6436218  93.6162902  42.0297047  95.5796765  93.8015659  46.5924110
  96.3557156  94.2912112  46.8648726  94.8544900  94.2273714  47.0495979
  98.0169324  94.5143279  47.6498050  98.6113815  94.2739015  46.9391359
  98.0895908  93.7950409  48.2771587  80.2366480 108.3576890  47.9641215
  80.1020948 107.5977291  47.3979213  79.8198542 109.0817789  47.4970004
  91.3725443 103.5413813  36.9717790  92.0761293 103.7463816  37.5875446
  90.6488092 104.1090575  37.2366874  92.2023253  99.2923674  43.0920061
  92.1458454  99.7492226  42.2527693  92.7551595  98.5314359  42.9142903
  96.0128059  95.0813406  43.9170180  95.7564993  94.6810042  44.7478388
  95.3880927  95.7957200  43.7920319 100.3240397  97.8209480  46.4241471
  99.7639955  97.8902669  47.1973034  99.7183900  97.6450464  45.7040968
  83.3935606 109.2546207  48.1759658  83.2767990 110.1991639  48.0738348
  82.5728052 108.9519768  48.5645457  93.2812140 103.9796342  39.0216250
  94.1157744 103.5477541  38.8393725  93.1196483 103.8078356  39.9493145
  92.9358032 100.4828456  40.3872590  92.8806836 100.3172727  39.4461034
  92.3104088 101.1904489  40.5434779  77.7250547  95.7196520  54.2134012
  78.3709411  95.2095474  54.7021237  77.5167698  96.4565202  54.7877437
  90.2503940 102.7877368  59.7126153  91.1195099 102.9618020  59.3512787
  89.7710691 103.6071784  59.5901882  86.2454158  89.9836565  39.9657908
  86.2332828  90.9278405  40.1226179  87.1377580  89.8006710  39.6717369
  84.4190120 109.9074469  51.3915586  85.3217366 109.9398079  51.7082081
  84.1927490 108.9774919  51.4061922  86.1743722 108.6605455  48.0525665
  85.2239353 108.6607317  47.9390037  86.4776208 107.9138190  47.5361699
  90.0606277  86.5779341  44.2203845  89.2938673  86.0237828  44.3660527
  90.4716982  86.6501210  45.0817997  82.0648038  92.8664137  58.3109026
  82.9279500  92.5100942  58.5212351  81.4913449  92.5278032  58.9984430
 101.9096415 114.4965993  49.1171427 102.5474825 114.3772741  48.4134767
 101.7917258 115.4446837  49.1759379  98.7186122 114.4493422  49.0532952
  98.3804633 114.3334486  48.1653487  99.5875890 114.0484587  49.0333958
  94.5772937 116.3028898  45.0429843  94.0137802 116.2118835  44.2746131
  94.4625332 115.4828802  45.5232335  99.2005905 115.6028273  55.0119157
  99.1894545 115.2081072  54.1399661  99.3626544 114.8694346  55.6052929
  92.1237369 117.7980090  47.8814063  92.9158661 117.4570914  47.4660363
  92.3634019 117.9075065  48.8016217  94.0828123 117.0589003  40.7531442
  94.8558999 116.5117990  40.6144318  94.4353522 117.9233252  40.9645903
  95.9213166 118.3865385  53.9598341  95.6303032 119.2911016  53.8445008
  96.5570150 118.4281913  54.6742411  96.8469373 115.7642234  50.5499701
  97.4432945 115.5398256  49.8356664  96.9044344 115.0226979  51.1525149
  96.4194401 113.2181669  38.3849892  96.6719922 112.6963190  37.6233355
  95.4818960 113.0547814  38.4876576 101.4637684 112.2217447  46.1924635
 102.2500773 111.8036870  45.8415052 101.7276388 113.1263540  46.3606284
 106.8646111 112.1592681  47.0957614 107.5971283 111.5891897  47.3295443
 106.1085467 111.7714281  47.5364119  96.1390690 115.1209775  40.5874267
  96.0226948 114.4454678  41.2555351  96.2492950 114.6342149  39.7706420
  98.4822231 114.5819922  44.2920956  98.1180438 114.0550543  45.0033878
  99.3389347 114.1918391  44.1187442 104.3871531 105.8714255  51.5552222
 104.0554856 106.7409666  51.3313437 103.7917145 105.5550539  52.2346253
  98.1227718 109.6109822  39.2882305  98.2902120 110.4790058  39.6552776
  97.9324887 109.7737103  38.3643594  94.3315532 114.5240597  46.9884840
  93.4066029 114.3916812  47.1962531  94.5799945 115.3034817  47.4854782
 104.2800195 110.5909341  48.6345572 103.3717072 110.5224749  48.3404333
 104.2287790 111.0681286  49.4627398  98.1016938 112.0667479  40.2728972
  97.9816564 112.5124530  41.1114452  97.4069527 112.4152797  39.7142510
  91.6924343 114.1673871  47.8228629  91.8216724 114.4208350  48.7368040
  91.0121795 114.7601579  47.5033284  98.3541060 112.0098986  56.5780470
  97.5774394 112.5692907  56.5683334  98.9931623 112.4955769  57.0995340
 106.1461841 108.7925779  50.4123446 105.5036221 109.0858312  49.7663241
 105.6416769 108.6778700  51.2176643 103.8002005 112.5388952  41.1009306
 104.7119861 112.7716339  40.9257003 103.2911652 113.1225997  40.5384384
  96.6087433 114.8184440  56.1398437  97.3502117 115.3569484  55.8633260
  95.9024418 115.4450729  56.2969988 102.0842772 116.9613580  54.7370598
 102.4926128 116.5195991  53.9925231 101.3620034 116.3866208  54.9904791
  98.4373842 111.8986187  52.1104155  99.2835038 112.3225601  52.2538804
  98.3772480 111.2419811  52.8042718 101.5873288 109.5590555  53.7685329
 101.3434220 110.3132616  53.2319604 101.8633218 109.9375903  54.6032576
 101.1437979 108.7146988  49.3499166 100.2822458 109.0128242  49.6415904
 101.1700414 108.9317387  48.4180199  97.9599549 117.2589179  45.7572972
  98.4237894 117.5376882  44.9677595  97.6956347 116.3572624  45.5746063
  94.8523630 116.8060660  48.6952735  95.4224987 117.2347929  48.0570220
  95.4431742 116.5243245  49.3936921  96.8968435 113.3812331  42.5662537
  97.5992478 113.8333375  43.0336464  96.5649063 112.7396150  43.1942430
  95.3448796 111.9724088  56.9413747  94.7147457 112.6540369  57.1749143
  95.2384884 111.8607170  55.9966885  90.6393769 111.6395884  47.8679671
  89.8492823 111.8953413  47.3919781  91.1305016 112.4544222  47.9731711
  92.5908514 112.0040463  44.8263148  91.7939677 112.1159157  45.3446643
  92.3634106 112.3427115  43.9604038  98.4214182 118.5285166  52.7745662
  98.4858614 118.9905574  53.6103834  97.7125106 117.8982531  52.9027972
  88.9231472 111.8926374  50.2994662  89.1739510 112.7773384  50.5652238
  89.4591020 111.7130976  49.5269753  94.6229539 106.2744854  59.3038998
  94.2296485 105.7211052  59.9786642  95.4395679 106.5855432  59.6945515
  91.5891597 117.7128712  43.2152568  92.1016117 118.5071962  43.3658132
  92.2414310 117.0155002  43.1486169  93.3986482 120.8294468  45.2975321
  93.5753110 121.7512433  45.1096305  94.1943315 120.5152887  45.7269701
  97.5397500 107.6902733  56.8959254  98.2807213 108.2909886  56.8163717
  97.7715423 106.9480371  56.3377297  92.6838838 112.8759100  55.1737484
  92.5692353 111.9744357  55.4744583  91.8283356 113.1222797  54.8222301
  94.5217797 122.3472642  51.2985663  95.0725222 122.2189705  50.5262657
  93.6829273 122.6467531  50.9480556  98.3184968 118.6123770  55.6429894
  98.8513305 117.8512058  55.4129202  97.7899049 118.3197422  56.3854049
 101.4854663 103.7183836  51.1723536 101.1418932 104.6085477  51.0962647
 101.8533626 103.5285493  50.3093121  89.5540514 116.0417366  43.9912138
  90.3915736 116.4514375  43.7745846  89.7318781 115.1016808  43.9612332
 101.4504946 113.7092447  39.6795971 100.9351569 114.4797052  39.9184358
 101.1782254 113.0357583  40.3029033  99.0352057 108.5542148  44.7381209
  98.1793653 108.1648998  44.5586848  99.4479009 108.6334108  43.8780995
 100.5651203 106.0888491  49.1372769 100.0615999 106.0518626  48.3240575
 100.8581810 106.9981234  49.1969426  96.8094089 106.1727221  48.1438951
  97.6747086 105.9770029  47.7844840  96.8771598 105.9437572  49.0708308
 101.2391249 111.5819539  41.5055752 100.9341385 111.8965688  42.3565895
 102.1921691 111.6600959  41.5483085  99.6837681 117.7409762  43.1548706
  99.1559042 117.0062522  42.8421944  99.1825183 118.5184439  42.9088675
  94.4156408 108.4029429  45.5155318  94.9900160 108.1804610  44.7828511
  95.0027391 108.4718123  46.2683919 103.4735986 114.2903156  46.3219694
 103.9867867 114.9233147  46.8241404 104.1237209 113.6904351  45.9563054
  94.7425995 110.4333890  39.5351203  93.9063308 110.7708576  39.8560478
  94.6030765 110.2982869  38.5978340  96.7179076 105.2770678  44.2430387
  96.0643488 104.9619695  43.6187002  96.6759550 104.6546418  44.9690210
  97.8290281 115.5589973  36.1583679  96.9217343 115.3279226  36.3574828
  98.3261313 114.7627592  36.3457661  99.9516816 111.7652611  48.5678035
  99.0339378 111.9867558  48.4099723 100.3676960 111.8398922  47.7089742
 100.7351864 113.1644027  43.6980715 101.4823683 113.6765424  43.3887837
 101.0043454 112.8428079  44.5585109  99.0078514 115.6602567  40.6807669
  98.0989734 115.3761600  40.7780139  99.0373598 116.0801646  39.8210976
 103.1830701 110.2001143  45.6799504 102.4453458 109.6878529  46.0109747
 103.4357475 109.7601525  44.8682781 103.2842329 102.9777395  46.2741274
 103.5901205 102.1174758  45.9867189 104.0094934 103.5695015  46.0740268
  89.5766685 113.3808082  44.6622872  89.3791085 112.7877442  43.9373938
  89.0213349 113.0760292  45.3798810  97.5563408 113.2731188  46.7817465
  97.6112018 112.3205024  46.7059941  96.7454610 113.4290627  47.2658763
  98.7054602 117.2011311  38.0195748  98.2674032 116.4847170  37.5601385
  99.4465043 117.4287426  37.4580839  95.4955768 111.8908248  44.5407844
  94.6823634 112.1902418  44.9473036  95.9914763 111.4963937  45.2582326
 101.0929980 112.3550072  53.3722737 101.4479368 112.5821545  54.2317203
 101.7402111 112.6868449  52.7499993  94.9869843 109.4626603  50.1569079
  95.6269222 109.3215362  49.4592042  94.1547374 109.1761117  49.7807681
  95.7630147 118.7629034  46.2704071  96.5570746 118.2679354  46.0686646
  95.0521839 118.2346897  45.9071777  92.0712910 112.9072115  42.3463824
  91.1410499 112.8456571  42.5633786  92.1670382 112.3848068  41.5500465
  91.9898460 109.4326928  44.9342065  92.2505277 110.3472262  44.8251226
  92.8115632 108.9651371  45.0838678  93.4623385 110.8464685  52.1040890
  94.1346438 110.6382048  51.4553539  92.6353171 110.6486771  51.6646122
  99.3648957 107.4726626  54.1206551  98.7176872 108.1716576  54.0271027
 100.1349972 107.9062770  54.4882799  99.5413091 115.3107391  52.1803370
 100.4705151 115.4618551  52.0072338  99.1204121 115.3991412  51.3252017
  98.3401423 119.3358056  49.9501908  98.2012509 118.9676840  50.8227846
  97.5516019 119.8505695  49.7785866  99.8906638 118.7139658  47.3390746
  99.5556471 118.6740428  48.2348396  99.3910584 118.0484374  46.8661156
  93.8650882 114.1207288  52.8643327  93.7270680 113.3887527  53.4654866
  94.7755806 114.0316189  52.5827515 102.8265830 116.0595693  37.6127806
 102.2095000 115.3342521  37.5160858 102.3582318 116.8205053  37.2694880
  96.4933183 113.8327248  52.3527007  97.2032801 113.1920440  52.3113625
  96.4502491 114.0840143  53.2753187  95.2062117 110.8192466  54.1722646
  94.6699474 110.3683204  54.8244242  94.6178825 110.9538375  53.4293111
  94.6164376 110.2781117  36.7349110  93.7393842 110.1569918  36.3711356
  95.0922129 109.4867195  36.4827998  86.1366516 115.0658277  46.8290617
  86.8237556 114.7520007  46.2411632  85.9814645 115.9699641  46.5557868
  90.9401238 109.9548473  51.2575641  90.8559427 109.3474143  50.5226051
  90.1183944 110.4457492  51.2585137 101.1124952 108.4402037  46.6245836
 101.6093651 107.6871999  46.3046906 100.3411933 108.4766354  46.0589045
 102.1954733 117.1973724  44.1984259 101.2611011 117.3175187  44.0288963
 102.3731401 116.2946191  43.9344269  97.6959921 110.5819420  46.3517520
  97.3257708 110.0290460  47.0398426  98.1919013 109.9777553  45.7992520
 105.5827284 113.0391043  44.7334293 106.0487736 113.8719035  44.6594596
 106.0334784 112.5736025  45.4379552  95.5249119 121.0416915  53.4472538
  96.2258579 121.6753398  53.6001932  95.0544234 121.3831646  52.6868178
 103.5543947 105.4071630  48.7725195 102.6407026 105.6375857  48.9407402
 103.9837048 105.4910074  49.6239227 103.3250405 113.5961522  51.2725089
 102.6721855 113.8437430  50.6177541 103.7030785 112.7825661  50.9387566
  99.3737978 114.3381333  57.7591126  98.6978615 114.2375463  58.4293501
 100.1965612 114.1820547  58.2227123  91.1216837 120.5753270  50.3803641
  91.7070274 119.8296958  50.5131545  90.9241676 120.8857227  51.2640305
  85.7134492 113.1458870  49.1008084  85.7518591 112.6122461  49.8945202
  85.2074785 112.6194076  48.4819061  93.0925254 107.9923411  52.5970626
  93.1566581 108.8538242  52.1848024  93.0292375 107.3797412  51.8642985
  92.5677527 110.0646543  56.2443661  93.1949566 109.6823621  56.8581185
  91.7105446 109.8460745  56.6099353  89.3443070 111.8722972  42.1762015
  89.6396511 110.9633651  42.1229069  88.4431105 111.8510712  41.8543018
  92.8737317 109.9478969  48.1589564  92.1523902 110.5614937  48.0197037
  93.6630572 110.4836734  48.0806210  95.6763630 107.2833395  54.4330216
  96.1998032 107.5295692  55.1956525  95.4575963 108.1153430  54.0133353
  91.0730911 109.5537070  42.3001341  90.7443617 108.6734449  42.1176447
  91.4270282 109.4984739  43.1877730  94.1872734 109.8410040  42.6676818
  94.5268807 110.3695961  41.9455427  94.6344855 110.1790446  43.4435385
  96.8816175 108.2247091  52.1179886  96.5412995 107.4254904  52.5200566
  96.1755181 108.5248801  51.5456720  97.5332647 105.3096403  50.5707209
  98.3558716 104.8356881  50.4486100  97.7770710 106.0886887  51.0705896
  96.1740881 108.3384661  40.8670111  96.8949244 108.7165914  40.3633828
  95.5506186 109.0573538  40.9705089 100.3172004 109.0429810  41.8028443
 100.5335619 109.9254448  41.5017272  99.8366071 108.6516024  41.0734085
  95.0571226 112.0015524  48.3799188  94.9115806 112.3155827  49.2723470
  94.5796429 112.6200424  47.8270087  96.9167609 108.9918072  48.4280078
  96.9029177 108.0959165  48.0912375  97.6340037 108.9988735  49.0618364
  98.7693739 109.4255412  50.4733205  98.5111517 110.3472482  50.4717535
  98.2378780 109.0285846  51.1633669  89.5316888 114.5420868  51.3186849
  88.9870356 115.3180676  51.4507124  90.4096238 114.8891672  51.1605971
  96.3204505 107.8732452  43.6967648  96.4420416 106.9449098  43.8958535
  96.0306547 107.8871138  42.7845963  99.1895695 105.5587362  46.8334368
  99.2117392 105.6226695  45.8786347  99.6063754 104.7191871  47.0274874
  90.3182910 113.6690764  54.2117006  89.5764646 113.8173400  54.7981636
  89.9975654 113.9299030  53.3483755  90.7639523 121.5556193  46.2427401
  91.5897543 121.2559965  45.8626044  90.4133575 120.7863815  46.6917189
  95.7321057 120.9082661  48.3125074  95.1101066 120.2453366  48.0127302
  96.4025923 120.9343793  47.6298722  88.9648128 119.4742519  47.2016334
  88.1280037 119.0464694  47.0200336  88.9371774 119.6674963  48.1387125
  95.8045584 109.3864449  57.9057580  95.8533740 110.2626572  57.5235350
  96.3468098 108.8441842  57.3329224  95.2934563 119.4586585  41.7883535
  95.4422684 120.1422049  41.1350208  96.1001007 119.4391675  42.3032991
 103.7002067 112.7628967  55.8150753 104.6011930 112.6235432  55.5234750
 103.7750042 112.9283422  56.7548930  98.0344873 110.1395822  54.6603939
  97.1648182 110.4329388  54.3886527  98.2704353 110.7236267  55.3811203
  93.0487196 115.4851762  42.7944604  92.8033238 114.5814092  42.9924814
  93.2183111 115.4868913  41.8524082 100.7383906 106.3575439  52.1769359
 101.2565850 107.0936465  51.8515848 100.3839039 106.6639432  53.0116118
  92.3182844 111.2180120  40.2930765  91.6252089 111.2924475  39.6370801
  92.0734596 110.4540463  40.8152282 100.9896501 102.7775721  47.6970256
 101.2698254 102.1098910  48.3230682 101.7747107 102.9704817  47.1844920
 104.8605359 111.1993355  51.4441831 105.8122782 111.2991453  51.4654055
 104.6908809 110.4071624  51.9539915 102.8819738 108.2848938  51.6301232
 102.2869670 108.5653951  50.9347721 102.5969435 108.7742839  52.4017973
  99.1776768 113.2895528  36.6011335 100.1235872 113.1601736  36.6699753
  98.7991012 112.5510190  37.0780763 107.4887925 111.2110518  50.6042414
 106.9726974 110.4268975  50.4172343 108.3727874 110.8829235  50.7688933
 105.1498652 104.9551534  46.5638227 104.9523473 104.6466622  47.4481559
 105.7598358 105.6813173  46.6936156  99.0615460 117.3413274  58.0611992
  99.9818470 117.5191873  58.2552038  99.0265043 116.3969319  57.9091691
  97.3619685 111.2145504  36.5366220  96.4551140 110.9178617  36.6128934
  97.6395666 110.9175322  35.6700506  88.2797625 112.5351868  46.9865266
  87.9600409 111.6817176  46.6939640  87.7331053 112.7500446  47.7423234
  92.0577533 115.2514309  50.7034773  92.2763542 116.1831416  50.7222807
  92.4703306 114.8922283  51.4889577  98.9781750 105.7582394  42.6910461
  98.1682479 105.4129479  43.0665707  99.6666167 105.4489938  43.2798073
 100.9072299 104.8360441  44.3134758 101.4603337 105.2555894  44.9724781
 101.1442385 103.9096189  44.3557714  96.9305398 110.8247514  60.0937522
  96.8302125 111.7741871  60.0249613  96.7126940 110.4965753  59.2213592
  96.1318469 108.0732439  36.6778199  96.9937633 108.3987338  36.9374016
  96.3168813 107.2863935  36.1651265  88.1485885 116.1554779  48.9558388
  87.4549356 115.7408732  48.4428342  88.8958876 116.1975316  48.3591807
 104.2851106 106.9460966  43.8213422 103.7049775 107.6045770  43.4391475
 104.0187038 106.1238310  43.4100840 102.7354672 106.3466023  46.0234742
 103.2354450 106.4582558  45.2149061 103.3790280 106.0427076  46.6635551
  96.7936668 114.2544653  58.9102583  96.3103750 115.0545013  59.1166472
  96.8797607 114.2652598  57.9570027  90.0622628 116.0873033  46.8324403
  90.0393316 116.1860720  45.8806286  90.3723264 116.9338184  47.1541569
  92.7210005 118.1449188  50.9471017  93.6753259 118.1133130  50.8800949
  92.5222529 117.6839812  51.7621243  93.3109388 116.7150304  53.5141815
  94.1302277 117.2094383  53.5376652  93.5846195 115.7982272  53.4859382
 103.0675984 109.1061056  42.8769770 102.1801839 109.3910707  42.6589965
 103.4829973 108.9454820  42.0297047 106.4190520 109.1307577  46.5924110
 107.1950910 109.6204030  46.8648726 105.6938654 109.5565631  47.0495979
 108.8563079 109.8435196  47.6498050 109.4507569 109.6030932  46.9391359
 108.9289662 109.1242327  48.2771587  91.0760234 123.6868807  47.9641215
  90.9414702 122.9269208  47.3979213  90.6592297 124.4109707  47.4970004
 103.0417008 114.6215592  43.0920061 102.9852209 115.0784144  42.2527693
 103.5945350 113.8606277  42.9142903 106.8521813 110.4105324  43.9170180
 106.5958748 110.0101960  44.7478388 106.2274681 111.1249118  43.7920319
 103.7751787 115.8120373  40.3872590 103.7200591 115.6464645  39.4461034
 103.1497842 116.5196406  40.5434779  88.5644302 111.0488438  54.2134012
  89.2103165 110.5387392  54.7021237  88.3561453 111.7857119  54.7877437
  97.0847912 105.3128482  39.9657908  97.0726582 106.2570322  40.1226179
  97.9771334 105.1298628  39.6717369 100.9000032 101.9071259  44.2203845
 100.1332428 101.3529746  44.3660527 101.3110737 101.9793128  45.0817997
  92.9041793 108.1956055  58.3109026  93.7673254 107.8392860  58.5212351
  92.3307203 107.8569950  58.9984430  36.8733890  -0.4723390  35.8416734
  37.5112300  -0.5916643  35.1380074  36.7554732   0.4757454  35.9004686
  33.6823596  -0.5195962  35.7778259  33.3442107  -0.6354897  34.8898793
  34.5513364  -0.9204797  35.7579265  34.1643379   0.6338890  41.7364464
  34.1532020   0.2391688  40.8644968  34.3264018  -0.0995038  42.3298236
  27.0874843   2.8290706  34.6059370  27.8796135   2.4881531  34.1905669
  27.3271494   2.9385681  35.5261523  30.8850640   3.4176002  40.6843648
  30.5940506   4.3221632  40.5690314  31.5207624   3.4592529  41.3987718
  31.8106847   0.7952850  37.2745008  32.4070419   0.5708873  36.5601971
  31.8681818   0.0537596  37.8770456  41.8283585  -2.8096703  33.8202920
  42.5608757  -3.3797486  34.0540750  41.0722941  -3.1975102  34.2609426
  35.8440525   3.1037417  37.6793442  35.5441248   4.0062456  37.5709249
  35.4991585   2.8369600  38.5314595  39.2437669  -4.3780043  35.3590879
  38.3354546  -4.4464634  35.0649640  39.1925265  -3.9008098  36.1872705
  30.8261305   9.8681738  30.6464409  30.7485335  10.8189563  30.7252890
  30.2222948   9.5227610  31.3039336  33.3178535  -2.9590397  43.3025776
  32.5411869  -2.3996477  43.2928641  33.9569098  -2.4733614  43.8240646
  41.1099315  -6.1763604  37.1368753  40.4673696  -5.8831071  36.4908548
  40.6054244  -6.2910684  37.9421950  31.5724907  -0.1504944  42.8643743
  32.3139591   0.3880100  42.5878567  30.8661892   0.4761345  43.0215295
  37.0480247   1.9924197  41.4615905  37.4563603   1.5506607  40.7170537
  36.3257508   1.4176824  41.7150098  33.4011317  -3.0703196  38.8349462
  34.2472512  -2.6463783  38.9784111  33.3409954  -3.7269572  39.5288025
  37.3709061   2.5525387  35.2168194  36.7417924   2.7171102  34.5144262
  36.9834723   2.9666997  35.9879158  41.2498293   3.4879825  32.5712557
  40.5649331   3.8678727  32.0209591  41.3342142   4.0975152  33.3044505
  36.5510762  -5.4098828  40.4930635  36.3071694  -4.6556768  39.9564911
  36.8270692  -5.0313481  41.3277882  38.5049225   1.1339784  39.1707901
  38.7166120   1.7771544  38.4942282  38.4578973   0.3002101  38.7029831
  29.8161104   1.8371277  35.4198042  30.3862461   2.2658545  34.7815527
  30.4069216   1.5553862  36.1182228  39.6195053   4.0111740  37.3430258
  40.4412496   3.6091927  37.0612940  39.6157456   3.9079974  38.2946374
  33.3851656   3.5595783  39.4990969  33.4496089   4.0216190  40.3349141
  32.6762580   2.9293148  39.6273279  47.7101046   0.3550488  33.6915230
  46.9564754  -0.2142114  33.5359234  47.8448587   0.3213153  34.6385864
  28.3623956   5.8605085  32.0220627  28.5390584   6.7823049  31.8341611
  29.1580789   5.5463504  32.4515007  34.7268150   5.8487457  43.4970291
  34.2832004   5.0623836  43.1791196  35.3885364   6.0366607  42.8314182
  29.4855271   7.3783259  38.0230970  30.0362696   7.2500322  37.2507964
  28.6466747   7.6778148  37.6725863  36.8249388   6.1290257  41.5251693
  36.8067864   6.9499138  41.0331962  37.7469308   6.0044332  41.7501834
  33.2822442   3.6434386  42.3675201  33.8150779   2.8822675  42.1374509
  32.7536523   3.3508038  43.1099355  39.6268001   0.9669399  34.9961059
  38.9691676   1.6568661  35.0841188  40.4308400   1.3565831  35.3395046
  38.4373460  -0.6786228  33.0465001  38.9505342  -0.0456236  33.5486711
  39.0874684  -1.2785032  32.6808361  34.9154291  -3.2036772  35.2923341
  33.9976852  -2.9821825  35.1345030  35.3314434  -3.1290462  34.4335049
  39.2035256   4.3019773  31.1744144  38.7497583   3.4610683  31.2309334
  38.5729223   4.9381172  31.5118924  37.6468195   6.1396270  32.1093962
  37.9391170   6.7001327  31.3906327  38.1566816   6.4324831  32.8647121
  32.6101821   6.9176621  33.1987415  32.5677999   7.1437468  32.2695947
  33.5264519   6.6839996  33.3473216  36.0567454  -2.6139311  40.0968044
  36.4116842  -2.3867838  40.9562510  36.7039586  -2.2820934  39.4745299
  41.7865191   0.5079125  30.8017373  41.6483090   0.6980721  29.8738562
  41.4301410   1.2698508  31.2585424  41.8134571   2.5755652  35.8128645
  42.2471078   2.4830941  36.6611699  42.5266152   2.5513152  35.1748661
  35.5462466   6.1757746  37.3461745  35.5999488   6.7448682  38.1139461
  34.6777247   6.3459631  36.9815782  42.6750120   2.6179352  38.3461530
  42.8686011   3.5225163  38.5920805  42.5750739   2.1586771  39.1800115
  37.7365229   2.7686095  43.9202411  37.5850736   2.5396647  43.0032494
  37.7269909   3.7256697  43.9333756  34.5050566   0.3418008  38.9048677
  35.4342626   0.4929167  38.7317644  34.0841596   0.4302029  38.0497324
  33.3038897   4.3668672  36.6747215  33.1649983   3.9987457  37.5473153
  32.5153494   4.8816312  36.5031173  33.8987049   9.4677769  28.0172751
  34.0738805   8.9965812  28.8318374  33.2119837  10.0943535  28.2454012
  34.8544112   3.7450275  34.0636053  34.5193945   3.7051045  34.9593702
  34.3548058   3.0794991  33.5906463  28.8288356  -0.8482095  39.5888634
  28.6908154  -1.5801856  40.1900173  29.7393280  -0.9373195  39.3072821
  31.4570657  -1.1362136  39.0772313  32.1670276  -1.7768943  39.0358932
  31.4139965  -0.8849241  39.9998494  39.4457436   5.8005218  41.9978893
  39.3869982   5.1164438  41.3309476  39.8476954   6.5424208  41.5459519
  28.4648135  12.6167132  34.7912611  28.7044733  13.2485656  35.4691630
  27.6217331  12.2655172  35.0777971  39.4474843   3.7644802  40.2292872
  38.5601622   3.4270723  40.3519271  40.0173394   3.0327833  40.4661638
  32.9775996   8.4246254  37.1954115  32.9046168   9.2301225  37.7073420
  32.5353390   8.6238220  36.3702137  32.7665776   7.6618024  30.7056937
  31.9833298   8.2039704  30.7995161  33.4658521   8.1792004  31.1051178
  43.9292184  -0.8246981  34.9909434  43.9182060   0.0577734  34.6203367
  43.0609563  -1.1775430  34.7963971  35.4374680   8.3233088  39.3512274
  36.1502652   8.9580553  39.2788176  34.9464709   8.4196954  38.5352276
  30.4886594   6.0727531  40.1717845  31.1896053   6.7064014  40.3247239
  30.0181708   6.4142263  39.4113484  38.2887879  -1.3727861  37.9970395
  37.6359330  -1.1251954  37.3422848  38.6668259  -2.1863723  37.6632873
  35.2495053   8.6631832  32.0998566  35.4317448   7.8453488  32.5626318
  36.0728039   8.8799524  31.6623456  35.5837219   7.5900017  29.3613614
  36.1124985   7.0792472  28.7483776  35.8465438   7.2742547  30.2259147
  34.3375452  -0.6308050  44.4836432  33.6616090  -0.7313921  45.1538808
  35.1603086  -0.7868836  44.9472430  26.0854312   5.6063886  37.1048948
  26.6707748   4.8607574  37.2376852  25.8879150   5.9167843  37.9885611
  28.9392967   8.6415134  32.1211390  28.2703342   9.1261262  31.6375430
  28.8005836   8.8884354  33.0354769  33.0798235  10.6758877  38.7194048
  33.6316543  10.8390499  39.4843134  33.4204429  11.2663315  38.0474073
  37.9309110   5.5020135  44.5742703  38.4749014   6.1150093  44.0797658
  37.3495955   6.0599713  45.0909716  36.2166623   8.6240853  35.7057731
  36.0917762   7.8230593  35.1968676  36.8745714   9.1187046  35.2171700
  38.2801531   6.4249873  37.3337281  37.3331867   6.3055224  37.2615607
  38.6284304   5.5372371  37.4163542  35.2847964   6.2202589  33.5341633
  35.1372927   5.2919297  33.7149203  36.1101458   6.2422680  33.0498708
  38.8882086   7.0431148  34.6206506  39.8128634   6.8374009  34.4830957
  38.7197390   6.7947549  35.5295847  38.6777402   7.5616815  29.9768597
  38.8514280   6.9963238  29.2242449  39.1706294   8.3617710  29.7948087
  44.5316794   0.3253238  31.5958897  44.9747940  -0.4239436  31.1978020
  43.6543304   0.3163375  31.2132629  39.6652575   6.8783580  27.0765495
  40.3603480   7.4990272  27.2952810  40.0075725   6.0278931  27.3517873
  41.5643998   4.3283285  28.6052826  42.0895322   4.6670558  27.8802146
  41.4766351   3.3930301  28.4215961  33.2264047   8.2417359  40.7342703
  33.5351173   7.9966506  41.6065402  34.0239529   8.4463997  40.2461573
  33.2484659  10.3955269  32.9648079  32.8089649   9.9031647  33.6580936
  33.9992776   9.8528236  32.7240154  25.7276998   6.5866809  32.9672707
  26.5535018   6.2870581  32.5871351  25.3771050   5.8174432  33.4162496
  30.6958531   5.9393278  35.0370381  30.0738540   5.2763983  34.7372609
  31.3663398   5.9654410  34.3544029  41.2537904   4.9616189  43.9104024
  40.4633448   4.9440328  43.3708523  41.0171259   5.5004483  44.6653061
  41.3735779   1.8108655  41.2236753  41.4233784   1.6458663  42.1652275
  41.2649702   0.9435914  40.8334633  38.6639542  -2.2060417  42.5396059
  39.5649404  -2.3453952  42.2480057  38.7387516  -2.0405962  43.4794237
  42.8753976   4.2305597  41.4678774  42.5838784   4.5935577  42.3042235
  42.2626107   3.5172605  41.2892106  44.0749658   1.7958477  33.9881344
  44.9096550   2.2348281  34.1518905  44.2108787   1.3197130  33.1689590
  41.1241164  -0.6461788  39.9358832  41.5995286  -0.4534142  39.1277683
  40.2006730  -0.5902603  39.6902216  39.8242833  -3.7696028  38.1687138
  40.7760256  -3.6697931  38.1899362  39.6546284  -4.5617760  38.6785222
  37.8457213  -6.6840445  38.3546539  37.2507145  -6.4035432  37.6593027
  37.5606909  -6.1946544  39.1263280  42.3030911  -0.5489909  37.2829437
  42.2707231  -1.4873908  37.4689121  42.9131535  -0.4705872  36.5495262
  42.4525399  -3.7578865  37.3287721  41.9364448  -4.5420409  37.1417649
  43.3365348  -4.0860149  37.4934240  48.1207461   0.5126098  36.4235474
  48.8510849   0.2511386  36.9843177  47.5114406  -0.2245180  36.4637542
  46.2022758  -1.3466039  37.0209925  45.4755922  -1.4810074  36.4126417
  45.7870045  -1.0389211  37.8266643  34.0252934   2.3723890  44.7857298
  34.9455944   2.5502489  44.9797345  33.9902517   1.4279936  44.6336998
  27.0215007   0.2824925  37.4280080  27.2401017   1.2142033  37.4468113
  27.4340781  -0.0767101  38.2134883  31.7574142  -0.7144730  45.6347890
  31.2741224   0.0855630  45.8411779  31.8435081  -0.7036785  44.6815334
  27.6847480   3.1759804  37.6716324  28.6390733   3.1443747  37.6046255
  27.4860003   2.7150428  38.4866550  28.2746862   1.7460920  40.2387122
  29.0939751   2.2404999  40.2621959  28.5483670   0.8292889  40.2104689
  43.8200553  -5.1254187  34.3743357  44.4145044  -5.3658451  33.6636665
  43.8927137  -5.8447057  35.0016893  26.0397709   8.7179424  34.6886522
  25.9052176   7.9579825  34.1224520  25.6229771   9.4420324  34.2215311
  46.1271626  -1.8187986  33.1486778  45.5671184  -1.7494797  33.9218340
  45.5215129  -1.9947002  32.4286274  29.1966834   9.6148741  34.9004964
  29.0799219  10.5594173  34.7983655  28.3759281   9.3122302  35.2890764
  36.0535168   3.1479902  46.4371459  36.9226328   3.3220554  46.0758094
  35.5741920   3.9674319  46.3147189  30.2221349  10.2677003  38.1160893
  31.1248595  10.3000613  38.4327388  29.9958719   9.3377454  38.1307229
  31.9774951   9.0207989  34.7770971  31.0270582   9.0209851  34.6635344
  32.2807437   8.2740724  34.2607006  47.7127644  14.8568528  35.8416734
  48.3506054  14.7375275  35.1380074  47.5948487  15.8049372  35.9004686
  44.5217350  14.8095956  35.7778259  44.1835862  14.6937020  34.8898793
  45.3907119  14.4087121  35.7579265  40.3804166  16.6631432  31.7675149
  39.8169031  16.5721369  30.9991437  40.2656561  15.8431337  32.2477642
  45.0037133  15.9630808  41.7364464  44.9925774  15.5683606  40.8644968
  45.1657773  15.2296880  42.3298236  37.9268598  18.1582624  34.6059370
  38.7189890  17.8173448  34.1905669  38.1665248  18.2677599  35.5261523
  45.9603725  20.3302400  27.0789614  45.3091705  20.9156480  26.6923628
  46.7548088  20.8608595  27.1384652  39.8859352  17.4191537  27.4776749
  40.6590228  16.8720524  27.3389625  40.2384751  18.2835786  27.6891210
  41.7244394  18.7467919  40.6843648  41.4334260  19.6513550  40.5690314
  42.3601379  18.7884447  41.3987718  42.6500601  16.1244768  37.2745008
  43.2464174  15.9000790  36.5601971  42.7075573  15.3829513  37.8770456
  42.2225630  13.5784203  25.1095199  42.4751150  13.0565724  24.3478662
  41.2850189  13.4150349  25.2121882  47.2668913  12.5819982  32.9169942
  48.0532002  12.1639405  32.5660359  47.5307617  13.4866074  33.0851590
  47.4378990  18.0192832  27.6158599  46.8024823  18.0927458  28.3279503
  47.1076396  18.6086431  26.9377678  52.6677340  12.5195215  33.8202920
  53.4002512  11.9494432  34.0540750  51.9116695  12.1316815  34.2609426
  41.9421918  15.4812309  27.3119574  41.8258177  14.8057213  27.9800658
  42.0524178  14.9944683  26.4951727  44.2853459  14.9422456  31.0166263
  43.9211667  14.4153077  31.7279184  45.1420575  14.5520925  30.8432748
  50.1902760   6.2316789  38.2797529  49.8586085   7.1012200  38.0558744
  49.5948373   5.9153073  38.9591559  43.9258946   9.9712356  26.0127611
  44.0933349  10.8392592  26.3798082  43.7356115  10.1339638  25.0888901
  46.6834280  18.4329335  37.6793442  46.3835003  19.3354374  37.5709249
  46.3385339  18.1661518  38.5314595  40.1346761  14.8843132  33.7130146
  39.2097258  14.7519346  33.9207838  40.3831174  15.6637351  34.2100089
  50.0831423  10.9511875  35.3590879  49.1748301  10.8827283  35.0649640
  50.0319019  11.4283820  36.1872705  43.9048167  12.4270013  26.9974278
  43.7847792  12.8727064  27.8359758  43.2100756  12.7755331  26.4387816
  37.4955572  14.5276405  34.5473935  37.6247953  14.7810884  35.4613347
  36.8153023  15.1204113  34.2278590  41.6655059  25.1973655  30.6464409
  41.5879089  26.1481480  30.7252890  41.0616703  24.8519528  31.3039336
  44.1572289  12.3701521  43.3025776  43.3805623  12.9295441  43.2928641
  44.7962852  12.8558304  43.8240646  51.9493070   9.1528313  37.1368753
  51.3067450   9.4460847  36.4908548  51.4447998   9.0381234  37.9421950
  49.6033233  12.8991487  27.8254612  50.5151090  13.1318873  27.6502310
  49.0942880  13.4828531  27.2629691  42.4118661  15.1786974  42.8643743
  43.1533346  15.7172018  42.5878567  41.7055647  15.8053263  43.0215295
  47.8874001  17.3216114  41.4615905  48.2957357  16.8798525  40.7170537
  47.1651263  16.7468742  41.7150098  44.2405071  12.2588721  38.8349462
  45.0866266  12.6828135  38.9784111  44.1803709  11.6022346  39.5288025
  48.2102816  17.8817305  35.2168194  47.5811678  18.0463019  34.5144262
  47.8228478  18.2958915  35.9879158  52.0892048  18.8171743  32.5712557
  51.4043086  19.1970644  32.0209591  52.1735897  19.4267070  33.3044505
  47.3904516   9.9193090  40.4930635  47.1465448  10.6735150  39.9564911
  47.6664447  10.2978437  41.3277882  49.3442979  16.4631702  39.1707901
  49.5559874  17.1063462  38.4942282  49.2972727  15.6294018  38.7029831
  46.9469208   9.0749523  36.0744473  46.0853687   9.3730776  36.3661211
  46.9731643   9.2919921  35.1425506  43.7630778  17.6191713  32.4818279
  44.2269123  17.8979416  31.6922901  43.4987576  16.7175158  32.2991369
  40.6554859  17.1663195  35.4198042  41.2256216  17.5950463  34.7815527
  41.2462971  16.8845779  36.1182228  42.6999664  13.7414866  29.2907844
  43.4023707  14.1935909  29.7581770  42.3680292  13.0998684  29.9187737
  41.1480025  12.3326622  43.6659053  40.5178686  13.0142903  43.8994450
  41.0416113  12.2209704  42.7212192  36.4424998  11.9998418  34.5924977
  35.6524052  12.2555947  34.1165088  36.9336245  12.8146756  34.6977018
  50.4588807  19.3403657  37.3430258  51.2806251  18.9383845  37.0612940
  50.4551210  19.2371892  38.2946374  38.3939743  12.3642997  31.5508454
  37.5970906  12.4761692  32.0691950  38.1665335  12.7029650  30.6849345
  44.2245411  18.8887701  39.4990969  44.2889843  19.3508108  40.3349141
  43.5156334  18.2585066  39.6273279  34.7262701  12.2528909  37.0239968
  34.9770739  13.1375919  37.2897544  35.2622249  12.0733510  36.2515060
  58.5494800  15.6842406  33.6915230  57.7958509  15.1149804  33.5359234
  58.6842341  15.6505070  34.6385864  43.9393428  20.5555808  29.3669949
  43.8039103  21.4007344  29.7954797  44.4803241  20.7575086  28.6035883
  40.4260768   6.6347388  46.0284304  40.0327713   6.0813587  46.7031949
  41.2426908   6.9457966  46.4190822  37.3922826  18.0731246  29.9397874
  37.9047346  18.8674496  30.0903439  38.0445538  17.3757537  29.8731476
  39.2017710  21.1897002  32.0220627  39.3784339  22.1114967  31.8341611
  39.9974544  20.8755422  32.4515007  43.3428729   8.0505267  43.6204561
  44.0838442   8.6512420  43.5409023  43.5746652   7.3082905  43.0622604
  38.4870067  13.2361634  41.8982791  38.3723582  12.3346892  42.1989890
  37.6314585  13.4825331  41.5467607  45.5661905  21.1779375  43.4970291
  45.1225759  20.3915753  43.1791196  46.2279118  21.3658525  42.8314182
  40.3249026  22.7075176  38.0230970  40.8756451  22.5792240  37.2507964
  39.4860502  23.0070065  37.6725863  47.6643143  21.4582175  41.5251693
  47.6461618  22.2791056  41.0331962  48.5863063  21.3336250  41.7501834
  44.1216197  18.9726304  42.3675201  44.6544534  18.2114592  42.1374509
  43.5930278  18.6799956  43.1099355  47.2885892   4.0786370  37.8968843
  46.9450161   4.9688012  37.8207953  47.6564854   3.8888028  37.0338428
  35.3571742  16.4019900  30.7157445  36.1946964  16.8116909  30.4991152
  35.5350010  15.4619343  30.6857639  47.2536175  14.0694981  26.4041278
  46.7382798  14.8399586  26.6429665  46.9813483  13.3960117  27.0274339
  44.8383286   8.9144682  31.4626516  43.9824882   8.5251532  31.2832155
  45.2510237   8.9936643  30.6026302  46.3682432   6.4491025  35.8618076
  45.8647228   6.4121160  35.0485881  46.6613039   7.3583768  35.9214733
  42.6125318   6.5329755  34.8684258  43.4778315   6.3372564  34.5090147
  42.6802827   6.3040107  35.7953614  52.2270449  16.8227336  28.3394451
  51.4499891  16.4838495  27.8949613  52.9061930  16.8279959  27.6649416
  47.0422478  11.9422073  28.2301059  46.7372613  12.2568222  29.0811202
  47.9952920  12.0203493  28.2728392  45.4868910  18.1012297  29.8794013
  44.9590271  17.3665056  29.5667250  44.9856412  18.8786973  29.6333981
  50.4661756  16.2961317  34.9961059  49.8085430  16.9860578  35.0841188
  51.2702155  16.6857749  35.3395046  40.2187637   8.7631963  32.2400624
  40.7931389   8.5407144  31.5073817  40.8058620   8.8320657  32.9929226
  49.2767214  14.6505690  33.0465001  49.7899096  15.2835682  33.5486711
  49.9268438  14.0506885  32.6808361  40.5457224  10.7936424  26.2596510
  39.7094537  11.1311110  26.5805784  40.4061994  10.6585404  25.3223647
  42.5210305   5.6373212  30.9675694  41.8674717   5.3222229  30.3432309
  42.4790779   5.0148952  31.6935517  43.6321510  15.9192507  22.8828986
  42.7248572  15.6881760  23.0820135  44.1292542  15.1230126  23.0702967
  46.5389589  24.6290014  25.8025672  45.8651287  24.9321711  26.4110630
  46.9255411  25.4319094  25.4531129  45.7548045  12.1255145  35.2923341
  44.8370607  12.3470092  35.1345030  46.1708189  12.2001456  34.4335049
  46.5383093  13.5246561  30.4226022  47.2854912  14.0367958  30.1133144
  46.8074683  13.2030614  31.2830415  44.8109743  16.0205102  27.4052976
  43.9020962  15.7364134  27.5025446  44.8404827  16.4404180  26.5456283
  50.0429011  19.6311691  31.1744144  49.5891338  18.7902601  31.2309334
  49.4122977  20.2673090  31.5118924  48.9861930  10.5603677  32.4044811
  48.2484687  10.0481063  32.7355054  49.2388704  10.1204059  31.5928088
  48.4861950  21.4688188  32.1093962  48.7784924  22.0293245  31.3906327
  48.9960570  21.7616749  32.8647121  49.0873557   3.3379929  32.9986580
  49.3932434   2.4777293  32.7112495  49.8126162   3.9297549  32.7985574
  35.3797914  13.7410616  31.3868178  35.1822313  13.1479977  30.6619245
  34.8244578  13.4362826  32.1044117  43.3594637  13.6333722  33.5062771
  43.4143247  12.6807559  33.4305248  42.5485839  13.7893161  33.9904070
  44.5085831  17.5613845  24.7441055  44.0705261  16.8449704  24.2846692
  45.2496272  17.7889960  24.1826146  41.2986997  12.2510782  31.2653150
  40.4854863  12.5504953  31.6718342  41.7945991  11.8566471  31.9827632
  43.4495575  22.2468539  33.1987415  43.4071754  22.4729385  32.2695947
  44.3658274  22.0131914  33.3473216  46.8961209  12.7152606  40.0968044
  47.2510597  12.9424080  40.9562510  47.5433340  13.0470983  39.4745299
  52.6258946  15.8371042  30.8017373  52.4876844  16.0272638  29.8738562
  52.2695165  16.5990425  31.2585424  40.7901072   9.8229138  36.8814385
  41.4300451   9.6817897  36.1837349  39.9578602   9.5363651  36.5052987
  52.6528325  17.9047569  35.8128645  53.0864832  17.8122858  36.6611699
  53.3659906  17.8805070  35.1748661  41.5661376  19.1231568  32.9949378
  42.3601974  18.6281888  32.7931953  40.8553068  18.5949431  32.6317083
  46.3856220  21.5049663  37.3461745  46.4393243  22.0740600  38.1139461
  45.5171002  21.6751549  36.9815782  37.8744139  13.2674650  29.0709130
  36.9441727  13.2059105  29.2879092  37.9701611  12.7450602  28.2745772
  37.7929688   9.7929463  31.6587372  38.0536506  10.7074796  31.5496532
  38.6146861   9.3253905  31.8083985  39.2654614  11.2067220  38.8286197
  39.9377667  10.9984582  38.1798845  38.4384400  11.0089306  38.3891429
  53.5143875  17.9471270  38.3461530  53.7079765  18.8517081  38.5920805
  53.4144493  17.4878689  39.1800115  45.1680186   7.8329161  40.8451857
  44.5208101   8.5319110  40.7516334  45.9381201   8.2665305  41.2128106
  48.5758984  18.0978013  43.9202411  48.4244490  17.8688564  43.0032494
  48.5663663  19.0548614  43.9333756  45.3444320  15.6709926  38.9048677
  46.2736380  15.8221085  38.7317644  44.9235350  15.7593946  38.0497324
  44.1432652  19.6960590  36.6747215  44.0043738  19.3279374  37.5473153
  43.3547248  20.2108229  36.5031173  44.7380804  24.7969686  28.0172751
  44.9132559  24.3257730  28.8318374  44.0513592  25.4235453  28.2454012
  45.6937867  19.0742193  34.0636053  45.3587700  19.0342963  34.9593702
  45.1941813  18.4086909  33.5906463  39.6682111  14.4809823  39.5888634
  39.5301909  13.7490062  40.1900173  40.5787034  14.3918723  39.3072821
  48.6297059  16.4198227  24.3373112  48.0126229  15.6945055  24.2406165
  48.1613547  17.1807587  23.9940186  42.2964412  14.1929782  39.0772313
  43.0064030  13.5522974  39.0358932  42.2533720  14.4442677  39.9998494
  50.2851190  21.1297135  41.9978893  50.2263736  20.4456355  41.3309476
  50.6870709  21.8716125  41.5459519  41.0093346  11.1795000  40.8967953
  40.4730703  10.7285738  41.5489549  40.4210054  11.3140909  40.1538417
  39.3041889  27.9459049  34.7912611  39.5438487  28.5777573  35.4691630
  38.4611086  27.5947089  35.0777971  50.2868598  19.0936719  40.2292872
  49.3995376  18.7562641  40.3519271  50.8567149  18.3619751  40.4661638
  31.9397745  15.4260811  33.5535924  32.6268785  15.1122541  32.9656939
  31.7845873  16.3302176  33.2803175  36.7432467  10.3151008  37.9820947
  36.6590656   9.7076677  37.2471357  35.9215173  10.8060026  37.9830444
  43.8169751  23.7538172  37.1954115  43.7439922  24.5593143  37.7073420
  43.3747144  23.9530137  36.3702137  43.6059531  22.9909942  30.7056937
  42.8227052  23.5331622  30.7995161  44.3052276  23.5083921  31.1051178
  46.9156181   8.8004571  33.3491142  47.4124880   8.0474533  33.0292213
  46.1443162   8.8368888  32.7834352  54.7685938  14.5044937  34.9909434
  54.7575814  15.3869652  34.6203367  53.9003318  14.1516487  34.7963971
  46.2768434  23.6525006  39.3512274  46.9896407  24.2872470  39.2788176
  45.7858463  23.7488872  38.5352276  47.9985961  17.5576258  30.9229566
  47.0642240  17.6777721  30.7534270  48.1762630  16.6548725  30.6589576
  43.4991149  10.9421954  33.0762827  43.1288937  10.3892994  33.7643733
  43.9950242  10.3380088  32.5237827  51.3858513  13.3993578  31.4579600
  51.8518965  14.2321569  31.3839903  51.8366013  12.9338559  32.1624858
  41.3280348  21.4019449  40.1717845  42.0289807  22.0355932  40.3247239
  40.8575463  21.7434181  39.4113484  49.4534744  19.7437399  28.4565752
  49.7294588  19.6293993  29.3659626  48.5839243  19.3454884  28.4177925
  49.3575175   5.7674165  35.4970501  48.4438255   5.9978391  35.6652708
  49.7868277   5.8512609  36.3484534  49.1281634  13.9564057  37.9970395
  48.4753084  14.2039964  37.3422848  49.5062014  13.1428195  37.6632873
  46.0888808  23.9923750  32.0998566  46.2711202  23.1745406  32.5626318
  46.9121794  24.2091442  31.6623456  46.4230973  22.9191935  29.3613614
  46.9518740  22.4084389  28.7483776  46.6859193  22.6034465  30.2259147
  45.1769207  14.6983868  44.4836432  44.5009844  14.5977997  45.1538808
  45.9996841  14.5423081  44.9472430  36.9248066  20.9355804  37.1048948
  37.5101503  20.1899492  37.2376852  36.7272905  21.2459761  37.9885611
  39.7786721  23.9707052  32.1211390  39.1097097  24.4553179  31.6375430
  39.6399591  24.2176272  33.0354769  31.5165721  13.5061404  35.8253391
  31.5549820  12.9724995  36.6190509  31.0106014  12.9796610  35.2064368
  43.9191990  26.0050795  38.7194048  44.4710298  26.1682417  39.4843134
  44.2598183  26.5955233  38.0474073  38.8956483   8.3525945  39.3215933
  38.9597810   9.2140776  38.9093331  38.8323603   7.7399947  38.5888292
  38.3708756  10.4249077  42.9688967  38.9980794  10.0426155  43.5826492
  37.5136674  10.2063279  43.3344660  48.7702864  20.8312053  44.5742703
  49.3142768  21.4442011  44.0797658  48.1889709  21.3891631  45.0909716
  35.1474298  12.2325507  28.9007322  35.4427739  11.3236185  28.8474376
  34.2462334  12.2113246  28.5788324  47.0560377  23.9532771  35.7057731
  46.9311517  23.1522510  35.1968676  47.7139468  24.4478964  35.2171700
  38.6768545  10.3081503  34.8834871  37.9555131  10.9217471  34.7442344
  39.4661801  10.8439268  34.8051517  49.1195286  21.7541791  37.3337281
  48.1725621  21.6347142  37.2615607  49.4678059  20.8664289  37.4163542
  41.4794859   7.6435930  41.1575522  42.0029261   7.8898226  41.9201832
  41.2607192   8.4755964  40.7378660  36.8762140   9.9139604  29.0246647
  36.5474846   9.0336983  28.8421753  37.2301511   9.8587273  29.9123037
  46.1241719  21.5494507  33.5341633  45.9766681  20.6211214  33.7149203
  46.9495212  21.5714598  33.0498708  39.9903963  10.2012574  29.3922125
  40.3300036  10.7298495  28.6700733  40.4376084  10.5392980  30.1680691
  49.7275841  22.3723066  34.6206506  50.6522388  22.1665927  34.4830957
  49.5591144  22.1239467  35.5295847  42.6847404   8.5849625  38.8425193
  42.3444224   7.7857438  39.2445873  41.9786410   8.8851336  38.2702026
  43.3363876   5.6698937  37.2952516  44.1589945   5.1959415  37.1731406
  43.5801939   6.4489421  37.7951202  41.9772110   8.6987196  27.5915418
  42.6980473   9.0768448  27.0879135  41.3537414   9.4176072  27.6950396
  46.1203233   9.4032345  28.5273750  46.3366848  10.2856982  28.2262578
  45.6397300   9.0118558  27.7979392  40.8602455  12.3618058  35.1044495
  40.7147035  12.6758361  35.9968776  40.3827658  12.9802958  34.5515393
  42.7198837   9.3520606  35.1525384  42.7060406   8.4561699  34.8157682
  43.4371266   9.3591270  35.7863670  44.5724968   9.7857946  37.1978512
  44.3142746  10.7075017  37.1962842  44.0410008   9.3888381  37.8878976
  49.5171157  22.8908733  29.9768597  49.6908034  22.3255156  29.2242449
  50.0100048  23.6909628  29.7948087  35.3348117  14.9023402  38.0432156
  34.7901585  15.6783210  38.1752430  36.2127467  15.2494207  37.8851277
  42.1235733   8.2334986  30.4212954  42.2451645   7.3051632  30.6203842
  41.8337776   8.2473672  29.5091270  44.9926924   5.9189896  33.5579674
  45.0148621   5.9829230  32.6031654  45.4094983   5.0794405  33.7520180
  55.3710548  15.6545156  31.5958897  55.8141694  14.9052481  31.1978020
  54.4937058  15.6455292  31.2132629  50.5046329  22.2075497  27.0765495
  51.1997234  22.8282190  27.2952810  50.8469480  21.3570849  27.3517873
  36.1214139  14.0293298  40.9362313  35.3795875  14.1775934  41.5226943
  35.8006883  14.2901564  40.0729062  52.4037752  19.6575203  28.6052826
  52.9289077  19.9962476  27.8802146  52.3160105  18.7222218  28.4215961
  44.0657801  23.5709277  40.7342703  44.3744928  23.3258423  41.6065402
  44.8633283  23.7755915  40.2461573  44.0878413  25.7247186  32.9648079
  43.6483404  25.2323565  33.6580936  44.8386530  25.1820154  32.7240154
  36.5670752  21.9158727  32.9672707  37.3928772  21.6162499  32.5871351
  36.2164804  21.1466350  33.4162496  41.5352285  21.2685195  35.0370381
  40.9132295  20.6055900  34.7372609  42.2057152  21.2946327  34.3544029
  34.7679357  19.8345054  33.9261641  33.9311266  19.4067228  33.7445642
  34.7403003  20.0277497  34.8632432  41.6076813   9.7466983  44.6302887
  41.6564968  10.6229106  44.2480657  42.1499327   9.2044376  44.0574530
  52.0931659  20.2908107  43.9104024  51.3027202  20.2732246  43.3708523
  51.8565013  20.8296400  44.6653061  52.2129534  17.1400573  41.2236753
  52.2627539  16.9750580  42.1652275  52.1043457  16.2727832  40.8334633
  41.0965792  19.8189119  28.5128841  41.2453913  20.5024583  27.8595514
  41.9032236  19.7994209  29.0278297  49.5033296  13.1231501  42.5396059
  50.4043159  12.9837966  42.2480057  49.5781271  13.2885956  43.4794237
  43.8376101  10.4998356  41.3849246  42.9679411  10.7931922  41.1131834
  44.0735582  11.0838801  42.1056509  53.7147730  19.5597515  41.4678774
  53.4232539  19.9227495  42.3042235  53.1019862  18.8464523  41.2892106
  54.9143413  17.1250394  33.9881344  55.7490304  17.5640198  34.1518905
  55.0502542  16.6489048  33.1689590  51.9634919  14.6830129  39.9358832
  52.4389040  14.8757775  39.1277683  51.0400484  14.7389315  39.6902216
  38.8518425  15.8454296  29.5189910  38.6064467  14.9416626  29.7170121
  39.0214340  15.8471447  28.5769388  46.5415135   6.7177973  38.9014666
  47.0597079   7.4539000  38.5761155  46.1870268   7.0241966  39.7361425
  38.1214073  11.5782654  27.0176072  37.4283318  11.6527009  26.3616108
  37.8765825  10.8142998  27.5397589  46.7927729   3.1378255  34.4215563
  47.0729483   2.4701444  35.0475989  47.5778336   3.3307351  33.9090226
  44.5961198  22.3137249  25.9840589  44.0235165  22.9327436  25.5311061
  45.1693991  22.8636611  26.5180511  50.6636588  11.5595889  38.1687138
  51.6154011  11.6593987  38.1899362  50.4940038  10.7674158  38.6785222
  48.6850967   8.6451472  38.3546539  48.0900899   8.9256485  37.6593027
  48.4000664   9.1345373  39.1263280  47.8158458  22.5974399  27.1149171
  48.7489131  22.5319961  27.3182047  47.7281670  23.4330666  26.6563704
  50.4446474  21.9140270  24.0753119  50.3660106  21.5800133  24.9688877
  51.2656141  22.4062038  24.0744591  53.1424665  14.7802009  37.2829437
  53.1100986  13.8418010  37.4689121  53.7525289  14.8586046  36.5495262
  44.9807996  13.6498062  23.3256641  45.9267101  13.5204270  23.3945059
  44.6022241  12.9112724  23.8026070  53.2919154  11.5713052  37.3287721
  52.7758203  10.7871509  37.1417649  54.1759102  11.2431769  37.4934240
  50.9529881   5.3154068  33.2883533  50.7554702   5.0069156  34.1726865
  51.5629586   6.0415707  33.4181463  58.9601215  15.8418016  36.4235474
  59.6904604  15.5803304  36.9843177  58.3508161  15.1046738  36.4637542
  57.0416512  13.9825878  37.0209925  56.3149676  13.8481843  36.4126417
  56.6263799  14.2902707  37.8266643  44.8646689  17.7015808  44.7857298
  45.7849698  17.8794407  44.9797345  44.8296272  16.7571853  44.6336998
  34.0828854  12.8954402  33.7110573  33.7631638  12.0419710  33.4184947
  33.5362282  13.1102980  34.4668540  37.8608761  15.6116843  37.4280080
  38.0794771  16.5433951  37.4468113  38.2734535  15.2524817  38.2134883
  44.7812979   6.1184928  29.4155768  43.9713708   5.7732013  29.7911014
  45.4697396   5.8092472  30.0043379  46.7103527   5.1962975  31.0380065
  47.2634566   5.6158428  31.6970088  46.9473614   4.2698723  31.0803021
  42.7336627  11.1850048  46.8182828  42.6333354  12.1344405  46.7494920
  42.5158169  10.8568287  45.9458899  33.9517114  16.5157313  35.6803695
  33.2580585  16.1011266  35.1673649  34.6990105  16.5577850  35.0837113
  50.0882335   7.3063500  30.5458729  49.5081004   7.9648304  30.1636781
  49.8218267   6.4840845  30.1346146  48.5385901   6.7068558  32.7480049
  49.0385679   6.8185092  31.9394368  49.1821509   6.4029611  33.3880858
  42.5967897  14.6147187  45.6347890  42.1134978  15.4147547  45.8411779
  42.6828836  14.6255132  44.6815334  35.8653856  16.4475567  33.5569709
  35.8424544  16.5463254  32.6051593  36.1754493  17.2940718  33.8786876
  38.5241234  18.5051722  37.6716324  39.4784488  18.4735664  37.6046255
  38.3253758  18.0442346  38.4866550  39.1140616  17.0752838  40.2387122
  39.9333505  17.5696917  40.2621959  39.3877424  16.1584806  40.2104689
  48.8707213   9.4663590  29.6015077  47.9833068   9.7513241  29.3835272
  49.2861202   9.3057354  28.7542354  52.2221749   9.4910111  33.3169416
  52.9982139   9.9806564  33.5894033  51.4969883   9.9168166  33.7741286
  54.6594307  10.2037731  34.3743357  55.2538798   9.9633467  33.6636665
  54.7320891   9.4844861  35.0016893  36.8791463  24.0471342  34.6886522
  36.7445931  23.2871742  34.1224520  36.4623525  24.7712241  34.2215311
  48.0150426  19.2308265  23.6963097  48.7186276  19.4358268  24.3120753
  47.2913075  19.7985027  23.9612181  48.8448236  14.9818126  29.8165367
  48.7883438  15.4386678  28.9773000  49.3976579  14.2208811  29.6388210
  52.6553042  10.7707858  30.6415487  52.3989976  10.3704494  31.4723694
  52.0305910  11.4851652  30.5165626  56.9665380  13.5103931  33.1486778
  56.4064938  13.5797121  33.9218340  56.3608883  13.3344916  32.4286274
  40.0360589  24.9440659  34.9004964  39.9192973  25.8886091  34.7983655
  39.2153035  24.6414220  35.2890764  49.9237123  19.6690794  25.7461557
  50.7582727  19.2371993  25.5639032  49.7621466  19.4972808  26.6738452
  49.5783016  16.1722908  27.1117896  49.5231819  16.0067179  26.1706341
  48.9529071  16.8798940  27.2680086  34.3675531  11.4090972  40.9379319
  35.0134394  10.8989926  41.4266544  34.1592682  12.1459654  41.5122744
  46.8928923  18.4771819  46.4371459  47.7620082  18.6512472  46.0758094
  46.4135674  19.2966236  46.3147189  42.8879141   5.6731017  26.6903215
  42.8757811   6.6172856  26.8471486  43.7802563   5.4901162  26.3962676
  41.0615103  25.5968920  38.1160893  41.9642350  25.6292531  38.4327388
  40.8352473  24.6669371  38.1307229  42.8168705  24.3499907  34.7770971
  41.8664336  24.3501769  34.6635344  43.1201191  23.6032642  34.2607006
  46.7031261   2.2673793  30.9449152  45.9363656   1.7132280  31.0905834
  47.1141966   2.3395662  31.8063303  38.7073022   8.5558589  45.0354333
  39.5704483   8.1995394  45.2457657  38.1338432   8.2172484  45.7229737
  58.5521399  30.1860445  35.8416734  59.1899809  30.0667193  35.1380074
  58.4342241  31.1341289  35.9004686  55.3611105  30.1387873  35.7778259
  55.0229616  30.0228938  34.8898793  56.2300873  29.7379039  35.7579265
  51.2197921  31.9923350  31.7675149  50.6562786  31.9013287  30.9991437
  51.1050316  31.1723254  32.2477642  55.8430888  31.2922725  41.7364464
  55.8319529  30.8975523  40.8644968  56.0051527  30.5588798  42.3298236
  48.7662352  33.4874541  34.6059370  49.5583644  33.1465366  34.1905669
  49.0059003  33.5969517  35.5261523  56.7997479  35.6594318  27.0789614
  56.1485459  36.2448398  26.6923628  57.5941842  36.1900512  27.1384652
  50.7253106  32.7483455  27.4776749  51.4983982  32.2012442  27.3389625
  51.0778505  33.6127704  27.6891210  52.5638149  34.0759837  40.6843648
  52.2728015  34.9805468  40.5690314  53.1995133  34.1176365  41.3987718
  53.4894356  31.4536686  37.2745008  54.0857928  31.2292708  36.5601971
  53.5469327  30.7121431  37.8770456  53.0619384  28.9076121  25.1095199
  53.3144905  28.3857642  24.3478662  52.1243943  28.7442266  25.2121882
  58.1062667  27.9111899  32.9169942  58.8925756  27.4931322  32.5660359
  58.3701371  28.8157991  33.0851590  58.2772744  33.3484750  27.6158599
  57.6418577  33.4219376  28.3279503  57.9470151  33.9378348  26.9377678
  63.5071094  27.8487132  33.8202920  64.2396266  27.2786349  34.0540750
  62.7510450  27.4608733  34.2609426  52.7815673  30.8104227  27.3119574
  52.6651931  30.1349130  27.9800658  52.8917933  30.3236601  26.4951727
  55.1247214  30.2714374  31.0166263  54.7605421  29.7444995  31.7279184
  55.9814330  29.8812843  30.8432748  61.0296515  21.5608707  38.2797529
  60.6979839  22.4304117  38.0558744  60.4342128  21.2444991  38.9591559
  54.7652701  25.3004274  26.0127611  54.9327103  26.1684510  26.3798082
  54.5749870  25.4631555  25.0888901  57.5228034  33.7621253  37.6793442
  57.2228757  34.6646291  37.5709249  57.1779094  33.4953436  38.5314595
  50.9740516  30.2135049  33.7130146  50.0491012  30.0811263  33.9207838
  51.2224929  30.9929269  34.2100089  60.9225178  26.2803793  35.3590879
  60.0142055  26.2119201  35.0649640  60.8712774  26.7575738  36.1872705
  54.7441922  27.7561931  26.9974278  54.6241547  28.2018982  27.8359758
  54.0494510  28.1047249  26.4387816  48.3349327  29.8568323  34.5473935
  48.4641708  30.1102802  35.4613347  47.6546778  30.4496031  34.2278590
  52.5048814  40.5265573  30.6464409  52.4272844  41.4773398  30.7252890
  51.9010457  40.1811445  31.3039336  54.9966044  27.6993438  43.3025776
  54.2199378  28.2587358  43.2928641  55.6356607  28.1850221  43.8240646
  62.7886824  24.4820231  37.1368753  62.1461204  24.7752764  36.4908548
  62.2841753  24.3673151  37.9421950  60.4426988  28.2283404  27.8254612
  61.3544844  28.4610791  27.6502310  59.9336635  28.8120448  27.2629691
  53.2512416  30.5078892  42.8643743  53.9927100  31.0463936  42.5878567
  52.5449401  31.1345180  43.0215295  58.7267756  32.6508032  41.4615905
  59.1351112  32.2090443  40.7170537  58.0045017  32.0760660  41.7150098
  55.0798826  27.5880639  38.8349462  55.9260021  28.0120052  38.9784111
  55.0197463  26.9314263  39.5288025  59.0496570  33.2109223  35.2168194
  58.4205433  33.3754937  34.5144262  58.6622232  33.6250832  35.9879158
  62.9285802  34.1463661  32.5712557  62.2436840  34.5262562  32.0209591
  63.0129651  34.7558987  33.3044505  58.2298271  25.2485007  40.4930635
  57.9859203  26.0027068  39.9564911  58.5058201  25.6270355  41.3277882
  60.1836734  31.7923620  39.1707901  60.3953629  32.4355380  38.4942282
  60.1366482  30.9585936  38.7029831  57.7862963  24.4041440  36.0744473
  56.9247442  24.7022694  36.3661211  57.8125397  24.6211839  35.1425506
  54.6024532  32.9483631  32.4818279  55.0662878  33.2271334  31.6922901
  54.3381330  32.0467075  32.2991369  51.4948613  32.4955112  35.4198042
  52.0649970  32.9242381  34.7815527  52.0856725  32.2137697  36.1182228
  53.5393418  29.0706783  29.2907844  54.2417461  29.5227827  29.7581770
  53.2074047  28.4290602  29.9187737  51.9873780  27.6618540  43.6659053
  51.3572440  28.3434821  43.8994450  51.8809868  27.5501621  42.7212192
  47.2818752  27.3290336  34.5924977  46.4917806  27.5847864  34.1165088
  47.7729999  28.1438674  34.6977018  61.2982562  34.6695575  37.3430258
  62.1200005  34.2675762  37.0612940  61.2944965  34.5663809  38.2946374
  49.2333497  27.6934915  31.5508454  48.4364661  27.8053609  32.0691950
  49.0059090  28.0321567  30.6849345  55.0639165  34.2179618  39.4990969
  55.1283598  34.6800026  40.3349141  54.3550089  33.5876983  39.6273279
  45.5656455  27.5820826  37.0239968  45.8164494  28.4667836  37.2897544
  46.1016003  27.4025428  36.2515060  69.3888555  31.0134324  33.6915230
  68.6352263  30.4441722  33.5359234  69.5236096  30.9796988  34.6385864
  54.7787183  35.8847726  29.3669949  54.6432858  36.7299262  29.7954797
  55.3196995  36.0867003  28.6035883  51.2654522  21.9639306  46.0284304
  50.8721468  21.4105504  46.7031949  52.0820663  22.2749884  46.4190822
  48.2316580  33.4023164  29.9397874  48.7441101  34.1966414  30.0903439
  48.8839293  32.7049454  29.8731476  50.0411465  36.5188920  32.0220627
  50.2178093  37.4406885  31.8341611  50.8368298  36.2047339  32.4515007
  54.1822483  23.3797185  43.6204561  54.9232197  23.9804338  43.5409023
  54.4140406  22.6374823  43.0622604  49.3263821  28.5653552  41.8982791
  49.2117337  27.6638809  42.1989890  48.4708339  28.8117249  41.5467607
  56.4055659  36.5071292  43.4970291  55.9619513  35.7207671  43.1791196
  57.0672873  36.6950443  42.8314182  51.1642780  38.0367094  38.0230970
  51.7150205  37.9084157  37.2507964  50.3254256  38.3361983  37.6725863
  58.5036897  36.7874092  41.5251693  58.4855373  37.6082973  41.0331962
  59.4256817  36.6628167  41.7501834  54.9609951  34.3018222  42.3675201
  55.4938288  33.5406510  42.1374509  54.4324032  34.0091874  43.1099355
  58.1279646  19.4078288  37.8968843  57.7843916  20.2979929  37.8207953
  58.4958609  19.2179945  37.0338428  46.1965497  31.7311818  30.7157445
  47.0340719  32.1408827  30.4991152  46.3743765  30.7911260  30.6857639
  58.0929929  29.3986899  26.4041278  57.5776552  30.1691503  26.6429665
  57.8207237  28.7252035  27.0274339  55.6777040  24.2436600  31.4626516
  54.8218636  23.8543450  31.2832155  56.0903992  24.3228560  30.6026302
  57.2076187  21.7782943  35.8618076  56.7040982  21.7413078  35.0485881
  57.5006794  22.6875686  35.9214733  53.4519073  21.8621673  34.8684258
  54.3172069  21.6664481  34.5090147  53.5196582  21.6332024  35.7953614
  63.0664203  32.1519253  28.3394451  62.2893646  31.8130413  27.8949613
  63.7455684  32.1571877  27.6649416  57.8816232  27.2713991  28.2301059
  57.5766368  27.5860140  29.0811202  58.8346674  27.3495411  28.2728392
  56.3262664  33.4304214  29.8794013  55.7984026  32.6956974  29.5667250
  55.8250167  34.2078891  29.6333981  61.3055510  31.6253235  34.9961059
  60.6479185  32.3152496  35.0841188  62.1095909  32.0149667  35.3395046
  51.0581392  24.0923881  32.2400624  51.6325144  23.8699062  31.5073817
  51.6452374  24.1612575  32.9929226  60.1160969  29.9797607  33.0465001
  60.6292851  30.6127599  33.5486711  60.7662193  29.3798803  32.6808361
  51.3850979  26.1228342  26.2596510  50.5488291  26.4603028  26.5805784
  51.2455748  25.9877321  25.3223647  53.3604059  20.9665129  30.9675694
  52.7068472  20.6514147  30.3432309  53.3184534  20.3440870  31.6935517
  54.4715264  31.2484424  22.8828986  53.5642326  31.0173678  23.0820135
  54.9686296  30.4522044  23.0702967  57.3783343  39.9581932  25.8025672
  56.7045042  40.2613628  26.4110630  57.7649165  40.7611012  25.4531129
  56.5941800  27.4547063  35.2923341  55.6764361  27.6762010  35.1345030
  57.0101943  27.5293373  34.4335049  57.3776848  28.8538479  30.4226022
  58.1248666  29.3659876  30.1133144  57.6468437  28.5322531  31.2830415
  55.6503498  31.3497019  27.4052976  54.7414717  31.0656052  27.5025446
  55.6798581  31.7696098  26.5456283  60.8822765  34.9603609  31.1744144
  60.4285092  34.1194519  31.2309334  60.2516732  35.5965007  31.5118924
  59.8255685  25.8895595  32.4044811  59.0878441  25.3772981  32.7355054
  60.0782458  25.4495976  31.5928088  59.3255704  36.7980106  32.1093962
  59.6178679  37.3585163  31.3906327  59.8354325  37.0908667  32.8647121
  59.9267312  18.6671847  32.9986580  60.2326189  17.8069210  32.7112495
  60.6519917  19.2589467  32.7985574  46.2191668  29.0702533  31.3868178
  46.0216068  28.4771894  30.6619245  45.6638332  28.7654744  32.1044117
  54.1988392  28.9625640  33.5062771  54.2537002  28.0099476  33.4305248
  53.3879594  29.1185079  33.9904070  55.3479585  32.8905763  24.7441055
  54.9099015  32.1741622  24.2846692  56.0890026  33.1181878  24.1826146
  52.1380752  27.5802700  31.2653150  51.3248617  27.8796870  31.6718342
  52.6339746  27.1858388  31.9827632  54.2889330  37.5760457  33.1987415
  54.2465508  37.8021303  32.2695947  55.2052028  37.3423831  33.3473216
  57.7354963  28.0444524  40.0968044  58.0904351  28.2715997  40.9562510
  58.3827095  28.3762901  39.4745299  63.4652700  31.1662960  30.8017373
  63.3270599  31.3564556  29.8738562  63.1088919  31.9282343  31.2585424
  51.6294826  25.1521055  36.8814385  52.2694206  25.0109814  36.1837349
  50.7972357  24.8655569  36.5052987  63.4922080  33.2339487  35.8128645
  63.9258587  33.1414776  36.6611699  64.2053661  33.2096988  35.1748661
  52.4055130  34.4523486  32.9949378  53.1995729  33.9573806  32.7931953
  51.6946823  33.9241349  32.6317083  57.2249975  36.8341581  37.3461745
  57.2786997  37.4032517  38.1139461  56.3564756  37.0043466  36.9815782
  48.7137894  28.5966567  29.0709130  47.7835482  28.5351023  29.2879092
  48.8095366  28.0742520  28.2745772  48.6323443  25.1221380  31.6587372
  48.8930260  26.0366713  31.5496532  49.4540615  24.6545823  31.8083985
  50.1048368  26.5359137  38.8286197  50.7771422  26.3276500  38.1798845
  49.2778155  26.3381223  38.3891429  64.3537629  33.2763188  38.3461530
  64.5473520  34.1808998  38.5920805  64.2538248  32.8170607  39.1800115
  56.0073940  23.1621078  40.8451857  55.3601855  23.8611028  40.7516334
  56.7774956  23.5957222  41.2128106  59.4152738  33.4269930  43.9202411
  59.2638245  33.1980482  43.0032494  59.4057418  34.3840532  43.9333756
  56.1838075  31.0001843  38.9048677  57.1130135  31.1513003  38.7317644
  55.7629105  31.0885864  38.0497324  54.9826406  35.0252508  36.6747215
  54.8437492  34.6571292  37.5473153  54.1941003  35.5400147  36.5031173
  55.5774558  40.1261604  28.0172751  55.7526314  39.6549647  28.8318374
  54.8907346  40.7527370  28.2454012  56.5331621  34.4034110  34.0636053
  56.1981454  34.3634880  34.9593702  56.0335567  33.7378826  33.5906463
  50.5075865  29.8101740  39.5888634  50.3695663  29.0781979  40.1900173
  51.4180789  29.7210640  39.3072821  59.4690813  31.7490145  24.3373112
  58.8519984  31.0236973  24.2406165  59.0007302  32.5099505  23.9940186
  53.1358166  29.5221700  39.0772313  53.8457785  28.8814892  39.0358932
  53.0927474  29.7734595  39.9998494  61.1244945  36.4589053  41.9978893
  61.0657491  35.7748273  41.3309476  61.5264463  37.2008043  41.5459519
  51.8487100  26.5086918  40.8967953  51.3124457  26.0577656  41.5489549
  51.2603809  26.6432826  40.1538417  50.1435644  43.2750967  34.7912611
  50.3832242  43.9069491  35.4691630  49.3004840  42.9239007  35.0777971
  51.2589359  25.9675569  23.4594416  50.3818825  25.8464370  23.0956663
  51.7347112  25.1761647  23.2073305  61.1262352  34.4228637  40.2292872
  60.2389131  34.0854559  40.3519271  61.6960903  33.6911668  40.4661638
  42.7791499  30.7552729  33.5535924  43.4662539  30.4414459  32.9656939
  42.6239628  31.6594093  33.2803175  47.5826221  25.6442925  37.9820947
  47.4984410  25.0368595  37.2471357  46.7608928  26.1351944  37.9830444
  54.6563505  39.0830089  37.1954115  54.5833677  39.8885061  37.7073420
  54.2140899  39.2822055  36.3702137  54.4453285  38.3201859  30.7056937
  53.6620807  38.8623540  30.7995161  55.1446030  38.8375839  31.1051178
  57.7549935  24.1296489  33.3491142  58.2518635  23.3766451  33.0292213
  56.9836917  24.1660805  32.7834352  65.6079693  29.8336854  34.9909434
  65.5969569  30.7161570  34.6203367  64.7397072  29.4808405  34.7963971
  57.1162189  38.9816923  39.3512274  57.8290161  39.6164388  39.2788176
  56.6252218  39.0780789  38.5352276  58.8379716  32.8868176  30.9229566
  57.9035995  33.0069638  30.7534270  59.0156384  31.9840643  30.6589576
  54.3384904  26.2713872  33.0762827  53.9682691  25.7184912  33.7643733
  54.8343996  25.6672005  32.5237827  62.2252267  28.7285495  31.4579600
  62.6912719  29.5613487  31.3839903  62.6759768  28.2630477  32.1624858
  52.1674102  36.7311367  40.1717845  52.8683562  37.3647850  40.3247239
  51.6969217  37.0726098  39.4113484  60.2928498  35.0729317  28.4565752
  60.5688342  34.9585911  29.3659626  59.4232997  34.6746801  28.4177925
  60.1968930  21.0966082  35.4970501  59.2832010  21.3270309  35.6652708
  60.6262031  21.1804526  36.3484534  59.9675388  29.2855974  37.9970395
  59.3146839  29.5331882  37.3422848  60.3455768  28.4720112  37.6632873
  56.9282562  39.3215667  32.0998566  57.1104957  38.5037323  32.5626318
  57.7515548  39.5383360  31.6623456  57.2624728  38.2483853  29.3613614
  57.7912494  37.7376307  28.7483776  57.5252947  37.9326383  30.2259147
  56.0162961  30.0275785  44.4836432  55.3403598  29.9269915  45.1538808
  56.8390595  29.8714999  44.9472430  47.7641821  36.2647722  37.1048948
  48.3495257  35.5191410  37.2376852  47.5666659  36.5751679  37.9885611
  50.6180476  39.2998969  32.1211390  49.9490851  39.7845097  31.6375430
  50.4793345  39.5468190  33.0354769  42.3559475  28.8353322  35.8253391
  42.3943575  28.3016913  36.6190509  41.8499768  28.3088528  35.2064368
  54.7585744  41.3342713  38.7194048  55.3104052  41.4974334  39.4843134
  55.0991938  41.9247151  38.0474073  49.7350238  23.6817863  39.3215933
  49.7991564  24.5432693  38.9093331  49.6717358  23.0691864  38.5888292
  49.2102510  25.7540995  42.9688967  49.8374549  25.3718072  43.5826492
  48.3530429  25.5355197  43.3344660  59.6096619  36.1603970  44.5742703
  60.1536523  36.7733929  44.0797658  59.0283464  36.7183549  45.0909716
  45.9868053  27.5617424  28.9007322  46.2821494  26.6528103  28.8474376
  45.0856089  27.5405164  28.5788324  57.8954132  39.2824688  35.7057731
  57.7705271  38.4814428  35.1968676  58.5533223  39.7770882  35.2171700
  49.5162300  25.6373421  34.8834871  48.7948886  26.2509388  34.7442344
  50.3055556  26.1731186  34.8051517  59.9589040  37.0833708  37.3337281
  59.0119376  36.9639060  37.2615607  60.3071813  36.1956206  37.4163542
  52.3188613  22.9727847  41.1575522  52.8423015  23.2190144  41.9201832
  52.1000947  23.8047882  40.7378660  47.7155894  25.2431522  29.0246647
  47.3868601  24.3628901  28.8421753  48.0695265  25.1879191  29.9123037
  56.9635473  36.8786425  33.5341633  56.8160436  35.9503132  33.7149203
  57.7888967  36.9006515  33.0498708  50.8297718  25.5304492  29.3922125
  51.1693790  26.0590413  28.6700733  51.2769838  25.8684898  30.1680691
  60.5669595  37.7014983  34.6206506  61.4916143  37.4957845  34.4830957
  60.3984899  37.4531384  35.5295847  53.5241158  23.9141542  38.8425193
  53.1837979  23.1149355  39.2445873  52.8180165  24.2143253  38.2702026
  54.1757630  20.9990855  37.2952516  54.9983700  20.5251333  37.1731406
  54.4195694  21.7781339  37.7951202  52.8165865  24.0279113  27.5915418
  53.5374227  24.4060366  27.0879135  52.1931169  24.7467990  27.6950396
  56.9596988  24.7324262  28.5273750  57.1760602  25.6148900  28.2262578
  56.4791055  24.3410476  27.7979392  51.6996209  27.6909975  35.1044495
  51.5540790  28.0050279  35.9968776  51.2221413  28.3094876  34.5515393
  53.5592592  24.6812523  35.1525384  53.5454161  23.7853617  34.8157682
  54.2765020  24.6883187  35.7863670  55.4118723  25.1149864  37.1978512
  55.1536500  26.0366934  37.1962842  54.8803763  24.7180298  37.8878976
  60.3564911  38.2200651  29.9768597  60.5301789  37.6547073  29.2242449
  60.8493803  39.0201546  29.7948087  46.1741871  30.2315320  38.0432156
  45.6295339  31.0075128  38.1752430  47.0521221  30.5786124  37.8851277
  52.9629488  23.5626904  30.4212954  53.0845399  22.6343550  30.6203842
  52.6731530  23.5765590  29.5091270  55.8320678  21.2481814  33.5579674
  55.8542375  21.3121147  32.6031654  56.2488737  20.4086323  33.7520180
  66.2104303  30.9837074  31.5958897  66.6535449  30.2344399  31.1978020
  65.3330813  30.9747210  31.2132629  61.3440084  37.5367415  27.0765495
  62.0390988  38.1574108  27.2952810  61.6863234  36.6862766  27.3517873
  46.9607893  29.3585216  40.9362313  46.2189629  29.5067851  41.5226943
  46.6400637  29.6193482  40.0729062  63.2431507  34.9867121  28.6052826
  63.7682831  35.3254393  27.8802146  63.1553860  34.0514136  28.4215961
  54.9051556  38.9001194  40.7342703  55.2138682  38.6550341  41.6065402
  55.7027038  39.1047833  40.2461573  54.9272168  41.0539104  32.9648079
  54.4877158  40.5615483  33.6580936  55.6780285  40.5112072  32.7240154
  47.4064507  37.2450645  32.9672707  48.2322527  36.9454417  32.5871351
  47.0558559  36.4758267  33.4162496  52.3746040  36.5977113  35.0370381
  51.7526049  35.9347818  34.7372609  53.0450907  36.6238245  34.3544029
  45.6073112  35.1636971  33.9261641  44.7705020  34.7359146  33.7445642
  45.5796757  35.3569415  34.8632432  52.4470567  25.0758901  44.6302887
  52.4958723  25.9521024  44.2480657  52.9893082  24.5336294  44.0574530
  62.9325413  35.6200024  43.9104024  62.1420957  35.6024163  43.3708523
  62.6958768  36.1588318  44.6653061  63.0523288  32.4692491  41.2236753
  63.1021293  32.3042498  42.1652275  62.9437211  31.6019750  40.8334633
  51.9359547  35.1481036  28.5128841  52.0847667  35.8316501  27.8595514
  52.7425990  35.1286126  29.0278297  60.3427050  28.4523419  42.5396059
  61.2436913  28.3129884  42.2480057  60.4175025  28.6177874  43.4794237
  54.6769856  25.8290273  41.3849246  53.8073165  26.1223840  41.1131834
  54.9129336  26.4130718  42.1056509  64.5541485  34.8889432  41.4678774
  64.2626293  35.2519413  42.3042235  63.9413616  34.1756441  41.2892106
  65.7537167  32.4542312  33.9881344  66.5884059  32.8932116  34.1518905
  65.8896296  31.9780965  33.1689590  62.8028673  30.0122047  39.9358832
  63.2782795  30.2049693  39.1277683  61.8794239  30.0681233  39.6902216
  49.6912180  31.1746214  29.5189910  49.4458222  30.2708544  29.7170121
  49.8608094  31.1763364  28.5769388  57.3808890  22.0469890  38.9014666
  57.8990834  22.7830917  38.5761155  57.0264022  22.3533884  39.7361425
  48.9607827  26.9074572  27.0176072  48.2677072  26.9818927  26.3616108
  48.7159579  26.1434915  27.5397589  57.6321484  18.4670173  34.4215563
  57.9123238  17.7993362  35.0475989  58.4172091  18.6599269  33.9090226
  55.4354952  37.6429167  25.9840589  54.8628919  38.2619354  25.5311061
  56.0087746  38.1928529  26.5180511  61.5030342  26.8887807  38.1687138
  62.4547765  26.9885905  38.1899362  61.3333793  26.0966075  38.6785222
  59.5244722  23.9743390  38.3546539  58.9294654  24.2548403  37.6593027
  59.2394418  24.4637291  39.1263280  58.6552212  37.9266317  27.1149171
  59.5882885  37.8611879  27.3182047  58.5675425  38.7622584  26.6563704
  61.2840229  37.2432187  24.0753119  61.2053860  36.9092051  24.9688877
  62.1049896  37.7353955  24.0744591  63.9818420  30.1093927  37.2829437
  63.9494740  29.1709927  37.4689121  64.5919044  30.1877963  36.5495262
  55.8201751  28.9789980  23.3256641  56.7660856  28.8496188  23.3945059
  55.4415996  28.2404642  23.8026070  64.1312908  26.9004970  37.3287721
  63.6151957  26.1163427  37.1417649  65.0152857  26.5723687  37.4934240
  61.7923635  20.6445986  33.2883533  61.5948456  20.3361074  34.1726865
  62.4023341  21.3707625  33.4181463  69.7994970  31.1709933  36.4235474
  70.5298358  30.9095222  36.9843177  69.1901915  30.4338655  36.4637542
  67.8810267  29.3117796  37.0209925  67.1543430  29.1773761  36.4126417
  67.4657554  29.6194625  37.8266643  55.7040443  33.0307726  44.7857298
  56.6243453  33.2086325  44.9797345  55.6690026  32.0863771  44.6336998
  54.0044668  26.9039956  23.2611527  53.0976123  26.6073069  23.3374240
  54.2820649  26.6069774  22.3945813  44.9222608  28.2246319  33.7110573
  44.6025393  27.3711628  33.4184947  44.3756037  28.4394898  34.4668540
  48.7002516  30.9408760  37.4280080  48.9188526  31.8725868  37.4468113
  49.1128290  30.5816735  38.2134883  55.6206734  21.4476846  29.4155768
  54.8107462  21.1023931  29.7911014  56.3091151  21.1384389  30.0043379
  57.5497282  20.5254893  31.0380065  58.1028321  20.9450346  31.6970088
  57.7867368  19.5990641  31.0803021  53.5730381  26.5141966  46.8182828
  53.4727108  27.4636323  46.7494920  53.3551923  26.1860205  45.9458899
  52.7743453  23.7626891  23.4023506  53.6362617  24.0881790  23.6619323
  52.9593797  22.9758387  22.8896572  44.7910868  31.8449231  35.6803695
  44.0974340  31.4303184  35.1673649  45.5383859  31.8869767  35.0837113
  60.9276089  22.6355418  30.5458729  60.3474758  23.2940222  30.1636781
  60.6612022  21.8132762  30.1346146  59.3779655  22.0360475  32.7480049
  59.8779434  22.1477010  31.9394368  60.0215263  21.7321528  33.3880858
  53.4361651  29.9439105  45.6347890  52.9528733  30.7439465  45.8411779
  53.5222590  29.9547050  44.6815334  46.7047611  31.7767485  33.5569709
  46.6818299  31.8755172  32.6051593  47.0148247  32.6232635  33.8786876
  49.3634989  33.8343640  37.6716324  50.3178242  33.8027582  37.6046255
  49.1647512  33.3734263  38.4866550  49.9534371  32.4044756  40.2387122
  50.7727260  32.8988834  40.2621959  50.2271179  31.4876724  40.2104689
  59.7100967  24.7955508  29.6015077  58.8226822  25.0805159  29.3835272
  60.1254956  24.6349271  28.7542354  63.0615503  24.8202029  33.3169416
  63.8375893  25.3098481  33.5894033  62.3363637  25.2460083  33.7741286
  65.4988062  25.5329648  34.3743357  66.0932553  25.2925384  33.6636665
  65.5714646  24.8136779  35.0016893  47.7185218  39.3763259  34.6886522
  47.5839685  38.6163660  34.1224520  47.3017280  40.1004159  34.2215311
  58.8544181  34.5600183  23.6963097  59.5580031  34.7650185  24.3120753
  58.1306829  35.1276945  23.9612181  59.6841991  30.3110044  29.8165367
  59.6277192  30.7678595  28.9773000  60.2370333  29.5500729  29.6388210
  63.4946797  26.0999776  30.6415487  63.2383731  25.6996412  31.4723694
  62.8699665  26.8143570  30.5165626  67.8059135  28.8395849  33.1486778
  67.2458693  28.9089038  33.9218340  67.2002638  28.6636834  32.4286274
  50.8754343  40.2732576  34.9004964  50.7586728  41.2178009  34.7983655
  50.0546790  39.9706138  35.2890764  60.7630878  34.9982712  25.7461557
  61.5976482  34.5663910  25.5639032  60.6015221  34.8264726  26.6738452
  60.4176770  31.5014825  27.1117896  60.3625574  31.3359097  26.1706341
  59.7922825  32.2090858  27.2680086  45.2069285  26.7382890  40.9379319
  45.8528149  26.2281844  41.4266544  44.9986436  27.4751571  41.5122744
  57.7322677  33.8063737  46.4371459  58.6013837  33.9804389  46.0758094
  57.2529429  34.6258154  46.3147189  53.7272896  21.0022934  26.6903215
  53.7151565  21.9464774  26.8471486  54.6196317  20.8193080  26.3962676
  51.9008858  40.9260838  38.1160893  52.8036104  40.9584448  38.4327388
  51.6746228  39.9961289  38.1307229  53.6562460  39.6791825  34.7770971
  52.7058091  39.6793686  34.6635344  53.9594946  38.9324559  34.2607006
  57.5425015  17.5965711  30.9449152  56.7757411  17.0424198  31.0905834
  57.9535720  17.6687580  31.8063303  49.5466776  23.8850507  45.0354333
  50.4098238  23.5287312  45.2457657  48.9732187  23.5464402  45.7229737
  62.1048277  37.2931223  46.0284304  61.7115222  36.7397422  46.7031949
  62.9214417  37.6041802  46.4190822  60.1657576  43.8945470  41.8982791
  60.0511091  42.9930727  42.1989890  59.3102094  44.1409166  41.5467607
  57.0359251  47.0603736  30.7157445  57.8734473  47.4700744  30.4991152
  57.2137519  46.1203178  30.6857639  64.2912827  37.1913590  34.8684258
  65.1565824  36.9956399  34.5090147  64.3590336  36.9623942  35.7953614
  61.8975146  39.4215798  32.2400624  62.4718898  39.1990980  31.5073817
  62.4846129  39.4904493  32.9929226  64.1997814  36.2957047  30.9675694
  63.5462226  35.9806064  30.3432309  64.1578288  35.6732788  31.6935517
  65.3109019  46.5776342  22.8828986  64.4036080  46.3465596  23.0820135
  65.8080051  45.7813961  23.0702967  70.7661066  33.9963765  32.9986580
  71.0719943  33.1361128  32.7112495  71.4913671  34.5881385  32.7985574
  57.0585423  44.3994451  31.3868178  56.8609822  43.8063812  30.6619245
  56.5032087  44.0946661  32.1044117  59.5531648  43.9258485  29.0709130
  58.6229236  43.8642941  29.2879092  59.6489120  43.4034438  28.2745772
  59.4717197  40.4513298  31.6587372  59.7324015  41.3658631  31.5496532
  60.2934370  39.9837740  31.8083985  62.0983114  41.2967487  23.4594416
  61.2212580  41.1756287  23.0956663  62.5740867  40.5053565  23.2073305
  53.6185254  46.0844646  33.5535924  54.3056293  45.7706376  32.9656939
  53.4633382  46.9886011  33.2803175  53.1953230  44.1645240  35.8253391
  53.2337329  43.6308830  36.6190509  52.6893523  43.6380445  35.2064368
  60.5743992  39.0109780  39.3215933  60.6385319  39.8724611  38.9093331
  60.5111112  38.3983782  38.5888292  60.0496265  41.0832913  42.9688967
  60.6768303  40.7009990  43.5826492  59.1924183  40.8647115  43.3344660
  56.8261807  42.8909342  28.9007322  57.1215248  41.9820020  28.8474376
  55.9249843  42.8697081  28.5788324  63.1582368  38.3019765  41.1575522
  63.6816770  38.5482062  41.9201832  62.9394701  39.1339800  40.7378660
  58.5549649  40.5723440  29.0246647  58.2262355  39.6920818  28.8421753
  58.9089020  40.5171108  29.9123037  66.6714433  36.5773732  33.5579674
  66.6936130  36.6413065  32.6031654  67.0882492  35.7378240  33.7520180
  57.8001648  44.6877134  40.9362313  57.0583384  44.8359769  41.5226943
  57.4794392  44.9485399  40.0729062  59.8001582  42.2366489  27.0176072
  59.1070827  42.3110844  26.3616108  59.5553334  41.4726833  27.5397589
  68.4715238  33.7962091  34.4215563  68.7516992  33.1285280  35.0475989
  69.2565845  33.9891186  33.9090226  66.6595505  44.3081897  23.3256641
  67.6054610  44.1788105  23.3945059  66.2809750  43.5696559  23.8026070
  55.7616363  43.5538237  33.7110573  55.4419147  42.7003545  33.4184947
  55.2149791  43.7686815  34.4668540  66.4600488  36.7768763  29.4155768
  65.6501216  36.4315848  29.7911014  67.1484905  36.4676307  30.0043379
  68.3891036  35.8546810  31.0380065  68.9422075  36.2742264  31.6970088
  68.6261123  34.9282558  31.0803021  63.6137207  39.0918809  23.4023506
  64.4756371  39.4173707  23.6619323  63.7987551  38.3050305  22.8896572
  55.6304623  47.1741149  35.6803695  54.9368094  46.7595101  35.1673649
  56.3777614  47.2161685  35.0837113  57.5441365  47.1059402  33.5569709
  57.5212053  47.2047090  32.6051593  57.8542002  47.9524553  33.8786876
  56.0463040  42.0674807  40.9379319  56.6921903  41.5573761  41.4266544
  55.8380191  42.8043489  41.5122744  64.5666650  36.3314852  26.6903215
  64.5545320  37.2756692  26.8471486  65.4590072  36.1484997  26.3962676
  68.3818770  32.9257629  30.9449152  67.6151165  32.3716115  31.0905834
  68.7929475  32.9979497  31.8063303  60.3860531  39.2142424  45.0354333
  61.2491992  38.8579229  45.2457657  59.8125941  38.8756319  45.7229737
  78.4784988  66.3178153  27.0789614  77.8272968  66.9032233  26.6923628
  79.2729351  66.8484348  27.1384652  79.9560253  64.0068585  27.6158599
  79.3206086  64.0803211  28.3279503  79.6257660  64.5962184  26.9377678
  85.1858603  58.5070968  33.8202920  85.9183775  57.9370185  34.0540750
  84.4297959  58.1192568  34.2609426  74.1836323  71.1849408  30.6464409
  74.1060353  72.1357233  30.7252890  73.5797966  70.8395281  31.3039336
  82.1214497  58.8867240  27.8254612  83.0332353  59.1194626  27.6502310
  81.6124144  59.4704284  27.2629691  91.0676064  61.6718159  33.6915230
  90.3139772  61.1025557  33.5359234  91.2023605  61.6380823  34.6385864
  76.4574692  66.5431561  29.3669949  76.3220367  67.3883097  29.7954797
  76.9984504  66.7450839  28.6035883  79.7717438  60.0570734  26.4041278
  79.2564061  60.8275339  26.6429665  79.4994746  59.3835870  27.0274339
  84.7451712  62.8103089  28.3394451  83.9681155  62.4714248  27.8949613
  85.4243193  62.8155712  27.6649416  76.1502773  61.9068260  22.8828986
  75.2429835  61.6757513  23.0820135  76.6473805  61.1105879  23.0702967
  79.0570852  70.6165767  25.8025672  78.3832551  70.9197464  26.4110630
  79.4436674  71.4194847  25.4531129  77.0267094  63.5489598  24.7441055
  76.5886524  62.8325457  24.2846692  77.7677535  63.7765713  24.1826146
  75.9676839  68.2344292  33.1987415  75.9253017  68.4605138  32.2695947
  76.8839537  68.0007667  33.3473216  85.1440209  61.8246795  30.8017373
  85.0058108  62.0148391  29.8738562  84.7876428  62.5866178  31.2585424
  77.2562067  70.7845439  28.0172751  77.4313823  70.3133483  28.8318374
  76.5694855  71.4111206  28.2454012  81.1478322  62.4073980  24.3373112
  80.5307493  61.6820808  24.2406165  80.6794811  63.1683340  23.9940186
  76.1240794  68.9785695  30.7056937  75.3408316  69.5207375  30.7995161
  76.8233539  69.4959674  31.1051178  87.2867202  60.4920690  34.9909434
  87.2757078  61.3745405  34.6203367  86.4184581  60.1392241  34.7963971
  83.9039776  59.3869331  31.4579600  84.3700228  60.2197322  31.3839903
  84.3547277  58.9214312  32.1624858  81.9716007  65.7313152  28.4565752
  82.2475851  65.6169747  29.3659626  81.1020506  65.3330637  28.4177925
  76.4373253  71.9926548  38.7194048  76.9891561  72.1558170  39.4843134
  76.7779447  72.5830986  38.0474073  81.2884128  66.8187806  44.5742703
  81.8324032  67.4317764  44.0797658  80.7070973  67.3767384  45.0909716
  87.8891812  61.6420909  31.5958897  88.3322958  60.8928234  31.1978020
  87.0118322  61.6331045  31.2132629  83.0227593  68.1951251  27.0765495
  83.7178497  68.8157943  27.2952810  83.3650743  67.3446602  27.3517873
  84.9219016  65.6450956  28.6052826  85.4470340  65.9838229  27.8802146
  84.8341369  64.7097971  28.4215961  76.6059677  71.7122939  32.9648079
  76.1664667  71.2199318  33.6580936  77.3567794  71.1695907  32.7240154
  84.6112922  66.2783860  43.9104024  83.8208466  66.2607999  43.3708523
  84.3746277  66.8172153  44.6653061  86.2328994  65.5473268  41.4678774
  85.9413802  65.9103248  42.3042235  85.6201125  64.8340276  41.2892106
  87.4324676  63.1126147  33.9881344  88.2671568  63.5515951  34.1518905
  87.5683805  62.6364801  33.1689590  77.1142461  68.3013002  25.9840589
  76.5416428  68.9203189  25.5311061  77.6875255  68.8512364  26.5180511
  80.3339721  68.5850152  27.1149171  81.2670394  68.5195714  27.3182047
  80.2462934  69.4206419  26.6563704  82.9627738  67.9016023  24.0753119
  82.8841369  67.5675886  24.9688877  83.7837405  68.3937791  24.0744591
  77.4989260  59.6373815  23.3256641  78.4448365  59.5080023  23.3945059
  77.1203505  58.8988477  23.8026070  91.4782479  61.8293769  36.4235474
  92.2085867  61.5679057  36.9843177  90.8689424  61.0922491  36.4637542
  89.5597776  59.9701631  37.0209925  88.8330939  59.8357596  36.4126417
  89.1445063  60.2778460  37.8266643  87.1775571  56.1913484  34.3743357
  87.7720062  55.9509220  33.6636665  87.2502155  55.4720614  35.0016893
  80.5331690  65.2184018  23.6963097  81.2367540  65.4234021  24.3120753
  79.8094338  65.7860780  23.9612181  81.3629500  60.9693879  29.8165367
  81.3064701  61.4262431  28.9773000  81.9157842  60.2084564  29.6388210
  85.1734306  56.7583611  30.6415487  84.9171240  56.3580247  31.4723694
  84.5487174  57.4727405  30.5165626  89.4846644  59.4979684  33.1486778
  88.9246202  59.5672874  33.9218340  88.8790147  59.3220669  32.4286274
  82.4418387  65.6566547  25.7461557  83.2763991  65.2247746  25.5639032
  82.2802730  65.4848561  26.6738452  82.0964279  62.1598661  27.1117896
  82.0413083  61.9942932  26.1706341  81.4710334  62.8674693  27.2680086
  79.4110186  64.4647572  46.4371459  80.2801346  64.6388225  46.0758094
  78.9316938  65.2841989  46.3147189  91.0702662  76.1736198  35.8416734
  91.7081072  76.0542946  35.1380074  90.9523505  77.1217042  35.9004686
  87.8792368  76.1263627  35.7778259  87.5410880  76.0104691  34.8898793
  88.7482136  75.7254792  35.7579265  83.7379184  77.9799103  31.7675149
  83.1744049  77.8889040  30.9991437  83.6231579  77.1599007  32.2477642
  88.3612151  77.2798478  41.7364464  88.3500792  76.8851276  40.8644968
  88.5232791  76.5464551  42.3298236  81.2843616  79.4750295  34.6059370
  82.0764908  79.1341119  34.1905669  81.5240266  79.5845270  35.5261523
  89.3178743  81.6470071  27.0789614  88.6666722  82.2324151  26.6923628
  90.1123106  82.1776266  27.1384652  83.2434370  78.7359208  27.4776749
  84.0165246  78.1888195  27.3389625  83.5959769  79.6003457  27.6891210
  85.0819412  80.0635590  40.6843648  84.7909278  80.9681221  40.5690314
  85.7176397  80.1052118  41.3987718  86.0075619  77.4412439  37.2745008
  86.6039192  77.2168461  36.5601971  86.0650591  76.6997184  37.8770456
  85.5800648  74.8951874  25.1095199  85.8326168  74.3733395  24.3478662
  84.6425207  74.7318019  25.2121882  90.6243931  73.8987652  32.9169942
  91.4107020  73.4807075  32.5660359  90.8882635  74.8033744  33.0851590
  90.7954008  79.3360503  27.6158599  90.1599841  79.4095129  28.3279503
  90.4651414  79.9254101  26.9377678  96.0252358  73.8362885  33.8202920
  96.7577530  73.2662102  34.0540750  95.2691713  73.4484486  34.2609426
  85.2996936  76.7979980  27.3119574  85.1833195  76.1224883  27.9800658
  85.4099196  76.3112354  26.4951727  87.6428477  76.2590127  31.0166263
  87.2786685  75.7320748  31.7279184  88.4995593  75.8688596  30.8432748
  93.5477778  67.5484460  38.2797529  93.2161103  68.4179871  38.0558744
  92.9523391  67.2320744  38.9591559  87.2833964  71.2880027  26.0127611
  87.4508367  72.1560263  26.3798082  87.0931133  71.4507308  25.0888901
  90.0409298  79.7497006  37.6793442  89.7410021  80.6522044  37.5709249
  89.6960357  79.4829189  38.5314595  83.4921779  76.2010802  33.7130146
  82.5672275  76.0687016  33.9207838  83.7406192  76.9805022  34.2100089
  93.4406441  72.2679546  35.3590879  92.5323319  72.1994954  35.0649640
  93.3894037  72.7451491  36.1872705  87.2623185  73.7437684  26.9974278
  87.1422810  74.1894735  27.8359758  86.5675774  74.0923002  26.4387816
  80.8530590  75.8444076  34.5473935  80.9822971  76.0978555  35.4613347
  80.1728041  76.4371784  34.2278590  85.0230077  86.5141326  30.6464409
  84.9454107  87.4649151  30.7252890  84.4191721  86.1687198  31.3039336
  87.5147307  73.6869191  43.3025776  86.7380641  74.2463111  43.2928641
  88.1537870  74.1725974  43.8240646  95.3068088  70.4695984  37.1368753
  94.6642468  70.7628517  36.4908548  94.8023016  70.3548904  37.9421950
  92.9608251  74.2159157  27.8254612  93.8726107  74.4486544  27.6502310
  92.4517898  74.7996202  27.2629691  85.7693679  76.4954645  42.8643743
  86.5108364  77.0339689  42.5878567  85.0630665  77.1220933  43.0215295
  91.2449019  78.6383785  41.4615905  91.6532375  78.1966196  40.7170537
  90.5226281  78.0636413  41.7150098  87.5980089  73.5756392  38.8349462
  88.4441284  73.9995805  38.9784111  87.5378727  72.9190016  39.5288025
  91.5677834  79.1984976  35.2168194  90.9386696  79.3630690  34.5144262
  91.1803496  79.6126585  35.9879158  95.4467066  80.1339414  32.5712557
  94.7618104  80.5138315  32.0209591  95.5310915  80.7434740  33.3044505
  90.7479534  71.2360760  40.4930635  90.5040466  71.9902821  39.9564911
  91.0239465  71.6146108  41.3277882  92.7017997  77.7799373  39.1707901
  92.9134892  78.4231133  38.4942282  92.6547745  76.9461689  38.7029831
  90.3044226  70.3917193  36.0744473  89.4428705  70.6898447  36.3661211
  90.3306661  70.6087592  35.1425506  87.1205796  78.9359384  32.4818279
  87.5844141  79.2147087  31.6922901  86.8562594  78.0342828  32.2991369
  84.0129877  78.4830865  35.4198042  84.5831234  78.9118134  34.7815527
  84.6037988  78.2013450  36.1182228  86.0574682  75.0582536  29.2907844
  86.7598725  75.5103580  29.7581770  85.7255310  74.4166355  29.9187737
  84.5055043  73.6494293  43.6659053  83.8753704  74.3310574  43.8994450
  84.3991131  73.5377374  42.7212192  79.8000016  73.3166089  34.5924977
  79.0099070  73.5723617  34.1165088  80.2911263  74.1314427  34.6977018
  93.8163825  80.6571328  37.3430258  94.6381269  80.2551515  37.0612940
  93.8126228  80.5539562  38.2946374  81.7514761  73.6810668  31.5508454
  80.9545924  73.7929362  32.0691950  81.5240353  74.0197320  30.6849345
  87.5820429  80.2055371  39.4990969  87.6464861  80.6675779  40.3349141
  86.8731352  79.5752736  39.6273279  78.0837719  73.5696579  37.0239968
  78.3345757  74.4543589  37.2897544  78.6197267  73.3901181  36.2515060
 101.9069818  77.0010077  33.6915230 101.1533527  76.4317475  33.5359234
 102.0417359  76.9672741  34.6385864  87.2968446  81.8723479  29.3669949
  87.1614121  82.7175015  29.7954797  87.8378259  82.0742756  28.6035883
  83.7835786  67.9515059  46.0284304  83.3902731  67.3981257  46.7031949
  84.6001926  68.2625637  46.4190822  80.7497844  79.3898917  29.9397874
  81.2622364  80.1842167  30.0903439  81.4020556  78.6925207  29.8731476
  82.5592728  82.5064673  32.0220627  82.7359357  83.4282638  31.8341611
  83.3549562  82.1923092  32.4515007  86.7003747  69.3672938  43.6204561
  87.4413460  69.9680091  43.5409023  86.9321670  68.6250576  43.0622604
  81.8445085  74.5529305  41.8982791  81.7298600  73.6514562  42.1989890
  80.9889603  74.7993002  41.5467607  88.9236923  82.4947045  43.4970291
  88.4800777  81.7083424  43.1791196  89.5854136  82.6826196  42.8314182
  83.6824044  84.0242847  38.0230970  84.2331469  83.8959910  37.2507964
  82.8435520  84.3237736  37.6725863  91.0218161  82.7749845  41.5251693
  91.0036636  83.5958726  41.0331962  91.9438081  82.6503921  41.7501834
  87.4791215  80.2893975  42.3675201  88.0119552  79.5282263  42.1374509
  86.9505296  79.9967627  43.1099355  90.6460910  65.3954041  37.8968843
  90.3025179  66.2855682  37.8207953  91.0139872  65.2055698  37.0338428
  78.7146760  77.7187571  30.7157445  79.5521982  78.1284580  30.4991152
  78.8925028  76.7787013  30.6857639  90.6111193  75.3862652  26.4041278
  90.0957816  76.1567256  26.6429665  90.3388501  74.7127788  27.0274339
  88.1958304  70.2312353  31.4626516  87.3399900  69.8419203  31.2832155
  88.6085255  70.3104313  30.6026302  89.7257450  67.7658696  35.8618076
  89.2222246  67.7288831  35.0485881  90.0188057  68.6751439  35.9214733
  85.9700336  67.8497426  34.8684258  86.8353333  67.6540234  34.5090147
  86.0377845  67.6207777  35.7953614  95.5845467  78.1395006  28.3394451
  94.8074909  77.8006166  27.8949613  96.2636948  78.1447630  27.6649416
  90.3997496  73.2589744  28.2301059  90.0947631  73.5735893  29.0811202
  91.3527938  73.3371164  28.2728392  88.8443928  79.4179967  29.8794013
  88.3165289  78.6832727  29.5667250  88.3431430  80.1954644  29.6333981
  93.8236774  77.6128988  34.9961059  93.1660448  78.3028249  35.0841188
  94.6277173  78.0025420  35.3395046  83.5762655  70.0799634  32.2400624
  84.1506407  69.8574815  31.5073817  84.1633638  70.1488328  32.9929226
  92.6342232  75.9673360  33.0465001  93.1474114  76.6003352  33.5486711
  93.2843456  75.3674556  32.6808361  83.9032242  72.1104095  26.2596510
  83.0669555  72.4478781  26.5805784  83.7637012  71.9753074  25.3223647
  85.8785323  66.9540882  30.9675694  85.2249735  66.6389900  30.3432309
  85.8365797  66.3316623  31.6935517  86.9896528  77.2360178  22.8828986
  86.0823589  77.0049431  23.0820135  87.4867560  76.4397797  23.0702967
  89.8964607  85.9457685  25.8025672  89.2226305  86.2489381  26.4110630
  90.2830429  86.7486765  25.4531129  89.1123063  73.4422816  35.2923341
  88.1945625  73.6637763  35.1345030  89.5283207  73.5169126  34.4335049
  89.8958111  74.8414232  30.4226022  90.6429930  75.3535629  30.1133144
  90.1649701  74.5198284  31.2830415  88.1684761  77.3372772  27.4052976
  87.2595980  77.0531805  27.5025446  88.1979845  77.7571851  26.5456283
  93.4004029  80.9479362  31.1744144  92.9466356  80.1070272  31.2309334
  92.7697995  81.5840760  31.5118924  92.3436948  71.8771348  32.4044811
  91.6059705  71.3648734  32.7355054  92.5963722  71.4371730  31.5928088
  91.8436968  82.7855859  32.1093962  92.1359942  83.3460916  31.3906327
  92.3535588  83.0784420  32.8647121  92.4448575  64.6547600  32.9986580
  92.7507452  63.7944963  32.7112495  93.1701180  65.2465220  32.7985574
  78.7372932  75.0578287  31.3868178  78.5397331  74.4647647  30.6619245
  78.1819596  74.7530497  32.1044117  86.7169655  74.9501393  33.5062771
  86.7718265  73.9975229  33.4305248  85.9060857  75.1060832  33.9904070
  87.8660849  78.8781516  24.7441055  87.4280279  78.1617375  24.2846692
  88.6071290  79.1057631  24.1826146  84.6562015  73.5678453  31.2653150
  83.8429881  73.8672623  31.6718342  85.1521009  73.1734141  31.9827632
  86.8070593  83.5636210  33.1987415  86.7646772  83.7897056  32.2695947
  87.7233292  83.3299584  33.3473216  90.2536227  74.0320277  40.0968044
  90.6085615  74.2591750  40.9562510  90.9008358  74.3638654  39.4745299
  95.9833964  77.1538713  30.8017373  95.8451862  77.3440309  29.8738562
  95.6270183  77.9158096  31.2585424  84.1476090  71.1396808  36.8814385
  84.7875469  70.9985567  36.1837349  83.3153620  70.8531322  36.5052987
  96.0103343  79.2215240  35.8128645  96.4439850  79.1290529  36.6611699
  96.7234924  79.1972741  35.1748661  84.9236394  80.4399239  32.9949378
  85.7176992  79.9449559  32.7931953  84.2128086  79.9117102  32.6317083
  89.7431238  82.8217334  37.3461745  89.7968261  83.3908271  38.1139461
  88.8746020  82.9919219  36.9815782  81.2319157  74.5842320  29.0709130
  80.3016745  74.5226776  29.2879092  81.3276629  74.0618273  28.2745772
  82.6229632  72.5234890  38.8286197  83.2952685  72.3152253  38.1798845
  81.7959418  72.3256976  38.3891429  96.8718893  79.2638941  38.3461530
  97.0654783  80.1684751  38.5920805  96.7719511  78.8046360  39.1800115
  88.5255204  69.1496831  40.8451857  87.8783119  69.8486781  40.7516334
  89.2956219  69.5832975  41.2128106  91.9334002  79.4145683  43.9202411
  91.7819508  79.1856235  43.0032494  91.9238681  80.3716285  43.9333756
  88.7019338  76.9877596  38.9048677  89.6311398  77.1388756  38.7317644
  88.2810368  77.0761617  38.0497324  87.5007670  81.0128261  36.6747215
  87.3618755  80.6447045  37.5473153  86.7122266  81.5275900  36.5031173
  88.0955822  86.1137357  28.0172751  88.2707577  85.6425400  28.8318374
  87.4088610  86.7403123  28.2454012  89.0512885  80.3909863  34.0636053
  88.7162718  80.3510633  34.9593702  88.5516831  79.7254579  33.5906463
  83.0257129  75.7977493  39.5888634  82.8876927  75.0657732  40.1900173
  83.9362052  75.7086393  39.3072821  91.9872077  77.7365898  24.3373112
  91.3701247  77.0112726  24.2406165  91.5188565  78.4975258  23.9940186
  85.6539430  75.5097453  39.0772313  86.3639048  74.8690645  39.0358932
  85.6108738  75.7610348  39.9998494  93.6426208  82.4464806  41.9978893
  93.5838754  81.7624026  41.3309476  94.0445727  83.1883796  41.5459519
  84.3668364  72.4962671  40.8967953  83.8305721  72.0453409  41.5489549
  83.7785072  72.6308579  40.1538417  82.6616907  89.2626720  34.7912611
  82.9013505  89.8945244  35.4691630  81.8186104  88.9114760  35.0777971
  83.7770622  71.9551322  23.4594416  82.9000089  71.8340123  23.0956663
  84.2528376  71.1637400  23.2073305  93.6443616  80.4104390  40.2292872
  92.7570394  80.0730312  40.3519271  94.2142167  79.6787421  40.4661638
  87.1744769  85.0705842  37.1954115  87.1014940  85.8760814  37.7073420
  86.7322162  85.2697808  36.3702137  86.9634549  84.3077612  30.7056937
  86.1802070  84.8499293  30.7995161  87.6627294  84.8251592  31.1051178
  90.2731199  70.1172242  33.3491142  90.7699898  69.3642204  33.0292213
  89.5018180  70.1536558  32.7834352  98.1260956  75.8212607  34.9909434
  98.1150832  76.7037323  34.6203367  97.2578335  75.4684158  34.7963971
  89.6343452  84.9692676  39.3512274  90.3471425  85.6040141  39.2788176
  89.1433481  85.0656542  38.5352276  91.3560979  78.8743929  30.9229566
  90.4217258  78.9945392  30.7534270  91.5337648  77.9716396  30.6589576
  86.8566167  72.2589625  33.0762827  86.4863955  71.7060665  33.7643733
  87.3525260  71.6547758  32.5237827  94.7433531  74.7161248  31.4579600
  95.2093983  75.5489240  31.3839903  95.1941031  74.2506230  32.1624858
  84.6855366  82.7187120  40.1717845  85.3864825  83.3523603  40.3247239
  84.2150481  83.0601851  39.4113484  92.8109762  81.0605070  28.4565752
  93.0869606  80.9461664  29.3659626  91.9414261  80.6622554  28.4177925
  92.7150193  67.0841835  35.4970501  91.8013273  67.3146062  35.6652708
  93.1443295  67.1680279  36.3484534  92.4856652  75.2731727  37.9970395
  91.8328102  75.5207635  37.3422848  92.8637032  74.4595865  37.6632873
  89.4463826  85.3091420  32.0998566  89.6286220  84.4913076  32.5626318
  90.2696812  85.5259113  31.6623456  89.7805991  84.2359606  29.3613614
  90.3093758  83.7252060  28.7483776  90.0434211  83.9202136  30.2259147
  88.5344225  76.0151538  44.4836432  87.8584862  75.9145668  45.1538808
  89.3571859  75.8590752  44.9472430  80.2823084  82.2523475  37.1048948
  80.8676521  81.5067163  37.2376852  80.0847922  82.5627432  37.9885611
  83.1361739  85.2874722  32.1211390  82.4672114  85.7720850  31.6375430
  82.9974609  85.5343943  33.0354769  87.2767008  87.3218466  38.7194048
  87.8285316  87.4850087  39.4843134  87.6173201  87.9122904  38.0474073
  81.7283774  71.7416748  42.9688967  82.3555812  71.3593825  43.5826492
  80.8711692  71.5230950  43.3344660  92.1277882  82.1479723  44.5742703
  92.6717786  82.7609682  44.0797658  91.5464727  82.7059302  45.0909716
  78.5049316  73.5493177  28.9007322  78.8002757  72.6403856  28.8474376
  77.6037352  73.5280917  28.5788324  90.4135395  85.2700441  35.7057731
  90.2886535  84.4690181  35.1968676  91.0714486  85.7646635  35.2171700
  82.0343563  71.6249174  34.8834871  81.3130149  72.2385142  34.7442344
  82.8236819  72.1606939  34.8051517  92.4770303  83.0709461  37.3337281
  91.5300639  82.9514813  37.2615607  92.8253077  82.1831959  37.4163542
  84.8369877  68.9603600  41.1575522  85.3604279  69.2065897  41.9201832
  84.6182210  69.7923635  40.7378660  80.2337158  71.2307275  29.0246647
  79.9049864  70.3504654  28.8421753  80.5876529  71.1754944  29.9123037
  89.4816737  82.8662178  33.5341633  89.3341699  81.9378885  33.7149203
  90.3070230  82.8882268  33.0498708  83.3478981  71.5180245  29.3922125
  83.6875054  72.0466166  28.6700733  83.7951102  71.8560651  30.1680691
  93.0850859  83.6890736  34.6206506  94.0097406  83.4833598  34.4830957
  92.9166162  83.4407138  35.5295847  86.0422422  69.9017295  38.8425193
  85.7019242  69.1025108  39.2445873  85.3361428  70.2019006  38.2702026
  86.6938894  66.9866608  37.2952516  87.5164963  66.5127086  37.1731406
  86.9376957  67.7657092  37.7951202  85.3347128  70.0154866  27.5915418
  86.0555491  70.3936119  27.0879135  84.7112432  70.7343743  27.6950396
  89.4778251  70.7200015  28.5273750  89.6941865  71.6024653  28.2262578
  88.9972318  70.3286229  27.7979392  84.2177472  73.6785728  35.1044495
  84.0722053  73.9926032  35.9968776  83.7402676  74.2970629  34.5515393
  86.0773855  70.6688276  35.1525384  86.0635424  69.7729370  34.8157682
  86.7946283  70.6758940  35.7863670  87.9299986  71.1025617  37.1978512
  87.6717764  72.0242687  37.1962842  87.3985026  70.7056051  37.8878976
  92.8746175  84.2076404  29.9768597  93.0483052  83.6422826  29.2242449
  93.3675066  85.0077299  29.7948087  78.6923135  76.2191073  38.0432156
  78.1476603  76.9950881  38.1752430  79.5702485  76.5661877  37.8851277
  85.4810751  69.5502657  30.4212954  85.6026662  68.6219303  30.6203842
  85.1912794  69.5641343  29.5091270  88.3501942  67.2357567  33.5579674
  88.3723639  67.2996900  32.6031654  88.7670001  66.3962076  33.7520180
  98.7285566  76.9712827  31.5958897  99.1716712  76.2220152  31.1978020
  97.8512076  76.9622963  31.2132629  93.8621347  83.5243168  27.0765495
  94.5572252  84.1449861  27.2952810  94.2044497  82.6738519  27.3517873
  79.4789157  75.3460969  40.9362313  78.7370893  75.4943605  41.5226943
  79.1581901  75.6069235  40.0729062  95.7612770  80.9742874  28.6052826
  96.2864095  81.3130146  27.8802146  95.6735123  80.0389889  28.4215961
  87.4232819  84.8876947  40.7342703  87.7319946  84.6426094  41.6065402
  88.2208301  85.0923586  40.2461573  87.4453431  87.0414857  32.9648079
  87.0058421  86.5491236  33.6580936  88.1961548  86.4987825  32.7240154
  79.9245770  83.2326398  32.9672707  80.7503790  82.9330170  32.5871351
  79.5739822  82.4634020  33.4162496  84.8927303  82.5852866  35.0370381
  84.2707313  81.9223571  34.7372609  85.5632170  82.6113998  34.3544029
  78.1254375  81.1512724  33.9261641  77.2886284  80.7234899  33.7445642
  78.0978021  81.3445168  34.8632432  84.9651831  71.0634654  44.6302887
  85.0139986  71.9396777  44.2480657  85.5074345  70.5212047  44.0574530
  95.4506677  81.6075777  43.9104024  94.6602220  81.5899916  43.3708523
  95.2140031  82.1464071  44.6653061  95.5704552  78.4568244  41.2236753
  95.6202556  78.2918251  42.1652275  95.4618475  77.5895503  40.8334633
  84.4540810  81.1356789  28.5128841  84.6028931  81.8192254  27.8595514
  85.2607254  81.1161879  29.0278297  92.8608314  74.4399172  42.5396059
  93.7618177  74.3005637  42.2480057  92.9356288  74.6053627  43.4794237
  87.1951119  71.8166027  41.3849246  86.3254429  72.1099593  41.1131834
  87.4310600  72.4006472  42.1056509  97.0722748  80.8765185  41.4678774
  96.7807557  81.2395166  42.3042235  96.4594880  80.1632194  41.2892106
  98.2718431  78.4418065  33.9881344  99.1065322  78.8807869  34.1518905
  98.4077560  77.9656718  33.1689590  95.3209937  75.9997800  39.9358832
  95.7964058  76.1925446  39.1277683  94.3975502  76.0556986  39.6902216
  82.2093443  77.1621967  29.5189910  81.9639485  76.2584297  29.7170121
  82.3789358  77.1639118  28.5769388  89.8990153  68.0345643  38.9014666
  90.4172097  68.7706670  38.5761155  89.5445286  68.3409637  39.7361425
  81.4789091  72.8950325  27.0176072  80.7858336  72.9694680  26.3616108
  81.2340843  72.1310668  27.5397589  90.1502747  64.4545926  34.4215563
  90.4304501  63.7869115  35.0475989  90.9353354  64.6475022  33.9090226
  87.9536216  83.6304920  25.9840589  87.3810183  84.2495107  25.5311061
  88.5269009  84.1804282  26.5180511  94.0211606  72.8763560  38.1687138
  94.9729029  72.9761658  38.1899362  93.8515056  72.0841829  38.6785222
  92.0425985  69.9619143  38.3546539  91.4475917  70.2424156  37.6593027
  91.7575682  70.4513044  39.1263280  91.1733476  83.9142070  27.1149171
  92.1064149  83.8487632  27.3182047  91.0856688  84.7498337  26.6563704
  93.8021492  83.2307940  24.0753119  93.7235124  82.8967804  24.9688877
  94.6231159  83.7229708  24.0744591  96.4999683  76.0969680  37.2829437
  96.4676004  75.1585680  37.4689121  97.1100307  76.1753716  36.5495262
  88.3383014  74.9665733  23.3256641  89.2842119  74.8371941  23.3945059
  87.9597259  74.2280395  23.8026070  96.6494172  72.8880723  37.3287721
  96.1333221  72.1039180  37.1417649  97.5334120  72.5599440  37.4934240
  94.3104899  66.6321739  33.2883533  94.1129720  66.3236827  34.1726865
  94.9204604  67.3583378  33.4181463 102.3176233  77.1585687  36.4235474
 103.0479622  76.8970975  36.9843177 101.7083179  76.4214408  36.4637542
 100.3991530  75.2993549  37.0209925  99.6724694  75.1649514  36.4126417
  99.9838817  75.6070378  37.8266643  88.2221707  79.0183479  44.7857298
  89.1424716  79.1962078  44.9797345  88.1871290  78.0739524  44.6336998
  86.5225931  72.8915709  23.2611527  85.6157387  72.5948822  23.3374240
  86.8001912  72.5945527  22.3945813  81.2183779  76.9284513  37.4280080
  81.4369789  77.8601621  37.4468113  81.6309553  76.5692488  38.2134883
  88.1387997  67.4352599  29.4155768  87.3288725  67.0899684  29.7911014
  88.8272414  67.1260142  30.0043379  90.0678545  66.5130646  31.0380065
  90.6209584  66.9326099  31.6970088  90.3048632  65.5866394  31.0803021
  86.0911645  72.5017719  46.8182828  85.9908372  73.4512076  46.7494920
  85.8733187  72.1735958  45.9458899  85.2924716  69.7502644  23.4023506
  86.1543880  70.0757543  23.6619323  85.4775060  68.9634140  22.8896572
  93.4457353  68.6231171  30.5458729  92.8656022  69.2815975  30.1636781
  93.1793285  67.8008515  30.1346146  91.8960919  68.0236228  32.7480049
  92.3960697  68.1352763  31.9394368  92.5396527  67.7197281  33.3880858
  85.9542915  75.9314858  45.6347890  85.4709996  76.7315218  45.8411779
  86.0403854  75.9422803  44.6815334  79.2228874  77.7643238  33.5569709
  79.1999562  77.8630925  32.6051593  79.5329511  78.6108389  33.8786876
  81.8816252  79.8219393  37.6716324  82.8359506  79.7903335  37.6046255
  81.6828776  79.3610016  38.4866550  82.4715634  78.3920509  40.2387122
  83.2908523  78.8864587  40.2621959  82.7452442  77.4752477  40.2104689
  92.2282231  70.7831261  29.6015077  91.3408086  71.0680912  29.3835272
  92.6436220  70.6225024  28.7542354  95.5796767  70.8077782  33.3169416
  96.3557157  71.2974235  33.5894033  94.8544901  71.2335836  33.7741286
  98.0169325  71.5205401  34.3743357  98.6113816  71.2801137  33.6636665
  98.0895909  70.8012532  35.0016893  80.2366481  85.3639012  34.6886522
  80.1020949  84.6039413  34.1224520  79.8198543  86.0879912  34.2215311
  91.3725444  80.5475936  23.6963097  92.0761294  80.7525938  24.3120753
  90.6488093  81.1152698  23.9612181  92.2023254  76.2985797  29.8165367
  92.1458456  76.7554348  28.9773000  92.7551597  75.5376482  29.6388210
  96.0128060  72.0875529  30.6415487  95.7564994  71.6872165  31.4723694
  95.3880928  72.8019323  30.5165626 100.3240398  74.8271602  33.1486778
  99.7639956  74.8964791  33.9218340  99.7183901  74.6512587  32.4286274
  83.3935607  86.2608329  34.9004964  83.2767991  87.2053762  34.7983655
  82.5728053  85.9581891  35.2890764  93.2812141  80.9858465  25.7461557
  94.1157745  80.5539663  25.5639032  93.1196484  80.8140479  26.6738452
  92.9358034  77.4890578  27.1117896  92.8806837  77.3234850  26.1706341
  92.3104089  78.1966611  27.2680086  77.7250549  72.7258643  40.9379319
  78.3709412  72.2157597  41.4266544  77.5167700  73.4627324  41.5122744
  90.2503941  79.7939490  46.4371459  91.1195100  79.9680142  46.0758094
  89.7710692  80.6133907  46.3147189  86.2454159  66.9898687  26.6903215
  86.2332829  67.9340527  26.8471486  87.1377581  66.8068833  26.3962676
  84.4190121  86.9136591  38.1160893  85.3217368  86.9460201  38.4327388
  84.1927491  85.9837042  38.1307229  86.1743723  85.6667578  34.7770971
  85.2239354  85.6669439  34.6635344  86.4776209  84.9200312  34.2607006
  90.0606279  63.5841464  30.9449152  89.2938674  63.0299951  31.0905834
  90.4716983  63.6563333  31.8063303  82.0648040  69.8726260  45.0354333
  82.9279501  69.5163065  45.2457657  81.4913450  69.5340155  45.7229737
 101.9096417  91.5028116  35.8416734 102.5474826  91.3834863  35.1380074
 101.7917259  92.4508960  35.9004686  98.7186123  91.4555544  35.7778259
  98.3804634  91.3396609  34.8898793  99.5875891  91.0546709  35.7579265
  94.5772938  93.3091021  31.7675149  94.0137804  93.2180958  30.9991437
  94.4625334  92.4890925  32.2477642  99.2005906  92.6090396  41.7364464
  99.1894547  92.2143194  40.8644968  99.3626545  91.8756469  42.3298236
  92.1237370  94.8042212  34.6059370  92.9158662  94.4633037  34.1905669
  92.3634021  94.9137187  35.5261523 100.1572497  96.9761988  27.0789614
  99.5060477  97.5616069  26.6923628 100.9516860  97.5068183  27.1384652
  94.0828124  94.0651125  27.4776749  94.8559000  93.5180113  27.3389625
  94.4353523  94.9295375  27.6891210  95.9213167  95.3927508  40.6843648
  95.6303033  96.2973139  40.5690314  96.5570151  95.4344035  41.3987718
  96.8469374  92.7704356  37.2745008  97.4432946  92.5460379  36.5601971
  96.9044345  92.0289102  37.8770456  96.4194402  90.2243792  25.1095199
  96.6719923  89.7025313  24.3478662  95.4818961  90.0609937  25.2121882
 101.4637685  89.2279570  32.9169942 102.2500774  88.8098993  32.5660359
 101.7276389  90.1325662  33.0851590 101.6347762  94.6652420  27.6158599
 100.9993595  94.7387047  28.3279503 101.3045169  95.2546019  26.9377678
 106.8646112  89.1654803  33.8202920 107.5971284  88.5954020  34.0540750
 106.1085468  88.7776404  34.2609426  96.1390691  92.1271898  27.3119574
  96.0226949  91.4516801  27.9800658  96.2492951  91.6404271  26.4951727
  98.4822232  91.5882045  31.0166263  98.1180439  91.0612666  31.7279184
  99.3389348  91.1980514  30.8432748 104.3871532  82.8776377  38.2797529
 104.0554857  83.7471788  38.0558744 103.7917146  82.5612661  38.9591559
  98.1227719  86.6171944  26.0127611  98.2902121  87.4852181  26.3798082
  97.9324888  86.7799226  25.0888901 100.8803052  95.0788923  37.6793442
 100.5803775  95.9813962  37.5709249 100.5354112  94.8121106  38.5314595
  94.3315533  91.5302720  33.7130146  93.4066030  91.3978934  33.9207838
  94.5799947  92.3096939  34.2100089 104.2800196  87.5971463  35.3590879
 103.3717073  87.5286872  35.0649640 104.2287792  88.0743408  36.1872705
  98.1016940  89.0729602  26.9974278  97.9816565  89.5186653  27.8359758
  97.4069528  89.4214919  26.4387816  91.6924345  91.1735994  34.5473935
  91.8216726  91.4270473  35.4613347  91.0121796  91.7663702  34.2278590
  95.8623832 101.8433244  30.6464409  95.7847862 102.7941069  30.7252890
  95.2585475 101.4979116  31.3039336  98.3541062  89.0161109  43.3025776
  97.5774396  89.5755029  43.2928641  98.9931625  89.5017892  43.8240646
 106.1461842  85.7987902  37.1368753 105.5036222  86.0920435  36.4908548
 105.6416771  85.6840822  37.9421950 103.8002006  89.5451075  27.8254612
 104.7119862  89.7778462  27.6502310 103.2911653  90.1288119  27.2629691
  96.6087434  91.8246562  42.8643743  97.3502118  92.3631606  42.5878567
  95.9024419  92.4512851  43.0215295 102.0842774  93.9675703  41.4615905
 102.4926130  93.5258113  40.7170537 101.3620035  93.3928330  41.7150098
  98.4373844  88.9048310  38.8349462  99.2835039  89.3287723  38.9784111
  98.3772481  88.2481934  39.5288025 102.4071588  94.5276893  35.2168194
 101.7780451  94.6922608  34.5144262 102.0197250  94.9418503  35.9879158
 106.2860820  95.4631331  32.5712557 105.6011858  95.8430233  32.0209591
 106.3704669  96.0726658  33.3044505 101.5873289  86.5652678  40.4930635
 101.3434221  87.3194738  39.9564911 101.8633219  86.9438026  41.3277882
 103.5411752  93.1091290  39.1707901 103.7528647  93.7523050  38.4942282
 103.4941500  92.2753607  38.7029831 101.1437981  85.7209111  36.0744473
 100.2822460  86.0190365  36.3661211 101.1700415  85.9379510  35.1425506
  97.9599550  94.2651302  32.4818279  98.4237896  94.5439005  31.6922901
  97.6956348  93.3634746  32.2991369  94.8523631  93.8122783  35.4198042
  95.4224988  94.2410051  34.7815527  95.4431743  93.5305368  36.1182228
  96.8968436  90.3874454  29.2907844  97.5992479  90.8395498  29.7581770
  96.5649065  89.7458273  29.9187737  95.3448798  88.9786211  43.6659053
  94.7147458  89.6602491  43.8994450  95.2384886  88.8669292  42.7212192
  90.6393770  88.6458007  34.5924977  89.8492824  88.9015535  34.1165088
  91.1305017  89.4606344  34.6977018 104.6557580  95.9863246  37.3430258
 105.4775023  95.5843433  37.0612940 104.6519982  95.8831480  38.2946374
  92.5908515  89.0102586  31.5508454  91.7939679  89.1221280  32.0691950
  92.3634108  89.3489238  30.6849345  98.4214183  95.5347289  39.4990969
  98.4858616  95.9967696  40.3349141  97.7125107  94.9044654  39.6273279
  88.9231473  88.8988497  37.0239968  89.1739511  89.7835507  37.2897544
  89.4591021  88.7193099  36.2515060 112.7463573  92.3301994  33.6915230
 111.9927281  91.7609392  33.5359234 112.8811114  92.2964659  34.6385864
  98.1362201  97.2015397  29.3669949  98.0007876  98.0466932  29.7954797
  98.6772013  97.4034674  28.6035883  94.6229540  83.2806976  46.0284304
  94.2296486  82.7273175  46.7031949  95.4395681  83.5917555  46.4190822
  91.5891598  94.7190835  29.9397874  92.1016119  95.5134085  30.0903439
  92.2414311  94.0217125  29.8731476  93.3986483  97.8356591  32.0220627
  93.5753111  98.7574556  31.8341611  94.1943316  97.5215010  32.4515007
  97.5397501  84.6964855  43.6204561  98.2807215  85.2972009  43.5409023
  97.7715424  83.9542493  43.0622604  92.6838839  89.8821223  41.8982791
  92.5692354  88.9806480  42.1989890  91.8283357  90.1284919  41.5467607
  99.7630677  97.8238963  43.4970291  99.3194531  97.0375342  43.1791196
 100.4247891  98.0118114  42.8314182  94.5217798  99.3534765  38.0230970
  95.0725223  99.2251828  37.2507964  93.6829274  99.6529654  37.6725863
 101.8611915  98.1041763  41.5251693 101.8430391  98.9250644  41.0331962
 102.7831835  97.9795838  41.7501834  98.3184969  95.6185892  42.3675201
  98.8513306  94.8574181  42.1374509  97.7899050  95.3259544  43.1099355
 101.4854664  80.7245958  37.8968843 101.1418934  81.6147600  37.8207953
 101.8533627  80.5347616  37.0338428  89.5540515  93.0479489  30.7157445
  90.3915737  93.4576497  30.4991152  89.7318783  92.1078931  30.6857639
 101.4504947  90.7154570  26.4041278 100.9351570  91.4859174  26.6429665
 101.1782255  90.0419706  27.0274339  99.0352058  85.5604270  31.4626516
  98.1793654  85.1711121  31.2832155  99.4479010  85.6396231  30.6026302
 100.5651205  83.0950614  35.8618076 100.0616000  83.0580749  35.0485881
 100.8581812  84.0043356  35.9214733  96.8094091  83.1789343  34.8684258
  97.6747087  82.9832152  34.5090147  96.8771599  82.9499695  35.7953614
 106.4239221  93.4686924  28.3394451 105.6468664  93.1298084  27.8949613
 107.1030702  93.4739547  27.6649416 101.2391250  88.5881662  28.2301059
 100.9341386  88.9027811  29.0811202 102.1921692  88.6663081  28.2728392
  99.6837682  94.7471885  29.8794013  99.1559044  94.0124645  29.5667250
  99.1825185  95.5246561  29.6333981 104.6630528  92.9420905  34.9961059
 104.0054202  93.6320167  35.0841188 105.4670927  93.3317337  35.3395046
  94.4156410  85.4091551  32.2400624  94.9900162  85.1866733  31.5073817
  95.0027392  85.4780246  32.9929226 103.4735987  91.2965278  33.0465001
 103.9867869  91.9295270  33.5486711 104.1237211  90.6966474  32.6808361
  94.7425997  87.4396012  26.2596510  93.9063309  87.7770699  26.5805784
  94.6030766  87.3044992  25.3223647  96.7179077  82.2832800  30.9675694
  96.0643490  81.9681817  30.3432309  96.6759551  81.6608541  31.6935517
  97.8290282  92.5652095  22.8828986  96.9217344  92.3341349  23.0820135
  98.3261314  91.7689714  23.0702967  99.9516818  88.7714734  35.2923341
  99.0339379  88.9929681  35.1345030 100.3676961  88.8461044  34.4335049
 100.7351865  90.1706149  30.4226022 101.4823684  90.6827547  30.1133144
 101.0043455  89.8490202  31.2830415  99.0078516  92.6664690  27.4052976
  98.0989735  92.3823723  27.5025446  99.0373599  93.0863769  26.5456283
 104.2397783  96.2771280  31.1744144 103.7860110  95.4362189  31.2309334
 103.6091750  96.9132678  31.5118924 103.1830703  87.2063266  32.4044811
 102.4453459  86.6940652  32.7355054 103.4357476  86.7663647  31.5928088
 102.6830722  98.1147776  32.1093962 102.9753697  98.6752833  31.3906327
 103.1929343  98.4076337  32.8647121 103.2842330  79.9839518  32.9986580
 103.5901207  79.1236881  32.7112495 104.0094935  80.5757138  32.7985574
  89.5766686  90.3870204  31.3868178  89.3791086  89.7939565  30.6619245
  89.0213350  90.0822414  32.1044117  97.5563410  90.2793311  33.5062771
  97.6112019  89.3267147  33.4305248  96.7454612  90.4352750  33.9904070
  98.7054603  94.2073434  24.7441055  98.2674033  93.4909293  24.2846692
  99.4465044  94.4349549  24.1826146  95.4955770  88.8970370  31.2653150
  94.6823635  89.1964541  31.6718342  95.9914764  88.5026059  31.9827632
  97.6464347  98.8928127  33.1987415  97.6040526  99.1188974  32.2695947
  98.5627046  98.6591502  33.3473216 101.0929981  89.3612195  40.0968044
 101.4479369  89.5883668  40.9562510 101.7402113  89.6930572  39.4745299
 106.8227718  92.4830631  30.8017373 106.6845617  92.6732227  29.8738562
 106.4663937  93.2450014  31.2585424  94.9869844  86.4688726  36.8814385
  95.6269224  86.3277485  36.1837349  94.1547375  86.1823239  36.5052987
 106.8497098  94.5507158  35.8128645 107.2833605  94.4582447  36.6611699
 107.5628679  94.5264658  35.1748661  95.7630148  95.7691156  32.9949378
  96.5570747  95.2741476  32.7931953  95.0521841  95.2409019  32.6317083
 100.5824993  98.1509252  37.3461745 100.6362015  98.7200188  38.1139461
  99.7139774  98.3211137  36.9815782  92.0712912  89.9134238  29.0709130
  91.1410500  89.8518694  29.2879092  92.1670384  89.3910191  28.2745772
  91.9898461  86.4389051  31.6587372  92.2505278  87.3534384  31.5496532
  92.8115633  85.9713493  31.8083985  93.4623386  87.8526808  38.8286197
  94.1346440  87.6444170  38.1798845  92.6353173  87.6548894  38.3891429
 107.7112647  94.5930858  38.3461530 107.9048537  95.4976669  38.5920805
 107.6113266  94.1338278  39.1800115  99.3648958  84.4788749  40.8451857
  98.7176873  85.1778699  40.7516334 100.1349974  84.9124893  41.2128106
 102.7727756  94.7437601  43.9202411 102.6213262  94.5148153  43.0032494
 102.7632436  95.7008203  43.9333756  99.5413092  92.3169514  38.9048677
 100.4705152  92.4680674  38.7317644  99.1204123  92.4053535  38.0497324
  98.3401424  96.3420178  36.6747215  98.2012510  95.9738963  37.5473153
  97.5516020  96.8567818  36.5031173  98.9349576 101.4429275  28.0172751
  99.1101332 100.9717318  28.8318374  98.2482364 102.0695041  28.2454012
  99.8906639  95.7201781  34.0636053  99.5556472  95.6802551  34.9593702
  99.3910585  95.0546497  33.5906463  93.8650883  91.1269411  39.5888634
  93.7270681  90.3949650  40.1900173  94.7755807  91.0378311  39.3072821
 102.8265831  93.0657815  24.3373112 102.2095002  92.3404644  24.2406165
 102.3582320  93.8267176  23.9940186  96.4933184  90.8389370  39.0772313
  97.2032803  90.1982563  39.0358932  96.4502492  91.0902265  39.9998494
 104.4819963  97.7756724  41.9978893 104.4232509  97.0915944  41.3309476
 104.8839481  98.5175714  41.5459519  95.2062118  87.8254588  40.8967953
  94.6699475  87.3745327  41.5489549  94.6178826  87.9600497  40.1538417
  93.5010662 104.5918638  34.7912611  93.7407260 105.2237162  35.4691630
  92.6579858 104.2406678  35.0777971  94.6164377  87.2843240  23.4594416
  93.7393843  87.1632040  23.0956663  95.0922130  86.4929318  23.2073305
 104.4837370  95.7396308  40.2292872 103.5964149  95.4022229  40.3519271
 105.0535921  95.0079339  40.4661638  86.1366517  92.0720399  33.5535924
  86.8237557  91.7582129  32.9656939  85.9814646  92.9761764  33.2803175
  90.9401239  86.9610596  37.9820947  90.8559428  86.3536266  37.2471357
  90.1183946  87.4519614  37.9830444  98.0138523 100.3997760  37.1954115
  97.9408695 101.2052732  37.7073420  97.5715916 100.5989726  36.3702137
  97.8028303  99.6369530  30.7056937  97.0195825 100.1791210  30.7995161
  98.5021048 100.1543510  31.1051178 101.1124953  85.4464159  33.3491142
 101.6093653  84.6934122  33.0292213 100.3411935  85.4828476  32.7834352
 108.9654711  91.1504525  34.9909434 108.9544587  92.0329240  34.6203367
 108.0972090  90.7976076  34.7963971 100.4737207 100.2984594  39.3512274
 101.1865179 100.9332059  39.2788176  99.9827236 100.3948460  38.5352276
 102.1954734  94.2035847  30.9229566 101.2611013  94.3237309  30.7534270
 102.3731402  93.3008313  30.6589576  97.6959922  87.5881542  33.0762827
  97.3257709  87.0352583  33.7643733  98.1919014  86.9839676  32.5237827
 105.5827285  90.0453166  31.4579600 106.0487737  90.8781158  31.3839903
 106.0334786  89.5798148  32.1624858  95.5249120  98.0479038  40.1717845
  96.2258580  98.6815520  40.3247239  95.0544235  98.3893769  39.4113484
 103.6503516  96.3896987  28.4565752 103.9263360  96.2753582  29.3659626
 102.7808015  95.9914472  28.4177925 103.5543948  82.4133753  35.4970501
 102.6407028  82.6437980  35.6652708 103.9837049  82.4972197  36.3484534
 103.3250406  90.6023645  37.9970395 102.6721857  90.8499552  37.3422848
 103.7030786  89.7887783  37.6632873 100.2857580 100.6383338  32.0998566
 100.4679975  99.8204994  32.5626318 101.1090566 100.8551030  31.6623456
 100.6199746  99.5651523  29.3613614 101.1487512  99.0543978  28.7483776
 100.8827965  99.2494053  30.2259147  99.3737979  91.3443456  44.4836432
  98.6978616  91.2437585  45.1538808 100.1965613  91.1882670  44.9472430
  91.1216839  97.5815393  37.1048948  91.7070275  96.8359080  37.2376852
  90.9241677  97.8919349  37.9885611  93.9755494 100.6166640  32.1211390
  93.3065869 101.1012768  31.6375430  93.8368363 100.8635860  33.0354769
  85.7134493  90.1520993  35.8253391  85.7518593  89.6184583  36.6190509
  85.2074786  89.6256198  35.2064368  98.1160762 102.6510383  38.7194048
  98.6679070 102.8142005  39.4843134  98.4566956 103.2414821  38.0474073
  93.0925256  84.9985533  39.3215933  93.1566582  85.8600364  38.9093331
  93.0292376  84.3859535  38.5888292  92.5677528  87.0708666  42.9688967
  93.1949567  86.6885743  43.5826492  91.7105447  86.8522868  43.3344660
 102.9671637  97.4771641  44.5742703 103.5111541  98.0901599  44.0797658
 102.3858481  98.0351219  45.0909716  89.3443071  88.8785095  28.9007322
  89.6396512  87.9695773  28.8474376  88.4431107  88.8572834  28.5788324
 101.2529150 100.5992359  35.7057731 101.1280289  99.7982099  35.1968676
 101.9108241 101.0938552  35.2171700  92.8737318  86.9541091  34.8834871
  92.1523904  87.5677059  34.7442344  93.6630574  87.4898856  34.8051517
 103.3164058  98.4001379  37.3337281 102.3694394  98.2806730  37.2615607
 103.6646831  97.5123877  37.4163542  95.6763631  84.2895518  41.1575522
  96.1998033  84.5357815  41.9201832  95.4575965  85.1215553  40.7378660
  91.0730912  86.5599193  29.0246647  90.7443619  85.6796571  28.8421753
  91.4270283  86.5046861  29.9123037 100.3210491  98.1954095  33.5341633
 100.1735454  97.2670803  33.7149203 101.1463985  98.2174186  33.0498708
  94.1872736  86.8472162  29.3922125  94.5268808  87.3758084  28.6700733
  94.6344856  87.1852568  30.1680691 103.9244613  99.0182654  34.6206506
 104.8491161  98.8125515  34.4830957 103.7559916  98.7699055  35.5295847
  96.8816176  85.2309213  38.8425193  96.5412997  84.4317026  39.2445873
  96.1755183  85.5310924  38.2702026  97.5332648  82.3158526  37.2952516
  98.3558718  81.8419004  37.1731406  97.7770712  83.0949009  37.7951202
  96.1740883  85.3446784  27.5915418  96.8949245  85.7228037  27.0879135
  95.5506187  86.0635661  27.6950396 100.3172006  86.0491933  28.5273750
 100.5335620  86.9316571  28.2262578  99.8366073  85.6578146  27.7979392
  95.0571227  89.0077646  35.1044495  94.9115808  89.3217949  35.9968776
  94.5796431  89.6262546  34.5515393  96.9167610  85.9980194  35.1525384
  96.9029179  85.1021287  34.8157682  97.6340038  86.0050858  35.7863670
  98.7693741  86.4317534  37.1978512  98.5111518  87.3534605  37.1962842
  98.2378781  86.0347969  37.8878976 103.7139929  99.5368321  29.9768597
 103.8876807  98.9714744  29.2242449 104.2068821 100.3369216  29.7948087
  89.5316889  91.5482991  38.0432156  88.9870357  92.3242799  38.1752430
  90.4096239  91.8953795  37.8851277  96.3204506  84.8794574  30.4212954
  96.4420417  83.9511221  30.6203842  96.0306548  84.8933260  29.5091270
  99.1895696  82.5649485  33.5579674  99.2117393  82.6288818  32.6031654
  99.6063755  81.7253994  33.7520180 109.5679320  92.3004744  31.5958897
 110.0110467  91.5512070  31.1978020 108.6905831  92.2914881  31.2132629
 104.7015102  98.8535086  27.0765495 105.3966006  99.4741779  27.2952810
 105.0438252  98.0030437  27.3517873  90.3182911  90.6752887  40.9362313
  89.5764647  90.8235522  41.5226943  89.9975655  90.9361152  40.0729062
 106.6006525  96.3034791  28.6052826 107.1257849  96.6422064  27.8802146
 106.5128877  95.3681807  28.4215961  98.2626574 100.2168865  40.7342703
  98.5713700  99.9718012  41.6065402  99.0602056 100.4215504  40.2461573
  98.2847186 102.3706775  32.9648079  97.8452176 101.8783153  33.6580936
  99.0355303 101.8279742  32.7240154  90.7639525  98.5618316  32.9672707
  91.5897545  98.2622087  32.5871351  90.4133577  97.7925938  33.4162496
  95.7321058  97.9144784  35.0370381  95.1101067  97.2515489  34.7372609
  96.4025925  97.9405916  34.3544029  88.9648130  96.4804642  33.9261641
  88.1280038  96.0526816  33.7445642  88.9371775  96.6737085  34.8632432
  95.8045585  86.3926572  44.6302887  95.8533741  87.2688695  44.2480657
  96.3468100  85.8503965  44.0574530 106.2900431  96.9367695  43.9104024
 105.4995975  96.9191834  43.3708523 106.0533786  97.4755989  44.6653061
 106.4098306  93.7860161  41.2236753 106.4596311  93.6210169  42.1652275
 106.3012229  92.9187420  40.8334633  95.2934565  96.4648707  28.5128841
  95.4422685  97.1484172  27.8595514  96.1001008  96.4453797  29.0278297
 103.7002068  89.7691089  42.5396059 104.6011931  89.6297554  42.2480057
 103.7750043  89.9345544  43.4794237  98.0344874  87.1457944  41.3849246
  97.1648183  87.4391510  41.1131834  98.2704354  87.7298389  42.1056509
 107.9116503  96.2057103  41.4678774 107.6201311  96.5687083  42.3042235
 107.2988634  95.4924111  41.2892106 109.1112185  93.7709983  33.9881344
 109.9459077  94.2099787  34.1518905 109.2471314  93.2948636  33.1689590
 106.1603691  91.3289718  39.9358832 106.6357813  91.5217364  39.1277683
 105.2369256  91.3848903  39.6902216  93.0487198  92.4913885  29.5189910
  92.8033240  91.5876215  29.7170121  93.2183112  92.4931035  28.5769388
 100.7383908  83.3637561  38.9014666 101.2565851  84.0998588  38.5761155
 100.3839040  83.6701554  39.7361425  92.3182845  88.2242242  27.0176072
  91.6252090  88.2986597  26.3616108  92.0734597  87.4602586  27.5397589
 100.9896502  79.7837844  34.4215563 101.2698256  79.1161033  35.0475989
 101.7747109  79.9766939  33.9090226  98.7929970  98.9596838  25.9840589
  98.2203937  99.5787025  25.5311061  99.3662764  99.5096199  26.5180511
 104.8605360  88.2055478  38.1687138 105.8122783  88.3053575  38.1899362
 104.6908811  87.4133746  38.6785222 102.8819740  85.2911061  38.3546539
 102.2869672  85.5716074  37.6593027 102.5969436  85.7804962  39.1263280
 102.0127230  99.2433988  27.1149171 102.9457903  99.1779549  27.3182047
 101.9250443 100.0790255  26.6563704 107.3393438  91.4261597  37.2829437
 107.3069758  90.4877598  37.4689121 107.9494062  91.5045634  36.5495262
  99.1776769  90.2957650  23.3256641 100.1235873  90.1663858  23.3945059
  98.7991014  89.5572312  23.8026070 107.4887926  88.2172641  37.3287721
 106.9726975  87.4331097  37.1417649 108.3727875  87.8891357  37.4934240
 105.1498653  81.9613656  33.2883533 104.9523474  81.6528745  34.1726865
 105.7598359  82.6875295  33.4181463 113.1569988  92.4877604  36.4235474
 113.8873376  92.2262892  36.9843177 112.5476933  91.7506326  36.4637542
 111.2385285  90.6285467  37.0209925 110.5118448  90.4941432  36.4126417
 110.8232572  90.9362295  37.8266643  99.0615461  94.3475396  44.7857298
  99.9818471  94.5253995  44.9797345  99.0265044  93.4031442  44.6336998
  97.3619686  88.2207627  23.2611527  96.4551141  87.9240739  23.3374240
  97.6395667  87.9237445  22.3945813  88.2797626  89.5413990  33.7110573
  87.9600411  88.6879298  33.4184947  87.7331054  89.7562568  34.4668540
  92.0577534  92.2576431  37.4280080  92.2763544  93.1893539  37.4468113
  92.4703308  91.8984406  38.2134883  98.9781752  82.7644516  29.4155768
  98.1682480  82.4191601  29.7911014  99.6666169  82.4552060  30.0043379
 100.9072300  81.8422563  31.0380065 101.4603339  82.2618017  31.6970088
 101.1442386  80.9158311  31.0803021  96.9305399  87.8309637  46.8182828
  96.8302126  88.7803994  46.7494920  96.7126941  87.5027876  45.9458899
  96.1318471  85.0794562  23.4023506  96.9937635  85.4049460  23.6619323
  96.3168815  84.2926058  22.8896572  88.1485886  93.1616902  35.6803695
  87.4549358  92.7470854  35.1673649  88.8958877  93.2037438  35.0837113
 104.2851107  83.9523088  30.5458729 103.7049776  84.6107892  30.1636781
 104.0187040  83.1300433  30.1346146 102.7354673  83.3528146  32.7480049
 103.2354452  83.4644681  31.9394368 103.3790281  83.0489199  33.3880858
  96.7936669  91.2606776  45.6347890  96.3103751  92.0607136  45.8411779
  96.8797608  91.2714721  44.6815334  90.0622629  93.0935155  33.5569709
  90.0393317  93.1922843  32.6051593  90.3723265  93.9400306  33.8786876
  92.7210007  95.1511310  37.6716324  93.6753260  95.1195253  37.6046255
  92.5222530  94.6901934  38.4866550  93.3109389  93.7212426  40.2387122
  94.1302278  94.2156505  40.2621959  93.5846197  92.8044395  40.2104689
 103.0675985  86.1123179  29.6015077 102.1801840  86.3972829  29.3835272
 103.4829974  85.9516942  28.7542354 106.4190521  86.1369700  33.3169416
 107.1950911  86.6266152  33.5894033 105.6938655  86.5627754  33.7741286
 108.8563080  86.8497319  34.3743357 109.4507571  86.6093055  33.6636665
 108.9289664  86.1304450  35.0016893  91.0760235 100.6930930  34.6886522
  90.9414703  99.9331331  34.1224520  90.6592298 101.4171830  34.2215311
 103.0417009  91.6277715  29.8165367 102.9852210  92.0846266  28.9773000
 103.5945351  90.8668399  29.6388210 106.8521815  87.4167447  30.6415487
 106.5958749  87.0164082  31.4723694 106.2274683  88.1311241  30.5165626
 111.1634153  90.1563520  33.1486778 110.6033711  90.2256709  33.9218340
 110.5577656  89.9804504  32.4286274  94.2329361 101.5900247  34.9004964
  94.1161746 102.5345679  34.7983655  93.4121808 101.2873808  35.2890764
 104.1205896  96.3150383  25.7461557 104.9551500  95.8831581  25.5639032
 103.9590239  96.1432396  26.6738452 103.7751788  92.8182496  27.1117896
 103.7200592  92.6526767  26.1706341 103.1497843  93.5258529  27.2680086
  88.5644303  88.0550560  40.9379319  89.2103167  87.5449514  41.4266544
  88.3561454  88.7919242  41.5122744 101.0897695  95.1231408  46.4371459
 101.9588855  95.2972060  46.0758094 100.6104447  95.9425825  46.3147189
  97.0847914  82.3190605  26.6903215  97.0726583  83.2632445  26.8471486
  97.9771335  82.1360750  26.3962676  95.2583875 102.2428509  38.1160893
  96.1611122 102.2752119  38.4327388  95.0321246 101.3128960  38.1307229
  97.0137478 100.9959495  34.7770971  96.0633109 100.9961357  34.6635344
  97.3169964 100.2492230  34.2607006 100.9000033  78.9133382  30.9449152
 100.1332429  78.3591868  31.0905834 101.3110738  78.9855250  31.8063303
  92.9041794  85.2018177  45.0354333  93.7673256  84.8454982  45.2457657
  92.3307205  84.8632072  45.7229737 112.7490171 106.8320034  35.8416734
 113.3868581 106.7126781  35.1380074 112.6311014 107.7800878  35.9004686
 109.5579877 106.7847462  35.7778259 109.2198389 106.6688527  34.8898793
 110.4269645 106.3838627  35.7579265 110.0399660 107.9382314  41.7364464
 110.0288301 107.5435112  40.8644968 110.2020300 107.2048386  42.3298236
 102.9631125 110.1334130  34.6059370 103.7552417 109.7924955  34.1905669
 103.2027775 110.2429105  35.5261523 106.7606921 110.7219425  40.6843648
 106.4696787 111.6265056  40.5690314 107.3963906 110.7635953  41.3987718
 107.6863128 108.0996274  37.2745008 108.2826701 107.8752296  36.5601971
 107.7438100 107.3581019  37.8770456 115.2265287  98.2068295  38.2797529
 114.8948612  99.0763706  38.0558744 114.6310900  97.8904579  38.9591559
 105.1709288 106.8594638  33.7130146 104.2459784 106.7270852  33.9207838
 105.4193701 107.6388857  34.2100089 115.1193950 102.9263381  35.3590879
 114.2110828 102.8578790  35.0649640 115.0681546 103.4035326  36.1872705
 102.5318099 106.5027911  34.5473935 102.6610480 106.7562390  35.4613347
 101.8515550 107.0955619  34.2278590 109.1934816 104.3453027  43.3025776
 108.4168150 104.9046947  43.2928641 109.8325379 104.8309810  43.8240646
 116.9855597 101.1279819  37.1368753 116.3429977 101.4212353  36.4908548
 116.4810525 101.0132740  37.9421950 107.4481188 107.1538480  42.8643743
 108.1895873 107.6923524  42.5878567 106.7418174 107.7804769  43.0215295
 112.9236528 109.2967620  41.4615905 113.3319884 108.8550031  40.7170537
 112.2013790 108.7220248  41.7150098 109.2767598 104.2340227  38.8349462
 110.1228793 104.6579641  38.9784111 109.2166236 103.5773852  39.5288025
 112.4267043 101.8944596  40.4930635 112.1827975 102.6486656  39.9564911
 112.7026974 102.2729943  41.3277882 111.9831735 101.0501029  36.0744473
 111.1216214 101.3482282  36.3661211 112.0094170 101.2671428  35.1425506
 105.6917386 109.1414701  35.4198042 106.2618743 109.5701969  34.7815527
 106.2825497 108.8597285  36.1182228 106.1842552 104.3078128  43.6659053
 105.5541213 104.9894409  43.8994450 106.0778640 104.1961210  42.7212192
 101.4787525 103.9749924  34.5924977 100.6886579 104.2307453  34.1165088
 101.9698772 104.7898262  34.6977018 103.4302270 104.3394503  31.5508454
 102.6333433 104.4513198  32.0691950 103.2027862 104.6781156  30.6849345
 109.2607938 110.8639207  39.4990969 109.3252370 111.3259614  40.3349141
 108.5518861 110.2336572  39.6273279  99.7625228 104.2280415  37.0239968
 100.0133266 105.1127425  37.2897544 100.2984776 104.0485016  36.2515060
 105.4623295  98.6098894  46.0284304 105.0690240  98.0565093  46.7031949
 106.2789435  98.9209473  46.4190822 108.3791256 100.0256773  43.6204561
 109.1200969 100.6263926  43.5409023 108.6109179  99.2834411  43.0622604
 103.5232594 105.2113140  41.8982791 103.4086109 104.3098398  42.1989890
 102.6677112 105.4576837  41.5467607 105.3611553 114.6826682  38.0230970
 105.9118978 114.5543746  37.2507964 104.5223029 114.9821571  37.6725863
 109.1578724 110.9477810  42.3675201 109.6907061 110.1866098  42.1374509
 108.6292805 110.6551462  43.1099355 112.3248419  96.0537876  37.8968843
 111.9812688  96.9439518  37.8207953 112.6927381  95.8639534  37.0338428
 109.8745813 100.8896188  31.4626516 109.0187409 100.5003038  31.2832155
 110.2872764 100.9688149  30.6026302 111.4044959  98.4242531  35.8618076
 110.9009755  98.3872666  35.0485881 111.6975566  99.3335274  35.9214733
 107.6487845  98.5081261  34.8684258 108.5140842  98.3124070  34.5090147
 107.7165354  98.2791613  35.7953614 105.2550164 100.7383469  32.2400624
 105.8293916 100.5158650  31.5073817 105.8421147 100.8072163  32.9929226
 107.5572832  97.6124718  30.9675694 106.9037244  97.2973735  30.3432309
 107.5153306  96.9900458  31.6935517 110.7910572 104.1006651  35.2923341
 109.8733134 104.3221598  35.1345030 111.2070716 104.1752962  34.4335049
 114.1236084  95.3131435  32.9986580 114.4294961  94.4528799  32.7112495
 114.8488689  95.9049055  32.7985574 100.4160441 105.7162122  31.3868178
 100.2184840 105.1231483  30.6619245  99.8607105 105.4114332  32.1044117
 108.3957164 105.6085228  33.5062771 108.4505774 104.6559065  33.4305248
 107.5848366 105.7644667  33.9904070 106.3349524 104.2262288  31.2653150
 105.5217390 104.5256459  31.6718342 106.8308518 103.8317977  31.9827632
 111.9323736 104.6904113  40.0968044 112.2873124 104.9175586  40.9562510
 112.5795867 105.0222489  39.4745299 105.8263599 101.7980644  36.8814385
 106.4662978 101.6569403  36.1837349 104.9941129 101.5115157  36.5052987
 102.8292215 101.7680969  31.6587372 103.0899033 102.6826302  31.5496532
 103.6509388 101.3005411  31.8083985 104.3017141 103.1818726  38.8286197
 104.9740194 102.9736088  38.1798845 103.4746927 102.9840812  38.3891429
 110.2042713  99.8080667  40.8451857 109.5570628 100.5070616  40.7516334
 110.9743728 100.2416811  41.2128106 110.3806847 107.6461432  38.9048677
 111.3098907 107.7972591  38.7317644 109.9597877 107.7345452  38.0497324
 109.1795179 111.6712096  36.6747215 109.0406264 111.3030880  37.5473153
 108.3909775 112.1859735  36.5031173 104.7044638 106.4561329  39.5888634
 104.5664436 105.7241568  40.1900173 105.6149561 106.3670229  39.3072821
 107.3326939 106.1681288  39.0772313 108.0426557 105.5274480  39.0358932
 107.2896247 106.4194183  39.9998494 106.0455873 103.1546506  40.8967953
 105.5093230 102.7037244  41.5489549 105.4572581 103.2892415  40.1538417
  96.9760272 107.4012317  33.5535924  97.6631311 107.0874047  32.9656939
  96.8208400 108.3053682  33.2803175 101.7794994 102.2902514  37.9820947
 101.6953182 101.6828183  37.2471357 100.9577700 102.7811532  37.9830444
 111.9518708 100.7756077  33.3491142 112.4487407 100.0226039  33.0292213
 111.1805689 100.8120394  32.7834352 108.5353676 102.9173460  33.0762827
 108.1651464 102.3644501  33.7643733 109.0312769 102.3131594  32.5237827
 106.3642875 113.3770955  40.1717845 107.0652334 114.0107438  40.3247239
 105.8937990 113.7185687  39.4113484 114.3937702  97.7425671  35.4970501
 113.4800782  97.9729898  35.6652708 114.8230804  97.8264115  36.3484534
 114.1644161 105.9315563  37.9970395 113.5115611 106.1791470  37.3422848
 114.5424541 105.1179701  37.6632873 110.2131734 106.6735374  44.4836432
 109.5372371 106.5729503  45.1538808 111.0359368 106.5174587  44.9472430
 101.9610593 112.9107310  37.1048948 102.5464030 112.1650998  37.2376852
 101.7635431 113.2211267  37.9885611  96.5528248 105.4812910  35.8253391
  96.5912347 104.9476501  36.6190509  96.0468541 104.9548116  35.2064368
 103.9319010 100.3277451  39.3215933 103.9960337 101.1892282  38.9093331
 103.8686130  99.7151453  38.5888292 103.4071283 102.4000583  42.9688967
 104.0343321 102.0177661  43.5826492 102.5499201 102.1814785  43.3344660
 100.1836825 104.2077013  28.9007322 100.4790266 103.2987691  28.8474376
  99.2824861 104.1864752  28.5788324 103.7131072 102.2833009  34.8834871
 102.9917658 102.8968977  34.7442344 104.5024328 102.8190774  34.8051517
 106.5157386  99.6187436  41.1575522 107.0391788  99.8649732  41.9201832
 106.2969719 100.4507470  40.7378660 101.9124667 101.8891110  29.0246647
 101.5837373 101.0088489  28.8421753 102.2664038 101.8338779  29.9123037
 107.7209931 100.5601131  38.8425193 107.3806751  99.7608944  39.2445873
 107.0148937 100.8602842  38.2702026 108.3726403  97.6450443  37.2952516
 109.1952472  97.1710921  37.1731406 108.6164466  98.4240927  37.7951202
 105.8964981 104.3369564  35.1044495 105.7509562 104.6509867  35.9968776
 105.4190185 104.9554464  34.5515393 107.7561364 101.3272112  35.1525384
 107.7422933 100.4313205  34.8157682 108.4733792 101.3342776  35.7863670
 109.6087495 101.7609452  37.1978512 109.3505273 102.6826523  37.1962842
 109.0772535 101.3639887  37.8878976 100.3710644 106.8774908  38.0432156
  99.8264112 107.6534716  38.1752430 101.2489993 107.2245713  37.8851277
 107.1598260 100.2086492  30.4212954 107.2814171  99.2803138  30.6203842
 106.8700303 100.2225178  29.5091270 110.0289451  97.8941403  33.5579674
 110.0511147  97.9580736  32.6031654 110.4457510  97.0545911  33.7520180
 101.1576665 106.0044805  40.9362313 100.4158402 106.1527440  41.5226943
 100.8369410 106.2653070  40.0729062  99.8041884 111.8096560  33.9261641
  98.9673793 111.3818734  33.7445642  99.7765530 112.0029003  34.8632432
 106.6439340 101.7218489  44.6302887 106.6927495 102.5980612  44.2480657
 107.1861854 101.1795883  44.0574530 114.5395823 105.0983007  42.5396059
 115.4405686 104.9589472  42.2480057 114.6143797 105.2637462  43.4794237
 108.8738628 102.4749862  41.3849246 108.0041938 102.7683428  41.1131834
 109.1098109 103.0590307  42.1056509 111.5777662  98.6929479  38.9014666
 112.0959606  99.4290506  38.5761155 111.2232795  98.9993472  39.7361425
 111.8290256  95.1129761  34.4215563 112.1092010  94.4452950  35.0475989
 112.6140863  95.3058857  33.9090226 115.6999115 103.5347395  38.1687138
 116.6516538 103.6345493  38.1899362 115.5302565 102.7425664  38.6785222
 113.7213494 100.6202979  38.3546539 113.1263426 100.9007991  37.6593027
 113.4363191 101.1096879  39.1263280 118.3281681 103.5464558  37.3287721
 117.8120730 102.7623015  37.1417649 119.2121629 103.2183275  37.4934240
 115.9892408  97.2905574  33.2883533 115.7917229  96.9820662  34.1726865
 116.5992113  98.0167213  33.4181463 109.9009216 109.6767314  44.7857298
 110.8212225 109.8545913  44.9797345 109.8658799 108.7323359  44.6336998
  99.1191381 104.8705908  33.7110573  98.7994165 104.0171216  33.4184947
  98.5724809 105.0854486  34.4668540 102.8971288 107.5868349  37.4280080
 103.1157298 108.5185457  37.4468113 103.3097062 107.2276323  38.2134883
 109.8175506  98.0936434  29.4155768 109.0076234  97.7483519  29.7911014
 110.5059923  97.7843978  30.0043379 111.7466054  97.1714481  31.0380065
 112.2997093  97.5909934  31.6970088 111.9836141  96.2450229  31.0803021
 107.7699154 103.1601555  46.8182828 107.6695881 104.1095911  46.7494920
 107.5520696 102.8319793  45.9458899  98.9879641 108.4908819  35.6803695
  98.2943112 108.0762772  35.1673649  99.7352632 108.5329356  35.0837113
 113.5748428  98.6820064  32.7480049 114.0748206  98.7936598  31.9394368
 114.2184036  98.3781117  33.3880858 107.6330424 106.5898693  45.6347890
 107.1497505 107.3899053  45.8411779 107.7191363 106.6006638  44.6815334
 100.9016383 108.4227073  33.5569709 100.8787071 108.5214760  32.6051593
 101.2117020 109.2692224  33.8786876 103.5603761 110.4803228  37.6716324
 104.5147015 110.4487170  37.6046255 103.3616285 110.0193852  38.4866550
 104.1503143 109.0504344  40.2387122 104.9696032 109.5448423  40.2621959
 104.4239951 108.1336312  40.2104689  99.4038058 103.3842478  40.9379319
 100.0496921 102.8741432  41.4266544  99.1955209 104.1211160  41.5122744
 111.7393787  94.2425299  30.9449152 110.9726183  93.6883786  31.0905834
 112.1504492  94.3147168  31.8063303 103.7435549 100.5310095  45.0354333
 104.6067010 100.1746900  45.2457657 103.1700959 100.1923990  45.7229737
  50.2851192  -1.8640742  28.7224199  50.2263738  -2.5481522  28.0554782
  50.6870710  -1.1221752  28.2704825  48.7702865  -2.1625825  31.2988009
  49.3142769  -1.5495867  30.8042964  48.1889710  -1.6046246  31.8155022
  52.0931660  -2.7029771  30.6349331  51.3027204  -2.7205632  30.0953830
  51.8565014  -2.1641477  31.3898367  53.7147732  -3.4340363  28.1924081
  53.4232540  -3.0710382  29.0287542  53.1019863  -4.1473355  28.0137413
  46.8928924  -4.5166058  33.1616766  47.7620084  -4.3425406  32.8003401
  46.4135676  -3.6971641  33.0392495  58.5521400   7.1922568  22.5662040
  59.1899810   7.0729315  21.8625381  58.4342243   8.1403412  22.6249993
  55.3611106   7.1449996  22.5023565  55.0229618   7.0291061  21.6144100
  56.2300874   6.7441161  22.4824571  55.8430889   8.2984848  28.4609771
  55.8319530   7.9037646  27.5890274  56.0051529   7.5650920  29.0543542
  48.7662354  10.4936664  21.3304677  49.5583646  10.1527489  20.9150976
  49.0059004  10.6031639  22.2506830  52.5638150  11.0821960  27.4088955
  52.2728016  11.9867590  27.2935621  53.1995135  11.1238487  28.1233024
  53.4894357   8.4598808  23.9990314  54.0857929   8.2354831  23.2847277
  53.5469329   7.7183554  24.6015762  63.5071095   4.8549255  20.5448227
  64.2396267   4.2848472  20.7786057  62.7510451   4.4670855  20.9854733
  61.0296516  -1.4329171  25.0042836  60.6979841  -0.5633760  24.7804051
  60.4342129  -1.7492887  25.6836866  57.5228035  10.7683375  24.4038748
  57.2228758  11.6708414  24.2954556  57.1779095  10.5015558  25.2559901
  60.9225179   3.2865915  22.0836186  60.0142056   3.2181324  21.7894947
  60.8712775   3.7637860  22.9118011  52.5048815  17.5327695  17.3709716
  52.4272845  18.4835521  17.4498197  51.9010459  17.1873568  18.0284642
  54.9966045   4.7055561  30.0271083  54.2199379   5.2649481  30.0173948
  55.6356608   5.1912344  30.5485953  62.7886826   1.4882354  23.8614060
  62.1461206   1.7814887  23.2153854  62.2841754   1.3735274  24.6667256
  53.2512417   7.5141014  29.5889050  53.9927102   8.0526058  29.3123874
  52.5449403   8.1407303  29.7460602  58.7267757   9.6570155  28.1861211
  59.1351113   9.2152565  27.4415844  58.0045018   9.0822782  28.4395404
  55.0798827   4.5942761  25.5594768  55.9260022   5.0182175  25.7029417
  55.0197465   3.9376386  26.2533332  59.0496571  10.2171345  21.9413500
  58.4205434  10.3817059  21.2389568  58.6622234  10.6312955  22.7124464
  62.9285803  11.1525783  19.2957864  62.2436842  11.5324685  18.7454897
  63.0129653  11.7621110  20.0289812  58.2298272   2.2547130  27.2175942
  57.9859204   3.0089190  26.6810218  58.5058203   2.6332477  28.0523189
  60.1836735   8.7985742  25.8953208  60.3953630   9.4417502  25.2187589
  60.1366483   7.9648059  25.4275138  51.4948614   9.5017235  22.1443349
  52.0649971   9.9304503  21.5060833  52.0856726   9.2199820  22.8427534
  51.9873781   4.6680662  30.3904360  51.3572442   5.3496943  30.6239757
  51.8809869   4.5563744  29.4457498  61.2982563  11.6757698  24.0675565
  62.1200007  11.2737885  23.7858247  61.2944966  11.5725932  25.0191681
  55.0639166  11.2241741  26.2236275  55.1283599  11.6862148  27.0594447
  54.3550090  10.5939106  26.3518585  69.3888556   8.0196446  20.4160536
  68.6352264   7.4503844  20.2604541  69.5236097   7.9859111  21.3631171
  51.2654524  -1.0298572  32.7529611  50.8721469  -1.5832373  33.4277255
  52.0820664  -0.7187993  33.1436129  50.0411466  13.5251043  18.7465934
  50.2178094  14.4469007  18.5586918  50.8368300  13.2109462  19.1760314
  54.1822485   0.3859307  30.3449868  54.9232198   0.9866460  30.2654330
  54.4140407  -0.3563055  29.7867910  49.3263823   5.5715675  28.6228097
  49.2117338   4.6700932  28.9235196  48.4708340   5.8179371  28.2712914
  56.4055660  13.5133415  30.2215598  55.9619515  12.7269793  29.9036502
  57.0672874  13.7012565  29.5559489  51.1642782  15.0429217  24.7476276
  51.7150207  14.9146280  23.9753270  50.3254257  15.3424106  24.3971169
  58.5036898  13.7936215  28.2496999  58.4855374  14.6145096  27.7577268
  59.4256819  13.6690290  28.4747140  54.9609953  11.3080344  29.0920508
  55.4938289  10.5468633  28.8619815  54.4324034  11.0153996  29.8344662
  61.3055511   8.6315357  21.7206366  60.6479186   9.3214619  21.8086494
  62.1095911   9.0211789  22.0640352  60.1160970   6.9859730  19.7710308
  60.6292852   7.6189722  20.2732017  60.7662194   6.3860926  19.4053668
  56.5941801   4.4609186  22.0168648  55.6764362   4.6824133  21.8590336
  57.0101945   4.5355496  21.1580355  60.8822766  11.9665731  17.8989450
  60.4285093  11.1256641  17.9554641  60.2516733  12.6027130  18.2364230
  59.3255706  13.8042228  18.8339268  59.6178680  14.3647285  18.1151634
  59.8354326  14.0970789  19.5892427  54.2889331  14.5822579  19.9232722
  54.2465510  14.8083426  18.9941254  55.2052030  14.3485954  20.0718523
  57.7354965   5.0506647  26.8213351  58.0904352   5.2778120  27.6807817
  58.3827096   5.3825024  26.1990606  63.4652702   8.1725083  17.5262680
  63.3270600   8.3626679  16.5983869  63.1088920   8.9344465  17.9830731
  63.4922081  10.2401610  22.5373951  63.9258588  10.1476899  23.3857005
  64.2053662  10.2159110  21.8993967  57.2249976  13.8403704  24.0707052
  57.2786998  14.4094640  24.8384768  56.3564757  14.0105589  23.7061089
  50.1048369   3.5421260  25.5531503  50.7771423   3.3338622  24.9044152
  49.2778156   3.3443346  25.1136735  64.3537631  10.2825310  25.0706837
  64.5473521  11.1871121  25.3166112  64.2538249   9.8232729  25.9045422
  56.0073941   0.1683201  27.5697164  55.3601856   0.8673151  27.4761640
  56.7774957   0.6019345  27.9373412  59.4152739  10.4332053  30.6447717
  59.2638246  10.2042605  29.7277801  59.4057419  11.3902654  30.6579062
  56.1838076   8.0063966  25.6293984  57.1130136   8.1575125  25.4562951
  55.7629106   8.0947987  24.7742630  54.9826408  12.0314630  23.3992521
  54.8437493  11.6633415  24.2718459  54.1941004  12.5462270  23.2276479
  55.5774560  17.1323727  14.7418058  55.7526315  16.6611770  15.5563681
  54.8907348  17.7589493  14.9699319  56.5331623  11.4096233  20.7881359
  56.1981455  11.3697003  21.6839009  56.0335568  10.7440949  20.3151769
  50.5075867   6.8163863  26.3133940  50.3695665   6.0844102  26.9145479
  51.4180790   6.7272763  26.0318128  53.1358167   6.5283822  25.8017620
  53.8457786   5.8877014  25.7604238  53.0927476   6.7796717  26.7243801
  61.1244946  13.4651176  28.7224199  61.0657492  12.7810396  28.0554782
  61.5264464  14.2070166  28.2704825  51.8487101   3.5149040  27.6213259
  51.3124458   3.0639779  28.2734856  51.2603810   3.6494949  26.8783724
  50.1435645  20.2813089  21.5157918  50.3832243  20.9131614  22.1936937
  49.3004841  19.9301129  21.8023277  61.1262353  11.4290760  26.9538179
  60.2389132  11.0916681  27.0764578  61.6960904  10.6973791  27.1906944
  54.6563507  16.0892212  23.9199422  54.5833678  16.8947183  24.4318727
  54.2140900  16.2884178  23.0947443  54.4453286  15.3263982  17.4302244
  53.6620808  15.8685662  17.5240468  55.1446031  15.8437962  17.8296485
  65.6079694   6.8398977  21.7154740  65.5969570   7.7223692  21.3448674
  64.7397073   6.4870528  21.5209278  57.1162190  15.9879046  26.0757581
  57.8290162  16.6226511  26.0033482  56.6252219  16.0842912  25.2597583
  52.1674104  13.7373489  26.8963152  52.8683563  14.3709972  27.0492546
  51.6969219  14.0788221  26.1358791  59.9675390   6.2918097  24.7215702
  59.3146840   6.5394004  24.0668155  60.3455770   5.4782235  24.3878179
  56.9282564  16.3277790  18.8243872  57.1104958  15.5099446  19.2871625
  57.7515550  16.5445482  18.3868762  57.2624729  15.2545975  16.0858921
  57.7912496  14.7438430  15.4729083  57.5252949  14.9388505  16.9504454
  56.0162963   7.0337908  31.2081739  55.3403600   6.9332037  31.8784114
  56.8390597   6.8777122  31.6717736  47.7641822  13.2709844  23.8294254
  48.3495259  12.5253532  23.9622158  47.5666660  13.5813801  24.7130918
  50.6180477  16.3061092  18.8456697  49.9490852  16.7907219  18.3620737
  50.4793347  16.5530312  19.7600075  54.7585746  18.3404835  25.4439355
  55.3104054  18.5036457  26.2088440  55.0991939  18.9309273  24.7719380
  49.2102511   2.7603118  29.6934274  49.8374550   2.3780195  30.3071798
  48.3530430   2.5417320  30.0589966  59.6096620  13.1666093  31.2988009
  60.1536524  13.7796051  30.8042964  59.0283465  13.7245671  31.8155022
  57.8954133  16.2886811  22.4303037  57.7705272  15.4876551  21.9213983
  58.5533224  16.7833004  21.9417007  59.9589041  14.0895831  24.0582587
  59.0119377  13.9701182  23.9860914  60.3071814  13.2018329  24.1408849
  52.3188615  -0.0210030  27.8820829  52.8423016   0.2252266  28.6447138
  52.1000948   0.8110005  27.4623966  56.9635475  13.8848547  20.2586939
  56.8160437  12.9565255  20.4394509  57.7888968  13.9068638  19.7744015
  60.5669596  14.7077106  21.3451812  61.4916144  14.5019967  21.2076263
  60.3984900  14.4593507  22.2541154  53.5241160   0.9203665  25.5670500
  53.1837980   0.1211478  25.9691180  52.8180166   1.2205376  24.9947333
  55.4118724   2.1211986  23.9223818  55.1536502   3.0429057  23.9208149
  54.8803764   1.7242421  24.6124282  60.3564913  15.2262773  16.7013904
  60.5301790  14.6609196  15.9487756  60.8493804  16.0263668  16.5193394
  46.1741872   7.2377442  24.7677462  45.6295341   8.0137250  24.8997737
  47.0521222   7.5848247  24.6096584  66.2104304   7.9899196  18.3204203
  66.6535450   7.2406522  17.9223327  65.3330814   7.9809333  17.9377935
  61.3440085  14.5429538  13.8010802  62.0390990  15.1636230  14.0198117
  61.6863235  13.6924889  14.0763180  46.9607894   6.3647339  27.6607619
  46.2189630   6.5129974  28.2472250  46.6400639   6.6255604  26.7974369
  63.2431508  11.9929243  15.3298133  63.7682832  12.3316516  14.6047453
  63.1553861  11.0576259  15.1461267  54.9051557  15.9063317  27.4588009
  55.2138683  15.6612464  28.3310709  55.7027039  16.1109955  26.9706880
  54.9272169  18.0601227  19.6893386  54.4877159  17.5677605  20.3826243
  55.6780286  17.5174194  19.4485461  47.4064508  14.2512767  19.6918014
  48.2322528  13.9516539  19.3116657  47.0558560  13.4820390  20.1407803
  52.3746041  13.6039236  21.7615688  51.7526050  12.9409941  21.4617915
  53.0450908  13.6300368  21.0789335  52.4470569   2.0821024  31.3548194
  52.4958724   2.9583146  30.9725963  52.9893083   1.5398417  30.7819837
  62.9325414  12.6262147  30.6349331  62.1420958  12.6086286  30.0953830
  62.6958769  13.1650441  31.3898367  63.0523289   9.4754613  27.9482059
  63.1021294   9.3104621  28.8897582  62.9437213   8.6081872  27.5579940
  60.3427052   5.4585541  29.2641366  61.2436914   5.3192006  28.9725364
  60.4175026   5.6239996  30.2039543  54.6769857   2.8352396  28.1094552
  53.8073166   3.1285962  27.8377141  54.9129337   3.4192841  28.8301816
  64.5541486  11.8951555  28.1924081  64.2626294  12.2581535  29.0287542
  63.9413617  11.1818563  28.0137413  65.7537168   9.4604435  20.7126651
  66.5884060   9.8994239  20.8764211  65.8896297   8.9843088  19.8934897
  62.8028674   7.0184169  26.6604139  63.2782796   7.2111816  25.8522990
  61.8794240   7.0743355  26.4147522  57.3808891  -0.9467987  25.6259973
  57.8990835  -0.2106960  25.3006461  57.0264024  -0.6403994  26.4606732
  61.5030343   3.8949930  24.8932444  62.4547766   3.9948027  24.9144668
  61.3333794   3.1028198  25.4030529  59.5244723   0.9805513  25.0791845
  58.9294655   1.2610525  24.3838334  59.2394420   1.4699414  25.8508586
  63.9818421   7.1156049  24.0074744  63.9494741   6.1772050  24.1934428
  64.5919045   7.1940086  23.2740569  64.1312910   3.9067093  24.0533027
  63.6151958   3.1225549  23.8662956  65.0152858   3.5785809  24.2179547
  69.7994971   8.1772056  23.1480781  70.5298360   7.9157344  23.7088484
  69.1901917   7.4400778  23.1882849  67.8810268   6.3179919  23.7455232
  67.1543432   6.1835884  23.1371724  67.4657555   6.6256747  24.5511950
  55.7040445  10.0369848  31.5102605  56.6243454  10.2148447  31.7042652
  55.6690028   9.0925894  31.3582304  48.7002517   7.9470883  24.1525386
  48.9188527   8.8787991  24.1713420  49.1128291   7.5878857  24.9380190
  53.5730382   3.5204089  33.5428135  53.4727109   4.4698446  33.4740226
  53.3551925   3.1922328  32.6704205  53.4361653   6.9501228  32.3593197
  52.9528734   7.7501588  32.5657086  53.5222592   6.9609172  31.4060641
  49.3634990  10.8405762  24.3961631  50.3178244  10.8089705  24.3291562
  49.1647514  10.3796386  25.2111856  49.9534372   9.4106878  26.9632428
  50.7727261   9.9050957  26.9867265  50.2271180   8.4938846  26.9349996
  65.4988063   2.5391771  21.0988664  66.0932554   2.2987507  20.3881972
  65.5714647   1.8198901  21.7262200  47.7185219  16.3825382  21.4131828
  47.5839687  15.6225783  20.8469826  47.3017281  17.1066282  20.9460617
  67.8059136   5.8457972  19.8732085  67.2458694   5.9151161  20.6463647
  67.2002639   5.6698956  19.1531581  50.8754345  17.2794699  21.6250271
  50.7586729  18.2240131  21.5228961  50.0546791  16.9768260  22.0136070
  45.2069286   3.7445012  27.6624625  45.8528150   3.2343966  28.1511850
  44.9986437   4.4813694  28.2368051  57.7322679  10.8125860  33.1616766
  58.6013838  10.9866512  32.8003401  57.2529430  11.6320277  33.0392495
  51.9008859  17.9322961  24.8406199  52.8036106  17.9646571  25.1572694
  51.6746229  17.0023412  24.8552535  53.6562461  16.6853947  21.5016278
  52.7058092  16.6855809  21.3880650  53.9594947  15.9386682  20.9852313
  49.5466777   0.8912629  31.7599639  50.4098239   0.5349434  31.9702964
  48.9732188   0.5526524  32.4475044  69.3915154  22.5214486  22.5662040
  70.0293564  22.4021233  21.8625381  69.2735997  23.4695330  22.6249993
  66.2004861  22.4741914  22.5023565  65.8623372  22.3582978  21.6144100
  67.0694629  22.0733079  22.4824571  62.0591676  24.3277390  18.4920456
  61.4956541  24.2367327  17.7236744  61.9444071  23.5077295  18.9722949
  66.6824644  23.6276765  28.4609771  66.6713284  23.2329564  27.5890274
  66.8445283  22.8942838  29.0543542  59.6056108  25.8228582  21.3304677
  60.3977400  25.4819406  20.9150976  59.8452758  25.9323557  22.2506830
  67.6391235  27.9948358  13.8034921  66.9879215  28.5802438  13.4168935
  68.4335598  28.5254553  13.8629958  61.5646862  25.0837495  14.2022055
  62.3377738  24.5366482  14.0634931  61.9172261  25.9481744  14.4136517
  63.4031905  26.4113877  27.4088955  63.1121771  27.3159508  27.2935621
  64.0388889  26.4530405  28.1233024  64.3288112  23.7890726  23.9990314
  64.9251684  23.5646748  23.2847277  64.3863083  23.0475471  24.6015762
  63.9013140  21.2430161  11.8340505  64.1538661  20.7211682  11.0723968
  62.9637699  21.0796307  11.9367189  68.9456423  20.2465939  19.6415249
  69.7319512  19.8285363  19.2905666  69.2095127  21.1512032  19.8096897
  69.1166500  25.6838790  14.3403905  68.4812333  25.7573416  15.0524810
  68.7863907  26.2732389  13.6622985  74.3464850  20.1841173  20.5448227
  75.0790022  19.6140389  20.7786057  73.5904206  19.7962773  20.9854733
  63.6209429  23.1458267  14.0364880  63.5045687  22.4703170  14.7045965
  63.7311689  22.6590641  13.2197033  65.9640970  22.6068414  17.7411569
  65.5999177  22.0799035  18.4524491  66.8208086  22.2166883  17.5678055
  71.8690270  13.8962747  25.0042836  71.5373595  14.7658158  24.7804051
  71.2735884  13.5799031  25.6836866  65.6046457  17.6358314  12.7372918
  65.7720859  18.5038550  13.1043389  65.4143626  17.7985596  11.8134207
  68.3621790  26.0975293  24.4038748  68.0622513  27.0000332  24.2954556
  68.0172849  25.8307476  25.2559901  61.8134271  22.5489090  20.4375453
  60.8884768  22.4165304  20.6453145  62.0618684  23.3283309  20.9345395
  71.7618934  18.6157833  22.0836186  70.8535811  18.5473241  21.7894947
  71.7106529  19.0929778  22.9118011  65.5835677  20.0915971  13.7219585
  65.4635303  20.5373022  14.5605065  64.8888266  20.4401289  13.1633123
  59.1743082  22.1922363  21.2719242  59.3035463  22.4456842  22.1858654
  58.4940534  22.7850071  20.9523897  63.3442570  32.8619613  17.3709716
  63.2666599  33.8127438  17.4498197  62.7404213  32.5165486  18.0284642
  65.8359799  20.0347479  30.0271083  65.0593133  20.5941399  30.0173948
  66.4750362  20.5204262  30.5485953  73.6280580  16.8174271  23.8614060
  72.9854960  17.1106805  23.2153854  73.1235509  16.7027192  24.6667256
  71.2820744  20.5637445  14.5499919  72.1938600  20.7964831  14.3747616
  70.7730391  21.1474489  13.9874997  64.0906172  22.8432932  29.5889050
  64.8320856  23.3817976  29.3123874  63.3843157  23.4699221  29.7460602
  69.5661511  24.9862072  28.1861211  69.9744867  24.5444483  27.4415844
  68.8438773  24.4114700  28.4395404  65.9192581  19.9234679  25.5594768
  66.7653777  20.3474093  25.7029417  65.8591219  19.2668303  26.2533332
  69.8890326  25.5463263  21.9413500  69.2599188  25.7108977  21.2389568
  69.5015988  25.9604873  22.7124464  73.7679558  26.4817701  19.2957864
  73.0830596  26.8616602  18.7454897  73.8523407  27.0913028  20.0289812
  69.0692027  17.5839048  27.2175942  68.8252959  18.3381108  26.6810218
  69.3451957  17.9624395  28.0523189  71.0230489  24.1277660  25.8953208
  71.2347385  24.7709420  25.2187589  70.9760238  23.2939976  25.4275138
  68.6256718  16.7395481  22.7989780  67.7641197  17.0376734  23.0906517
  68.6519153  16.9565879  21.8670812  65.4418288  25.2837671  19.2063585
  65.9056633  25.5625374  18.4168208  65.1775086  24.3821116  19.0236676
  62.3342369  24.8309153  22.1443349  62.9043726  25.2596421  21.5060833
  62.9250481  24.5491737  22.8427534  64.3787174  21.4060823  16.0153151
  65.0811217  21.8581867  16.4827077  64.0467802  20.7644642  16.6433044
  62.8267535  19.9972580  30.3904360  62.1966196  20.6788861  30.6239757
  62.7203623  19.8855662  29.4457498  58.1212508  19.6644376  21.3170284
  57.3311562  19.9201905  20.8410395  58.6123755  20.4792714  21.4222325
  72.1376317  27.0049615  24.0675565  72.9593761  26.6029803  23.7858247
  72.1338720  26.9017849  25.0191681  60.0727253  20.0288955  18.2753761
  59.2758417  20.1407650  18.7937257  59.8452845  20.3675608  17.4094651
  65.9032921  26.5533659  26.2236275  65.9677353  27.0154066  27.0594447
  65.1943845  25.9231024  26.3518585  56.4050211  19.9174867  23.7485275
  56.6558249  20.8021876  24.0142851  56.9409759  19.7379468  22.9760367
  80.2282310  23.3488364  20.4160536  79.4746019  22.7795762  20.2604541
  80.3629852  23.3151028  21.3631171  65.6180939  28.2201766  16.0915256
  65.4826613  29.0653302  16.5200104  66.1590751  28.4221044  15.3281190
  62.1048278  14.2993346  32.7529611  61.7115224  13.7459544  33.4277255
  62.9214418  14.6103924  33.1436129  59.0710336  25.7377204  16.6643181
  59.5834856  26.5320454  16.8148746  59.7233049  25.0403495  16.5976782
  60.8805221  28.8542960  18.7465934  61.0571849  29.7760925  18.5586918
  61.6762054  28.5401380  19.1760314  65.0216239  15.7151225  30.3449868
  65.7625953  16.3158378  30.2654330  65.2534162  14.9728863  29.7867910
  60.1657577  20.9007592  28.6228097  60.0511092  19.9992850  28.9235196
  59.3102095  21.1471289  28.2712914  67.2449415  28.8425333  30.2215598
  66.8013269  28.0561711  29.9036502  67.9066628  29.0304483  29.5559489
  62.0036536  30.3721134  24.7476276  62.5543961  30.2438198  23.9753270
  61.1648012  30.6716023  24.3971169  69.3430653  29.1228133  28.2496999
  69.3249128  29.9437014  27.7577268  70.2650573  28.9982208  28.4747140
  65.8003707  26.6372262  29.0920508  66.3332044  25.8760550  28.8619815
  65.2717788  26.3445914  29.8344662  68.9673402  11.7432328  24.6214149
  68.6237671  12.6333970  24.5453260  69.3352365  11.5533986  23.7583734
  57.0359253  24.0665858  17.4402751  57.8734475  24.4762867  17.2236459
  57.2137520  23.1265301  17.4102945  68.9323685  21.7340939  13.1286584
  68.4170308  22.5045544  13.3674972  68.6600993  21.0606075  13.7519646
  66.5170796  16.5790640  18.1871823  65.6612392  16.1897490  18.0077461
  66.9297748  16.6582601  17.3271608  68.0469942  14.1136983  22.5863383
  67.5434738  14.0767118  21.7731188  68.3400549  15.0229726  22.6460039
  64.2912828  14.1975713  21.5929564  65.1565825  14.0018522  21.2335454
  64.3590337  13.9686065  22.5198921  73.9057959  24.4873294  15.0639758
  73.1287402  24.1484453  14.6194920  74.5849440  24.4925917  14.3894723
  68.7209988  19.6068031  14.9546366  68.4160124  19.9214180  15.8056509
  69.6740430  19.6849451  14.9973699  67.1656420  25.7658254  16.6039320
  66.6377781  25.0311014  16.2912557  66.6643923  26.5432931  16.3579288
  72.1449266  23.9607275  21.7206366  71.4872940  24.6506536  21.8086494
  72.9489665  24.3503707  22.0640352  61.8975147  16.4277921  18.9645931
  62.4718899  16.2053102  18.2319124  62.4846130  16.4966615  19.7174532
  70.9554725  22.3151648  19.7710308  71.4686606  22.9481640  20.2732017
  71.6055949  21.7152843  19.4053668  62.2244735  18.4582382  12.9841816
  61.3882047  18.7957068  13.3051091  62.0849504  18.3231362  12.0468953
  64.1997815  13.3019170  17.6921000  63.5462227  12.9868187  17.0677615
  64.1578289  12.6794910  18.4180823  65.3109020  23.5838465   9.6074293
  64.4036082  23.3527718   9.8065442  65.8080052  22.7876084   9.7948274
  68.2177099  32.2935972  12.5270979  67.5438798  32.5967669  13.1355937
  68.6042921  33.0965052  12.1776436  67.4335555  19.7901103  22.0168648
  66.5158117  20.0116050  21.8590336  67.8495699  19.8647414  21.1580355
  68.2170603  21.1892519  17.1471328  68.9642422  21.7013916  16.8378450
  68.4862193  20.8676572  18.0075722  66.4897253  23.6851060  14.1298283
  65.5808473  23.4010092  14.2270752  66.5192337  24.1050138  13.2701590
  71.7216521  27.2957649  17.8989450  71.2678848  26.4548559  17.9554641
  71.0910488  27.9319047  18.2364230  70.6649440  18.2249635  19.1290118
  69.9272197  17.7127021  19.4600360  70.9176214  17.7850017  18.3173395
  70.1649460  29.1334146  18.8339268  70.4572434  29.6939203  18.1151634
  70.6748081  29.4262707  19.5892427  70.7661068  11.0025887  19.7231887
  71.0719945  10.1423251  19.4357802  71.4913673  11.5943507  19.5230881
  57.0585424  21.4056574  18.1113485  56.8609824  20.8125934  17.3864551
  56.5032088  21.1008784  18.8289424  65.0382147  21.2979680  20.2308078
  65.0930757  20.3453517  20.1550555  64.2273350  21.4539119  20.7149376
  66.1873341  25.2259803  11.4686361  65.7492771  24.5095662  11.0091999
  66.9283782  25.4535918  10.9071453  62.9774507  19.9156740  17.9898457
  62.1642373  20.2150911  18.3963649  63.4733502  19.5212429  18.7072939
  65.1283085  29.9114497  19.9232722  65.0859264  30.1375343  18.9941254
  66.0445784  29.6777871  20.0718523  68.5748719  20.3798564  26.8213351
  68.9298107  20.6070038  27.6807817  69.2220850  20.7116941  26.1990606
  74.3046456  23.5017000  17.5262680  74.1664355  23.6918596  16.5983869
  73.9482675  24.2636383  17.9830731  62.4688582  17.4875095  23.6059692
  63.1087961  17.3463855  22.9082655  61.6366113  17.2009609  23.2298294
  74.3315836  25.5693527  22.5373951  74.7652342  25.4768816  23.3857005
  75.0447416  25.5451028  21.8993967  63.2448886  26.7877526  19.7194684
  64.0389485  26.2927846  19.5177259  62.5340578  26.2595389  19.3562390
  68.0643731  29.1695621  24.0707052  68.1180753  29.7386558  24.8384768
  67.1958512  29.3397506  23.7061089  59.5531650  20.9320608  15.7954437
  58.6229238  20.8705063  16.0124399  59.6489122  20.4096560  14.9991078
  59.4717199  17.4575420  18.3832679  59.7324016  18.3720754  18.2741839
  60.2934371  16.9899863  18.5329291  60.9442124  18.8713178  25.5531503
  61.6165177  18.6630540  24.9044152  60.1171910  18.6735264  25.1136735
  75.1931385  25.6117228  25.0706837  75.3867275  26.5163038  25.3166112
  75.0932003  25.1524647  25.9045422  66.8467696  15.4975119  27.5697164
  66.1995611  16.1965068  27.4761640  67.6168711  15.9311262  27.9373412
  70.2546494  25.7623971  30.6447717  70.1032000  25.5334522  29.7277801
  70.2451173  26.7194572  30.6579062  67.0231830  23.3355883  25.6293984
  67.9523890  23.4867043  25.4562951  66.6022860  23.4239904  24.7742630
  65.8220162  27.3606548  23.3992521  65.6831248  26.9925332  24.2718459
  65.0334758  27.8754187  23.2276479  66.4168314  32.4615644  14.7418058
  66.5920070  31.9903688  15.5563681  65.7301102  33.0881411  14.9699319
  67.3725377  26.7388151  20.7881359  67.0375210  26.6988921  21.6839009
  66.8729323  26.0732867  20.3151769  61.3469621  22.1455781  26.3133940
  61.2089419  21.4136019  26.9145479  62.2574545  22.0564681  26.0318128
  70.3084569  24.0844185  11.0618419  69.6913739  23.3591013  10.9651471
  69.8401057  24.8453545  10.7185493  63.9751922  21.8575740  25.8017620
  64.6851540  21.2168932  25.7604238  63.9321230  22.1088635  26.7243801
  71.9638701  28.7943093  28.7224199  71.9051247  28.1102313  28.0554782
  72.3658219  29.5362083  28.2704825  62.6880856  18.8440958  27.6213259
  62.1518213  18.3931696  28.2734856  62.0997564  18.9786867  26.8783724
  60.9829399  35.6105007  21.5157918  61.2225998  36.2423531  22.1936937
  60.1398596  35.2593047  21.8023277  71.9656108  26.7582677  26.9538179
  71.0782887  26.4208599  27.0764578  72.5354659  26.0265708  27.1906944
  53.6185255  23.0906769  20.2781230  54.3056295  22.7768499  19.6902246
  53.4633384  23.9948134  20.0048482  58.4219977  17.9796966  24.7066254
  58.3378166  17.3722635  23.9716664  57.6002683  18.4705984  24.7075750
  65.4957261  31.4184130  23.9199422  65.4227433  32.2239101  24.4318727
  65.0534654  31.6176095  23.0947443  65.2847041  30.6555900  17.4302244
  64.5014563  31.1977580  17.5240468  65.9839786  31.1729879  17.8296485
  68.5943691  16.4650529  20.0736449  69.0912390  15.7120491  19.7537519
  67.8230672  16.5014846  19.5079658  76.4473448  22.1690895  21.7154740
  76.4363325  23.0515610  21.3448674  75.5790828  21.8162445  21.5209278
  67.9555945  31.3170964  26.0757581  68.6683917  31.9518428  26.0033482
  67.4645973  31.4134830  25.2597583  69.6773472  25.2222216  17.6474872
  68.7429750  25.3423679  17.4779577  69.8550140  24.3194683  17.3834882
  65.1778660  18.6067912  19.8008134  64.8076447  18.0538952  20.4889039
  65.6737752  18.0026046  19.2483134  73.0646023  21.0639536  18.1824907
  73.5306475  21.8967527  18.1085209  73.5153523  20.5984517  18.8870165
  63.0067858  29.0665407  26.8963152  63.7077318  29.7001890  27.0492546
  62.5362973  29.4080139  26.1358791  71.1322254  27.4083357  15.1811059
  71.4082098  27.2939951  16.0904933  70.2626753  27.0100842  15.1423232
  71.0362686  13.4320123  22.2215808  70.1225765  13.6624349  22.3898015
  71.4655787  13.5158567  23.0729840  70.8069144  21.6210015  24.7215702
  70.1540594  21.8685922  24.0668155  71.1849524  20.8074153  24.3878179
  67.7676318  31.6569708  18.8243872  67.9498713  30.8391364  19.2871625
  68.5909304  31.8737400  18.3868762  68.1018484  30.5837893  16.0858921
  68.6306250  30.0730347  15.4729083  68.3646703  30.2680423  16.9504454
  66.8556717  22.3629826  31.2081739  66.1797354  22.2623955  31.8784114
  67.6784351  22.2069039  31.6717736  58.6035576  28.6001762  23.8294254
  59.1889013  27.8545450  23.9622158  58.4060415  28.9105719  24.7130918
  61.4574232  31.6353010  18.8456697  60.7884607  32.1199137  18.3620737
  61.3187101  31.8822230  19.7600075  53.1953231  21.1707362  22.5498697
  53.2337331  20.6370953  23.3435815  52.6893524  20.6442568  21.9309675
  65.5979500  33.6696753  25.4439355  66.1497808  33.8328375  26.2088440
  65.9385694  34.2601191  24.7719380  60.5743993  16.0171903  26.0461240
  60.6385320  16.8786734  25.6338637  60.5111114  15.4045904  25.3133598
  60.0496266  18.0895035  29.6934274  60.6768305  17.7072113  30.3071798
  59.1924185  17.8709237  30.0589966  70.4490374  28.4958011  31.2988009
  70.9930278  29.1087969  30.8042964  69.8677219  29.0537589  31.8155022
  56.8261809  19.8971464  15.6252629  57.1215250  18.9882143  15.5719682
  55.9249844  19.8759204  15.3033631  68.7347887  31.6178729  22.4303037
  68.6099027  30.8168468  21.9213983  69.3926978  32.1124922  21.9417007
  60.3556056  17.9727461  21.6080177  59.6342641  18.5863429  21.4687651
  61.1449311  18.5085226  21.5296823  70.7982796  29.4187749  24.0582587
  69.8513131  29.2993100  23.9860914  71.1465569  28.5310247  24.1408849
  63.1582369  15.3081888  27.8820829  63.6816771  15.5544184  28.6447138
  62.9394702  16.1401922  27.4623966  58.5549650  17.5785562  15.7491954
  58.2262356  16.6982941  15.5667060  58.9089021  17.5233231  16.6368343
  67.8029229  29.2140465  20.2586939  67.6554191  28.2857172  20.4394509
  68.6282723  29.2360556  19.7744015  61.6691473  17.8658532  16.1167432
  62.0087546  18.3944453  15.3946040  62.1163594  18.2038938  16.8925998
  71.4063351  30.0369024  21.3451812  72.3309898  29.8311885  21.2076263
  71.2378654  29.7885425  22.2541154  64.3634914  16.2495583  25.5670500
  64.0231735  15.4503396  25.9691180  63.6573920  16.5497294  24.9947333
  65.0151386  13.3344895  24.0197823  65.8377455  12.8605373  23.8976713
  65.2589450  14.1135379  24.5196509  63.6559620  16.3633154  14.3160724
  64.3767983  16.7414406  13.8124441  63.0324925  17.0822030  14.4195702
  67.7990743  17.0678303  15.2519057  68.0154358  17.9502940  14.9507885
  67.3184811  16.6764516  14.5224699  62.5389965  20.0264016  21.8289801
  62.3934545  20.3404319  22.7214083  62.0615168  20.6448916  21.2760700
  64.3986348  17.0166564  21.8770691  64.3847916  16.1207657  21.5402989
  65.1158776  17.0237227  22.5108977  66.2512478  17.4503904  23.9223818
  65.9930256  18.3720975  23.9208149  65.7197519  17.0534338  24.6124282
  71.1958667  30.5554691  16.7013904  71.3695545  29.9901114  15.9487756
  71.6887558  31.3555586  16.5193394  57.0135627  22.5669360  24.7677462
  56.4689095  23.3429168  24.8997737  57.8914977  22.9140165  24.6096584
  63.8023244  15.8980944  17.1458261  63.9239155  14.9697590  17.3449148
  63.5125286  15.9119630  16.2336576  66.6714434  13.5835854  20.2824981
  66.6936131  13.6475188  19.3276960  67.0882493  12.7440363  20.4765487
  77.0498058  23.3191114  18.3204203  77.4929204  22.5698439  17.9223327
  76.1724569  23.3101250  17.9377935  72.1833840  29.8721455  13.8010802
  72.8784744  30.4928148  14.0198117  72.5256990  29.0216807  14.0763180
  57.8001649  21.6939256  27.6607619  57.0583385  21.8421892  28.2472250
  57.4794393  21.9547522  26.7974369  74.0825263  27.3221161  15.3298133
  74.6076587  27.6608434  14.6047453  73.9947615  26.3868176  15.1461267
  65.7445311  31.2355235  27.4588009  66.0532438  30.9904381  28.3310709
  66.5420793  31.4401873  26.9706880  65.7665923  33.3893144  19.6893386
  65.3270914  32.8969523  20.3826243  66.5174040  32.8466112  19.4485461
  58.2458262  29.5804685  19.6918014  59.0716282  29.2808457  19.3116657
  57.8952314  28.8112308  20.1407803  63.2139796  28.9331153  21.7615688
  62.5919805  28.2701858  21.4617915  63.8844663  28.9592285  21.0789335
  56.4466868  27.4991012  20.6506948  55.6098776  27.0713186  20.4690949
  56.4190513  27.6923455  21.5877739  63.2864323  17.4112941  31.3548194
  63.3352479  18.2875064  30.9725963  63.8286837  16.8690334  30.7819837
  73.7719169  27.9554065  30.6349331  72.9814712  27.9378203  30.0953830
  73.5352523  28.4942358  31.3898367  73.8917044  24.8046531  27.9482059
  73.9415049  24.6396538  28.8897582  73.7830967  23.9373790  27.5579940
  62.7753303  27.4835077  15.2374148  62.9241423  28.1670541  14.5840821
  63.5819746  27.4640167  15.7523604  71.1820806  20.7877459  29.2641366
  72.0830669  20.6483924  28.9725364  71.2568781  20.9531914  30.2039543
  65.5163612  18.1644314  28.1094552  64.6466921  18.4577880  27.8377141
  65.7523092  18.7484759  28.8301816  75.3935241  27.2243472  28.1924081
  75.1020049  27.5873453  29.0287542  74.7807372  26.5110481  28.0137413
  76.5930923  24.7896352  20.7126651  77.4277814  25.2286156  20.8764211
  76.7290052  24.3135005  19.8934897  73.6422429  22.3476087  26.6604139
  74.1176551  22.5403733  25.8522990  72.7187994  22.4035273  26.4147522
  60.5305936  23.5100254  16.2435217  60.2851977  22.6062584  16.4415427
  60.7001850  23.5117405  15.3014695  68.2202645  14.3823931  25.6259973
  68.7384589  15.1184958  25.3006461  67.8657778  14.6887924  26.4606732
  59.8001583  19.2428612  13.7421378  59.1070828  19.3172967  13.0861414
  59.5553335  18.4788956  14.2642895  68.4715240  10.8024213  21.1460869
  68.7516993  10.1347402  21.7721296  69.2565846  10.9953309  20.6335533
  66.2748708  29.9783207  12.7085896  65.7022675  30.5973394  12.2556367
  66.8481502  30.5282569  13.2425817  72.3424098  19.2241847  24.8932444
  73.2941521  19.3239945  24.9144668  72.1727548  18.4320116  25.4030529
  70.3638477  16.3097430  25.0791845  69.7688409  16.5902443  24.3838334
  70.0788174  16.7991331  25.8508586  69.4945968  30.2620357  13.8394478
  70.4276641  30.1965919  14.0427353  69.4069181  31.0976624  13.3809010
  72.1233985  29.5786228  10.7998425  72.0447616  29.2446091  11.6934183
  72.9443651  30.0707996  10.7989898  74.8212176  22.4447967  24.0074744
  74.7888496  21.5063968  24.1934428  75.4312799  22.5232004  23.2740569
  66.6595507  21.3144020  10.0501948  67.6054611  21.1850228  10.1190366
  66.2809752  20.5758682  10.5271376  74.9706664  19.2359010  24.0533027
  74.4545713  18.4517467  23.8662956  75.8546613  18.9077727  24.2179547
  72.6317391  12.9800026  20.0128840  72.4342212  12.6715114  20.8972172
  73.2417097  13.7061665  20.1426770  80.6388726  23.5063974  23.1480781
  81.3692114  23.2449262  23.7088484  80.0295671  22.7692696  23.1882849
  78.7204023  21.6471836  23.7455232  77.9937186  21.5127801  23.1371724
  78.3051310  21.9548665  24.5511950  66.5434199  25.3661766  31.5102605
  67.4637209  25.5440365  31.7042652  66.5083782  24.4217811  31.3582304
  55.7616364  20.5600360  20.4355880  55.4419148  19.7065668  20.1430254
  55.2149792  20.7748938  21.1913847  59.5396272  23.2762801  24.1525386
  59.7582281  24.2079908  24.1713420  59.9522045  22.9170775  24.9380190
  66.4600489  13.7830886  16.1401075  65.6501218  13.4377971  16.5156321
  67.1484906  13.4738430  16.7288686  68.3891038  12.8608933  17.7625371
  68.9422076  13.2804386  18.4215394  68.6261124  11.9344681  17.8048327
  64.4124137  18.8496006  33.5428135  64.3120864  19.7990363  33.4740226
  64.1945679  18.5214245  32.6704205  55.6304624  24.1803271  22.4049001
  54.9368096  23.7657224  21.8918956  56.3777615  24.2223808  21.8082420
  71.7669845  14.9709458  17.2704035  71.1868514  15.6294262  16.8882088
  71.5005777  14.1486803  16.8591453  70.2173411  14.3714516  19.4725356
  70.7173190  14.4831050  18.6639675  70.8609019  14.0675568  20.1126164
  64.2755407  22.2793145  32.3593197  63.7922489  23.0793505  32.5657086
  64.3616346  22.2901090  31.4060641  57.5441367  24.1121525  20.2815016
  57.5212055  24.2109212  19.3296899  57.8542003  24.9586676  20.6032182
  60.2028744  26.1697680  24.3961631  61.1571998  26.1381622  24.3291562
  60.0041268  25.7088304  25.2111856  60.7928127  24.7398796  26.9632428
  61.6121016  25.2342875  26.9867265  61.0664934  23.8230764  26.9349996
  70.5494723  17.1309548  16.3260384  69.6620578  17.4159199  16.1080578
  70.9648712  16.9703312  15.4787661  73.9009259  17.1556069  20.0414723
  74.6769649  17.6452522  20.3139340  73.1757393  17.5814124  20.4986592
  76.3381818  17.8683689  21.0988664  76.9326308  17.6279424  20.3881972
  76.4108401  17.1490819  21.7262200  58.5578973  31.7117299  21.4131828
  58.4233441  30.9517700  20.8469826  58.1411036  32.4358199  20.9460617
  69.6937936  26.8954223  10.4208404  70.3973786  27.1004225  11.0366059
  68.9700585  27.4630985  10.6857487  70.5235747  22.6464084  16.5410674
  70.4670948  23.1032636  15.7018306  71.0764089  21.8854769  16.3633517
  74.3340552  18.4353816  17.3660793  74.0777487  18.0350452  18.1969001
  73.7093421  19.1497610  17.2410933  78.6452890  21.1749889  19.8732085
  78.0852448  21.2443079  20.6463647  78.0396394  20.9990874  19.1531581
  61.7148099  32.6086616  21.6250271  61.5980483  33.5532049  21.5228961
  60.8940545  32.3060178  22.0136070  71.6024634  27.3336752  12.4706864
  72.4370238  26.9017951  12.2884339  71.4408977  27.1618766  13.3983758
  71.2570526  23.8368866  13.8363203  71.2019330  23.6713137  12.8951647
  70.6316581  24.5444898  13.9925393  56.0463041  19.0736930  27.6624625
  56.6921904  18.5635884  28.1511850  55.8380192  19.8105612  28.2368051
  68.5716433  26.1417777  33.1616766  69.4407593  26.3158430  32.8003401
  68.0923185  26.9612194  33.0392495  64.5666651  13.3376975  13.4148521
  64.5545321  14.2818814  13.5716792  65.4590073  13.1547120  13.1207983
  62.7402613  33.2614878  24.8406199  63.6429860  33.2938489  25.1572694
  62.5139983  32.3315329  24.8552535  64.4956215  32.0145865  21.5016278
  63.5451846  32.0147727  21.3880650  64.7988701  31.2678599  20.9852313
  68.3818771   9.9319751  17.6694458  67.6151167   9.3778238  17.8151141
  68.7929476  10.0041620  18.5308610  60.3860532  16.2204547  31.7599639
  61.2491993  15.8641352  31.9702964  59.8125943  15.8818442  32.4475044
  80.2308909  37.8506403  22.5662040  80.8687319  37.7313151  21.8625381
  80.1129752  38.7987247  22.6249993  77.0398615  37.8033831  22.5023565
  76.7017127  37.6874896  21.6144100  77.9088383  37.4024997  22.4824571
  72.8985431  39.6569308  18.4920456  72.3350296  39.5659245  17.7236744
  72.7837826  38.8369212  18.9722949  70.4449863  41.1520499  21.3304677
  71.2371155  40.8111324  20.9150976  70.6846513  41.2615474  22.2506830
  78.4784989  43.3240276  13.8034921  77.8272969  43.9094356  13.4168935
  79.2729352  43.8546470  13.8629958  72.4040617  40.4129413  14.2022055
  73.1771493  39.8658400  14.0634931  72.7566016  41.2773662  14.4136517
  75.1681866  39.1182643  23.9990314  75.7645438  38.8938666  23.2847277
  75.2256838  38.3767389  24.6015762  74.7406894  36.5722079  11.8340505
  74.9932415  36.0503600  11.0723968  73.8031454  36.4088224  11.9367189
  79.7850177  35.5757857  19.6415249  80.5713267  35.1577280  19.2905666
  80.0488882  36.4803949  19.8096897  79.9560255  41.0130707  14.3403905
  79.3206088  41.0865334  15.0524810  79.6257661  41.6024306  13.6622985
  85.1858604  35.5133090  20.5448227  85.9183776  34.9432307  20.7786057
  84.4297960  35.1254691  20.9854733  74.4603183  38.4750185  14.0364880
  74.3439441  37.7995088  14.7045965  74.5705443  37.9882559  13.2197033
  76.8034724  37.9360332  17.7411569  76.4392931  37.4090953  18.4524491
  77.6601840  37.5458801  17.5678055  82.7084025  29.2254664  25.0042836
  82.3767350  30.0950075  24.7804051  82.1129638  28.9090948  25.6836866
  76.4440211  32.9650232  12.7372918  76.6114613  33.8330468  13.1043389
  76.2537380  33.1277513  11.8134207  79.2015544  41.4267210  24.4038748
  78.9016267  42.3292249  24.2954556  78.8566604  41.1599394  25.2559901
  72.6528026  37.8781007  20.4375453  71.7278522  37.7457221  20.6453145
  72.9012439  38.6575227  20.9345395  82.6012688  33.9449751  22.0836186
  81.6929565  33.8765159  21.7894947  82.5500284  34.4221696  22.9118011
  76.4229432  35.4207889  13.7219585  76.3029057  35.8664940  14.5605065
  75.7282020  35.7693207  13.1633123  70.0136837  37.5214281  21.2719242
  70.1429218  37.7748760  22.1858654  69.3334288  38.1141989  20.9523897
  74.1836324  48.1911531  17.3709716  74.1060354  49.1419356  17.4498197
  73.5797968  47.8457403  18.0284642  84.4674334  32.1466189  23.8614060
  83.8248715  32.4398722  23.2153854  83.9629263  32.0319109  24.6667256
  82.1214498  35.8929362  14.5499919  83.0332354  36.1256749  14.3747616
  81.6124145  36.4766406  13.9874997  74.9299926  38.1724850  29.5889050
  75.6714611  38.7109894  29.3123874  74.2236912  38.7991138  29.7460602
  76.7586336  35.2526597  25.5594768  77.6047531  35.6766010  25.7029417
  76.6984974  34.5960221  26.2533332  80.7284080  40.8755181  21.9413500
  80.0992943  41.0400895  21.2389568  80.3409743  41.2896790  22.7124464
  84.6073312  41.8109619  19.2957864  83.9224350  42.1908520  18.7454897
  84.6917162  42.4204945  20.0289812  79.9085781  32.9130965  27.2175942
  79.6646713  33.6673026  26.6810218  80.1845712  33.2916313  28.0523189
  81.8624244  39.4569578  25.8953208  82.0741139  40.1001337  25.2187589
  81.8153992  38.6231894  25.4275138  79.4650473  32.0687398  22.7989780
  78.6034952  32.3668652  23.0906517  79.4912908  32.2857797  21.8670812
  76.2812042  40.6129589  19.2063585  76.7450388  40.8917292  18.4168208
  76.0168840  39.7113033  19.0236676  73.1736123  40.1601070  22.1443349
  73.7437480  40.5888339  21.5060833  73.7644235  39.8783655  22.8427534
  75.2180928  36.7352741  16.0153151  75.9204972  37.1873785  16.4827077
  74.8861557  36.0936560  16.6433044  73.6661290  35.3264498  30.3904360
  73.0359950  36.0080779  30.6239757  73.5597378  35.2147579  29.4457498
  68.9606262  34.9936294  21.3170284  68.1705316  35.2493822  20.8410395
  69.4517510  35.8084632  21.4222325  82.9770072  42.3341533  24.0675565
  83.7987516  41.9321720  23.7858247  82.9732475  42.2309767  25.0191681
  70.9121008  35.3580873  18.2753761  70.1152171  35.4699567  18.7937257
  70.6846600  35.6967525  17.4094651  67.2443965  35.2466784  23.7485275
  67.4952004  36.1313794  24.0142851  67.7803514  35.0671386  22.9760367
  91.0676065  38.6780281  20.4160536  90.3139773  38.1087680  20.2604541
  91.2023606  38.6442946  21.3631171  76.4574693  43.5493684  16.0915256
  76.3220368  44.3945219  16.5200104  76.9984506  43.7512961  15.3281190
  72.9442033  29.6285264  32.7529611  72.5508978  29.0751462  33.4277255
  73.7608173  29.9395842  33.1436129  69.9104090  41.0669122  16.6643181
  70.4228611  41.8612372  16.8148746  70.5626803  40.3695412  16.5976782
  71.7198975  44.1834878  18.7465934  71.8965603  45.1052843  18.5586918
  72.5155809  43.8693297  19.1760314  71.0051332  36.2299510  28.6228097
  70.8904847  35.3284767  28.9235196  70.1495849  36.4763207  28.2712914
  79.8067157  27.0724246  24.6214149  79.4631426  27.9625887  24.5453260
  80.1746119  26.8825903  23.7583734  67.8753007  39.3957776  17.4402751
  68.7128229  39.8054784  17.2236459  68.0531275  38.4557218  17.4102945
  79.7717439  37.0632857  13.1286584  79.2564063  37.8337461  13.3674972
  79.4994748  36.3897993  13.7519646  77.3564550  31.9082558  18.1871823
  76.5006147  31.5189408  18.0077461  77.7691502  31.9874518  17.3271608
  78.8863697  29.4428901  22.5863383  78.3828493  29.4059036  21.7731188
  79.1794304  30.3521644  22.6460039  75.1306583  29.5267631  21.5929564
  75.9959580  29.3310439  21.2335454  75.1984092  29.2977982  22.5198921
  84.7451713  39.8165211  15.0639758  83.9681156  39.4776371  14.6194920
  85.4243194  39.8217835  14.3894723  79.5603742  34.9359949  14.9546366
  79.2553878  35.2506098  15.8056509  80.5134185  35.0141369  14.9973699
  78.0050174  41.0950172  16.6039320  77.4771536  40.3602932  16.2912557
  77.5037677  41.8724849  16.3579288  82.9843020  39.2899193  21.7206366
  82.3266695  39.9798454  21.8086494  83.7883420  39.6795625  22.0640352
  72.7368902  31.7569838  18.9645931  73.3112654  31.5345020  18.2319124
  73.3239884  31.8258533  19.7174532  81.7948479  37.6443565  19.7710308
  82.3080361  38.2773557  20.2732017  82.4449703  37.0444761  19.4053668
  73.0638489  33.7874299  12.9841816  72.2275801  34.1248986  13.3051091
  72.9243259  33.6523279  12.0468953  75.0391570  28.6311087  17.6921000
  74.3855982  28.3160105  17.0677615  74.9972044  28.0086828  18.4180823
  76.1502774  38.9130382   9.6074293  75.2429836  38.6819636   9.8065442
  76.6473806  38.1168002   9.7948274  79.0570853  47.6227890  12.5270979
  78.3832552  47.9259586  13.1355937  79.4436675  48.4256970  12.1776436
  78.2729310  35.1193021  22.0168648  77.3551871  35.3407968  21.8590336
  78.6889454  35.1939331  21.1580355  79.0564358  36.5184437  17.1471328
  79.8036177  37.0305834  16.8378450  79.3255947  36.1968489  18.0075722
  77.3291008  39.0142977  14.1298283  76.4202227  38.7302010  14.2270752
  77.3586092  39.4342056  13.2701590  82.5610275  42.6249567  17.8989450
  82.1072602  41.7840477  17.9554641  81.9304242  43.2610965  18.2364230
  81.5043195  33.5541553  19.1290118  80.7665952  33.0418939  19.4600360
  81.7569968  33.1141934  18.3173395  81.0043215  44.4626063  18.8339268
  81.2966189  45.0231121  18.1151634  81.5141835  44.7554624  19.5892427
  81.6054822  26.3317805  19.7231887  81.9113699  25.4715168  19.4357802
  82.3307427  26.9235425  19.5230881  67.8979178  36.7348491  18.1113485
  67.7003578  36.1417852  17.3864551  67.3425842  36.4300702  18.8289424
  75.8775902  36.6271598  20.2308078  75.9324512  35.6745434  20.1550555
  75.0667104  36.7831037  20.7149376  77.0267096  40.5551721  11.4686361
  76.5886526  39.8387580  11.0091999  77.7677537  40.7827836  10.9071453
  73.8168262  35.2448658  17.9898457  73.0036127  35.5442828  18.3963649
  74.3127256  34.8504346  18.7072939  75.9676840  45.2406415  19.9232722
  75.9253019  45.4667261  18.9941254  76.8839539  45.0069789  20.0718523
  79.4142474  35.7090482  26.8213351  79.7691861  35.9361955  27.6807817
  80.0614605  36.0408859  26.1990606  85.1440211  38.8308918  17.5262680
  85.0058109  39.0210514  16.5983869  84.7876429  39.5928301  17.9830731
  73.3082337  32.8167013  23.6059692  73.9481716  32.6755772  22.9082655
  72.4759867  32.5301527  23.2298294  85.1709590  40.8985445  22.5373951
  85.6046097  40.8060734  23.3857005  85.8841171  40.8742945  21.8993967
  74.0842641  42.1169444  19.7194684  74.8783239  41.6219764  19.5177259
  73.3734333  41.5887307  19.3562390  70.3925404  36.2612525  15.7954437
  69.4622992  36.1996981  16.0124399  70.4882876  35.7388478  14.9991078
  70.3110953  32.7867338  18.3832679  70.5717770  33.7012671  18.2741839
  71.1328125  32.3191781  18.5329291  71.7835878  34.2005095  25.5531503
  72.4558932  33.9922457  24.9044152  70.9565665  34.0027181  25.1136735
  86.0325140  40.9409146  25.0706837  86.2261030  41.8454956  25.3166112
  85.9325758  40.4816565  25.9045422  77.8625585  38.6647801  25.6293984
  78.7917645  38.8158961  25.4562951  77.4416615  38.7531822  24.7742630
  76.6613917  42.6898466  23.3992521  76.5225002  42.3217250  24.2718459
  75.8728513  43.2046105  23.2276479  77.2562069  47.7907562  14.7418058
  77.4313824  47.3195605  15.5563681  76.5694857  48.4173328  14.9699319
  78.2119132  42.0680068  20.7881359  77.8768964  42.0280838  21.6839009
  77.7123077  41.4024784  20.3151769  72.1863376  37.4747698  26.3133940
  72.0483174  36.7427937  26.9145479  73.0968299  37.3856598  26.0318128
  81.1478323  39.4136103  11.0618419  80.5307494  38.6882931  10.9651471
  80.6794812  40.1745463  10.7185493  74.8145676  37.1867658  25.8017620
  75.5245295  36.5460850  25.7604238  74.7714984  37.4380552  26.7243801
  82.8032455  44.1235011  28.7224199  82.7445001  43.4394231  28.0554782
  83.2051973  44.8654001  28.2704825  73.5274610  34.1732876  27.6213259
  72.9911967  33.7223614  28.2734856  72.9391319  34.3078784  26.8783724
  72.9376869  33.6321527  10.1839723  72.0606336  33.5110328   9.8201970
  73.4134622  32.8407605   9.9318612  82.8049862  42.0874595  26.9538179
  81.9176641  41.7500517  27.0764578  83.3748413  41.3557626  27.1906944
  64.4579009  38.4198687  20.2781230  65.1450049  38.1060417  19.6902246
  64.3027138  39.3240051  20.0048482  69.2613732  33.3088883  24.7066254
  69.1771920  32.7014553  23.9716664  68.4396438  33.7997902  24.7075750
  76.1240795  45.9847817  17.4302244  75.3408317  46.5269497  17.5240468
  76.8233540  46.5021797  17.8296485  79.4337445  31.7942447  20.0736449
  79.9306145  31.0412409  19.7537519  78.6624427  31.8306763  19.5079658
  87.2867203  37.4982812  21.7154740  87.2757079  38.3807528  21.3448674
  86.4184582  37.1454363  21.5209278  80.5167226  40.5514134  17.6474872
  79.5823505  40.6715596  17.4779577  80.6943895  39.6486601  17.3834882
  76.0172414  33.9359830  19.8008134  75.6470202  33.3830870  20.4889039
  76.5131507  33.3317963  19.2483134  83.9039777  36.3931453  18.1824907
  84.3700230  37.2259445  18.1085209  84.3547278  35.9276435  18.8870165
  81.9716009  42.7375275  15.1811059  82.2475852  42.6231869  16.0904933
  81.1020507  42.3392759  15.1423232  81.8756440  28.7612040  22.2215808
  80.9619520  28.9916267  22.3898015  82.3049542  28.8450484  23.0729840
  81.6462899  36.9501932  24.7215702  80.9934349  37.1977840  24.0668155
  82.0243279  36.1366070  24.3878179  78.6070073  46.9861625  18.8243872
  78.7892467  46.1683281  19.2871625  79.4303059  47.2029318  18.3868762
  78.9412238  45.9129811  16.0858921  79.4700004  45.4022265  15.4729083
  79.2040458  45.5972341  16.9504454  69.4429331  43.9293680  23.8294254
  70.0282768  43.1837368  23.9622158  69.2454169  44.2397637  24.7130918
  72.2967986  46.9644927  18.8456697  71.6278361  47.4491055  18.3620737
  72.1580856  47.2114148  19.7600075  64.0346986  36.4999280  22.5498697
  64.0731085  35.9662871  23.3435815  63.5287278  35.9734486  21.9309675
  71.4137748  31.3463821  26.0461240  71.4779074  32.2078651  25.6338637
  71.3504868  30.7337822  25.3133598  70.8890020  33.4186953  29.6934274
  71.5162059  33.0364030  30.3071798  70.0317939  33.2001155  30.0589966
  67.6655563  35.2263382  15.6252629  67.9609004  34.3174061  15.5719682
  66.7643599  35.2051122  15.3033631  79.5741642  46.9470646  22.4303037
  79.4492781  46.1460386  21.9213983  80.2320733  47.4416840  21.9417007
  71.1949810  33.3019379  21.6080177  70.4736396  33.9155346  21.4687651
  71.9843066  33.8377144  21.5296823  81.6376550  44.7479666  24.0582587
  80.6906886  44.6285018  23.9860914  81.9859323  43.8602164  24.1408849
  73.9976124  30.6373805  27.8820829  74.5210525  30.8836102  28.6447138
  73.7788457  31.4693840  27.4623966  69.3943405  32.9077480  15.7491954
  69.0656111  32.0274859  15.5667060  69.7482775  32.8525149  16.6368343
  78.6422984  44.5432383  20.2586939  78.4947946  43.6149090  20.4394509
  79.4676477  44.5652473  19.7744015  72.5085228  33.1950450  16.1167432
  72.8481300  33.7236371  15.3946040  72.9557348  33.5330856  16.8925998
  82.2457105  45.3660941  21.3451812  83.1703653  45.1603803  21.2076263
  82.0772409  45.1177342  22.2541154  75.2028669  31.5787500  25.5670500
  74.8625489  30.7795313  25.9691180  74.4967675  31.8789211  24.9947333
  75.8545140  28.6636813  24.0197823  76.6771210  28.1897291  23.8976713
  76.0983204  29.4427297  24.5196509  74.4953375  31.6925071  14.3160724
  75.2161737  32.0706324  13.8124441  73.8718679  32.4113948  14.4195702
  78.6384498  32.3970220  15.2519057  78.8548112  33.2794858  14.9507885
  78.1578565  32.0056434  14.5224699  73.3783719  35.3555933  21.8289801
  73.2328300  35.6696236  22.7214083  72.9008923  35.9740834  21.2760700
  75.2380102  32.3458481  21.8770691  75.2241671  31.4499575  21.5402989
  75.9552530  32.3529145  22.5108977  77.0906233  32.7795822  23.9223818
  76.8324011  33.7012892  23.9208149  76.5591273  32.3826256  24.6124282
  82.0352422  45.8846609  16.7013904  82.2089299  45.3193031  15.9487756
  82.5281313  46.6847504  16.5193394  67.8529381  37.8961278  24.7677462
  67.3082849  38.6721086  24.8997737  68.7308731  38.2432082  24.6096584
  74.6416998  31.2272862  17.1458261  74.7632909  30.2989508  17.3449148
  74.3519040  31.2411548  16.2336576  77.5108188  28.9127772  20.2824981
  77.5329885  28.9767105  19.3276960  77.9276247  28.0732281  20.4765487
  87.8891813  38.6483032  18.3204203  88.3322959  37.8990357  17.9223327
  87.0118323  38.6393168  17.9377935  83.0227594  45.2013373  13.8010802
  83.7178499  45.8220066  14.0198117  83.3650744  44.3508724  14.0763180
  68.6395403  37.0231174  27.6607619  67.8977139  37.1713809  28.2472250
  68.3188148  37.2839440  26.7974369  84.9219017  42.6513079  15.3298133
  85.4470341  42.9900351  14.6047453  84.8341370  41.7160094  15.1461267
  76.6059678  48.7185062  19.6893386  76.1664668  48.2261441  20.3826243
  77.3567795  48.1758030  19.4485461  69.0852017  44.9096603  19.6918014
  69.9110037  44.6100375  19.3116657  68.7346069  44.1404225  20.1407803
  74.0533550  44.2623071  21.7615688  73.4313559  43.5993776  21.4617915
  74.7238417  44.2884203  21.0789335  67.2860622  42.8282929  20.6506948
  66.4492530  42.4005104  20.4690949  67.2584267  43.0215373  21.5877739
  84.7310798  40.1338449  27.9482059  84.7808803  39.9688456  28.8897582
  84.6224722  39.2665708  27.5579940  73.6147057  42.8126994  15.2374148
  73.7635177  43.4962459  14.5840821  74.4213500  42.7932084  15.7523604
  87.4324677  40.1188270  20.7126651  88.2671569  40.5578074  20.8764211
  87.5683806  39.6426923  19.8934897  84.4816183  37.6768005  26.6604139
  84.9570305  37.8695651  25.8522990  83.5581749  37.7327191  26.4147522
  71.3699690  38.8392172  16.2435217  71.1245732  37.9354502  16.4415427
  71.5395605  38.8409322  15.3014695  79.0596400  29.7115848  25.6259973
  79.5778344  30.4476875  25.3006461  78.7051533  30.0179842  26.4606732
  70.6395338  34.5720530  13.7421378  69.9464582  34.6464885  13.0861414
  70.3947089  33.8080873  14.2642895  79.3108994  26.1316131  21.1460869
  79.5910748  25.4639320  21.7721296  80.0959601  26.3245227  20.6335533
  77.1142463  45.3075125  12.7085896  76.5416430  45.9265312  12.2556367
  77.6875256  45.8574486  13.2425817  83.1817852  34.5533765  24.8932444
  84.1335275  34.6531863  24.9144668  83.0121303  33.7612033  25.4030529
  81.2032232  31.6389348  25.0791845  80.6082164  31.9194361  24.3838334
  80.9181929  32.1283249  25.8508586  80.3339722  45.5912275  13.8394478
  81.2670395  45.5257837  14.0427353  80.2462935  46.4268542  13.3809010
  82.9627739  44.9078145  10.7998425  82.8841371  44.5738009  11.6934183
  83.7837406  45.3999913  10.7989898  85.6605930  37.7739885  24.0074744
  85.6282250  36.8355885  24.1934428  86.2706554  37.8523921  23.2740569
  77.4989261  36.6435938  10.0501948  78.4448366  36.5142146  10.1190366
  77.1203506  35.9050599  10.5271376  85.8100419  34.5650928  24.0533027
  85.2939467  33.7809385  23.8662956  86.6940367  34.2369645  24.2179547
  83.4711146  28.3091944  20.0128840  83.2735967  28.0007032  20.8972172
  84.0810851  29.0353582  20.1426770  91.4782480  38.8355891  23.1480781
  92.2085869  38.5741180  23.7088484  90.8689426  38.0984613  23.1882849
  89.5597777  36.9763754  23.7455232  88.8330941  36.8419719  23.1371724
  89.1445064  37.2840583  24.5511950  75.6832178  34.5685914   9.9856833
  74.7763634  34.2719027  10.0619547  75.9608159  34.2715732   9.1191119
  66.6010119  35.8892277  20.4355880  66.2812903  35.0357586  20.1430254
  66.0543547  36.1040856  21.1913847  70.3790026  38.6054718  24.1525386
  70.5976036  39.5371826  24.1713420  70.7915800  38.2462693  24.9380190
  77.2994244  29.1122804  16.1401075  76.4894972  28.7669889  16.5156321
  77.9878661  28.8030347  16.7288686  79.2284792  28.1900850  17.7625371
  79.7815831  28.6096304  18.4215394  79.4654879  27.2636599  17.8048327
  74.4530963  31.4272849  10.1268812  75.3150127  31.7527747  10.3864630
  74.6381307  30.6404345   9.6141878  66.4698379  39.5095189  22.4049001
  65.7761850  39.0949142  21.8918956  67.2171370  39.5515725  21.8082420
  82.6063599  30.3001376  17.2704035  82.0262268  30.9586180  16.8882088
  82.3399532  29.4778720  16.8591453  81.0567166  29.7006433  19.4725356
  81.5566944  29.8122968  18.6639675  81.7002774  29.3967486  20.1126164
  68.3835121  39.4413443  20.2815016  68.3605809  39.5401130  19.3296899
  68.6935758  40.2878593  20.6032182  81.3888477  32.4601466  16.3260384
  80.5014332  32.7451117  16.1080578  81.8042466  32.2995229  15.4787661
  84.7403013  32.4847987  20.0414723  85.5163404  32.9744439  20.3139340
  84.0151148  32.9106041  20.4986592  87.1775572  33.1975606  21.0988664
  87.7720063  32.9571342  20.3881972  87.2502156  32.4782737  21.7262200
  69.3972728  47.0409217  21.4131828  69.2627196  46.2809618  20.8469826
  68.9804790  47.7650117  20.9460617  80.5331691  42.2246141  10.4208404
  81.2367541  42.4296143  11.0366059  79.8094340  42.7922903  10.6857487
  81.3629501  37.9756002  16.5410674  81.3064702  38.4324553  15.7018306
  81.9157844  37.2146687  16.3633517  85.1734307  33.7645734  17.3660793
  84.9171241  33.3642369  18.1969001  84.5487175  34.4789528  17.2410933
  89.4846645  36.5041807  19.8732085  88.9246203  36.5734996  20.6463647
  88.8790148  36.3282792  19.1531581  82.4418388  42.6628670  12.4706864
  83.2763992  42.2309868  12.2884339  82.2802731  42.4910684  13.3983758
  82.0964280  39.1660783  13.8363203  82.0413084  39.0005055  12.8951647
  81.4710336  39.8736816  13.9925393  66.8856795  34.4028848  27.6624625
  67.5315659  33.8927802  28.1511850  66.6773946  35.1397529  28.2368051
  75.4060406  28.6668892  13.4148521  75.3939076  29.6110732  13.5716792
  76.2983828  28.4839038  13.1207983  75.3349970  47.3437783  21.5016278
  74.3845601  47.3439644  21.3880650  75.6382456  46.5970517  20.9852313
  79.2212525  25.2611669  17.6694458  78.4544921  24.7070156  17.8151141
  79.6323230  25.3333538  18.5308610  71.2254286  31.5496465  31.7599639
  72.0885748  31.1933269  31.9702964  70.6519697  31.2110359  32.4475044
  91.0702663  53.1798321  22.5662040  91.7081073  53.0605068  21.8625381
  90.9523506  54.1279165  22.6249993  87.8792370  53.1325749  22.5023565
  87.5410881  53.0166814  21.6144100  88.7482138  52.7316914  22.4824571
  83.7379185  54.9861226  18.4920456  83.1744050  54.8951162  17.7236744
  83.6231580  54.1661130  18.9722949  88.3612153  54.2860601  28.4609771
  88.3500793  53.8913399  27.5890274  88.5232792  53.5526673  29.0543542
  81.2843617  56.4812417  21.3304677  82.0764909  56.1403242  20.9150976
  81.5240267  56.5907392  22.2506830  89.3178744  58.6532193  13.8034921
  88.6666724  59.2386274  13.4168935  90.1123107  59.1838388  13.8629958
  83.2434371  55.7421330  14.2022055  84.0165247  55.1950317  14.0634931
  83.5959770  56.6065580  14.4136517  85.0819414  57.0697713  27.4088955
  84.7909280  57.9743343  27.2935621  85.7176398  57.1114240  28.1233024
  86.0075621  54.4474561  23.9990314  86.6039193  54.2230584  23.2847277
  86.0650592  53.7059307  24.6015762  85.5800649  51.9013996  11.8340505
  85.8326170  51.3795518  11.0723968  84.6425208  51.7380142  11.9367189
  90.6243932  50.9049775  19.6415249  91.4107021  50.4869198  19.2905666
  90.8882636  51.8095867  19.8096897  90.7954009  56.3422625  14.3403905
  90.1599842  56.4157252  15.0524810  90.4651416  56.9316224  13.6622985
  96.0252359  50.8425008  20.5448227  96.7577531  50.2724225  20.7786057
  95.2691715  50.4546608  20.9854733  85.2996938  53.8042102  14.0364880
  85.1833196  53.1287006  14.7045965  85.4099198  53.3174476  13.2197033
  87.6428479  53.2652250  17.7411569  87.2786686  52.7382871  18.4524491
  88.4995595  52.8750719  17.5678055  93.5477779  44.5546582  25.0042836
  93.2161104  45.4241993  24.7804051  92.9523393  44.2382866  25.6836866
  87.2833966  48.2942149  12.7372918  87.4508368  49.1622386  13.1043389
  87.0931135  48.4569431  11.8134207  90.0409299  56.7559128  24.4038748
  89.7410022  57.6584167  24.2954556  89.6960358  56.4891311  25.2559901
  83.4921780  53.2072925  20.4375453  82.5672277  53.0749139  20.6453145
  83.7406193  53.9867144  20.9345395  93.4406443  49.2741668  22.0836186
  92.5323320  49.2057077  21.7894947  93.3894038  49.7513613  22.9118011
  87.2623186  50.7499807  13.7219585  87.1422812  51.1956857  14.5605065
  86.5675775  51.0985124  13.1633123  80.8530591  52.8506199  21.2719242
  80.9822972  53.1040677  22.1858654  80.1728043  53.4433907  20.9523897
  85.0230079  63.5203448  17.3709716  84.9454108  64.4711274  17.4498197
  84.4191722  63.1749321  18.0284642  87.5147308  50.6931314  30.0271083
  86.7380642  51.2525234  30.0173948  88.1537871  51.1788097  30.5485953
  95.3068089  47.4758107  23.8614060  94.6642469  47.7690640  23.2153854
  94.8023017  47.3611027  24.6667256  92.9608253  51.2221280  14.5499919
  93.8726109  51.4548667  14.3747616  92.4517900  51.8058324  13.9874997
  85.7693681  53.5016767  29.5889050  86.5108365  54.0401811  29.3123874
  85.0630666  54.1283056  29.7460602  91.2449020  55.6445908  28.1861211
  91.6532376  55.2028318  27.4415844  90.5226282  55.0698535  28.4395404
  87.5980090  50.5818515  25.5594768  88.4441286  51.0057928  25.7029417
  87.5378728  49.9252139  26.2533332  91.5677835  56.2047098  21.9413500
  90.9386697  56.3692812  21.2389568  91.1803497  56.6188708  22.7124464
  95.4467067  57.1401536  19.2957864  94.7618105  57.5200438  18.7454897
  95.5310916  57.7496863  20.0289812  90.7479536  48.2422883  27.2175942
  90.5040468  48.9964943  26.6810218  91.0239466  48.6208230  28.0523189
  92.7017998  54.7861495  25.8953208  92.9134894  55.4293255  25.2187589
  92.6547747  53.9523812  25.4275138  90.3044227  47.3979316  22.7989780
  89.4428706  47.6960569  23.0906517  90.3306662  47.6149715  21.8670812
  87.1205797  55.9421506  19.2063585  87.5844142  56.2209209  18.4168208
  86.8562595  55.0404951  19.0236676  84.0129878  55.4892988  22.1443349
  84.5831235  55.9180256  21.5060833  84.6037990  55.2075573  22.8427534
  86.0574683  52.0644659  16.0153151  86.7598726  52.5165702  16.4827077
  85.7255311  51.4228478  16.6433044  84.5055044  50.6556415  30.3904360
  83.8753705  51.3372696  30.6239757  84.3991132  50.5439497  29.4457498
  79.8000017  50.3228211  21.3170284  79.0099071  50.5785740  20.8410395
  80.2911264  51.1376549  21.4222325  93.8163826  57.6633451  24.0675565
  94.6381270  57.2613638  23.7858247  93.8126229  57.5601685  25.0191681
  81.7514762  50.6872791  18.2753761  80.9545925  50.7991485  18.7937257
  81.5240354  51.0259443  17.4094651  87.5820430  57.2117494  26.2236275
  87.6464862  57.6737901  27.0594447  86.8731354  56.5814859  26.3518585
 101.9069819  54.0072199  20.4160536 101.1533528  53.4379597  20.2604541
 102.0417361  53.9734864  21.3631171  87.2968447  58.8785601  16.0915256
  87.1614122  59.7237137  16.5200104  87.8378260  59.0804879  15.3281190
  83.7835787  44.9577181  32.7529611  83.3902733  44.4043380  33.4277255
  84.6001927  45.2687760  33.1436129  80.7497845  56.3961039  16.6643181
  81.2622365  57.1904290  16.8148746  81.4020558  55.6987330  16.5976782
  82.5592730  59.5126796  18.7465934  82.7359358  60.4344760  18.5586918
  83.3549563  59.1985215  19.1760314  88.9236924  59.5009168  30.2215598
  88.4800778  58.7145547  29.9036502  89.5854137  59.6888318  29.5559489
  83.6824045  61.0304970  24.7476276  84.2331470  60.9022033  23.9753270
  82.8435521  61.3299859  24.3971169  91.0218162  59.7811968  28.2496999
  91.0036637  60.6020849  27.7577268  91.9438082  59.6566043  28.4747140
  87.4791216  57.2956097  29.0920508  88.0119553  56.5344386  28.8619815
  86.9505297  57.0029749  29.8344662  90.6460911  42.4016163  24.6214149
  90.3025180  43.2917805  24.5453260  91.0139874  42.2117821  23.7583734
  78.7146762  54.7249694  17.4402751  79.5521984  55.1346702  17.2236459
  78.8925029  53.7849136  17.4102945  90.6111194  52.3924774  13.1286584
  90.0957817  53.1629379  13.3674972  90.3388502  51.7189911  13.7519646
  88.1958305  47.2374475  18.1871823  87.3399901  46.8481326  18.0077461
  88.6085257  47.3166436  17.3271608  89.7257451  44.7720818  22.5863383
  89.2222247  44.7350954  21.7731188  90.0188058  45.6813561  22.6460039
  85.9700337  44.8559548  21.5929564  86.8353334  44.6602357  21.2335454
  86.0377846  44.6269900  22.5198921  95.5845468  55.1457129  15.0639758
  94.8074911  54.8068289  14.6194920  96.2636949  55.1509752  14.3894723
  90.3997497  50.2651867  14.9546366  90.0947633  50.5798016  15.8056509
  91.3527939  50.3433286  14.9973699  88.8443929  56.4242090  16.6039320
  88.3165290  55.6894849  16.2912557  88.3431432  57.2016766  16.3579288
  93.8236775  54.6191110  21.7206366  93.1660449  55.3090372  21.8086494
  94.6277174  55.0087542  22.0640352  83.5762656  47.0861756  18.9645931
  84.1506408  46.8636938  18.2319124  84.1633639  47.1550451  19.7174532
  92.6342234  52.9735483  19.7710308  93.1474115  53.6065475  20.2732017
  93.2843458  52.3736679  19.4053668  83.9032244  49.1166217  12.9841816
  83.0669556  49.4540904  13.3051091  83.7637013  48.9815197  12.0468953
  85.8785324  43.9603005  17.6921000  85.2249736  43.6452022  17.0677615
  85.8365798  43.3378745  18.4180823  86.9896529  54.2422300   9.6074293
  86.0823591  54.0111554   9.8065442  87.4867561  53.4459919   9.7948274
  89.8964608  62.9519807  12.5270979  89.2226307  63.2551504  13.1355937
  90.2830430  63.7548888  12.1776436  89.1123064  50.4484939  22.0168648
  88.1945626  50.6699886  21.8590336  89.5283208  50.5231249  21.1580355
  89.8958112  51.8476354  17.1471328  90.6429931  52.3597751  16.8378450
  90.1649702  51.5260407  18.0075722  88.1684762  54.3434895  14.1298283
  87.2595982  54.0593928  14.2270752  88.1979846  54.7633974  13.2701590
  93.4004030  57.9541484  17.8989450  92.9466357  57.1132394  17.9554641
  92.7697997  58.5902883  18.2364230  92.3436949  48.8833471  19.1290118
  91.6059706  48.3710857  19.4600360  92.5963723  48.4433852  18.3173395
  91.8436969  59.7917981  18.8339268  92.1359943  60.3523038  18.1151634
  92.3535590  60.0846542  19.5892427  92.4448577  41.6609723  19.7231887
  92.7507454  40.8007086  19.4357802  93.1701182  42.2527343  19.5230881
  78.7372933  52.0640409  18.1113485  78.5397333  51.4709770  17.3864551
  78.1819597  51.7592619  18.8289424  86.7169656  51.9563516  20.2308078
  86.7718266  51.0037352  20.1550555  85.9060858  52.1122955  20.7149376
  87.8660850  55.8843639  11.4686361  87.4280280  55.1679498  11.0091999
  88.6071291  56.1119753  10.9071453  84.6562016  50.5740575  17.9898457
  83.8429882  50.8734746  18.3963649  85.1521011  50.1796264  18.7072939
  86.8070594  60.5698332  19.9232722  86.7646773  60.7959179  18.9941254
  87.7233293  60.3361707  20.0718523  90.2536228  51.0382400  26.8213351
  90.6085616  51.2653873  27.6807817  90.9008359  51.3700777  26.1990606
  95.9833965  54.1600836  17.5262680  95.8451864  54.3502432  16.5983869
  95.6270184  54.9220219  17.9830731  84.1476091  48.1458931  23.6059692
  84.7875470  48.0047690  22.9082655  83.3153622  47.8593444  23.2298294
  96.0103345  56.2277363  22.5373951  96.4439851  56.1352652  23.3857005
  96.7234925  56.2034863  21.8993967  84.9236395  57.4461361  19.7194684
  85.7176994  56.9511681  19.5177259  84.2128087  56.9179224  19.3562390
  89.7431240  59.8279457  24.0707052  89.7968262  60.3970393  24.8384768
  88.8746021  59.9981342  23.7061089  81.2319159  51.5904443  15.7954437
  80.3016747  51.5288898  16.0124399  81.3276630  51.0680396  14.9991078
  81.1504708  48.1159256  18.3832679  81.4111525  49.0304589  18.2741839
  81.9721880  47.6483698  18.5329291  82.6229633  49.5297013  25.5531503
  83.2952686  49.3214375  24.9044152  81.7959419  49.3319099  25.1136735
  96.8718894  56.2701063  25.0706837  97.0654784  57.1746874  25.3166112
  96.7719512  55.8108482  25.9045422  88.5255205  46.1558954  27.5697164
  87.8783120  46.8548904  27.4761640  89.2956220  46.5895098  27.9373412
  91.9334003  56.4207806  30.6447717  91.7819509  56.1918358  29.7277801
  91.9238682  57.3778408  30.6579062  88.7019339  53.9939719  25.6293984
  89.6311399  54.1450878  25.4562951  88.2810369  54.0823740  24.7742630
  87.5007671  58.0190383  23.3992521  87.3618757  57.6509168  24.2718459
  86.7122267  58.5338023  23.2276479  88.0955823  63.1199480  14.7418058
  88.2707579  62.6487523  15.5563681  87.4088611  63.7465246  14.9699319
  89.0512886  57.3971986  20.7881359  88.7162719  57.3572756  21.6839009
  88.5516832  56.7316702  20.3151769  83.0257130  52.8039616  26.3133940
  82.8876928  52.0719855  26.9145479  83.9362054  52.7148516  26.0318128
  91.9872078  54.7428020  11.0618419  91.3701248  54.0174848  10.9651471
  91.5188566  55.5037381  10.7185493  85.6539431  52.5159575  25.8017620
  86.3639049  51.8752767  25.7604238  85.6108739  52.7672470  26.7243801
  93.6426209  59.4526929  28.7224199  93.5838756  58.7686149  28.0554782
  94.0445728  60.1945919  28.2704825  84.3668365  49.5024793  27.6213259
  83.8305722  49.0515532  28.2734856  83.7785073  49.6370702  26.8783724
  82.6616908  66.2688842  21.5157918  82.9013507  66.9007367  22.1936937
  81.8186105  65.9176883  21.8023277  83.7770624  48.9613445  10.1839723
  82.9000090  48.8402245   9.8201970  84.2528377  48.1699523   9.9318612
  93.6443617  57.4166513  26.9538179  92.7570396  57.0792434  27.0764578
  94.2142168  56.6849544  27.1906944  75.2972764  53.7490604  20.2781230
  75.9843804  53.4352334  19.6902246  75.1420893  54.6531969  20.0048482
  87.1744770  62.0767965  23.9199422  87.1014942  62.8822936  24.4318727
  86.7322163  62.2759931  23.0947443  86.9634550  61.3139735  17.4302244
  86.1802072  61.8561415  17.5240468  87.6627295  61.8313715  17.8296485
  90.2731200  47.1234364  20.0736449  90.7699899  46.3704327  19.7537519
  89.5018181  47.1598681  19.5079658  98.1260957  52.8274730  21.7154740
  98.1150834  53.7099445  21.3448674  97.2578337  52.4746281  21.5209278
  89.6343454  61.9754799  26.0757581  90.3471426  62.6102264  26.0033482
  89.1433482  62.0718665  25.2597583  91.3560981  55.8806052  17.6474872
  90.4217259  56.0007514  17.4779577  91.5337649  54.9778518  17.3834882
  86.8566169  49.2651747  19.8008134  86.4863956  48.7122788  20.4889039
  87.3525261  48.6609881  19.2483134  94.7433532  51.7223371  18.1824907
  95.2093984  52.5551363  18.1085209  95.1941032  51.2568352  18.8870165
  84.6855367  59.7249242  26.8963152  85.3864827  60.3585725  27.0492546
  84.2150482  60.0663974  26.1358791  92.8109763  58.0667192  15.1811059
  93.0869607  57.9523787  16.0904933  91.9414262  57.6684677  15.1423232
  92.7150195  44.0903958  22.2215808  91.8013274  44.3208185  22.3898015
  93.1443296  44.1742402  23.0729840  92.4856653  52.2793850  24.7215702
  91.8328103  52.5269757  24.0668155  92.8637033  51.4657988  24.3878179
  89.4463827  62.3153543  18.8243872  89.6286222  61.4975199  19.2871625
  90.2696813  62.5321235  18.3868762  89.7805993  61.2421728  16.0858921
  90.3093759  60.7314183  15.4729083  90.0434212  60.9264258  16.9504454
  88.5344226  53.0213661  31.2081739  87.8584863  52.9207790  31.8784114
  89.3571860  52.8652875  31.6717736  80.2823085  59.2585597  23.8294254
  80.8676522  58.5129285  23.9622158  80.0847924  59.5689554  24.7130918
  83.1361740  62.2936845  18.8456697  82.4672116  62.7782972  18.3620737
  82.9974610  62.5406065  19.7600075  74.8740740  51.8291198  22.5498697
  74.9124840  51.2954788  23.3435815  74.3681033  51.3026403  21.9309675
  87.2767009  64.3280588  25.4439355  87.8285317  64.4912210  26.2088440
  87.6173203  64.9185026  24.7719380  82.2531502  46.6755738  26.0461240
  82.3172829  47.5370569  25.6338637  82.1898623  46.0629740  25.3133598
  92.1277883  59.1541846  31.2988009  92.6717787  59.7671804  30.8042964
  91.5464728  59.7121424  31.8155022  78.5049318  50.5555300  15.6252629
  78.8002759  49.6465978  15.5719682  77.6037353  50.5343039  15.3033631
  90.4135396  62.2762564  22.4303037  90.2886536  61.4752304  21.9213983
  91.0714487  62.7708757  21.9417007  82.0343565  48.6311296  21.6080177
  81.3130150  49.2447264  21.4687651  82.8236820  49.1669061  21.5296823
  92.4770305  60.0771584  24.0582587  91.5300640  59.9576935  23.9860914
  92.8253078  59.1894082  24.1408849  84.8369878  45.9665723  27.8820829
  85.3604280  46.2128019  28.6447138  84.6182211  46.7985758  27.4623966
  80.2337159  48.2369397  15.7491954  79.9049865  47.3566776  15.5667060
  80.5876530  48.1817066  16.6368343  89.4816738  59.8724300  20.2586939
  89.3341700  58.9441008  20.4394509  90.3070232  59.8944391  19.7744015
  83.3478982  48.5242367  16.1167432  83.6875055  49.0528289  15.3946040
  83.7951103  48.8622773  16.8925998  93.0850860  60.6952859  21.3451812
  94.0097407  60.4895720  21.2076263  92.9166163  60.4469260  22.2541154
  86.0422423  46.9079418  25.5670500  85.7019244  46.1087231  25.9691180
  85.3361429  47.2081129  24.9947333  86.6938895  43.9928730  24.0197823
  87.5164964  43.5189209  23.8976713  86.9376959  44.7719214  24.5196509
  85.3347129  47.0216989  14.3160724  86.0555492  47.3998242  13.8124441
  84.7112434  47.7405866  14.4195702  89.4778252  47.7262138  15.2519057
  89.6941867  48.6086776  14.9507885  88.9972320  47.3348351  14.5224699
  84.2177474  50.6847851  21.8289801  84.0722054  50.9988154  22.7214083
  83.7402677  51.3032751  21.2760700  86.0773857  47.6750399  21.8770691
  86.0635425  46.7791492  21.5402989  86.7946285  47.6821063  22.5108977
  87.9299987  48.1087739  23.9223818  87.6717765  49.0304810  23.9208149
  87.3985028  47.7118174  24.6124282  92.8746176  61.2138526  16.7013904
  93.0483054  60.6484949  15.9487756  93.3675067  62.0139421  16.5193394
  85.4810753  46.5564779  17.1458261  85.6026664  45.6281426  17.3449148
  85.1912795  46.5703465  16.2336576  88.3501943  44.2419690  20.2824981
  88.3723640  44.3059023  19.3276960  88.7670002  43.4024198  20.4765487
  98.7285567  53.9774949  18.3204203  99.1716713  53.2282275  17.9223327
  97.8512078  53.9685086  17.9377935  93.8621349  60.5305291  13.8010802
  94.5572253  61.1511983  14.0198117  94.2044499  59.6800642  14.0763180
  95.7612772  57.9804996  15.3298133  96.2864096  58.3192269  14.6047453
  95.6735124  57.0452012  15.1461267  87.4232820  61.8939070  27.4588009
  87.7319947  61.6488217  28.3310709  88.2208302  62.0985708  26.9706880
  87.4453432  64.0476980  19.6893386  87.0058423  63.5553358  20.3826243
  88.1961549  63.5049947  19.4485461  79.9245771  60.2388520  19.6918014
  80.7503791  59.9392292  19.3116657  79.5739823  59.4696143  20.1407803
  84.8927305  59.5914989  21.7615688  84.2707314  58.9285694  21.4617915
  85.5632172  59.6176121  21.0789335  78.1254376  58.1574847  20.6506948
  77.2886285  57.7297021  20.4690949  78.0978022  58.3507290  21.5877739
  84.9651832  48.0696777  31.3548194  85.0139988  48.9458900  30.9725963
  85.5074346  47.5274170  30.7819837  95.4506678  58.6137900  30.6349331
  94.6602221  58.5962039  30.0953830  95.2140032  59.1526194  31.3898367
  95.5704553  55.4630366  27.9482059  95.6202558  55.2980374  28.8897582
  95.4618476  54.5957625  27.5579940  84.4540812  58.1418912  15.2374148
  84.6028932  58.8254376  14.5840821  85.2607255  58.1224002  15.7523604
  92.8608315  51.4461294  29.2641366  93.7618178  51.3067759  28.9725364
  92.9356290  51.6115749  30.2039543  87.1951121  48.8228149  28.1094552
  86.3254430  49.1161715  27.8377141  87.4310601  49.4068594  28.8301816
  97.0722750  57.8827308  28.1924081  96.7807558  58.2457288  29.0287542
  96.4594881  57.1694316  28.0137413  98.2718432  55.4480188  20.7126651
  99.1065323  55.8869992  20.8764211  98.4077561  54.9718841  19.8934897
  95.3209938  53.0059922  26.6604139  95.7964059  53.1987569  25.8522990
  94.3975503  53.0619108  26.4147522  82.2093444  54.1684090  16.2435217
  81.9639486  53.2646420  16.4415427  82.3789359  54.1701240  15.3014695
  89.8990154  45.0407766  25.6259973  90.4172098  45.7768793  25.3006461
  89.5445287  45.3471759  26.4606732  81.4789092  49.9012447  13.7421378
  80.7858337  49.9756802  13.0861414  81.2340844  49.1372791  14.2642895
  90.1502749  41.4608049  21.1460869  90.4304502  40.7931238  21.7721296
  90.9353355  41.6537144  20.6335533  87.9536217  60.6367042  12.7085896
  87.3810184  61.2557230  12.2556367  88.5269011  61.1866404  13.2425817
  94.0211607  49.8825683  24.8932444  94.9729030  49.9823780  24.9144668
  93.8515057  49.0903951  25.4030529  92.0425986  46.9681266  25.0791845
  91.4475918  47.2486279  24.3838334  91.7575683  47.4575167  25.8508586
  91.1733477  60.9204193  13.8394478  92.1064150  60.8549754  14.0427353
  91.0856690  61.7560459  13.3809010  93.8021493  60.2370063  10.7998425
  93.7235125  59.9029927  11.6934183  94.6231160  60.7291831  10.7989898
  96.4999685  53.1031802  24.0074744  96.4676005  52.1647803  24.1934428
  97.1100308  53.1815839  23.2740569  88.3383016  51.9727855  10.0501948
  89.2842120  51.8434063  10.1190366  87.9597260  51.2342517  10.5271376
  96.6494173  49.8942846  24.0533027  96.1333222  49.1101302  23.8662956
  97.5334122  49.5661562  24.2179547  94.3104900  43.6383861  20.0128840
  94.1129721  43.3298949  20.8972172  94.9204606  44.3645500  20.1426770
 102.3176235  54.1647809  23.1480781 103.0479623  53.9033097  23.7088484
 101.7083180  53.4276531  23.1882849 100.3991532  52.3055672  23.7455232
  99.6724695  52.1711637  23.1371724  99.9838819  52.6132500  24.5511950
  88.2221708  56.0245601  31.5102605  89.1424718  56.2024200  31.7042652
  88.1871291  55.0801647  31.3582304  86.5225933  49.8977832   9.9856833
  85.6157388  49.6010944  10.0619547  86.8001914  49.6007650   9.1191119
  77.4403873  51.2184195  20.4355880  77.1206657  50.3649503  20.1430254
  76.8937301  51.4332773  21.1913847  88.1387998  44.4414721  16.1401075
  87.3288727  44.0961806  16.5156321  88.8272415  44.1322265  16.7288686
  90.0678547  43.5192768  17.7625371  90.6209585  43.9388222  18.4215394
  90.3048633  42.5928516  17.8048327  86.0911646  49.5079842  33.5428135
  85.9908373  50.4574199  33.4740226  85.8733188  49.1798081  32.6704205
  85.2924717  46.7564767  10.1268812  86.1543881  47.0819665  10.3864630
  85.4775061  45.9696263   9.6141878  77.3092133  54.8387107  22.4049001
  76.6155604  54.4241059  21.8918956  78.0565124  54.8807643  21.8082420
  93.4457354  45.6293293  17.2704035  92.8656023  46.2878097  16.8882088
  93.1793286  44.8070638  16.8591453  91.8960920  45.0298351  19.4725356
  92.3960699  45.1414886  18.6639675  92.5396528  44.7259404  20.1126164
  79.2228876  54.7705360  20.2815016  79.1999564  54.8693048  19.3296899
  79.5329512  55.6170511  20.6032182  81.8816253  56.8281515  24.3961631
  82.8359507  56.7965458  24.3291562  81.6828777  56.3672139  25.2111856
  92.2282232  47.7893384  16.3260384  91.3408087  48.0743034  16.1080578
  92.6436221  47.6287147  15.4787661  95.5796768  47.8139905  20.0414723
  96.3557158  48.3036357  20.3139340  94.8544902  48.2397959  20.4986592
  98.0169327  48.5267524  21.0988664  98.6113817  48.2863260  20.3881972
  98.0895910  47.8074654  21.7262200  80.2366482  62.3701135  21.4131828
  80.1020950  61.6101536  20.8469826  79.8198545  63.0942035  20.9460617
  91.3725445  57.5538058  10.4208404  92.0761295  57.7588061  11.0366059
  90.6488094  58.1214820  10.6857487  92.2023256  53.3047920  16.5410674
  92.1458457  53.7616471  15.7018306  92.7551598  52.5438604  16.3633517
  96.0128061  49.0937651  17.3660793  95.7564996  48.6934287  18.1969001
  95.3880929  49.8081445  17.2410933 100.3240399  51.8333725  19.8732085
  99.7639957  51.9026914  20.6463647  99.7183903  51.6574709  19.1531581
  83.3935608  63.2670452  21.6250271  83.2767992  64.2115884  21.5228961
  82.5728054  62.9644013  22.0136070  93.2812143  57.9920588  12.4706864
  94.1157747  57.5601786  12.2884339  93.1196486  57.8202601  13.3983758
  92.9358035  54.4952701  13.8363203  92.8806839  54.3296972  12.8951647
  92.3104090  55.2028734  13.9925393  90.2503942  56.8001613  33.1616766
  91.1195102  56.9742265  32.8003401  89.7710694  57.6196030  33.0392495
  86.2454160  43.9960810  13.4148521  86.2332830  44.9402650  13.5716792
  87.1377582  43.8130955  13.1207983  84.4190122  63.9198714  24.8406199
  85.3217369  63.9522324  25.1572694  84.1927492  62.9899165  24.8552535
  86.1743724  62.6729700  21.5016278  85.2239355  62.6731562  21.3880650
  86.4776210  61.9262435  20.9852313  90.0606280  40.5903587  17.6694458
  89.2938676  40.0362073  17.8151141  90.4716985  40.6625455  18.5308610
 101.9096418  68.5090239  22.5662040 102.5474828  68.3896986  21.8625381
 101.7917261  69.4571083  22.6249993  98.7186124  68.4617667  22.5023565
  98.3804636  68.3458731  21.6144100  99.5875892  68.0608832  22.4824571
  94.5772940  70.3153143  18.4920456  94.0137805  70.2243080  17.7236744
  94.4625335  69.4953048  18.9722949  99.2005907  69.6152518  28.4609771
  99.1894548  69.2205317  27.5890274  99.3626547  68.8818591  29.0543542
  92.1237372  71.8104335  21.3304677  92.9158664  71.4695159  20.9150976
  92.3634022  71.9199310  22.2506830 100.1572498  73.9824111  13.8034921
  99.5060478  74.5678191  13.4168935 100.9516861  74.5130306  13.8629958
  94.0828126  71.0713248  14.2022055  94.8559002  70.5242235  14.0634931
  94.4353524  71.9357497  14.4136517  95.9213168  72.3989630  27.4088955
  95.6303034  73.3035261  27.2935621  96.5570153  72.4406158  28.1233024
  96.8469375  69.7766479  23.9990314  97.4432947  69.5522501  23.2847277
  96.9044347  69.0351224  24.6015762  96.4194403  67.2305914  11.8340505
  96.6719924  66.7087435  11.0723968  95.4818963  67.0672060  11.9367189
 101.4637686  66.2341693  19.6415249 102.2500775  65.8161116  19.2905666
 101.7276391  67.1387785  19.8096897 101.6347764  71.6714543  14.3403905
 100.9993597  71.7449169  15.0524810 101.3045170  72.2608142  13.6622985
 106.8646113  66.1716926  20.5448227 107.5971285  65.6016143  20.7786057
 106.1085469  65.7838526  20.9854733  96.1390692  69.1334020  14.0364880
  96.0226950  68.4578923  14.7045965  96.2492952  68.6466394  13.2197033
  98.4822233  68.5944167  17.7411569  98.1180440  68.0674788  18.4524491
  99.3389349  68.2042636  17.5678055 104.3871534  59.8838500  25.0042836
 104.0554859  60.7533911  24.7804051 103.7917147  59.5674784  25.6836866
  98.1227720  63.6234067  12.7372918  98.2902122  64.4914303  13.1043389
  97.9324889  63.7861349  11.8134207 100.8803053  72.0851046  24.4038748
 100.5803776  72.9876085  24.2954556 100.5354113  71.8183229  25.2559901
  94.3315535  68.5364843  20.4375453  93.4066031  68.4041057  20.6453145
  94.5799948  69.3159062  20.9345395 104.2800197  64.6033586  22.0836186
 103.3717074  64.5348994  21.7894947 104.2287793  65.0805531  22.9118011
  98.1016941  66.0791724  13.7219585  97.9816566  66.5248775  14.5605065
  97.4069529  66.4277042  13.1633123  91.6924346  68.1798116  21.2719242
  91.8216727  68.4332595  22.1858654  91.0121797  68.7725824  20.9523897
  95.8623833  78.8495366  17.3709716  95.7847863  79.8003191  17.4498197
  95.2585477  78.5041239  18.0284642  98.3541063  66.0223232  30.0271083
  97.5774397  66.5817152  30.0173948  98.9931626  66.5080015  30.5485953
 106.1461843  62.8050024  23.8614060 105.5036224  63.0982558  23.2153854
 105.6416772  62.6902945  24.6667256 103.8002007  66.5513198  14.5499919
 104.7119863  66.7840584  14.3747616 103.2911654  67.1350242  13.9874997
  96.6087435  68.8308685  29.5889050  97.3502120  69.3693729  29.3123874
  95.9024421  69.4574974  29.7460602 102.0842775  70.9737825  28.1861211
 102.4926131  70.5320236  27.4415844 101.3620036  70.3990453  28.4395404
  98.4373845  65.9110432  25.5594768  99.2835040  66.3349846  25.7029417
  98.3772483  65.2544056  26.2533332 102.4071589  71.5339016  21.9413500
 101.7780452  71.6984730  21.2389568 102.0197252  71.9480626  22.7124464
 106.2860821  72.4693454  19.2957864 105.6011859  72.8492355  18.7454897
 106.3704671  73.0788781  20.0289812 101.5873290  63.5714801  27.2175942
 101.3434222  64.3256861  26.6810218 101.8633221  63.9500148  28.0523189
 103.5411753  70.1153413  25.8953208 103.7528648  70.7585173  25.2187589
 103.4941501  69.2815729  25.4275138 101.1437982  62.7271234  22.7989780
 100.2822461  63.0252487  23.0906517 101.1700417  62.9441632  21.8670812
  97.9599551  71.2713424  19.2063585  98.4237897  71.5501127  18.4168208
  97.6956349  70.3696869  19.0236676  94.8523632  70.8184906  22.1443349
  95.4224989  71.2472174  21.5060833  95.4431744  70.5367490  22.8427534
  96.8968437  67.3936577  16.0153151  97.5992481  67.8457620  16.4827077
  96.5649066  66.7520395  16.6433044  95.3448799  65.9848333  30.3904360
  94.7147459  66.6664614  30.6239757  95.2384887  65.8731415  29.4457498
  90.6393771  65.6520129  21.3170284  89.8492825  65.9077658  20.8410395
  91.1305019  66.4668467  21.4222325 104.6557581  72.9925368  24.0675565
 105.4775025  72.5905556  23.7858247 104.6519984  72.8893603  25.0191681
  92.5908517  66.0164708  18.2753761  91.7939680  66.1283403  18.7937257
  92.3634109  66.3551361  17.4094651  98.4214184  72.5409412  26.2236275
  98.4858617  73.0029819  27.0594447  97.7125108  71.9106777  26.3518585
  88.9231474  65.9050620  23.7485275  89.1739513  66.7897630  24.0142851
  89.4591023  65.7255221  22.9760367 112.7463574  69.3364117  20.4160536
 111.9927282  68.7671515  20.2604541 112.8811115  69.3026781  21.3631171
  98.1362202  74.2077519  16.0915256  98.0007877  75.0529055  16.5200104
  98.6772014  74.4096797  15.3281190  94.6229542  60.2869099  32.7529611
  94.2296487  59.7335298  33.4277255  95.4395682  60.5979677  33.1436129
  91.5891599  71.7252957  16.6643181  92.1016120  72.5196207  16.8148746
  92.2414312  71.0279248  16.5976782  93.3986484  74.8418713  18.7465934
  93.5753112  75.7636678  18.5586918  94.1943318  74.5277133  19.1760314
  97.5397503  61.7026978  30.3449868  98.2807216  62.3034131  30.2654330
  97.7715425  60.9604616  29.7867910  92.6838841  66.8883345  28.6228097
  92.5692356  65.9868603  28.9235196  91.8283358  67.1347042  28.2712914
  99.7630678  74.8301086  30.2215598  99.3194533  74.0437464  29.9036502
 100.4247892  75.0180236  29.5559489  94.5217800  76.3596887  24.7476276
  95.0725225  76.2313951  23.9753270  93.6829275  76.6591776  24.3971169
 101.8611916  75.1103886  28.2496999 101.8430392  75.9312767  27.7577268
 102.7831836  74.9857961  28.4747140  98.3184971  72.6248015  29.0920508
  98.8513307  71.8636303  28.8619815  97.7899052  72.3321667  29.8344662
 101.4854666  57.7308081  24.6214149 101.1418935  58.6209723  24.5453260
 101.8533628  57.5409739  23.7583734  89.5540516  70.0541611  17.4402751
  90.3915738  70.4638620  17.2236459  89.7318784  69.1141054  17.4102945
 101.4504948  67.7216692  13.1286584 100.9351572  68.4921297  13.3674972
 101.1782257  67.0481828  13.7519646  99.0352059  62.5666393  18.1871823
  98.1793656  62.1773243  18.0077461  99.4479011  62.6458354  17.3271608
 100.5651206  60.1012736  22.5863383 100.0616002  60.0642871  21.7731188
 100.8581813  61.0105479  22.6460039  96.8094092  60.1851466  21.5929564
  97.6747089  59.9894275  21.2335454  96.8771601  59.9561818  22.5198921
 106.4239222  70.4749047  15.0639758 105.6468665  70.1360206  14.6194920
 107.1030703  70.4801670  14.3894723 101.2391251  65.5943784  14.9546366
 100.9341387  65.9089933  15.8056509 102.1921694  65.6725204  14.9973699
  99.6837683  71.7534008  16.6039320  99.1559045  71.0186767  16.2912557
  99.1825186  72.5308684  16.3579288 104.6630529  69.9483028  21.7206366
 104.0054204  70.6382289  21.8086494 105.4670929  70.3379460  22.0640352
  94.4156411  62.4153674  18.9645931  94.9900163  62.1928855  18.2319124
  95.0027393  62.4842368  19.7174532 103.4735988  68.3027401  19.7710308
 103.9867870  68.9357393  20.2732017 104.1237212  67.7028596  19.4053668
  94.7425998  64.4458135  12.9841816  93.9063310  64.7832821  13.3051091
  94.6030768  64.3107115  12.0468953  96.7179079  59.2894923  17.6921000
  96.0643491  58.9743940  17.0677615  96.6759553  58.6670663  18.4180823
  97.8290283  69.5714218   9.6074293  96.9217345  69.3403471   9.8065442
  98.3261315  68.7751837   9.7948274  99.9516819  65.7776856  22.0168648
  99.0339380  65.9991803  21.8590336 100.3676963  65.8523167  21.1580355
 100.7351867  67.1768272  17.1471328 101.4823686  67.6889669  16.8378450
 101.0043456  66.8552325  18.0075722  99.0078517  69.6726813  14.1298283
  98.0989736  69.3885845  14.2270752  99.0373601  70.0925891  13.2701590
 104.2397784  73.2833402  17.8989450 103.7860111  72.4424312  17.9554641
 103.6091751  73.9194801  18.2364230 103.1830704  64.2125388  19.1290118
 102.4453461  63.7002774  19.4600360 103.4357477  63.7725770  18.3173395
 102.6830724  75.1209899  18.8339268 102.9753698  75.6814956  18.1151634
 103.1929344  75.4138460  19.5892427 103.2842331  56.9901640  19.7231887
 103.5901208  56.1299004  19.4357802 104.0094936  57.5819260  19.5230881
  89.5766687  67.3932327  18.1113485  89.3791087  66.8001687  17.3864551
  89.0213351  67.0884537  18.8289424  97.5563411  67.2855433  20.2308078
  97.6112021  66.3329270  20.1550555  96.7454613  67.4414872  20.7149376
  98.7054605  71.2135556  11.4686361  98.2674035  70.4971415  11.0091999
  99.4465046  71.4411671  10.9071453  95.4955771  65.9032493  17.9898457
  94.6823636  66.2026664  18.3963649  95.9914765  65.5088182  18.7072939
  97.6464349  75.8990250  19.9232722  97.6040528  76.1251096  18.9941254
  98.5627048  75.6653625  20.0718523 101.0929983  66.3674317  26.8213351
 101.4479370  66.5945791  27.6807817 101.7402114  66.6992694  26.1990606
 106.8227719  69.4892753  17.5262680 106.6845618  69.6794349  16.5983869
 106.4663938  70.2512136  17.9830731  94.9869846  63.4750849  23.6059692
  95.6269225  63.3339608  22.9082655  94.1547376  63.1885362  23.2298294
 106.8497099  71.5569280  22.5373951 107.2833606  71.4644569  23.3857005
 107.5628680  71.5326781  21.8993967  95.7630150  72.7753279  19.7194684
  96.5570748  72.2803599  19.5177259  95.0521842  72.2471142  19.3562390
 100.5824994  75.1571374  24.0707052 100.6362016  75.7262311  24.8384768
  99.7139775  75.3273260  23.7061089  92.0712913  66.9196361  15.7954437
  91.1410501  66.8580816  16.0124399  92.1670385  66.3972313  14.9991078
  91.9898462  63.4451174  18.3832679  92.2505279  64.3596507  18.2741839
  92.8115634  62.9775616  18.5329291  93.4623387  64.8588931  25.5531503
  94.1346441  64.6506293  24.9044152  92.6353174  64.6611017  25.1136735
 107.7112649  71.5992981  25.0706837 107.9048539  72.5038792  25.3166112
 107.6113267  71.1400400  25.9045422  99.3648959  61.4850872  27.5697164
  98.7176874  62.1840821  27.4761640 100.1349975  61.9187016  27.9373412
 102.7727757  71.7499724  30.6447717 102.6213264  71.5210275  29.7277801
 102.7632437  72.7070325  30.6579062  99.5413094  69.3231637  25.6293984
 100.4705154  69.4742796  25.4562951  99.1204124  69.4115657  24.7742630
  98.3401426  73.3482301  23.3992521  98.2012511  72.9801085  24.2718459
  97.5516022  73.8629940  23.2276479  98.9349577  78.4491397  14.7418058
  99.1101333  77.9779441  15.5563681  98.2482366  79.0757164  14.9699319
  99.8906641  72.7263904  20.7881359  99.5556473  72.6864674  21.6839009
  99.3910586  72.0608620  20.3151769  93.8650885  68.1331534  26.3133940
  93.7270683  67.4011772  26.9145479  94.7755808  68.0440434  26.0318128
 102.8265832  70.0719938  11.0618419 102.2095003  69.3466766  10.9651471
 102.3582321  70.8329298  10.7185493  96.4933185  67.8451493  25.8017620
  97.2032804  67.2044685  25.7604238  96.4502493  68.0964388  26.7243801
 104.4819964  74.7818846  28.7224199 104.4232510  74.0978066  28.0554782
 104.8839482  75.5237836  28.2704825  95.2062119  64.8316711  27.6213259
  94.6699476  64.3807449  28.2734856  94.6178828  64.9662620  26.8783724
  93.5010663  81.5980760  21.5157918  93.7407261  82.2299284  22.1936937
  92.6579859  81.2468800  21.8023277  94.6164378  64.2905362  10.1839723
  93.7393845  64.1694163   9.8201970  95.0922131  63.4991441   9.9318612
 104.4837371  72.7458430  26.9538179 103.5964150  72.4084352  27.0764578
 105.0535922  72.0141461  27.1906944  86.1366518  69.0782522  20.2781230
  86.8237558  68.7644252  19.6902246  85.9814647  69.9823887  20.0048482
  90.9401241  63.9672719  24.7066254  90.8559429  63.3598388  23.9716664
  90.1183947  64.4581737  24.7075750  98.0138525  77.4059883  23.9199422
  97.9408696  78.2114854  24.4318727  97.5715918  77.6051848  23.0947443
  97.8028304  76.6431653  17.4302244  97.0195826  77.1853333  17.5240468
  98.5021049  77.1605632  17.8296485 101.1124954  62.4526282  20.0736449
 101.6093654  61.6996244  19.7537519 100.3411936  62.4890599  19.5079658
 108.9654712  68.1566648  21.7154740 108.9544588  69.0391363  21.3448674
 108.0972091  67.8038198  21.5209278 100.4737208  77.3046717  26.0757581
 101.1865180  77.9394181  26.0033482  99.9827237  77.4010583  25.2597583
 102.1954735  71.2097969  17.6474872 101.2611014  71.3299432  17.4779577
 102.3731404  70.3070436  17.3834882  97.6959923  64.5943665  19.8008134
  97.3257711  64.0414705  20.4889039  98.1919016  63.9901799  19.2483134
 105.5827286  67.0515289  18.1824907 106.0487739  67.8843280  18.1085209
 106.0334787  66.5860270  18.8870165  95.5249122  75.0541160  26.8963152
  96.2258581  75.6877643  27.0492546  95.0544237  75.3955892  26.1358791
 103.6503518  73.3959110  15.1811059 103.9263361  73.2815704  16.0904933
 102.7808016  72.9976595  15.1423232 103.5543949  59.4195876  22.2215808
 102.6407029  59.6500102  22.3898015 103.9837051  59.5034320  23.0729840
 103.3250408  67.6085768  24.7215702 102.6721858  67.8561675  24.0668155
 103.7030788  66.7949906  24.3878179 100.2857582  77.6445461  18.8243872
 100.4679976  76.8267117  19.2871625 101.1090568  77.8613153  18.3868762
 100.6199747  76.5713646  16.0858921 101.1487513  76.0606100  15.4729083
 100.8827967  76.2556176  16.9504454  99.3737981  68.3505579  31.2081739
  98.6978618  68.2499708  31.8784114 100.1965615  68.1944792  31.6717736
  91.1216840  74.5877515  23.8294254  91.7070277  73.8421203  23.9622158
  90.9241678  74.8981472  24.7130918  93.9755495  77.6228763  18.8456697
  93.3065870  78.1074890  18.3620737  93.8368365  77.8697983  19.7600075
  85.7134494  67.1583115  22.5498697  85.7518594  66.6246706  23.3435815
  85.2074787  66.6318321  21.9309675  98.1160764  79.6572506  25.4439355
  98.6679072  79.8204128  26.2088440  98.4566957  80.2476944  24.7719380
  93.0925257  62.0047656  26.0461240  93.1566583  62.8662487  25.6338637
  93.0292377  61.3921658  25.3133598  92.5677529  64.0770788  29.6934274
  93.1949568  63.6947866  30.3071798  91.7105448  63.8584990  30.0589966
 102.9671638  74.4833764  31.2988009 103.5111542  75.0963722  30.8042964
 102.3858483  75.0413342  31.8155022  89.3443072  65.8847218  15.6252629
  89.6396513  64.9757896  15.5719682  88.4431108  65.8634957  15.3033631
 101.2529151  77.6054482  22.4303037 101.1280290  76.8044221  21.9213983
 101.9108242  78.1000675  21.9417007  92.8737319  63.9603214  21.6080177
  92.1523905  64.5739182  21.4687651  93.6630575  64.4960979  21.5296823
 103.3164059  75.4063502  24.0582587 102.3694395  75.2868853  23.9860914
 103.6646832  74.5186000  24.1408849  95.6763633  61.2957641  27.8820829
  96.1998034  61.5419937  28.6447138  95.4575966  62.1277675  27.4623966
  91.0730914  63.5661315  15.7491954  90.7443620  62.6858694  15.5667060
  91.4270284  63.5108984  16.6368343 100.3210493  75.2016218  20.2586939
 100.1735455  74.2732925  20.4394509 101.1463986  75.2236309  19.7744015
  94.1872737  63.8534285  16.1167432  94.5268809  64.3820206  15.3946040
  94.6344857  64.1914691  16.8925998 103.9244614  76.0244777  21.3451812
 104.8491162  75.8187638  21.2076263 103.7559918  75.7761178  22.2541154
  96.8816178  62.2371336  25.5670500  96.5412998  61.4379149  25.9691180
  96.1755184  62.5373047  24.9947333  97.5332649  59.3220648  24.0197823
  98.3558719  58.8481126  23.8976713  97.7770713  60.1011132  24.5196509
  96.1740884  62.3508907  14.3160724  96.8949246  62.7290159  13.8124441
  95.5506188  63.0697783  14.4195702 100.3172007  63.0554056  15.2519057
 100.5335621  63.9378693  14.9507885  99.8366074  62.6640269  14.5224699
  95.0571228  66.0139769  21.8289801  94.9115809  66.3280072  22.7214083
  94.5796432  66.6324669  21.2760700  96.9167611  63.0042317  21.8770691
  96.9029180  62.1083410  21.5402989  97.6340039  63.0112980  22.5108977
  98.7693742  63.4379657  23.9223818  98.5111520  64.3596728  23.9208149
  98.2378782  63.0410091  24.6124282 103.7139931  76.5430444  16.7013904
 103.8876808  75.9776867  15.9487756 104.2068822  77.3431339  16.5193394
  89.5316890  68.5545113  24.7677462  88.9870358  69.3304921  24.8997737
  90.4096240  68.9015918  24.6096584  96.3204507  61.8856697  17.1458261
  96.4420418  60.9573343  17.3449148  96.0306549  61.8995383  16.2336576
  99.1895697  59.5711607  20.2824981  99.2117394  59.6350941  19.3276960
  99.6063756  58.7316116  20.4765487 109.5679322  69.3066867  18.3204203
 110.0110468  68.5574192  17.9223327 108.6905832  69.2977003  17.9377935
 104.7015103  75.8597208  13.8010802 105.3966008  76.4803901  14.0198117
 105.0438253  75.0092560  14.0763180  90.3182912  67.6815009  27.6607619
  89.5764648  67.8297645  28.2472250  89.9975657  67.9423275  26.7974369
 106.6006526  73.3096914  15.3298133 107.1257850  73.6484187  14.6047453
 106.5128879  72.3743929  15.1461267  98.2626575  77.2230988  27.4588009
  98.5713701  76.9780134  28.3310709  99.0602057  77.4277626  26.9706880
  98.2847187  79.3768897  19.6893386  97.8452177  78.8845276  20.3826243
  99.0355304  78.8341865  19.4485461  90.7639526  75.5680438  19.6918014
  91.5897546  75.2684210  19.3116657  90.4133578  74.7988061  20.1407803
  95.7321059  74.9206906  21.7615688  95.1101068  74.2577611  21.4617915
  96.4025926  74.9468038  21.0789335  88.9648131  73.4866765  20.6506948
  88.1280039  73.0588939  20.4690949  88.9371776  73.6799208  21.5877739
  95.8045587  63.3988694  31.3548194  95.8533742  64.2750817  30.9725963
  96.3468101  62.8566087  30.7819837 106.2900432  73.9429818  30.6349331
 105.4995976  73.9253956  30.0953830 106.0533787  74.4818111  31.3898367
 106.4098307  70.7922284  27.9482059 106.4596312  70.6272291  28.8897582
 106.3012231  69.9249543  27.5579940  95.2934566  73.4710830  15.2374148
  95.4422686  74.1546294  14.5840821  96.1001009  73.4515920  15.7523604
 103.7002070  66.7753212  29.2641366 104.6011932  66.6359677  28.9725364
 103.7750044  66.9407667  30.2039543  98.0344875  64.1520067  28.1094552
  97.1648184  64.4453633  27.8377141  98.2704355  64.7360512  28.8301816
 107.9116504  73.2119226  28.1924081 107.6201312  73.5749206  29.0287542
 107.2988635  72.4986234  28.0137413 109.1112186  70.7772105  20.7126651
 109.9459078  71.2161909  20.8764211 109.2471315  70.3010759  19.8934897
 106.1603692  68.3351840  26.6604139 106.6357814  68.5279486  25.8522990
 105.2369258  68.3911026  26.4147522  93.0487199  69.4976007  16.2435217
  92.8033241  68.5938337  16.4415427  93.2183114  69.4993158  15.3014695
 100.7383909  60.3699684  25.6259973 101.2565853  61.1060711  25.3006461
 100.3839042  60.6763677  26.4606732  92.3182847  65.2304365  13.7421378
  91.6252091  65.3048720  13.0861414  92.0734598  64.4664709  14.2642895
 100.9896503  56.7899966  21.1460869 101.2698257  56.1223155  21.7721296
 101.7747110  56.9829062  20.6335533  98.7929972  75.9658960  12.7085896
  98.2203939  76.5849147  12.2556367  99.3662765  76.5158322  13.2425817
 104.8605361  65.2117600  24.8932444 105.8122784  65.3115698  24.9144668
 104.6908812  64.4195869  25.4030529 102.8819741  62.2973183  25.0791845
 102.2869673  62.5778196  24.3838334 102.5969438  62.7867084  25.8508586
 102.0127231  76.2496110  13.8394478 102.9457904  76.1841672  14.0427353
 101.9250444  77.0852377  13.3809010 107.3393439  68.4323720  24.0074744
 107.3069759  67.4939721  24.1934428 107.9494063  68.5107757  23.2740569
  99.1776770  67.3019773  10.0501948 100.1235875  67.1725981  10.1190366
  98.7991015  66.5634435  10.5271376 107.4887928  65.2234763  24.0533027
 106.9726976  64.4393220  23.8662956 108.3727876  64.8953480  24.2179547
 105.1498655  58.9675779  20.0128840 104.9523476  58.6590867  20.8972172
 105.7598360  59.6937418  20.1426770 113.1569989  69.4939727  23.1480781
 113.8873377  69.2325015  23.7088484 112.5476934  68.7568449  23.1882849
 111.2385286  67.6347589  23.7455232 110.5118450  67.5003554  23.1371724
 110.8232573  67.9424418  24.5511950  99.0615463  71.3537519  31.5102605
  99.9818472  71.5316118  31.7042652  99.0265046  70.4093564  31.3582304
  97.3619687  65.2269749   9.9856833  96.4551143  64.9302862  10.0619547
  97.6395668  64.9299567   9.1191119  88.2797628  66.5476113  20.4355880
  87.9600412  65.6941421  20.1430254  87.7331056  66.7624691  21.1913847
  92.0577535  69.2638554  24.1525386  92.2763545  70.1955662  24.1713420
  92.4703309  68.9046528  24.9380190  98.9781753  59.7706639  16.1401075
  98.1682481  59.4253724  16.5156321  99.6666170  59.4614183  16.7288686
 100.9072301  58.8484686  17.7625371 101.4603340  59.2680139  18.4215394
 101.1442388  57.9220434  17.8048327  96.9305400  64.8371759  33.5428135
  96.8302127  65.7866116  33.4740226  96.7126942  64.5089998  32.6704205
  96.1318472  62.0856685  10.1268812  96.9937636  62.4111583  10.3864630
  96.3168816  61.2988180   9.6141878  88.1485888  70.1679024  22.4049001
  87.4549359  69.7532977  21.8918956  88.8958879  70.2099561  21.8082420
 104.2851108  60.9585211  17.2704035 103.7049777  61.6170015  16.8882088
 104.0187041  60.1362556  16.8591453 102.7354675  60.3590269  19.4725356
 103.2354453  60.4706803  18.6639675 103.3790283  60.0551322  20.1126164
  96.7936670  68.2668898  32.3593197  96.3103752  69.0669258  32.5657086
  96.8797610  68.2776843  31.4060641  90.0622630  70.0997278  20.2815016
  90.0393318  70.1984965  19.3296899  90.3723267  70.9462429  20.6032182
  92.7210008  72.1573433  24.3961631  93.6753262  72.1257375  24.3291562
  92.5222532  71.6964057  25.2111856  93.3109390  70.7274549  26.9632428
  94.1302279  71.2218628  26.9867265  93.5846198  69.8106517  26.9349996
 103.0675986  63.1185301  16.3260384 102.1801841  63.4034952  16.1080578
 103.4829975  62.9579065  15.4787661 106.4190522  63.1431822  20.0414723
 107.1950913  63.6328275  20.3139340 105.6938657  63.5689877  20.4986592
 108.8563081  63.8559442  21.0988664 109.4507572  63.6155178  20.3881972
 108.9289665  63.1366572  21.7262200  91.0760237  77.6993053  21.4131828
  90.9414705  76.9393453  20.8469826  90.6592299  78.4233952  20.9460617
 103.0417010  68.6339837  16.5410674 102.9852211  69.0908389  15.7018306
 103.5945353  67.8730522  16.3633517 106.8521816  64.4229569  17.3660793
 106.5958750  64.0226205  18.1969001 106.2274684  65.1373363  17.2410933
 111.1634154  67.1625642  19.8732085 110.6033712  67.2318832  20.6463647
 110.5577657  66.9866627  19.1531581  94.2329363  78.5962370  21.6250271
  94.1161747  79.5407802  21.5228961  93.4121809  78.2935931  22.0136070
 104.1205897  73.3212505  12.4706864 104.9551501  72.8893704  12.2884339
 103.9590240  73.1494519  13.3983758 103.7751789  69.8244619  13.8363203
 103.7200593  69.6588890  12.8951647 103.1497845  70.5320651  13.9925393
  88.5644304  65.0612683  27.6624625  89.2103168  64.5511637  28.1511850
  88.3561455  65.7981365  28.2368051 101.0897697  72.1293530  33.1616766
 101.9588856  72.3034183  32.8003401 100.6104448  72.9487947  33.0392495
  97.0847915  59.3252728  13.4148521  97.0726585  60.2694567  13.5716792
  97.9771337  59.1422873  13.1207983  95.2583877  79.2490631  24.8406199
  96.1611123  79.2814242  25.1572694  95.0321247  78.3191082  24.8552535
  97.0137479  78.0021618  21.5016278  96.0633110  78.0023480  21.3880650
  97.3169965  77.2554353  20.9852313 100.9000034  55.9195504  17.6694458
 100.1332430  55.3653991  17.8151141 101.3110739  55.9917373  18.5308610
  92.9041795  62.2080300  31.7599639  93.7673257  61.8517105  31.9702964
  92.3307206  61.8694195  32.4475044 112.7490172  83.8382156  22.5662040
 113.3868582  83.7188904  21.8625381 112.6311015  84.7863000  22.6249993
 109.5579879  83.7909584  22.5023565 109.2198390  83.6750649  21.6144100
 110.4269647  83.3900750  22.4824571 110.0399662  84.9444436  28.4609771
 110.0288302  84.5497234  27.5890274 110.2020301  84.2110509  29.0543542
 102.9631126  87.1396252  21.3304677 103.7552418  86.7987077  20.9150976
 103.2027776  87.2491228  22.2506830 106.7606923  87.7281548  27.4088955
 106.4696789  88.6327179  27.2935621 107.3963907  87.7698076  28.1233024
 107.6863130  85.1058397  23.9990314 108.2826702  84.8814419  23.2847277
 107.7438101  84.3643142  24.6015762 115.2265288  75.2130418  25.0042836
 114.8948613  76.0825828  24.7804051 114.6310902  74.8966702  25.6836866
 111.7196808  87.4142963  24.4038748 111.4197531  88.3168002  24.2954556
 111.3747867  87.1475147  25.2559901 105.1709289  83.8656760  20.4375453
 104.2459786  83.7332974  20.6453145 105.4193702  84.6450980  20.9345395
 115.1193952  79.9325504  22.0836186 114.2110829  79.8640912  21.7894947
 115.0681547  80.4097449  22.9118011 102.5318100  83.5090034  21.2719242
 102.6610481  83.7624513  22.1858654 101.8515552  84.1017742  20.9523897
 109.1934817  81.3515149  30.0271083 108.4168151  81.9109069  30.0173948
 109.8325380  81.8371932  30.5485953 116.9855598  78.1341942  23.8614060
 116.3429978  78.4274475  23.2153854 116.4810526  78.0194862  24.6667256
 107.4481190  84.1600603  29.5889050 108.1895874  84.6985647  29.3123874
 106.7418175  84.7866891  29.7460602 112.9236529  86.3029743  28.1861211
 113.3319885  85.8612154  27.4415844 112.2013791  85.7282371  28.4395404
 109.2767599  81.2402350  25.5594768 110.1228795  81.6641763  25.7029417
 109.2166237  80.5835974  26.2533332 112.4267045  78.9006718  27.2175942
 112.1827977  79.6548779  26.6810218 112.7026975  79.2792066  28.0523189
 114.3805507  85.4445331  25.8953208 114.5922403  86.0877090  25.2187589
 114.3335256  84.6107647  25.4275138 111.9831736  78.0563151  22.7989780
 111.1216215  78.3544405  23.0906517 112.0094171  78.2733550  21.8670812
 105.6917387  86.1476823  22.1443349 106.2618744  86.5764092  21.5060833
 106.2825499  85.8659408  22.8427534 106.1842553  81.3140251  30.3904360
 105.5541214  81.9956532  30.6239757 106.0778641  81.2023332  29.4457498
 101.4787526  80.9812047  21.3170284 100.6886580  81.2369575  20.8410395
 101.9698773  81.7960385  21.4222325 103.4302271  81.3456626  18.2753761
 102.6333434  81.4575320  18.7937257 103.2027863  81.6843278  17.4094651
 109.2607939  87.8701329  26.2236275 109.3252371  88.3321737  27.0594447
 108.5518863  87.2398694  26.3518585  99.7625229  81.2342537  23.7485275
 100.0133267  82.1189547  24.0142851 100.2984777  81.0547139  22.9760367
 105.4623296  75.6161017  32.7529611 105.0690242  75.0627215  33.4277255
 106.2789436  75.9271595  33.1436129 108.3791257  77.0318896  30.3449868
 109.1200970  77.6326049  30.2654330 108.6109180  76.2896534  29.7867910
 103.5232595  82.2175263  28.6228097 103.4086110  81.3160520  28.9235196
 102.6677113  82.4638960  28.2712914 110.6024433  90.1593003  30.2215598
 110.1588287  89.3729382  29.9036502 111.2641646  90.3472154  29.5559489
 105.3611554  91.6888805  24.7476276 105.9118979  91.5605868  23.9753270
 104.5223030  91.9883694  24.3971169 112.7005671  90.4395803  28.2496999
 112.6824146  91.2604684  27.7577268 113.6225591  90.3149878  28.4747140
 109.1578725  87.9539933  29.0920508 109.6907062  87.1928221  28.8619815
 108.6292806  87.6613585  29.8344662 112.3248420  73.0599999  24.6214149
 111.9812689  73.9501640  24.5453260 112.6927383  72.8701656  23.7583734
 109.8745814  77.8958311  18.1871823 109.0187410  77.5065161  18.0077461
 110.2872766  77.9750271  17.3271608 111.4044960  75.4304654  22.5863383
 110.9009756  75.3934789  21.7731188 111.6975567  76.3397397  22.6460039
 107.6487846  75.5143384  21.5929564 108.5140843  75.3186192  21.2335454
 107.7165355  75.2853735  22.5198921 105.2550165  77.7445591  18.9645931
 105.8293917  77.5220773  18.2319124 105.8421148  77.8134286  19.7174532
 107.5572833  74.6186840  17.6921000 106.9037245  74.3035858  17.0677615
 107.5153307  73.9962581  18.4180823 110.7910573  81.1068774  22.0168648
 109.8733135  81.3283721  21.8590336 111.2070717  81.1815084  21.1580355
 114.1236086  72.3193558  19.7231887 114.4294963  71.4590921  19.4357802
 114.8488691  72.9111178  19.5230881 100.4160442  82.7224244  18.1113485
 100.2184842  82.1293605  17.3864551  99.8607106  82.4176455  18.8289424
 108.3957165  82.6147351  20.2308078 108.4505775  81.6621187  20.1550555
 107.5848367  82.7706790  20.7149376 106.3349525  81.2324411  17.9898457
 105.5217391  81.5318581  18.3963649 106.8308520  80.8380099  18.7072939
 111.9323737  81.6966235  26.8213351 112.2873125  81.9237708  27.6807817
 112.5795868  82.0284612  26.1990606 105.8263600  78.8042766  23.6059692
 106.4662979  78.6631525  22.9082655 104.9941131  78.5177280  23.2298294
 102.8292217  78.7743091  18.3832679 103.0899034  79.6888424  18.2741839
 103.6509389  78.3067534  18.5329291 104.3017142  80.1880848  25.5531503
 104.9740195  79.9798210  24.9044152 103.4746928  79.9902934  25.1136735
 110.2042714  76.8142789  27.5697164 109.5570629  77.5132739  27.4761640
 110.9743729  77.2478933  27.9373412 113.6121512  87.0791641  30.6447717
 113.4607018  86.8502193  29.7277801 113.6026191  88.0362243  30.6579062
 110.3806848  84.6523554  25.6293984 111.3098908  84.8034714  25.4562951
 109.9597878  84.7407575  24.7742630 109.1795180  88.6774219  23.3992521
 109.0406266  88.3093003  24.2718459 108.3909776  89.1921858  23.2276479
 104.7044639  83.4623451  26.3133940 104.5664437  82.7303690  26.9145479
 105.6149563  83.3732351  26.0318128 107.3326940  83.1743411  25.8017620
 108.0426558  82.5336603  25.7604238 107.2896248  83.4256306  26.7243801
 115.3213718  90.1110764  28.7224199 115.2626265  89.4269984  28.0554782
 115.7233237  90.8529754  28.2704825 106.0455874  80.1608629  27.6213259
 105.5093231  79.7099367  28.2734856 105.4572582  80.2954537  26.8783724
 115.3231126  88.0750348  26.9538179 114.4357905  87.7376270  27.0764578
 115.8929677  87.3433379  27.1906944  96.9760273  84.4074440  20.2781230
  97.6631313  84.0936170  19.6902246  96.8208402  85.3115804  20.0048482
 101.7794995  79.2964636  24.7066254 101.6953184  78.6890306  23.9716664
 100.9577701  79.7873655  24.7075750 111.9518709  77.7818200  20.0736449
 112.4487408  77.0288162  19.7537519 111.1805690  77.8182516  19.5079658
 108.5353678  79.9235583  19.8008134 108.1651465  79.3706623  20.4889039
 109.0312770  79.3193716  19.2483134 106.3642876  90.3833078  26.8963152
 107.0652336  91.0169561  27.0492546 105.8937991  90.7247809  26.1358791
 114.3937704  74.7487793  22.2215808 113.4800783  74.9792020  22.3898015
 114.8230805  74.8326237  23.0729840 114.1644162  82.9377685  24.7215702
 113.5115612  83.1853593  24.0668155 114.5424542  82.1241823  24.3878179
 110.2131735  83.6797496  31.2081739 109.5372372  83.5791626  31.8784114
 111.0359369  83.5236710  31.6717736 101.9610594  89.9169433  23.8294254
 102.5464031  89.1713121  23.9622158 101.7635433  90.2273390  24.7130918
  96.5528249  82.4875033  22.5498697  96.5912348  81.9538624  23.3435815
  96.0468542  81.9610239  21.9309675 103.9319011  77.3339574  26.0461240
 103.9960338  78.1954404  25.6338637 103.8686132  76.7213575  25.3133598
 103.4071284  79.4062706  29.6934274 104.0343323  79.0239783  30.3071798
 102.5499203  79.1876908  30.0589966 113.8065392  89.8125681  31.2988009
 114.3505296  90.4255640  30.8042964 113.2252237  90.3705260  31.8155022
 100.1836827  81.2139135  15.6252629 100.4790268  80.3049814  15.5719682
  99.2824862  81.1926875  15.3033631 103.7131074  79.2895132  21.6080177
 102.9917659  79.9031099  21.4687651 104.5024329  79.8252897  21.5296823
 106.5157387  76.6249558  27.8820829 107.0391789  76.8711855  28.6447138
 106.2969720  77.4569593  27.4623966 101.9124668  78.8953233  15.7491954
 101.5837374  78.0150612  15.5667060 102.2664039  78.8400902  16.6368343
 107.7209932  77.5663253  25.5670500 107.3806752  76.7671066  25.9691180
 107.0148938  77.8664964  24.9947333 108.3726404  74.6512566  24.0197823
 109.1952473  74.1773044  23.8976713 108.6164467  75.4303050  24.5196509
 105.8964983  81.3431686  21.8289801 105.7509563  81.6571990  22.7214083
 105.4190186  81.9616587  21.2760700 107.7561366  78.3334234  21.8770691
 107.7422934  77.4375328  21.5402989 108.4733794  78.3404898  22.5108977
 109.6087496  78.7671575  23.9223818 109.3505274  79.6888645  23.9208149
 109.0772537  78.3702009  24.6124282 100.3710645  83.8837031  24.7677462
  99.8264113  84.6596839  24.8997737 101.2489995  84.2307835  24.6096584
 107.1598262  77.2148615  17.1458261 107.2814173  76.2865261  17.3449148
 106.8700304  77.2287301  16.2336576 110.0289452  74.9003525  20.2824981
 110.0511149  74.9642858  19.3276960 110.4457511  74.0608034  20.4765487
 101.1576667  83.0106927  27.6607619 100.4158403  83.1589562  28.2472250
 100.8369411  83.2715193  26.7974369 109.1020329  92.5522905  27.4588009
 109.4107456  92.3072052  28.3310709 109.8995811  92.7569544  26.9706880
  99.8041885  88.8158682  20.6506948  98.9673794  88.3880857  20.4690949
  99.7765531  89.0091126  21.5877739 106.6439341  78.7280612  31.3548194
 106.6927497  79.6042735  30.9725963 107.1861855  78.1858005  30.7819837
 117.1294187  89.2721735  30.6349331 116.3389730  89.2545874  30.0953830
 116.8927541  89.8110029  31.3898367 117.2492062  86.1214202  27.9482059
 117.2990067  85.9564209  28.8897582 117.1405985  85.2541461  27.5579940
 114.5395824  82.1045130  29.2641366 115.4405687  81.9651595  28.9725364
 114.6143799  82.2699585  30.2039543 108.8738630  79.4811984  28.1094552
 108.0041939  79.7745551  27.8377141 109.1098110  80.0652429  28.8301816
 118.7510259  88.5411143  28.1924081 118.4595067  88.9041124  29.0287542
 118.1382390  87.8278151  28.0137413 116.9997447  83.6643758  26.6604139
 117.4751568  83.8571404  25.8522990 116.0763012  83.7202944  26.4147522
 111.5777663  75.6991601  25.6259973 112.0959607  76.4352628  25.3006461
 111.2232796  76.0055595  26.4606732 111.8290258  72.1191884  21.1460869
 112.1092011  71.4515073  21.7721296 112.6140864  72.3120980  20.6335533
 115.6999116  80.5409518  24.8932444 116.6516539  80.6407616  24.9144668
 115.5302566  79.7487786  25.4030529 113.7213495  77.6265101  25.0791845
 113.1263427  77.9070114  24.3838334 113.4363192  78.1159002  25.8508586
 118.3281682  80.5526681  24.0533027 117.8120731  79.7685138  23.8662956
 119.2121631  80.2245398  24.2179547 115.9892409  74.2967697  20.0128840
 115.7917230  73.9882785  20.8972172 116.5992115  75.0229336  20.1426770
 109.9009217  86.6829437  31.5102605 110.8212227  86.8608036  31.7042652
 109.8658800  85.7385482  31.3582304  99.1191382  81.8768030  20.4355880
  98.7994166  81.0233339  20.1430254  98.5724810  82.0916609  21.1913847
 102.8971290  84.5930471  24.1525386 103.1157299  85.5247579  24.1713420
 103.3097063  84.2338446  24.9380190 109.8175507  75.0998557  16.1401075
 109.0076236  74.7545642  16.5156321 110.5059924  74.7906100  16.7288686
 111.7466056  74.1776604  17.7625371 112.2997094  74.5972057  18.4215394
 111.9836142  73.2512352  17.8048327 107.7699155  80.1663677  33.5428135
 107.6695882  81.1158034  33.4740226 107.5520697  79.8381916  32.6704205
  98.9879642  85.4970942  22.4049001  98.2943113  85.0824895  21.8918956
  99.7352633  85.5391478  21.8082420 113.5748429  75.6882186  19.4725356
 114.0748207  75.7998721  18.6639675 114.2184037  75.3843239  20.1126164
 107.6330425  83.5960816  32.3593197 107.1497507  84.3961176  32.5657086
 107.7191364  83.6068761  31.4060641 100.9016385  85.4289196  20.2815016
 100.8787073  85.5276883  19.3296899 101.2117021  86.2754346  20.6032182
 103.5603762  87.4865351  24.3961631 104.5147016  87.4549293  24.3291562
 103.3616286  87.0255974  25.2111856 104.1503145  86.0566467  26.9632428
 104.9696034  86.5510545  26.9867265 104.4239952  85.1398435  26.9349996
  99.4038059  80.3904601  27.6624625 100.0496922  79.8803555  28.1511850
  99.1955210  81.1273282  28.2368051 111.9291451  87.4585448  33.1616766
 112.7982611  87.6326100  32.8003401 111.4498202  88.2779865  33.0392495
 106.0977631  94.5782549  24.8406199 107.0004878  94.6106159  25.1572694
 105.8715001  93.6483000  24.8552535 111.7393789  71.2487422  17.6694458
 110.9726185  70.6945909  17.8151141 112.1504494  71.3209291  18.5308610
 103.7435550  77.5372218  31.7599639 104.6067011  77.1809023  31.9702964
 103.1700960  77.1986112  32.4475044 116.3017051  90.9452934  32.7529611
 115.9083996  90.3919133  33.4277255 117.1183191  91.2563513  33.1436129
 119.2185012  92.3610813  30.3449868 119.9594725  92.9617967  30.2654330
 119.4502934  91.6188451  29.7867910 114.2465038  94.7354624  29.6934274
 114.8737077  94.3531701  30.3071798 113.3892957  94.5168826  30.0589966
 117.4833096  94.0572530  31.3548194 117.5321251  94.9334653  30.9725963
 118.0255610  93.5149923  30.7819837 118.6092909  95.4955595  33.5428135
 118.5089636  96.4449952  33.4740226 118.3914451  95.1673834  32.6704205
 110.2431813  95.7196518  27.6624625 110.8890677  95.2095472  28.1511850
 110.0348964  96.4565200  28.2368051 114.5829304  92.8664135  31.7599639
 115.4460766  92.5100940  31.9702964 114.0094715  92.5278030  32.4475044
  71.9638702   5.8005216  15.4469506  71.9051248   5.1164436  14.7800089
  72.3658220   6.5424206  14.9950132  70.4490376   5.5020133  18.0233316
  70.9930280   6.1150091  17.5288271  69.8677221   6.0599712  18.5400329
  73.7719170   4.9616187  17.3594637  72.9814714   4.9440326  16.8199137
  73.5352525   5.5004481  18.1143674  75.3935242   4.2305595  14.9169387
  75.1020050   4.5935576  15.7532848  74.7807373   3.5172603  14.7382719
  68.5716434   3.1479900  19.8862072  69.4407594   3.3220552  19.5248707
  68.0923186   3.9674317  19.7637802  80.2308910  14.8568526   9.2907347
  80.8687320  14.7375273   8.5870687  80.1129753  15.8049370   9.3495299
  77.0398616  14.8095954   9.2268872  76.7017128  14.6937019   8.3389407
  77.9088385  14.4087119   9.2069878  77.5218399  15.9630806  15.1855077
  77.5107040  15.5683604  14.3135581  77.6839039  15.2296878  15.7788849
  70.4449864  18.1582622   8.0549983  71.2371156  17.8173447   7.6396283
  70.6846514  18.2677597   8.9752137  74.2425660  18.7467918  14.1334261
  73.9515526  19.6513548  14.0180928  74.8782645  18.7884445  14.8478331
  75.1681867  16.1244766  10.7235621  75.7645440  15.9000788  10.0092584
  75.2256839  15.3829512  11.3261069  82.7084026   6.2316787  11.7288142
  82.3767351   7.1012198  11.5049357  82.1129639   5.9153071  12.4082173
  79.2015546  18.4329333  11.1284055  78.9016269  19.3354372  11.0199862
  78.8566605  18.1661516  11.9805208  82.6012689  10.9511873   8.8081492
  81.6929567  10.8827282   8.5140253  82.5500285  11.4283818   9.6363318
  74.1836325  25.1973653   4.0955023  74.1060355  26.1481478   4.1743503
  73.5797969  24.8519526   4.7529949  76.6753555  12.3701519  16.7516390
  75.8986889  12.9295439  16.7419254  77.3144118  12.8558302  17.2731260
  74.9299927  15.1786972  16.3134357  75.6714612  15.7172016  16.0369180
  74.2236913  15.8053261  16.4705908  80.4055267  17.3216113  14.9106518
  80.8138623  16.8798523  14.1661150  79.6832529  16.7468740  15.1640711
  76.7586337  12.2588719  12.2840075  77.6047532  12.6828133  12.4274724
  76.6984975  11.6022344  12.9778638  80.7284082  17.8817303   8.6658807
  80.0992944  18.0463017   7.9634875  80.3409744  18.2958913   9.4369771
  84.6073314  18.8171741   6.0203171  83.9224352  19.1970642   5.4700204
  84.6917163  19.4267068   6.7535118  79.9085782   9.9193088  13.9421249
  79.6646714  10.6735148  13.4055524  80.1845713  10.2978435  14.7768496
  81.8624245  16.4631700  12.6198514  82.0741140  17.1063460  11.9432895
  81.8153993  15.6294017  12.1520444  73.1736125  17.1663193   8.8688655
  73.7437482  17.5950461   8.2306140  73.7644236  16.8845778   9.5672841
  73.6661291  12.3326620  17.1149667  73.0359952  13.0142901  17.3485063
  73.5597379  12.2209702  16.1702805  82.9770073  19.3403656  10.7920872
  83.7987517  18.9383843  10.5103553  82.9732476  19.2371890  11.7436987
  76.7426677  18.8887699  12.9481582  76.8071109  19.3508106  13.7839754
  76.0337600  18.2585064  13.0763892  72.9442034   6.6347386  19.4774918
  72.5508979   6.0813585  20.1522562  73.7608174   6.9457965  19.8681435
  71.7198976  21.1897001   5.4711241  71.8965605  22.1114965   5.2832225
  72.5155810  20.8755420   5.9005620  75.8609995   8.0505265  17.0695174
  76.6019708   8.6512418  16.9899637  76.0927918   7.3082903  16.5113217
  71.0051333  13.2361633  15.3473404  70.8904848  12.3346890  15.6480503
  70.1495851  13.4825329  14.9958220  78.0843171  21.1779373  16.9460905
  77.6407025  20.3915751  16.6281809  78.7460384  21.3658523  16.2804795
  72.8430292  22.7075174  11.4721583  73.3937717  22.5792238  10.6998577
  72.0041768  23.0070063  11.1216476  80.1824409  21.4582173  14.9742306
  80.1642884  22.2791054  14.4822575  81.1044329  21.3336248  15.1992447
  76.6397463  18.9726302  15.8165814  77.1725800  18.2114590  15.5865122
  76.1111544  18.6799954  16.5589969  82.9843022  16.2961315   8.4451672
  82.3266696  16.9860577   8.5331801  83.7883421  16.6857747   8.7885659
  78.2729311  12.1255143   8.7413955  77.3551873  12.3470090   8.5835643
  78.6889455  12.2001454   7.8825662  82.5610277  19.6311689   4.6234757
  82.1072604  18.7902599   4.6799947  81.9304243  20.2673088   4.9609537
  81.0043216  21.4688186   5.5584575  81.2966190  22.0293243   4.8396941
  81.5141836  21.7616747   6.3137734  75.9676841  22.2468537   6.6478028
  75.9253020  22.4729383   5.7186560  76.8839540  22.0131912   6.7963829
  79.4142475  12.7152605  13.5458657  79.7691863  12.9424078  14.4053123
  80.0614606  13.0470982  12.9235913  85.1709591  17.9047568   9.2619258
  85.6046098  17.8122857  10.1102312  85.8841172  17.8805068   8.6239274
  78.9037486  21.5049662  10.7952359  78.9574509  22.0740598  11.5630074
  78.0352268  21.6751547  10.4306396  71.7835880  11.2067218  12.2776810
  72.4558933  10.9984580  11.6289459  70.9565666  11.0089304  11.8382042
  86.0325141  17.9471268  11.7952143  86.2261031  18.8517079  12.0411418
  85.9325759  17.4878687  12.6290728  77.6861452   7.8329159  14.2942471
  77.0389367   8.5319108  14.2006947  78.4562467   8.2665303  14.6618719
  81.0940250  18.0978011  17.3693024  80.9425756  17.8688563  16.4523108
  81.0844929  19.0548612  17.3824369  77.8625586  15.6709924  12.3539290
  78.7917646  15.8221083  12.1808258  77.4416616  15.7593945  11.4987937
  76.6613918  19.6960588  10.1237828  76.5225004  19.3279373  10.9963766
  75.8728514  20.2108228   9.9521786  77.2562070  24.7969685   1.4663365
  77.4313825  24.3257728   2.2808987  76.5694858  25.4235451   1.6944625
  78.2119133  19.0742191   7.5126666  77.8768966  19.0342961   8.4084316
  77.7123079  18.4086907   7.0397076  72.1863377  14.4809821  13.0379247
  72.0483175  13.7490060  13.6390786  73.0968300  14.3918721  12.7563435
  74.8145678  14.1929780  12.5262927  75.5245296  13.5522972  12.4849545
  74.7714986  14.4442675  13.4489107  82.8032456  21.1297134  15.4469506
  82.7445002  20.4456354  14.7800089  83.2051975  21.8716124  14.9950132
  73.5274612  11.1794998  14.3458566  72.9911969  10.7285737  14.9980162
  72.9391320  11.3140907  13.6029030  71.8223155  27.9459047   8.2403225
  72.0619753  28.5777572   8.9182243  70.9792352  27.5947087   8.5268584
  82.8049864  19.0936718  13.6783485  81.9176642  18.7562639  13.8009884
  83.3748415  18.3619749  13.9152251  76.3351017  23.7538170  10.6444729
  76.2621188  24.5593141  11.1564033  75.8928410  23.9530136   9.8192750
  76.1240797  22.9909940   4.1547550  75.3408318  23.5331620   4.2485775
  76.8233542  23.5083920   4.5541791  78.7949700  23.6525004  12.8002887
  79.5077673  24.2872469  12.7278789  78.3039729  23.7488870  11.9842889
  73.8461614  21.4019447  13.6208458  74.5471073  22.0355930  13.7737852
  73.3756729  21.7434179  12.8604097  81.6462900  13.9564055  11.4461009
  80.9934350  14.2039962  10.7913461  82.0243280  13.1428193  11.1123486
  78.6070074  23.9923748   5.5489179  78.7892468  23.1745404   6.0116931
  79.4303060  24.2091440   5.1114069  78.9412239  22.9191933   2.8104227
  79.4700006  22.4084388   2.1974389  79.2040459  22.6034463   3.6749760
  77.6950473  14.6983866  17.9327046  77.0191110  14.5977995  18.6029421
  78.5178107  14.5423080  18.3963043  69.4429332  20.9355802  10.5539561
  70.0282769  20.1899490  10.6867465  69.2454170  21.2459759  11.4376225
  72.2967987  23.9707050   5.5702003  71.6278363  24.4553177   5.0866043
  72.1580857  24.2176270   6.4845382  76.4373256  26.0050793  12.1684662
  76.9891564  26.1682415  12.9333747  76.7779449  26.5955231  11.4964686
  70.8890022  10.4249076  16.4179581  71.5162060  10.0426153  17.0317105
  70.0317940  10.2063278  16.7835273  81.2884130  20.8312051  18.0233316
  81.8324034  21.4442009  17.5288271  80.7070975  21.3891629  18.5400329
  79.5741643  23.9532769   9.1548344  79.4492783  23.1522509   8.6459289
  80.2320734  24.4478962   8.6662314  81.6376552  21.7541789  10.7827894
  80.6906887  21.6347140  10.7106221  81.9859325  20.8664287  10.8654155
  73.9976125   7.6435928  14.6066136  74.5210527   7.8898224  15.3692445
  73.7788458   8.4755963  14.1869273  78.6422985  21.5494505   6.9832246
  78.4947947  20.6211213   7.1639816  79.4676478  21.5714596   6.4989321
  82.2457107  22.3723064   8.0697119  83.1703654  22.1665925   7.9321570
  82.0772410  22.1239465   8.9786460  75.2028670   8.5849623  12.2915806
  74.8625490   7.7857436  12.6936486  74.4967676   8.8851334  11.7192639
  77.0906234   9.7857944  10.6469125  76.8324012  10.7075015  10.6453455
  76.5591274   9.3888379  11.3369589  82.0352423  22.8908731   3.4259210
  82.2089300  22.3255154   2.6733063  82.5281314  23.6909626   3.2438700
  67.8529383  14.9023400  11.4922769  67.3082851  15.6783208  11.6243043
  68.7308733  15.2494205  11.3341891  68.6395405  14.0293297  14.3852926
  67.8977141  14.1775932  14.9717556  68.3188149  14.2901562  13.5219675
  76.5839067  23.5709275  14.1833316  76.8926194  23.3258422  15.0556016
  77.3814549  23.7755913  13.6952186  76.6059679  25.7247185   6.4138693
  76.1664670  25.2323563   7.1071549  77.3567796  25.1820152   6.1730768
  69.0852018  21.9158725   6.4163321  69.9110038  21.6162497   6.0361964
  68.7346070  21.1466348   6.8653109  74.0533551  21.2685194   8.4860994
  73.4313561  20.6055899   8.1863222  74.7238418  21.2946326   7.8034642
  74.1258079   9.7466982  18.0793500  74.1746234  10.6229104  17.6971270
  74.6680593   9.2044375  17.5065143  84.6112925  20.2908105  17.3594637
  83.8208468  20.2732244  16.8199137  84.3746279  20.8296399  18.1143674
  84.7310800  17.1400571  14.6727366  84.7808805  16.9750579  15.6142889
  84.6224723  16.2727830  14.2825247  82.0214562  13.1231499  15.9886673
  82.9224425  12.9837964  15.6970670  82.0962536  13.2885954  16.9284850
  76.3557367  10.4998354  14.8339859  75.4860677  10.7931920  14.5622447
  76.5916848  11.0838799  15.5547122  86.2328996  19.5597513  14.9169387
  85.9413805  19.9227493  15.7532848  85.6201128  18.8464521  14.7382719
  84.4816185  14.6830127  13.3849445  84.9570306  14.8757774  12.5768297
  83.5581750  14.7389313  13.1392829  79.0596401   6.7177971  12.3505279
  79.5778345   7.4538998  12.0251768  78.7051534   7.0241964  13.1852038
  83.1817854  11.5595887  11.6177751  84.1335277  11.6593985  11.6389975
  83.0121304  10.7674156  12.1275835  81.2032233   8.6451471  11.8037152
  80.6082165   8.9256483  11.1083640  80.9181930   9.1345372  12.5753893
  85.6605931  14.7802007  10.7320051  85.6282252  13.8418008  10.9179734
  86.2706555  14.8586044   9.9985875  77.3827955  17.7015806  18.2347912
  78.3030964  17.8794405  18.4287958  77.3477538  16.7571852  18.0827611
  70.3790027  15.6116841  10.8770693  70.5976037  16.5433949  10.8958727
  70.7915801  15.2524815  11.6625497  75.2517893  11.1850047  20.2673442
  75.1514620  12.1344404  20.1985533  75.0339435  10.8568286  19.3949512
  75.1149163  14.6147186  19.0838503  74.6316244  15.4147546  19.2902392
  75.2010102  14.6255130  18.1305947  71.0422500  18.5051720  11.1206937
  71.9965754  18.4735663  11.0536869  70.8435024  18.0442344  11.9357163
  71.6321882  17.0752836  13.6877735  72.4514771  17.5696915  13.7112572
  71.9058690  16.1584804  13.6595302  69.3972729  24.0471340   8.1377135
  69.2627197  23.2871741   7.5715133  68.9804791  24.7712240   7.6705924
  72.5541855  24.9440657   8.3495578  72.4374239  25.8886089   8.2474268
  71.7334301  24.6414218   8.7381377  66.8856797  11.4090970  14.3869932
  67.5315660  10.8989924  14.8757157  66.6773948  12.1459652  14.9613357
  79.4110189  18.4771818  19.8862072  80.2801348  18.6512470  19.5248707
  78.9316940  19.2966234  19.7637802  73.5796369  25.5968919  11.5651506
  74.4823616  25.6292529  11.8818001  73.3533739  24.6669370  11.5797842
  75.3349971  24.3499905   8.2261585  74.3845602  24.3501767   8.1125957
  75.6382457  23.6032640   7.7097619  71.2254288   8.5558587  18.4844946
  72.0885749   8.1995392  18.6948271  70.6519698   8.2172482  19.1720350
  91.0702665  30.1860444   9.2907347  91.7081074  30.0667191   8.5870687
  90.9523507  31.1341288   9.3495299  87.8792371  30.1387872   9.2268872
  87.5410882  30.0228936   8.3389407  88.7482139  29.7379037   9.2069878
  83.7379187  31.9923348   5.2165763  83.1744052  31.9013285   4.4482051
  83.6231582  31.1723253   5.6968255  88.3612154  31.2922723  15.1855077
  88.3500795  30.8975522  14.3135581  88.5232793  30.5588796  15.7788849
  81.2843618  33.4874540   8.0549983  82.0764910  33.1465364   7.6396283
  81.5240269  33.5969515   8.9752137  89.3178745  35.6594316   0.5280228
  88.6666725  36.2448396   0.1414241  90.1123108  36.1900511   0.5875265
  83.2434372  32.7483453   0.9267362  84.0165248  32.2012440   0.7880238
  83.5959771  33.6127702   1.1381823  85.0819415  34.0759835  14.1334261
  84.7909281  34.9805466  14.0180928  85.7176399  34.1176363  14.8478331
  86.0075622  31.4536684  10.7235621  86.6039194  31.2292706  10.0092584
  86.0650593  30.7121429  11.3261069  85.2996939  30.8104225   0.7610187
  85.1833197  30.1349128   1.4291271  85.4099199  30.3236599  -0.0557660
  87.6428480  30.2714372   4.4656876  87.2786687  29.7444993   5.1769798
  88.4995596  29.8812841   4.2923362  93.5477780  21.5608705  11.7288142
  93.2161105  22.4304116  11.5049357  92.9523394  21.2444989  12.4082173
  90.0409300  33.7621251  11.1284055  89.7410023  34.6646290  11.0199862
  89.6960360  33.4953434  11.9805208  83.4921782  30.2135048   7.1620759
  82.5672278  30.0811262   7.3698451  83.7406195  30.9929267   7.6590702
  93.4406444  26.2803791   8.8081492  92.5323321  26.2119199   8.5140253
  93.3894040  26.7575736   9.6363318  80.8530593  29.8568321   7.9964549
  80.9822974  30.1102800   8.9103960  80.1728044  30.4496029   7.6769204
  85.0230080  40.5265571   4.0955023  84.9454110  41.4773396   4.1743503
  84.4191723  40.1811444   4.7529949  87.5147310  27.6993437  16.7516390
  86.7380644  28.2587357  16.7419254  88.1537873  28.1850219  17.2731260
  85.7693682  30.5078890  16.3134357  86.5108366  31.0463934  16.0369180
  85.0630667  31.1345179  16.4705908  91.2449022  32.6508030  14.9106518
  91.6532378  32.2090441  14.1661150  90.5226283  32.0760658  15.1640711
  87.5980092  27.5880637  12.2840075  88.4441287  28.0120051  12.4274724
  87.5378729  26.9314261  12.9778638  91.5677836  33.2109221   8.6658807
  90.9386699  33.3754935   7.9634875  91.1803498  33.6250831   9.4369771
  95.4467068  34.1463659   6.0203171  94.7618106  34.5262560   5.4700204
  95.5310917  34.7558985   6.7535118  90.7479537  25.2485005  13.9421249
  90.5040469  26.0027066  13.4055524  91.0239467  25.6270353  14.7768496
  92.7018000  31.7923618  12.6198514  92.9134895  32.4355378  11.9432895
  92.6547748  30.9585934  12.1520444  90.3044229  24.4041438   9.5235086
  89.4428708  24.7022692   9.8151824  90.3306663  24.6211837   8.5916119
  87.1205798  32.9483629   5.9308892  87.5844144  33.2271332   5.1413515
  86.8562596  32.0467074   5.7481983  84.0129879  32.4955111   8.8688655
  84.5831236  32.9242379   8.2306140  84.6037991  32.2137695   9.5672841
  86.0574684  29.0706781   2.7398457  86.7598727  29.5227825   3.2072384
  85.7255313  28.4290600   3.3678350  84.5055046  27.6618538  17.1149667
  83.8753706  28.3434819  17.3485063  84.3991134  27.5501620  16.1702805
  79.8000018  27.3290334   8.0415591  79.0099072  27.5847863   7.5655701
  80.2911265  28.1438672   8.1467631  93.8163828  34.6695573  10.7920872
  94.6381271  34.2675761  10.5103553  93.8126231  34.5663807  11.7436987
  81.7514763  27.6934913   4.9999067  80.9545927  27.8053608   5.5182563
  81.5240356  28.0321566   4.1339958  87.5820431  34.2179617  12.9481582
  87.6464864  34.6800024  13.7839754  86.8731355  33.5876981  13.0763892
  78.0837721  27.5820825  10.4730582  78.3345759  28.4667834  10.7388158
  78.6197269  27.4025426   9.7005673  87.2968449  35.8847724   2.8160562
  87.1614124  36.7299260   3.2445410  87.8378261  36.0867002   2.0526496
  83.7835788  21.9639304  19.4774918  83.3902734  21.4105502  20.1522562
  84.6001929  22.2749882  19.8681435  80.7497846  33.4023162   3.3888488
  81.2622367  34.1966412   3.5394052  81.4020559  32.7049453   3.3222089
  82.5592731  36.5188918   5.4711241  82.7359359  37.4406883   5.2832225
  83.3549564  36.2047338   5.9005620  86.7003749  23.3797183  17.0695174
  87.4413463  23.9804336  16.9899637  86.9321672  22.6374821  16.5113217
  81.8445087  28.5653550  15.3473404  81.7298603  27.6638807  15.6480503
  80.9889605  28.8117247  14.9958220  88.9236925  36.5071291  16.9460905
  88.4800779  35.7207669  16.6281809  89.5854139  36.6950441  16.2804795
  83.6824046  38.0367092  11.4721583  84.2331471  37.9084156  10.6998577
  82.8435522  38.3361981  11.1216476  91.0218163  36.7874090  14.9742306
  91.0036639  37.6082972  14.4822575  91.9438083  36.6628166  15.1992447
  87.4791217  34.3018220  15.8165814  88.0119554  33.5406508  15.5865122
  86.9505298  34.0091872  16.5589969  78.7146763  31.7311816   4.1648058
  79.5521985  32.1408825   3.9481766  78.8925031  30.7911259   4.1348252
  89.7257453  21.7782941   9.3108689  89.2222248  21.7413076   8.4976494
  90.0188060  22.6875684   9.3705346  85.9700339  21.8621671   8.3174871
  86.8353335  21.6664479   7.9580760  86.0377847  21.6332023   9.2444228
  88.8443930  33.4304212   3.3284626  88.3165292  32.6956972   3.0157864
  88.3431433  34.2078889   3.0824594  93.8236776  31.6253233   8.4451672
  93.1660451  32.3152494   8.5331801  94.6277175  32.0149665   8.7885659
  83.5762658  24.0923879   5.6891238  84.1506410  23.8699060   4.9564431
  84.1633640  24.1612573   6.4419839  89.8964609  39.9581930  -0.7483715
  89.2226308  40.2613627  -0.1398757  90.2830431  40.7611010  -1.0978258
  89.1123066  27.4547061   8.7413955  88.1945627  27.6762008   8.5835643
  89.5283209  27.5293372   7.8825662  93.4004031  34.9603607   4.6234757
  92.9466358  34.1194517   4.6799947  92.7697998  35.5965005   4.9609537
  91.8436970  36.7980104   5.5584575  92.1359945  37.3585161   4.8396941
  92.3535591  37.0908665   6.3137734  78.7372934  29.0702532   4.8358791
  78.5397334  28.4771892   4.1109858  78.1819598  28.7654742   5.5534730
  86.7169658  28.9625638   6.9553385  86.7718267  28.0099475   6.8795861
  85.9060860  29.1185077   7.4394683  84.6562018  27.5802698   4.7143764
  83.8429883  27.8796868   5.1208956  85.1521012  27.1858387   5.4318246
  86.8070596  37.5760455   6.6478028  86.7646774  37.8021301   5.7186560
  87.7233294  37.3423829   6.7963829  90.2536229  28.0444522  13.5458657
  90.6085617  28.2715996  14.4053123  90.9008361  28.3762899  12.9235913
  84.1476092  25.1521053  10.3304998  84.7875472  25.0109813   9.6327962
  83.3153623  24.8655567   9.9543600  96.0103346  33.2339485   9.2619258
  96.4439853  33.1414774  10.1102312  96.7234927  33.2096986   8.6239274
  84.9236396  34.4523484   6.4439991  85.7176995  33.9573804   6.2422566
  84.2128089  33.9241347   6.0807696  89.7431241  36.8341579  10.7952359
  89.7968263  37.4032516  11.5630074  88.8746022  37.0043464  10.4306396
  81.2319160  28.5966566   2.5199744  80.3016748  28.5351021   2.7369706
  81.3276632  28.0742518   1.7236385  81.1504709  25.1221378   5.1077985
  81.4111526  26.0366712   4.9987146  81.9721881  24.6545821   5.2574598
  82.6229634  26.5359136  12.2776810  83.2952688  26.3276498  11.6289459
  81.7959421  26.3381222  11.8382042  96.8718895  33.2763186  11.7952143
  97.0654786  34.1808996  12.0411418  96.7719514  32.8170605  12.6290728
  88.5255206  23.1621077  14.2942471  87.8783121  23.8611026  14.2006947
  89.2956222  23.5957220  14.6618719  91.9334004  33.4269929  17.3693024
  91.7819511  33.1980480  16.4523108  91.9238684  34.3840530  17.3824369
  88.7019341  31.0001841  12.3539290  89.6311401  31.1513001  12.1808258
  88.2810371  31.0885862  11.4987937  87.5007672  35.0252506  10.1237828
  87.3618758  34.6571290  10.9963766  86.7122269  35.5400145   9.9521786
  88.0955824  40.1261602   1.4663365  88.2707580  39.6549646   2.2808987
  87.4088612  40.7527369   1.6944625  89.0512887  34.4034109   7.5126666
  88.7162720  34.3634879   8.4084316  88.5516833  33.7378824   7.0397076
  83.0257131  29.8101739  13.0379247  82.8876929  29.0781977  13.6390786
  83.9362055  29.7210639  12.7563435  85.6539432  29.5221698  12.5262927
  86.3639051  28.8814890  12.4849545  85.6108740  29.7734593  13.4489107
  93.6426211  36.4589051  15.4469506  93.5838757  35.7748271  14.7800089
  94.0445729  37.2008041  14.9950132  84.3668366  26.5086916  14.3458566
  83.8305723  26.0577654  14.9980162  83.7785074  26.6432825  13.6029030
  82.6616910  43.2750965   8.2403225  82.9013508  43.9069489   8.9182243
  81.8186106  42.9239005   8.5268584  93.6443618  34.4228635  13.6783485
  92.7570397  34.0854557  13.8009884  94.2142169  33.6911666  13.9152251
  75.2972765  30.7552727   7.0026537  75.9843805  30.4414457   6.4147552
  75.1420894  31.6594092   6.7293788  80.1007487  25.6442923  11.4311561
  80.0165676  25.0368593  10.6961971  79.2790194  26.1351942  11.4321057
  87.1744771  39.0830088  10.6444729  87.1014943  39.8885059  11.1564033
  86.7322165  39.2822053   9.8192750  86.9634551  38.3201858   4.1547550
  86.1802073  38.8623538   4.2485775  87.6627296  38.8375837   4.5541791
  89.6343455  38.9816922  12.8002887  90.3471427  39.6164386  12.7278789
  89.1433484  39.0780788  11.9842889  91.3560982  32.8868174   4.3720179
  90.4217261  33.0069637   4.2024883  91.5337650  31.9840641   4.1080189
  86.8566170  26.2713870   6.5253440  86.4863957  25.7184910   7.2134346
  87.3525262  25.6672003   5.9728440  84.6855368  36.7311365  13.6208458
  85.3864828  37.3647848  13.7737852  84.2150483  37.0726097  12.8604097
  92.4856654  29.2855972  11.4461009  91.8328105  29.5331880  10.7913461
  92.8637034  28.4720111  11.1123486  89.4463828  39.3215666   5.5489179
  89.6286223  38.5037322   6.0116931  90.2696814  39.5383358   5.1114069
  89.7805994  38.2483851   2.8104227  90.3093760  37.7376305   2.1974389
  90.0434213  37.9326381   3.6749760  88.5344227  30.0275784  17.9327046
  87.8584864  29.9269913  18.6029421  89.3571861  29.8714997  18.3963043
  80.2823087  36.2647720  10.5539561  80.8676523  35.5191408  10.6867465
  80.0847925  36.5751677  11.4376225  83.1361742  39.2998967   5.5702003
  82.4672117  39.7845095   5.0866043  82.9974611  39.5468188   6.4845382
  74.8740741  28.8353320   9.2744004  74.9124841  28.3016911  10.0681122
  74.3681034  28.3088526   8.6554981  87.2767010  41.3342711  12.1684662
  87.8285318  41.4974332  12.9333747  87.6173204  41.9247149  11.4964686
  82.2531504  23.6817861  12.7706546  82.3172830  24.5432692  12.3583944
  82.1898624  23.0691862  12.0378905  81.7283776  25.7540993  16.4179581
  82.3555815  25.3718071  17.0317105  80.8711695  25.5355195  16.7835273
  92.1277885  36.1603968  18.0233316  92.6717789  36.7733927  17.5288271
  91.5464730  36.7183547  18.5400329  78.5049319  27.5617422   2.3497935
  78.8002760  26.6528101   2.2964989  77.6037355  27.5405162   2.0278938
  90.4135398  39.2824687   9.1548344  90.2886537  38.4814426   8.6459289
  91.0714489  39.7770880   8.6662314  82.0343566  25.6373419   8.3325484
  81.3130152  26.2509387   8.1932957  82.8236822  26.1731184   8.2542130
  92.4770306  37.0833707  10.7827894  91.5300642  36.9639058  10.7106221
  92.8253079  36.1956205  10.8654155  84.8369879  22.9727846  14.6066136
  85.3604281  23.2190142  15.3692445  84.6182213  23.8047880  14.1869273
  80.2337160  25.2431520   2.4737261  79.9049867  24.3628899   2.2912366
  80.5876531  25.1879189   3.3613650  89.4816739  36.8786423   6.9832246
  89.3341702  35.9503130   7.1639816  90.3070233  36.9006514   6.4989321
  83.3478984  25.5304490   2.8412738  83.6875056  26.0590411   2.1191347
  83.7951104  25.8684896   3.6171305  93.0850861  37.7014982   8.0697119
  94.0097409  37.4957843   7.9321570  92.9166165  37.4531383   8.9786460
  86.0422424  23.9141541  12.2915806  85.7019245  23.1149354  12.6936486
  85.3361431  24.2143251  11.7192639  86.6938896  20.9990853  10.7443129
  87.5164966  20.5251331  10.6222020  86.9376960  21.7781337  11.2441816
  84.2177475  27.6909974   8.5535108  84.0722056  28.0050277   9.4459389
  83.7402679  28.3094874   8.0006007  86.0773858  24.6812522   8.6015997
  86.0635427  23.7853615   8.2648295  86.7946286  24.6883185   9.2354284
  87.9299989  25.1149862  10.6469125  87.6717766  26.0366933  10.6453455
  87.3985029  24.7180296  11.3369589  92.8746177  38.2200649   3.4259210
  93.0483055  37.6547071   2.6733063  93.3675069  39.0201544   3.2438700
  78.6923137  30.2315318  11.4922769  78.1476605  31.0075126  11.6243043
  79.5702487  30.5786123  11.3341891  79.4789159  29.3585214  14.3852926
  78.7370895  29.5067850  14.9717556  79.1581903  29.6193480  13.5219675
  87.4232822  38.9001193  14.1833316  87.7319948  38.6550339  15.0556016
  88.2208304  39.1047831  13.6952186  87.4453434  41.0539102   6.4138693
  87.0058424  40.5615481   7.1071549  88.1961551  40.5112070   6.1730768
  79.9245773  37.2450643   6.4163321  80.7503793  36.9454415   6.0361964
  79.5739825  36.4758265   6.8653109  84.8927306  36.5977111   8.4860994
  84.2707315  35.9347816   8.1863222  85.5632173  36.6238243   7.8034642
  78.1254378  35.1636970   7.3752254  77.2886286  34.7359144   7.1936255
  78.0978023  35.3569413   8.3123045  84.9651833  25.0758899  18.0793500
  85.0139989  25.9521022  17.6971270  85.5074348  24.5336292  17.5065143
  95.4506679  35.6200023  17.3594637  94.6602223  35.6024161  16.8199137
  95.2140034  36.1588316  18.1143674  95.5704554  32.4692489  14.6727366
  95.6202559  32.3042496  15.6142889  95.4618477  31.6019748  14.2825247
  84.4540813  35.1481035   1.9619455  84.6028933  35.8316499   1.3086127
  85.2607256  35.1286125   2.4768910  92.8608316  28.4523417  15.9886673
  93.7618179  28.3129882  15.6970670  92.9356291  28.6177872  16.9284850
  87.1951122  25.8290272  14.8339859  86.3254431  26.1223838  14.5622447
  87.4310602  26.4130717  15.5547122  97.0722751  34.8889430  14.9169387
  96.7807559  35.2519411  15.7532848  96.4594882  34.1756439  14.7382719
  95.3209939  30.0122045  13.3849445  95.7964061  30.2049691  12.5768297
  94.3975505  30.0681231  13.1392829  82.2093446  31.1746212   2.9680524
  81.9639488  30.2708542   3.1660734  82.3789360  31.1763363   2.0260002
  89.8990156  22.0469889  12.3505279  90.4172099  22.7830916  12.0251768
  89.5445288  22.3533882  13.1852038  81.4789093  26.9074570   0.4666685
  80.7858338  26.9818925  -0.1893279  81.2340845  26.1434913   0.9888202
  87.9536218  37.6429165  -0.5668798  87.3810185  38.2619352  -1.0198326
  88.5269012  38.1928527  -0.0328876  94.0211608  26.8887805  11.6177751
  94.9729031  26.9885903  11.6389975  93.8515059  26.0966074  12.1275835
  92.0425988  23.9743388  11.8037152  91.4475920  24.2548401  11.1083640
  91.7575684  24.4637289  12.5753893  96.4999686  30.1093925  10.7320051
  96.4676006  29.1709926  10.9179734  97.1100310  30.1877962   9.9985875
  88.2221709  33.0307724  18.2347912  89.1424719  33.2086323  18.4287958
  88.1871292  32.0863769  18.0827611  77.4403874  28.2246318   7.1601186
  77.1206659  27.3711626   6.8675560  76.8937303  28.4394896   7.9159154
  81.2183782  30.9408759  10.8770693  81.4369792  31.8725866  10.8958727
  81.6309556  30.5816733  11.6625497  86.0911647  26.5141964  20.2673442
  85.9908374  27.4636321  20.1985533  85.8733189  26.1860203  19.3949512
  77.3092134  31.8449229   9.1294308  76.6155606  31.4303182   8.6164262
  78.0565125  31.8869766   8.5327727  85.9542917  29.9439103  19.0838503
  85.4709999  30.7439463  19.2902392  86.0403856  29.9547048  18.1305947
  79.2228877  31.7767483   7.0060323  79.1999565  31.8755170   6.0542206
  79.5329513  32.6232634   7.3277489  81.8816255  33.8343638  11.1206937
  82.8359508  33.8027580  11.0536869  81.6828778  33.3734262  11.9357163
  82.4715637  32.4044754  13.6877735  83.2908526  32.8988833  13.7112572
  82.7452445  31.4876722  13.6595302  80.2366484  39.3763257   8.1377135
  80.1020951  38.6163658   7.5715133  79.8198546  40.1004157   7.6705924
  83.3935609  40.2732574   8.3495578  83.2767994  41.2178007   8.2474268
  82.5728056  39.9706136   8.7381377  77.7250551  26.7382888  14.3869932
  78.3709415  26.2281842  14.8757157  77.5167702  27.4751569  14.9613357
  90.2503943  33.8063735  19.8862072  91.1195103  33.9804388  19.5248707
  89.7710695  34.6258152  19.7637802  84.4190124  40.9260836  11.5651506
  85.3217370  40.9584447  11.8818001  84.1927494  39.9961287  11.5797842
  86.1743726  39.6791823   8.2261585  85.2239357  39.6793684   8.1125957
  86.4776212  38.9324557   7.7097619  82.0648042  23.8850505  18.4844946
  82.9279504  23.5287310  18.6948271  81.4913453  23.5464400  19.1720350
 101.9096419  45.5152361   9.2907347 102.5474829  45.3959109   8.5870687
 101.7917262  46.4633205   9.3495299  98.7186125  45.4679789   9.2268872
  98.3804637  45.3520854   8.3389407  99.5875894  45.0670954   9.2069878
  94.5772941  47.3215266   5.2165763  94.0137806  47.2305203   4.4482051
  94.4625336  46.5015170   5.6968255  99.2005908  46.6214641  15.1855077
  99.1894549  46.2267439  14.3135581  99.3626548  45.8880714  15.7788849
  92.1237373  48.8166457   8.0549983  92.9158665  48.4757282   7.6396283
  92.3634023  48.9261432   8.9752137 100.1572500  50.9886233   0.5280228
  99.5060479  51.5740314   0.1414241 100.9516863  51.5192428   0.5875265
  94.0828127  48.0775371   0.9267362  94.8559003  47.5304358   0.7880238
  94.4353526  48.9419620   1.1381823  95.9213169  49.4051753  14.1334261
  95.6303035  50.3097384  14.0180928  96.5570154  49.4468281  14.8478331
  96.8469376  46.7828601  10.7235621  97.4432949  46.5584624  10.0092584
  96.9044348  46.0413347  11.3261069  96.1390693  46.1396143   0.7610187
  96.0226952  45.4641046   1.4291271  96.2492953  45.6528517  -0.0557660
  98.4822234  45.6006290   4.4656876  98.1180442  45.0736911   5.1769798
  99.3389350  45.2104759   4.2923362 104.3871535  36.8900622  11.7288142
 104.0554860  37.7596033  11.5049357 103.7917148  36.5736906  12.4082173
 100.8803055  49.0913168  11.1284055 100.5803778  49.9938207  11.0199862
 100.5354114  48.8245352  11.9805208  94.3315536  45.5426965   7.1620759
  93.4066032  45.4103179   7.3698451  94.5799949  46.3221184   7.6590702
 104.2800198  41.6095709   8.8081492 103.3717076  41.5411117   8.5140253
 104.2287794  42.0867654   9.6363318  91.6924347  45.1860239   7.9964549
  91.8216728  45.4394718   8.9103960  91.0121798  45.7787947   7.6769204
  95.8623834  55.8557489   4.0955023  95.7847864  56.8065314   4.1743503
  95.2585478  55.5103361   4.7529949  98.3541064  43.0285354  16.7516390
  97.5774398  43.5879274  16.7419254  98.9931627  43.5142137  17.2731260
  96.6087436  45.8370808  16.3134357  97.3502121  46.3755852  16.0369180
  95.9024422  46.4637096  16.4705908 102.0842776  47.9799948  14.9106518
 102.4926132  47.5382359  14.1661150 101.3620038  47.4052576  15.1640711
  98.4373846  42.9172555  12.2840075  99.2835041  43.3411968  12.4274724
  98.3772484  42.2606179  12.9778638 102.4071591  48.5401139   8.6658807
 101.7780453  48.7046853   7.9634875 102.0197253  48.9542748   9.4369771
 106.2860823  49.4755576   6.0203171 105.6011861  49.8554478   5.4700204
 106.3704672  50.0850903   6.7535118 101.5873291  40.5776923  13.9421249
 101.3434223  41.3318984  13.4055524 101.8633222  40.9562271  14.7768496
 103.5411754  47.1215536  12.6198514 103.7528649  47.7647295  11.9432895
 103.4941502  46.2877852  12.1520444 101.1437983  39.7333356   9.5235086
 100.2822462  40.0314610   9.8151824 101.1700418  39.9503755   8.5916119
  97.9599553  48.2775547   5.9308892  98.4237898  48.5563250   5.1413515
  97.6956351  47.3758991   5.7481983  94.8523634  47.8247028   8.8688655
  95.4224991  48.2534297   8.2306140  95.4431745  47.5429613   9.5672841
  96.8968439  44.3998699   2.7398457  97.5992482  44.8519743   3.2072384
  96.5649067  43.7582518   3.3678350  95.3448800  42.9910456  17.1149667
  94.7147461  43.6726737  17.3485063  95.2384888  42.8793537  16.1702805
  90.6393773  42.6582252   8.0415591  89.8492827  42.9139780   7.5655701
  91.1305020  43.4730590   8.1467631 104.6557582  49.9987491  10.7920872
 105.4775026  49.5967678  10.5103553 104.6519985  49.8955725  11.7436987
  92.5908518  43.0226831   4.9999067  91.7939681  43.1345525   5.5182563
  92.3634110  43.3613483   4.1339958  98.4214186  49.5471534  12.9481582
  98.4858618  50.0091941  13.7839754  97.7125109  48.9168899  13.0763892
  88.9231476  42.9112742  10.4730582  89.1739514  43.7959752  10.7388158
  89.4591024  42.7317344   9.7005673  98.1362203  51.2139642   2.8160562
  98.0007878  52.0591177   3.2445410  98.6772016  51.4158919   2.0526496
  94.6229543  37.2931222  19.4774918  94.2296488  36.7397420  20.1522562
  95.4395683  37.6041800  19.8681435  91.5891601  48.7315080   3.3888488
  92.1016121  49.5258330   3.5394052  92.2414313  48.0341370   3.3222089
  93.3986485  51.8480836   5.4711241  93.5753114  52.7698801   5.2832225
  94.1943319  51.5339255   5.9005620  97.5397504  38.7089101  17.0695174
  98.2807217  39.3096254  16.9899637  97.7715427  37.9666738  16.5113217
  92.6838842  43.8945468  15.3473404  92.5692357  42.9930725  15.6480503
  91.8283360  44.1409165  14.9958220  99.7630680  51.8363208  16.9460905
  99.3194534  51.0499587  16.6281809 100.4247893  52.0242359  16.2804795
  94.5217801  53.3659010  11.4721583  95.0725226  53.2376073  10.6998577
  93.6829277  53.6653899  11.1216476 101.8611918  52.1166008  14.9742306
 101.8430393  52.9374889  14.4822575 102.7831838  51.9920083  15.1992447
  98.3184972  49.6310138  15.8165814  98.8513309  48.8698426  15.5865122
  97.7899053  49.3383789  16.5589969  89.5540517  47.0603734   4.1648058
  90.3915739  47.4700742   3.9481766  89.7318785  46.1203176   4.1348252
 100.5651207  37.1074859   9.3108689 100.0616003  37.0704994   8.4976494
 100.8581814  38.0167601   9.3705346  96.8094093  37.1913588   8.3174871
  97.6747090  36.9956397   7.9580760  96.8771602  36.9623940   9.2444228
  99.6837685  48.7596130   3.3284626  99.1559046  48.0248890   3.0157864
  99.1825187  49.5370806   3.0824594 104.6630531  46.9545151   8.4451672
 104.0054205  47.6444412   8.5331801 105.4670930  47.3441583   8.7885659
  94.4156412  39.4215796   5.6891238  94.9900164  39.1990978   4.9564431
  95.0027395  39.4904491   6.4419839  99.9516820  42.7838979   8.7413955
  99.0339382  43.0053926   8.5835643 100.3676964  42.8585289   7.8825662
 104.2397786  50.2895525   4.6234757 103.7860113  49.4486435   4.6799947
 103.6091752  50.9256923   4.9609537 102.6830725  52.1272021   5.5584575
 102.9753699  52.6877079   4.8396941 103.1929345  52.4200582   6.3137734
  89.5766689  44.3994449   4.8358791  89.3791088  43.8063810   4.1109858
  89.0213353  44.0946660   5.5534730  97.5563412  44.2917556   6.9553385
  97.6112022  43.3391392   6.8795861  96.7454614  44.4476995   7.4394683
  95.4955772  42.9094616   4.7143764  94.6823638  43.2088786   5.1208956
  95.9914766  42.5150304   5.4318246  97.6464350  52.9052373   6.6478028
  97.6040529  53.1313219   5.7186560  98.5627049  52.6715747   6.7963829
 101.0929984  43.3736440  13.5458657 101.4479372  43.6007913  14.4053123
 101.7402115  43.7054817  12.9235913  94.9869847  40.4812971  10.3304998
  95.6269226  40.3401730   9.6327962  94.1547377  40.1947485   9.9543600
 106.8497100  48.5631403   9.2619258 107.2833607  48.4706692  10.1102312
 107.5628681  48.5388903   8.6239274  95.7630151  49.7815402   6.4439991
  96.5570749  49.2865722   6.2422566  95.0521843  49.2533265   6.0807696
 100.5824995  52.1633497  10.7952359 100.6362018  52.7324433  11.5630074
  99.7139777  52.3335382  10.4306396  92.0712914  43.9258483   2.5199744
  91.1410502  43.8642939   2.7369706  92.1670386  43.4034436   1.7236385
  91.9898463  40.4513296   5.1077985  92.2505281  41.3658629   4.9987146
  92.8115636  39.9837739   5.2574598  93.4623389  41.8651053  12.2776810
  94.1346442  41.6568415  11.6289459  92.6353175  41.6673139  11.8382042
 107.7112650  48.6055104  11.7952143 107.9048540  49.5100914  12.0411418
 107.6113268  48.1462523  12.6290728  99.3648961  38.4912994  14.2942471
  98.7176876  39.1902944  14.2006947 100.1349976  38.9249138  14.6618719
 102.7727759  48.7561846  17.3693024 102.6213265  48.5272398  16.4523108
 102.7632438  49.7132448  17.3824369  99.5413095  46.3293759  12.3539290
 100.4705155  46.4804919  12.1808258  99.1204125  46.4177780  11.4987937
  98.3401427  50.3544424  10.1237828  98.2012512  49.9863208  10.9963766
  97.5516023  50.8692063   9.9521786  98.9349579  55.4553520   1.4663365
  99.1101334  54.9841563   2.2808987  98.2482367  56.0819286   1.6944625
  99.8906642  49.7326026   7.5126666  99.5556475  49.6926796   8.4084316
  99.3910588  49.0670742   7.0397076  93.8650886  45.1393656  13.0379247
  93.7270684  44.4073895  13.6390786  94.7755809  45.0502556  12.7563435
  96.4933187  44.8513616  12.5262927  97.2032805  44.2106808  12.4849545
  96.4502495  45.1026510  13.4489107 104.4819965  51.7880969  15.4469506
 104.4232511  51.1040189  14.7800089 104.8839484  52.5299959  14.9950132
  95.2062121  41.8378833  14.3458566  94.6699478  41.3869572  14.9980162
  94.6178829  41.9724742  13.6029030  93.5010664  58.6042883   8.2403225
  93.7407262  59.2361407   8.9182243  92.6579861  58.2530923   8.5268584
 104.4837373  49.7520553  13.6783485 103.5964151  49.4146475  13.8009884
 105.0535924  49.0203584  13.9152251  86.1366520  46.0844645   7.0026537
  86.8237559  45.7706375   6.4147552  85.9814648  46.9886009   6.7293788
  90.9401242  40.9734841  11.4311561  90.8559431  40.3660511  10.6961971
  90.1183948  41.4643859  11.4321057  98.0138526  54.4122005  10.6444729
  97.9408697  55.2176977  11.1564033  97.5715919  54.6113971   9.8192750
  97.8028306  53.6493775   4.1547550  97.0195827  54.1915455   4.2485775
  98.5021051  54.1667755   4.5541791 100.4737209  54.3108839  12.8002887
 101.1865182  54.9456304  12.7278789  99.9827238  54.4072705  11.9842889
 102.1954736  48.2160092   4.3720179 101.2611015  48.3361554   4.2024883
 102.3731405  47.3132559   4.1080189  97.6959924  41.6005788   6.5253440
  97.3257712  41.0476828   7.2134346  98.1919017  40.9963921   5.9728440
  95.5249123  52.0603283  13.6208458  96.2258582  52.6939766  13.7737852
  95.0544238  52.4018014  12.8604097 103.3250409  44.6147890  11.4461009
 102.6721859  44.8623798  10.7913461 103.7030789  43.8012028  11.1123486
 100.2857583  54.6507583   5.5489179 100.4679977  53.8329239   6.0116931
 101.1090569  54.8675276   5.1114069 100.6199748  53.5775768   2.8104227
 101.1487515  53.0668223   2.1974389 100.8827968  53.2618299   3.6749760
  99.3737982  45.3567701  17.9327046  98.6978619  45.2561831  18.6029421
 100.1965616  45.2006915  18.3963043  91.1216841  51.5939638  10.5539561
  91.7070278  50.8483326  10.6867465  90.9241679  51.9043594  11.4376225
  93.9755496  54.6290885   5.5702003  93.3065872  55.1137013   5.0866043
  93.8368366  54.8760106   6.4845382  85.7134496  44.1645238   9.2744004
  85.7518595  43.6308829  10.0681122  85.2074789  43.6380443   8.6554981
  98.1160765  56.6634629  12.1684662  98.6679073  56.8266250  12.9333747
  98.4566958  57.2539066  11.4964686  93.0925258  39.0109778  12.7706546
  93.1566585  39.8724609  12.3583944  93.0292378  38.3983780  12.0378905
  92.5677531  41.0832911  16.4179581  93.1949569  40.7009988  17.0317105
  91.7105449  40.8647113  16.7835273 102.9671639  51.4895886  18.0233316
 103.5111543  52.1025844  17.5288271 102.3858484  52.0475465  18.5400329
  89.3443073  42.8909340   2.3497935  89.6396514  41.9820019   2.2964989
  88.4431109  42.8697080   2.0278938 101.2529152  54.6116604   9.1548344
 101.1280292  53.8106344   8.6459289 101.9108243  55.1062798   8.6662314
  92.8737320  40.9665337   8.3325484  92.1523906  41.5801304   8.1932957
  93.6630576  41.5023102   8.2542130 103.3164060  52.4125624  10.7827894
 102.3694396  52.2930975  10.7106221 103.6646834  51.5248122  10.8654155
  95.6763634  38.3019763  14.6066136  96.1998036  38.5482060  15.3692445
  95.4575967  39.1339798  14.1869273  91.0730915  40.5723438   2.4737261
  90.7443621  39.6920817   2.2912366  91.4270286  40.5171106   3.3613650
 100.3210494  52.2078340   6.9832246 100.1735456  51.2795048   7.1639816
 101.1463987  52.2298431   6.4989321  94.1872738  40.8596408   2.8412738
  94.5268811  41.3882329   2.1191347  94.6344859  41.1976814   3.6171305
 103.9244616  53.0306899   8.0697119 104.8491163  52.8249761   7.9321570
 103.7559919  52.7823300   8.9786460  96.8816179  39.2433458  12.2915806
  96.5412999  38.4441271  12.6936486  96.1755185  39.5435169  11.7192639
  97.5332651  36.3282771  10.7443129  98.3558720  35.8543249  10.6222020
  97.7770714  37.1073254  11.2441816  95.0571229  43.0201891   8.5535108
  94.9115810  43.3342194   9.4459389  94.5796433  43.6386792   8.0006007
  96.9167612  40.0104439   8.6015997  96.9029181  39.1145533   8.2648295
  97.6340040  40.0175103   9.2354284  98.7693743  40.4441780  10.6469125
  98.5111521  41.3658850  10.6453455  98.2378783  40.0472214  11.3369589
 103.7139932  53.5492567   3.4259210 103.8876809  52.9838989   2.6733063
 104.2068823  54.3493462   3.2438700  89.5316892  45.5607236  11.4922769
  88.9870360  46.3367044  11.6243043  90.4096242  45.9078040  11.3341891
  90.3182914  44.6877132  14.3852926  89.5764650  44.8359767  14.9717556
  89.9975658  44.9485398  13.5219675  98.2626576  54.2293110  14.1833316
  98.5713703  53.9842257  15.0556016  99.0602058  54.4339749  13.6952186
  98.2847188  56.3831020   6.4138693  97.8452178  55.8907399   7.1071549
  99.0355305  55.8403988   6.1730768  90.7639527  52.5742561   6.4163321
  91.5897547  52.2746333   6.0361964  90.4133579  51.8050183   6.8653109
  95.7321060  51.9269029   8.4860994  95.1101070  51.2639734   8.1863222
  96.4025927  51.9530161   7.8034642  88.9648132  50.4928887   7.3752254
  88.1280041  50.0651062   7.1936255  88.9371778  50.6861331   8.3123045
  95.8045588  40.4050817  18.0793500  95.8533743  41.2812940  17.6971270
  96.3468102  39.8628210  17.5065143 106.2900434  50.9491940  17.3594637
 105.4995977  50.9316079  16.8199137 106.0533788  51.4880234  18.1143674
 106.4098309  47.7984407  14.6727366 106.4596313  47.6334414  15.6142889
 106.3012232  46.9311666  14.2825247  95.2934567  50.4772952   1.9619455
  95.4422688  51.1608417   1.3086127  96.1001011  50.4578042   2.4768910
 103.7002071  43.7815335  15.9886673 104.6011934  43.6421799  15.6970670
 103.7750045  43.9469789  16.9284850  98.0344876  41.1582189  14.8339859
  97.1648186  41.4515755  14.5622447  98.2704357  41.7422634  15.5547122
 107.9116505  50.2181348  14.9169387 107.6201314  50.5811329  15.7532848
 107.2988637  49.5048356  14.7382719 106.1603694  45.3413963  13.3849445
 106.6357815  45.5341609  12.5768297 105.2369259  45.3973149  13.1392829
  93.0487200  46.5038130   2.9680524  92.8033242  45.6000460   3.1660734
  93.2183115  46.5055280   2.0260002 100.7383910  37.3761806  12.3505279
 101.2565854  38.1122833  12.0251768 100.3839043  37.6825800  13.1852038
  92.3182848  42.2366488   0.4666685  91.6252093  42.3110843  -0.1893279
  92.0734600  41.4726831   0.9888202  98.7929973  52.9721083  -0.5668798
  98.2203940  53.5911270  -1.0198326  99.3662766  53.5220444  -0.0328876
 104.8605363  42.2179723  11.6177751 105.8122786  42.3177821  11.6389975
 104.6908813  41.4257991  12.1275835 102.8819742  39.3035306  11.8037152
 102.2869674  39.5840319  11.1083640 102.5969439  39.7929207  12.5753893
 107.3393440  45.4385843  10.7320051 107.3069761  44.5001843  10.9179734
 107.9494064  45.5169879   9.9985875  99.0615464  48.3599642  18.2347912
  99.9818473  48.5378241  18.4287958  99.0265047  47.4155687  18.0827611
  88.2797629  43.5538235   7.1601186  87.9600413  42.7003543   6.8675560
  87.7331057  43.7686813   7.9159154  92.0577536  46.2700676  10.8770693
  92.2763546  47.2017784  10.8958727  92.4703310  45.9108651  11.6625497
  96.9305402  41.8433882  20.2673442  96.8302129  42.7928239  20.1985533
  96.7126944  41.5152121  19.3949512  88.1485889  47.1741147   9.1294308
  87.4549360  46.7595100   8.6164262  88.8958880  47.2161683   8.5327727
  96.7936672  45.2731021  19.0838503  96.3103753  46.0731381  19.2902392
  96.8797611  45.2838966  18.1305947  90.0622631  47.1059401   7.0060323
  90.0393319  47.2047088   6.0542206  90.3723268  47.9524551   7.3277489
  92.7210009  49.1635556  11.1206937  93.6753263  49.1319498  11.0536869
  92.5222533  48.7026179  11.9357163  93.3109391  47.7336672  13.6877735
  94.1302280  48.2280750  13.7112572  93.5846199  46.8168640  13.6595302
  91.0760238  54.7055175   8.1377135  90.9414706  53.9455576   7.5715133
  90.6592300  55.4296075   7.6705924  94.2329364  55.6024492   8.3495578
  94.1161748  56.5469925   8.2474268  93.4121810  55.2998054   8.7381377
  88.5644306  42.0674806  14.3869932  89.2103169  41.5573759  14.8757157
  88.3561457  42.8043487  14.9613357 101.0897698  49.1355653  19.8862072
 101.9588857  49.3096305  19.5248707 100.6104449  49.9550070  19.7637802
  95.2583878  56.2552754  11.5651506  96.1611125  56.2876364  11.8818001
  95.0321248  55.3253205  11.5797842  97.0137480  55.0083741   8.2261585
  96.0633111  55.0085602   8.1125957  97.3169966  54.2616475   7.7097619
  92.9041797  39.2142423  18.4844946  93.7673258  38.8579227  18.6948271
  92.3307207  38.8756317  19.1720350 112.7490174  60.8444279   9.2907347
 113.3868583  60.7251026   8.5870687 112.6311016  61.7925123   9.3495299
 109.5579880  60.7971707   9.2268872 109.2198391  60.6812772   8.3389407
 110.4269648  60.3962872   9.2069878 110.0399663  61.9506559  15.1855077
 110.0288304  61.5559357  14.3135581 110.2020302  61.2172631  15.7788849
 102.9631127  64.1458375   8.0549983 103.7552419  63.8049200   7.6396283
 103.2027778  64.2553350   8.9752137 106.7606924  64.7343671  14.1334261
 106.4696790  65.6389301  14.0180928 107.3963908  64.7760198  14.8478331
 107.6863131  62.1120519  10.7235621 108.2826703  61.8876541  10.0092584
 107.7438102  61.3705265  11.3261069 115.2265289  52.2192540  11.7288142
 114.8948614  53.0887951  11.5049357 114.6310903  51.9028824  12.4082173
 111.7196809  64.4205086  11.1284055 111.4197532  65.3230125  11.0199862
 111.3747869  64.1537269  11.9805208 105.1709290  60.8718883   7.1620759
 104.2459787  60.7395097   7.3698451 105.4193704  61.6513102   7.6590702
 115.1193953  56.9387626   8.8081492 114.2110830  56.8703035   8.5140253
 115.0681549  57.4159571   9.6363318 102.5318102  60.5152156   7.9964549
 102.6610483  60.7686635   8.9103960 101.8515553  61.1079864   7.6769204
 109.1934819  58.3577272  16.7516390 108.4168153  58.9171192  16.7419254
 109.8325382  58.8434055  17.2731260 107.4481191  61.1662725  16.3134357
 108.1895875  61.7047769  16.0369180 106.7418176  61.7929014  16.4705908
 112.9236531  63.3091866  14.9106518 113.3319887  62.8674276  14.1661150
 112.2013792  62.7344493  15.1640711 109.2767601  58.2464472  12.2840075
 110.1228796  58.6703886  12.4274724 109.2166238  57.5898097  12.9778638
 112.4267046  55.9068841  13.9421249 112.1827978  56.6610901  13.4055524
 112.7026976  56.2854188  14.7768496 114.3805509  62.4507453  12.6198514
 114.5922404  63.0939213  11.9432895 114.3335257  61.6169770  12.1520444
 111.9831738  55.0625274   9.5235086 111.1216217  55.3606527   9.8151824
 112.0094172  55.2795673   8.5916119 105.6917388  63.1538946   8.8688655
 106.2618745  63.5826214   8.2306140 106.2825500  62.8721531   9.5672841
 106.1842555  58.3202373  17.1149667 105.5541215  59.0018654  17.3485063
 106.0778643  58.2085455  16.1702805 101.4787527  57.9874169   8.0415591
 100.6886581  58.2431698   7.5655701 101.9698774  58.8022507   8.1467631
 103.4302272  58.3518749   4.9999067 102.6333436  58.4637443   5.5182563
 103.2027865  58.6905401   4.1339958 109.2607940  64.8763452  12.9481582
 109.3252373  65.3383859  13.7839754 108.5518864  64.2460817  13.0763892
  99.7625230  58.2404660  10.4730582 100.0133268  59.1251670  10.7388158
 100.2984778  58.0609261   9.7005673 105.4623297  52.6223139  19.4774918
 105.0690243  52.0689338  20.1522562 106.2789438  52.9333718  19.8681435
 108.3791258  54.0381018  17.0695174 109.1200972  54.6388171  16.9899637
 108.6109181  53.2958656  16.5113217 103.5232596  59.2237386  15.3473404
 103.4086112  58.3222643  15.6480503 102.6677114  59.4701082  14.9958220
 110.6024434  67.1655126  16.9460905 110.1588288  66.3791504  16.6281809
 111.2641648  67.3534276  16.2804795 105.3611555  68.6950927  11.4721583
 105.9118980  68.5667991  10.6998577 104.5223031  68.9945817  11.1216476
 112.7005672  67.4457926  14.9742306 112.6824148  68.2666807  14.4822575
 113.6225592  67.3212001  15.1992447 109.1578726  64.9602055  15.8165814
 109.6907063  64.1990343  15.5865122 108.6292807  64.6675707  16.5589969
 111.4044962  52.4366776   9.3108689 110.9009757  52.3996912   8.4976494
 111.6975569  53.3459519   9.3705346 107.6487848  52.5205506   8.3174871
 108.5140844  52.3248315   7.9580760 107.7165356  52.2915858   9.2444228
 105.2550167  54.7507714   5.6891238 105.8293919  54.5282896   4.9564431
 105.8421149  54.8196409   6.4419839 110.7910575  58.1130897   8.7413955
 109.8733136  58.3345844   8.5835643 111.2070718  58.1877207   7.8825662
 100.4160443  59.7286367   4.8358791 100.2184843  59.1355728   4.1109858
  99.8607107  59.4238577   5.5534730 108.3957167  59.6209474   6.9553385
 108.4505776  58.6683310   6.8795861 107.5848369  59.7768913   7.4394683
 106.3349527  58.2386533   4.7143764 105.5217392  58.5380704   5.1208956
 106.8308521  57.8442222   5.4318246 111.9323738  58.7028358  13.5458657
 112.2873126  58.9299831  14.4053123 112.5795870  59.0346735  12.9235913
 105.8263601  55.8104889  10.3304998 106.4662981  55.6693648   9.6327962
 104.9941132  55.5239402   9.9543600 102.8292218  55.7805214   5.1077985
 103.0899035  56.6950547   4.9987146 103.6509390  55.3129656   5.2574598
 104.3017143  57.1942971  12.2776810 104.9740197  56.9860333  11.6289459
 103.4746930  56.9965057  11.8382042 110.2042715  53.8204912  14.2942471
 109.5570630  54.5194862  14.2006947 110.9743731  54.2541056  14.6618719
 113.6121513  64.0853764  17.3693024 113.4607019  63.8564316  16.4523108
 113.6026193  65.0424365  17.3824369 110.3806849  61.6585677  12.3539290
 111.3098909  61.8096836  12.1808258 109.9597880  61.7469698  11.4987937
 109.1795181  65.6836341  10.1237828 109.0406267  65.3155126  10.9963766
 108.3909778  66.1983981   9.9521786 104.7044640  60.4685574  13.0379247
 104.5664438  59.7365813  13.6390786 105.6149564  60.3794474  12.7563435
 107.3326941  60.1805533  12.5262927 108.0426560  59.5398725  12.4849545
 107.2896249  60.4318428  13.4489107 115.3213720  67.1172887  15.4469506
 115.2626266  66.4332107  14.7800089 115.7233238  67.8591877  14.9950132
 106.0455875  57.1670751  14.3458566 105.5093232  56.7161490  14.9980162
 105.4572583  57.3016660  13.6029030 115.3231127  65.0812471  13.6783485
 114.4357906  64.7438392  13.8009884 115.8929678  64.3495502  13.9152251
  96.9760274  61.4136562   7.0026537  97.6631314  61.0998292   6.4147552
  96.8208403  62.3177927   6.7293788 101.7794996  56.3026759  11.4311561
 101.6953185  55.6952428  10.6961971 100.9577703  56.7935777  11.4321057
 108.5353679  56.9297705   6.5253440 108.1651466  56.3768746   7.2134346
 109.0312771  56.3255839   5.9728440 106.3642877  67.3895200  13.6208458
 107.0652337  68.0231683  13.7737852 105.8937992  67.7309932  12.8604097
 114.1644163  59.9439808  11.4461009 113.5115614  60.1915715  10.7913461
 114.5424543  59.1303946  11.1123486 110.2131736  60.6859619  17.9327046
 109.5372373  60.5853748  18.6029421 111.0359370  60.5298833  18.3963043
 101.9610596  66.9231555  10.5539561 102.5464032  66.1775243  10.6867465
 101.7635434  67.2335512  11.4376225  96.5528250  59.4937156   9.2744004
  96.5912350  58.9600746  10.0681122  96.0468543  58.9672361   8.6554981
 103.9319013  54.3401696  12.7706546 103.9960339  55.2016527  12.3583944
 103.8686133  53.7275698  12.0378905 103.4071285  56.4124829  16.4179581
 104.0343324  56.0301906  17.0317105 102.5499204  56.1939031  16.7835273
 113.8065394  66.8187804  18.0233316 114.3505298  67.4317762  17.5288271
 113.2252238  67.3767382  18.5400329 100.1836828  58.2201258   2.3497935
 100.4790269  57.3111936   2.2964989  99.2824864  58.1988997   2.0278938
 103.7131075  56.2957254   8.3325484 102.9917661  56.9093222   8.1932957
 104.5024331  56.8315019   8.2542130 106.5157388  53.6311681  14.6066136
 107.0391790  53.8773977  15.3692445 106.2969722  54.4631716  14.1869273
 101.9124669  55.9015355   2.4737261 101.5837376  55.0212734   2.2912366
 102.2664040  55.8463024   3.3613650 107.7209933  54.5725376  12.2915806
 107.3806754  53.7733189  12.6936486 107.0148940  54.8727087  11.7192639
 108.3726405  51.6574688  10.7443129 109.1952475  51.1835167  10.6222020
 108.6164469  52.4365172  11.2441816 105.8964984  58.3493809   8.5535108
 105.7509565  58.6634112   9.4459389 105.4190188  58.9678709   8.0006007
 107.7561367  55.3396357   8.6015997 107.7422936  54.4437450   8.2648295
 108.4733795  55.3467021   9.2354284 109.6087498  55.7733697  10.6469125
 109.3505275  56.6950768  10.6453455 109.0772538  55.3764132  11.3369589
 100.3710646  60.8899153  11.4922769  99.8264114  61.6658961  11.6243043
 101.2489996  61.2369958  11.3341891 101.1576668  60.0169050  14.3852926
 100.4158404  60.1651685  14.9717556 100.8369412  60.2777315  13.5219675
 109.1020331  69.5585028  14.1833316 109.4107457  69.3134175  15.0556016
 109.8995813  69.7631666  13.6952186  99.8041887  65.8220805   7.3752254
  98.9673795  65.3942979   7.1936255  99.7765532  66.0153248   8.3123045
 106.6439342  55.7342735  18.0793500 106.6927498  56.6104857  17.6971270
 107.1861857  55.1920128  17.5065143 117.1294188  66.2783858  17.3594637
 116.3389732  66.2607997  16.8199137 116.8927543  66.8172152  18.1143674
 117.2492063  63.1276324  14.6727366 117.2990068  62.9626332  15.6142889
 117.1405986  62.2603583  14.2825247 114.5395825  59.1107252  15.9886673
 115.4405688  58.9713717  15.6970670 114.6143800  59.2761707  16.9284850
 108.8738631  56.4874107  14.8339859 108.0041940  56.7807673  14.5622447
 109.1098111  57.0714552  15.5547122 118.7510260  65.5473266  14.9169387
 118.4595068  65.9103246  15.7532848 118.1382391  64.8340274  14.7382719
 116.9997448  60.6705880  13.3849445 117.4751570  60.8633527  12.5768297
 116.0763014  60.7265066  13.1392829 111.5777665  52.7053724  12.3505279
 112.0959608  53.4414751  12.0251768 111.2232797  53.0117717  13.1852038
 115.6999117  57.5471641  11.6177751 116.6516540  57.6469738  11.6389975
 115.5302568  56.7549909  12.1275835 113.7213497  54.6327224  11.8037152
 113.1263429  54.9132236  11.1083640 113.4363193  55.1221125  12.5753893
 109.9009218  63.6891559  18.2347912 110.8212228  63.8670158  18.4287958
 109.8658801  62.7447605  18.0827611  99.1191383  58.8830153   7.1601186
  98.7994168  58.0295461   6.8675560  98.5724811  59.0978731   7.9159154
 102.8971291  61.5992594  10.8770693 103.1157301  62.5309702  10.8958727
 103.3097065  61.2400568  11.6625497 107.7699156  57.1725800  20.2673442
 107.6695883  58.1220157  20.1985533 107.5520698  56.8444039  19.3949512
  98.9879643  62.5033064   9.1294308  98.2943115  62.0887017   8.6164262
  99.7352634  62.5453601   8.5327727 107.6330426  60.6022939  19.0838503
 107.1497508  61.4023299  19.2902392 107.7191365  60.6130883  18.1305947
 100.9016386  62.4351318   7.0060323 100.8787074  62.5339006   6.0542206
 101.2117022  63.2816469   7.3277489 103.5603764  64.4927473  11.1206937
 104.5147017  64.4611416  11.0536869 103.3616287  64.0318097  11.9357163
 104.1503146  63.0628589  13.6877735 104.9696035  63.5572668  13.7112572
 104.4239954  62.1460557  13.6595302  99.4038060  57.3966723  14.3869932
 100.0496924  56.8865677  14.8757157  99.1955211  58.1335405  14.9613357
 111.9291452  64.4647571  19.8862072 112.7982612  64.6388223  19.5248707
 111.4498204  65.2841988  19.7637802 106.0977633  71.5844672  11.5651506
 107.0004879  71.6168282  11.8818001 105.8715003  70.6545123  11.5797842
 103.7435551  54.5434340  18.4844946 104.6067013  54.1871145  18.6948271
 103.1700962  54.2048235  19.1720350 116.3017052  67.9515057  19.4774918
 115.9083997  67.3981255  20.1522562 117.1183192  68.2625635  19.8681435
 119.2185013  69.3672936  17.0695174 119.9594726  69.9680089  16.9899637
 119.4502936  68.6250574  16.5113217 114.2465040  71.7416746  16.4179581
 114.8737078  71.3593824  17.0317105 113.3892958  71.5230948  16.7835273
 117.4833097  71.0634652  18.0793500 117.5321252  71.9396775  17.6971270
 118.0255611  70.5212045  17.5065143 118.6092911  72.5017717  20.2673442
 118.5089638  73.4512074  20.1985533 118.3914453  72.1735956  19.3949512
 110.2431815  72.7258641  14.3869932 110.8890678  72.2157595  14.8757157
 110.0348966  73.4627323  14.9613357 114.5829306  69.8726258  18.4844946
 115.4460767  69.5163063  18.6948271 114.0094716  69.5340153  19.1720350
   4.3526023  77.0010080  86.7934000   3.5989731  76.4317478  86.6378005
   4.4873564  76.9672745  87.7404635   0.7174635  78.4418069  87.0900115
   1.5521527  78.8807873  87.2537675   0.8533764  77.9656722  86.2708360
   4.7632438  77.1585690  89.5254244   5.4935826  76.8970978  90.0861948
   4.1539383  76.4214412  89.5656312   2.8447735  75.2993553  90.1228696
   2.1180899  75.1649518  89.5145187   2.4295022  75.6070381  90.9285414
   0.4625530  71.5205405  87.4762127   1.0570021  71.2801141  86.7655436
   0.5352114  70.8012535  88.1035664   2.7696603  74.8271606  86.2505548
   2.2096161  74.8964795  87.0237111   2.1640106  74.6512590  85.5305045
   4.3552621  91.5028120  88.9435504   4.9931031  91.3834867  88.2398844
   4.2373464  92.4508964  89.0023456   1.1642327  91.4555548  88.8797029
   0.8260839  91.3396612  87.9917564   2.0332096  91.0546713  88.8598035
   2.6028702  96.9761992  80.1808385   1.9516682  97.5616072  79.7942399
   3.3973065  97.5068187  80.2403422   3.9093890  89.2279573  86.0188712
   4.6956979  88.8098997  85.6679129   4.1732594  90.1325666  86.1870361
   4.0803967  94.6652424  80.7177369   3.4449800  94.7387050  81.4298274
   3.7501373  95.2546023  80.0396448   9.3102317  89.1654807  86.9221691
  10.0427489  88.5954023  87.1559520   8.5541672  88.7776407  87.3628196
   0.9278436  91.5882048  84.1185033   0.5636644  91.0612669  84.8297955
   1.7845552  91.1980517  83.9451519   6.8327737  82.8776381  91.3816299
   6.5011062  83.7471792  91.1577514   6.2373350  82.5612665  92.0610330
   3.3259257  95.0788927  90.7812212   3.0259980  95.9813966  90.6728019
   2.9810316  94.8121110  91.6333365   6.7256400  87.5971467  88.4609649
   5.8173278  87.5286875  88.1668410   6.6743996  88.0743412  89.2891475
   8.5918047  85.7987905  90.2387523   7.9492427  86.0920439  89.5927318
   8.0872975  85.6840826  91.0440720   6.2458210  89.5451079  80.9273383
   7.1576067  89.7778465  80.7521080   5.7367857  90.1288123  80.3648461
   0.8830048  88.9048313  91.9368232   1.7291243  89.3287727  92.0802881
   0.8228686  88.2481937  92.6306795   4.8527793  94.5276897  88.3186964
   4.2236655  94.6922611  87.6163032   4.4653455  94.9418507  89.0897928
   8.7317025  95.4631335  85.6731328   8.0468063  95.8430236  85.1228361
   8.8160874  96.0726662  86.4063276   4.0329493  86.5652682  93.5949406
   3.7890425  87.3194742  93.0583681   4.3089424  86.9438029  94.4296653
   5.9867956  93.1091294  92.2726671   6.1984851  93.7523054  91.5961052
   5.9397704  92.2753610  91.8048601   3.5894185  85.7209115  89.1763243
   2.7278664  86.0190368  89.4679981   3.6156620  85.9379513  88.2444276
   7.1013784  95.9863249  90.4449029   7.9231228  95.5843437  90.1631710
   7.0976187  95.8831483  91.3965144  15.1919777  92.3301998  86.7934000
  14.4383486  91.7609396  86.6378005  15.3267318  92.2964662  87.7404635
   0.5818405  97.2015400  82.4688720   0.4464080  98.0466936  82.8973567
   1.1228218  97.4034678  81.7054653   3.9310869  80.7245962  90.9987613
   3.5875138  81.6147604  90.9226724   4.2989831  80.5347620  90.1357198
   3.8961152  90.7154573  79.5060048   3.3807775  91.4859178  79.7448436
   3.6238460  90.0419709  80.1293110   1.4808263  85.5604274  84.5645286
   0.6249859  85.1711124  84.3850925   1.8935214  85.6396235  83.7045072
   3.0107409  83.0950617  88.9636846   2.5072205  83.0580752  88.1504652
   3.3038016  84.0043360  89.0233503   8.8695426  93.4686928  81.4413222
   8.0924868  93.1298087  80.9968384   9.5486907  93.4739551  80.7668187
   3.6847455  88.5881665  81.3319829   3.3797590  88.9027814  82.1829972
   4.6377897  88.6663085  81.3747162   2.1293887  94.7471888  82.9812783
   1.6015248  94.0124648  82.6686021   1.6281389  95.5246565  82.7352752
   7.1086733  92.9420909  88.0979830   6.4510407  93.6320170  88.1859958
   7.9127132  93.3317341  88.4413816   5.9192191  91.2965282  86.1483771
   6.4324073  91.9295273  86.6505481   6.5693415  90.6966477  85.7827131
   3.1814566 101.2749606  78.9044442   2.5076264 101.5781303  79.5129400
   3.5680388 102.0778686  78.5549900   2.3973022  88.7714737  88.3942112
   1.4795584  88.9929684  88.2363800   2.8133166  88.8461048  87.5353819
   3.1808070  90.1706153  83.5244792   3.9279889  90.6827550  83.2151914
   3.4499660  89.8490206  84.3849186   1.4534720  92.6664694  80.5071746
   0.5445939  92.3823726  80.6044216   1.4829804  93.0863772  79.6475053
   6.6853988  96.2771283  84.2762914   6.2316315  95.4362193  84.3328104
   6.0547954  96.9132681  84.6137694   5.6286907  87.2063269  85.5063581
   4.8909664  86.6940655  85.8373824   5.8813681  86.7663651  84.6946858
   5.1286927  98.1147780  85.2112732   5.4209901  98.6752837  84.4925098
   5.6385547  98.4076341  85.9665891   5.7298535  79.9839521  86.1005351
   6.0357411  79.1236885  85.8131266   6.4551139  80.5757141  85.9004345
   1.1510808  94.2073437  77.8459825   0.7130238  93.4909296  77.3865462
   1.8921249  94.4349552  77.2844916   3.5386186  89.3612198  93.1986814
   3.8935574  89.5883672  94.0581280   4.1858317  89.6930575  92.5764070
   9.2683923  92.4830634  83.9036144   9.1301821  92.6732230  82.9757333
   8.9120142  93.2450017  84.3604195   9.2953302  94.5507161  88.9147415
   9.7289809  94.4582450  89.7630469  10.0084883  94.5264662  88.2767431
  10.1568852  94.5930862  91.4480300  10.3504742  95.4976672  91.6939575
  10.0569470  94.1338281  92.2818885   1.8105163  84.4788753  93.9470628
   1.1633078  85.1778702  93.8535104   2.5806178  84.9124896  94.3146876
   1.9869297  92.3169517  92.0067447   2.9161357  92.4680677  91.8336415
   1.5660327  92.4053538  91.1516094   1.3805781 101.4429278  81.1191522
   1.5557536 100.9717322  81.9337144   0.6938569 102.0695045  81.3472782
   2.3362844  95.7201785  87.1654823   2.0012677  95.6802555  88.0612473
   1.8366790  95.0546501  86.6925233   5.2722036  93.0657819  77.4391883
   4.6551206  92.3404647  77.3424935   4.8038524  93.8267179  77.0958957
   6.9293575  95.7396311  93.3311643   6.0420353  95.4022233  93.4538041
   7.4992126  95.0079342  93.5680408   3.5581158  85.4464163  86.4509913
   4.0549857  84.6934125  86.1310983   2.7868139  85.4828480  85.8853122
  11.4110915  91.1504529  88.0928204  11.4000791  92.0329244  87.7222137
  10.5428295  90.7976079  87.8982741   4.6410938  94.2035850  84.0248336
   3.7067217  94.3237313  83.8553040   4.8187607  93.3008317  83.7608346
   8.0283490  90.0453170  84.5598370   8.4943942  90.8781161  84.4858673
   8.4790990  89.5798151  85.2643629   6.0959721  96.3896991  81.5584522
   6.3719565  96.2753585  82.4678396   5.2264220  95.9914476  81.5196695
   6.0000152  82.4133757  88.5989272   5.0863232  82.6437983  88.7671479
   6.4293254  82.4972201  89.4503304   5.7706611  90.6023649  91.0989166
   5.1178061  90.8499556  90.4441618   6.1486991  89.7887787  90.7651643
   2.7313785 100.6383342  85.2017336   2.9136179  99.8204998  85.6645088
   3.5546771 100.8551034  84.7642226   3.0655950  99.5651527  82.4632384
   3.5943717  99.0543981  81.8502546   3.3284170  99.2494057  83.3277917
   3.6985354 100.5992363  88.8076501   3.5736494  99.7982102  88.2987446
   4.3564445 101.0938556  88.3190471   5.7620263  98.4001383  90.4356051
   4.8150598  98.2806734  90.3634378   6.1103036  97.5123881  90.5182312
   2.7666696  98.1954099  86.6360403   2.6191658  97.2670806  86.8167973
   3.5920189  98.2174190  86.1517478   6.3700818  99.0182658  87.7225276
   7.2947365  98.8125519  87.5849727   6.2016121  98.7699059  88.6314617
   2.7628210  86.0491936  81.6292520   2.9791825  86.9316574  81.3281349
   2.2822277  85.6578150  80.8998162   1.2149945  86.4317538  90.2997282
   0.9567723  87.3534609  90.2981612   0.6834986  86.0347972  90.9897746
   6.1596134  99.5368325  83.0787367   6.3333011  98.9714748  82.3261220
   6.6525025 100.3369220  82.8966857   1.6351901  82.5649488  86.6598445
   1.6573598  82.6288822  85.7050424   2.0519960  81.7253997  86.8538951
  12.0135525  92.3004748  84.6977667  12.4566671  91.5512073  84.2996790
  11.1362035  92.2914884  84.3151399   7.1471306  98.8535089  80.1784266
   7.8422211  99.4741782  80.3971580   7.4894457  98.0030441  80.4536644
   9.0462729  96.3034795  81.7071596   9.5714054  96.6422068  80.9820916
   8.9585082  95.3681810  81.5234731   8.8554511  93.7860165  94.3255523
   8.9052516  93.6210172  95.2671046   8.7468434  92.9187424  93.9353404
   6.1458273  89.7691093  95.6414830   7.0468136  89.6297558  95.3498827
   6.2206248  89.9345548  96.5813007  10.3572707  96.2057106  94.5697544
  10.0657516  96.5687087  95.4061005   9.7444839  95.4924115  94.3910877
  11.5568390  93.7709986  87.0900115  12.3915281  94.2099790  87.2537675
  11.6927519  93.2948639  86.2708360   8.6059896  91.3289721  93.0377602
   9.0814017  91.5217367  92.2296454   7.6825461  91.3848907  92.7920986
   3.1840112  83.3637565  92.0033436   3.7022056  84.0998592  91.6779925
   2.8295245  83.6701558  92.8380195   3.4352706  79.7837847  87.5234333
   3.7154460  79.1161036  88.1494759   4.2203313  79.9766943  87.0108997
   1.2386175  98.9596841  79.0859359   0.6660142  99.5787028  78.6329831
   1.8118969  99.5096203  79.6199281   7.3061565  88.2055481  91.2705908
   8.2578988  88.3053579  91.2918132   7.1365015  87.4133750  91.7803992
   5.3275944  85.2911064  91.4565309   4.7325876  85.5716077  90.7611798
   5.0425641  85.7804965  92.2282050   4.4583435  99.2433991  80.2167942
   5.3914108  99.1779553  80.4200817   4.3706647 100.0790258  79.7582474
   7.0871451  98.5599862  77.1771889   7.0085083  98.2259725  78.0707647
   7.9081118  99.0521629  77.1763361   9.7849642  91.4261601  90.3848208
   9.7525963  90.4877602  90.5707892  10.3950266  91.5045638  89.6514033
   1.6232973  90.2957654  76.4275412   2.5692078  90.1663862  76.4963830
   1.2447218  89.5572316  76.9044840   9.9344131  88.2172644  90.4306491
   9.4183180  87.4331101  90.2436420  10.8184079  87.8891361  90.5953010
   7.5954858  81.9613660  86.3902304   7.3979679  81.6528748  87.2745636
   8.2054563  82.6875299  86.5200233  15.6026192  92.4877608  89.5254244
  16.3329581  92.2262896  90.0861948  14.9933138  91.7506330  89.5656312
  13.6841489  90.6285470  90.1228696  12.9574653  90.4941435  89.5145187
  13.2688776  90.9362299  90.9285414   1.4237956  82.7644520  82.5174538
   0.6138685  82.4191605  82.8929784   2.1122373  82.4552064  83.1062150
   3.3528504  81.8422567  84.1398835   3.9059543  82.2618020  84.7988858
   3.5898591  80.9158315  84.1821791   6.7307312  83.9523092  83.6477499
   6.1505981  84.6107896  83.2655552   6.4643244  83.1300437  83.2364917
   5.1810878  83.3528150  85.8498819   5.6810656  83.4644684  85.0413138
   5.8246486  83.0489202  86.4899628   5.5132190  86.1123182  82.7033847
   4.6258045  86.3972833  82.4854042   5.9286179  85.9516946  81.8561124
   8.8646726  86.1369703  86.4188187   9.6407116  86.6266156  86.6912803
   8.1394860  86.5627757  86.8760056  11.3019284  86.8497323  87.4762127
  11.8963775  86.6093058  86.7655436  11.3745868  86.1304453  88.1035664
   4.6575403  95.8767857  76.7981867   5.3611253  96.0817859  77.4139523
   3.9338052  96.4444619  77.0630951   5.4873213  91.6277718  82.9184138
   5.4308415  92.0846270  82.0791770   6.0401556  90.8668403  82.7406980
   9.2978019  87.4167450  83.7434257   9.0414953  87.0164086  84.5742465
   8.6730887  88.1311244  83.6184396  13.6090357  90.1563523  86.2505548
  13.0489915  90.2256713  87.0237111  13.0033860  89.9804508  85.5305045
   6.5662100  96.3150386  78.8480327   7.4007704  95.8831585  78.6657802
   6.4046443  96.1432400  79.7757222   6.2207993  92.8182500  80.2136667
   6.1656796  92.6526771  79.2725111   5.5954048  93.5258532  80.3698856
   3.3456238  78.9133385  84.0467922   2.5788633  78.3591872  84.1924604
   3.7566943  78.9855254  84.9082074  15.1946376 106.8320037  88.9435504
  15.8324786 106.7126785  88.2398844  15.0767218 107.7800881  89.0023456
  12.0036082 106.7847465  88.8797029  11.6654593 106.6688530  87.9917564
  12.8725850 106.3838630  88.8598035   9.7044361 105.5535713  78.2113969
   9.9569882 105.0317234  77.4497432   8.7668920 105.3901858  78.3140653
  14.7487644 104.5571491  86.0188712  15.5350733 104.1390914  85.6679129
  15.0126348 105.4617583  86.1870361  20.1496071 104.4946724  86.9221691
  20.8821243 103.9245941  87.1559520  19.3935427 104.1068325  87.3628196
  11.7672191 106.9173966  84.1185033  11.4030398 106.3904587  84.8297955
  12.6239307 106.5272435  83.9451519  17.6721492  98.2068298  91.3816299
  17.3404816  99.0763709  91.1577514  17.0767105  97.8904582  92.0610330
  11.4077678 101.9463866  79.1146382  11.5752080 102.8144102  79.4816853
  11.2174847 102.1091147  78.1907671  17.5650155 102.9263385  88.4609649
  16.6567032 102.8578793  88.1668410  17.5137751 103.4035330  89.2891475
  11.3866899 104.4021523  80.0993049  11.2666524 104.8478574  80.9378529
  10.6919487 104.7506841  79.5406587  19.4311801 101.1279823  90.2387523
  18.7886181 101.4212356  89.5927318  18.9266730 101.0132743  91.0440720
  17.0851965 104.8742996  80.9273383  17.9969821 105.1070383  80.7521080
  16.5761612 105.4580040  80.3648461  11.7223803 104.2340231  91.9368232
  12.5684998 104.6579644  92.0802881  11.6622440 103.5773855  92.6306795
  14.8723248 101.8944599  93.5949406  14.6284180 102.6486660  93.0583681
  15.1483178 102.2729947  94.4296653  16.8261711 108.4383212  92.2726671
  17.0378606 109.0814971  91.5961052  16.7791459 107.6045528  91.8048601
  14.4287940 101.0501032  89.1763243  13.5672419 101.3482286  89.4679981
  14.4550374 101.2671431  88.2444276  10.1818395 105.7166375  82.3926614
  10.8842438 106.1687419  82.8600541   9.8499024 105.0750194  83.0206507
   3.9243729 103.9749928  87.6943748   3.1342783 104.2307456  87.2183858
   4.4154976 104.7898266  87.7995788   5.8758474 104.3394507  84.6527225
   5.0789638 104.4513201  85.1710720   5.6484067 104.6781159  83.7868115
  26.0313532 107.6593915  86.7934000  25.2777240 107.0901314  86.6378005
  26.1661073 107.6256580  87.7404635  14.7704623  96.0537880  90.9987613
  14.4268893  96.9439521  90.9226724  15.1383586  95.8639537  90.1357198
  14.7354906 106.0446491  79.5060048  14.2201529 106.8151095  79.7448436
  14.4632215 105.3711627  80.1293110  12.3202017 100.8896192  84.5645286
  11.4643613 100.5003042  84.3850925  12.7328969 100.9688152  83.7045072
  13.8501164  98.4242535  88.9636846  13.3465959  98.3872670  88.1504652
  14.1431771  99.3335278  89.0233503  10.0944050  98.5081265  87.9703028
  10.9597046  98.3124073  87.6108917  10.1621559  98.2791616  88.8972385
  19.7089180 108.7978845  81.4413222  18.9318623 108.4590005  80.9968384
  20.3880661 108.8031469  80.7668187  14.5241209 103.9173583  81.3319829
  14.2191345 104.2319732  82.1829972  15.4771651 103.9955003  81.3747162
  17.9480487 108.2712827  88.0979830  17.2904162 108.9612088  88.1859958
  18.7520886 108.6609259  88.4413816   7.7006369 100.7383472  85.3419395
   8.2750121 100.5158654  84.6092588   8.2877351 100.8072167  86.0947996
  16.7585946 106.6257199  86.1483771  17.2717828 107.2587191  86.6505481
  17.4087170 106.0258395  85.7827131   8.0275956 102.7687933  79.3615280
   7.1913268 103.1062620  79.6824555   7.8880725 102.6336913  78.4242417
  10.0029036  97.6124721  84.0694464   9.3493449  97.2973739  83.4451079
   9.9609511  96.9900462  84.7954287  13.2366777 104.1006655  88.3942112
  12.3189338 104.3221602  88.2363800  13.6526920 104.1752965  87.5353819
  14.0201825 105.4998071  83.5244792  14.7673643 106.0119468  83.2151914
  14.2893414 105.1782123  84.3849186  16.4680662 102.5355187  85.5063581
  15.7303418 102.0232573  85.8373824  16.7207435 102.0955568  84.6946858
  16.5692289  95.3131439  86.1005351  16.8751166  94.4528802  85.8131266
  17.2944894  95.9049059  85.9004345  10.8413369 105.6085232  86.6081542
  10.8961979 104.6559068  86.5324018  10.0304571 105.7644671  87.0922840
   8.7805729 104.2262292  84.3671921   7.9673594 104.5256462  84.7737113
   9.2764723 103.8317980  85.0846403  14.3779940 104.6904116  93.1986814
  14.7329328 104.9175589  94.0581280  15.0252072 105.0222493  92.5764070
  20.1077677 107.8122552  83.9036144  19.9695576 108.0024148  82.9757333
  19.7513896 108.5741935  84.3604195   8.2719803 101.7980647  89.9833156
   8.9119183 101.6569406  89.2856119   7.4397334 101.5115161  89.6071758
  20.1347057 109.8799079  88.9147415  20.5683564 109.7874368  89.7630469
  20.8478638 109.8556579  88.2767431   5.3562871 105.2426159  82.1727901
   4.4260459 105.1810615  82.3897863   5.4520343 104.7202112  81.3764542
   5.2748420 101.7680972  84.7606142   5.5355237 102.6826305  84.6515303
   6.0965592 101.3005415  84.9102755  20.9962606 109.9222780  91.4480300
  21.1898497 110.8268590  91.6939575  20.8963225 109.4630199  92.2818885
  12.6498917  99.8080670  93.9470628  12.0026832 100.5070620  93.8535104
  13.4199933 100.2416814  94.3146876  12.8263052 107.6461435  92.0067447
  13.7555112 107.7972595  91.8336415  12.4054082 107.7345456  91.1516094
  16.1115790 108.3949737  77.4391883  15.4944961 107.6696565  77.3424935
  15.6432279 109.1559097  77.0958957   7.9014336 102.6135161  76.5613187
   7.0243802 102.4923962  76.1975433   8.3772089 101.8221239  76.3092075
  14.3974912 100.7756081  86.4509913  14.8943612 100.0226043  86.1310983
  13.6261894 100.8120397  85.8853122  22.2504670 106.4796446  88.0928204
  22.2394546 107.3621162  87.7222137  21.3822049 106.1267997  87.8982741
  10.9809881 102.9173464  86.1781597  10.6107668 102.3644504  86.8662503
  11.4768973 102.3131597  85.6256597  18.8677244 105.3745087  84.5598370
  19.3337696 106.2073079  84.4858673  19.3184745 104.9090069  85.2643629
  16.8393907  97.7425674  88.5989272  15.9256987  97.9729901  88.7671479
  17.2687008  97.8264118  89.4503304  16.6100365 105.9315566  91.0989166
  15.9571816 106.1791474  90.4441618  16.9880745 105.1179704  90.7651643
   6.3775215 100.3277455  92.4234703   6.4416541 101.1892285  92.0112101
   6.3142335  99.7151456  91.6907062   2.6293030 104.2077016  82.0026092
   2.9246471 103.2987695  81.9493146   1.7281066 104.1864756  81.6807095
   6.1587277 102.2833013  87.9853641   5.4373863 102.8968980  87.8461114
   6.9480533 102.8190778  87.9070287   8.9613590  99.6187439  94.2594293
   9.4847992  99.8649736  95.0220602   8.7425924 100.4507474  93.8397430
   4.3580871 101.8891114  82.1265418   4.0293578 101.0088493  81.9440524
   4.7120242 101.8338783  83.0141807   7.4722695 102.1764084  82.4940895
   7.8118767 102.7050005  81.7719504   7.9194815 102.5144490  83.2699462
  10.1666135 100.5601134  91.9443963   9.8262956  99.7608947  92.3464643
   9.4605142 100.8602845  91.3720797  10.8182607  97.6450447  90.3971286
  11.6408677  97.1710925  90.2750177  11.0620671  98.4240931  90.8969973
   9.4590842 100.6738705  80.6934188  10.1799204 101.0519958  80.1897905
   8.8356146 101.3927582  80.7969166  13.6021965 101.3783854  81.6292520
  13.8185579 102.2608492  81.3281349  13.1216032 100.9870068  80.8998162
   8.3421186 104.3369567  88.2063265   8.1965767 104.6509870  89.0987547
   7.8646390 104.9554468  87.6534164  10.2017569 101.3272115  88.2544155
  10.1879138 100.4313209  87.9176453  10.9189997 101.3342779  88.8882441
  12.0543700 101.7609456  90.2997282  11.7961477 102.6826526  90.2981612
  11.5228740 101.3639890  90.9897746   9.6054465 100.2086496  83.5231725
   9.7270376  99.2803142  83.7222612   9.3156507 100.2225182  82.6110040
  12.4745655  97.8941406  86.6598445  12.4967352  97.9580739  85.7050424
  12.8913714  97.0545915  86.8538951  22.8529280 107.6296666  84.6977667
  23.2960426 106.8803991  84.2996790  21.9755790 107.6206802  84.3151399
  19.6948265 109.1152083  94.3255523  19.7446270 108.9502090  95.2671046
  19.5862188 108.2479342  93.9353404  16.9852027 105.0983011  95.6414830
  17.8861890 104.9589476  95.3498827  17.0600002 105.2637466  96.5813007
  11.3194833 102.4749865  94.4868016  10.4498142 102.7683431  94.2150604
  11.5554313 103.0590310  95.2075280  22.3962144 109.1001904  87.0900115
  23.2309036 109.5391708  87.2537675  22.5321273 108.6240557  86.2708360
  19.4453650 106.6581639  93.0377602  19.9207772 106.8509285  92.2296454
  18.5219216 106.7140825  92.7920986  14.0233867  98.6929482  92.0033436
  14.5415811  99.4290509  91.6779925  13.6688999  98.9993476  92.8380195
   5.6032804 103.5534164  80.1194842   4.9102049 103.6278519  79.4634878
   5.3584556 102.7894507  80.6416359  14.2746461  95.1129765  87.5234333
  14.5548215  94.4452954  88.1494759  15.0597068  95.3058861  87.0108997
  18.1455319 103.5347399  91.2705908  19.0972742 103.6345497  91.2918132
  17.9758770 102.7425667  91.7803992  16.1669699 100.6202982  91.4565309
  15.5719631 100.9007995  90.7611798  15.8819395 101.1096883  92.2282050
  20.6243397 106.7553519  90.3848208  20.5919717 105.8169519  90.5707892
  21.2344021 106.8337555  89.6514033  12.4626728 105.6249572  76.4275412
  13.4085833 105.4955780  76.4963830  12.0840973 104.8864233  76.9044840
  20.7737885 103.5464562  90.4306491  20.2576934 102.7623019  90.2436420
  21.6577834 103.2183279  90.5953010  18.4348612  97.2905578  86.3902304
  18.2373433  96.9820666  87.2745636  19.0448318  98.0167216  86.5200233
  26.4419947 107.8169525  89.5254244  27.1723335 107.5554814  90.0861948
  25.8326892 107.0798247  89.5656312  24.5235244 105.9577388  90.1228696
  23.7968408 105.8233353  89.5145187  24.1082531 106.2654217  90.9285414
  10.6469645 103.5499548  76.3630297   9.7401100 103.2532661  76.4393011
  10.9245626 103.2529366  75.4964583  12.2631711  98.0936438  82.5174538
  11.4532439  97.7483523  82.8929784  12.9516128  97.7843981  83.1062150
  14.1922259  97.1714484  84.1398835  14.7453298  97.5909938  84.7988858
  14.4292345  96.2450233  84.1821791   9.4168430 100.4086483  76.5042276
  10.2787594 100.7341381  76.7638094   9.6018774  99.6217979  75.9915342
  17.5701066  99.2815010  83.6477499  16.9899735  99.9399814  83.2655552
  17.3036999  98.4592354  83.2364917  16.0204632  98.6820067  85.8498819
  16.5204411  98.7936602  85.0413138  16.6640240  98.3781120  86.4899628
  16.3525944 101.4415100  82.7033847  15.4651799 101.7264751  82.4854042
  16.7679933 101.2808863  81.8561124  19.7040480 101.4661621  86.4188187
  20.4800870 101.9558073  86.6912803  18.9788614 101.8919675  86.8760056
  22.1413039 102.1789240  87.4762127  22.7357530 101.9384976  86.7655436
  22.2139623 101.4596371  88.1035664  16.3266968 106.9569636  82.9184138
  16.2702169 107.4138187  82.0791770  16.8795310 106.1960321  82.7406980
  20.1371774 102.7459368  83.7434257  19.8808708 102.3456003  84.5742465
  19.5124642 103.4603162  83.6184396  24.4484112 105.4855441  86.2505548
  23.8883670 105.5548630  87.0237111  23.8427615 105.3096426  85.5305045
  17.0601747 108.1474417  80.2136667  17.0050551 107.9818689  79.2725111
  16.4347802 108.8550450  80.3698856  10.3697873  97.6482526  79.7921985
  10.3576542  98.5924366  79.9490256  11.2621294  97.4652672  79.4981446
  14.1849992  94.2425303  84.0467922  13.4182388  93.6883790  84.1924604
  14.5960697  94.3147172  84.9082074  25.6098378 111.3829797  90.9987613
  25.2662647 112.2731439  90.9226724  25.9777340 111.1931455  90.1357198
  27.4086043 110.6423357  86.1005351  27.7144920 109.7820720  85.8131266
  28.1338648 111.2340977  85.9004345  25.1140215 110.4421683  87.5234333
  25.3941969 109.7744872  88.1494759  25.8990822 110.6350778  87.0108997
  29.2742367 112.6197495  86.3902304  29.0767188 112.3112583  87.2745636
  29.8842072 113.3459134  86.5200233  25.0243747 109.5717220  84.0467922
  24.2576142 109.0175707  84.1924604  25.4354452 109.6439089  84.9082074
   4.3526024  54.0072203  73.5179307   3.5989732  53.4379601  73.3623311
   4.4873565  53.9734867  74.4649941   0.7174637  55.4480191  73.8145421
   1.5521528  55.8869995  73.9782982   0.8533765  54.9718844  72.9953667
   4.7632439  54.1647813  76.2499551   5.4935828  53.9033101  76.8107254
   4.1539385  53.4276535  76.2901619   2.8447736  52.3055675  76.8474002
   2.1180900  52.1711640  76.2390494   2.4295023  52.6132504  77.6530720
   0.4625531  48.5267527  74.2007434   1.0570022  48.2863263  73.4900742
   0.5352115  47.8074658  74.8280970   2.7696604  51.8333728  72.9750855
   2.2096162  51.9026918  73.7482417   2.1640107  51.6574713  72.2550351
   4.3552622  68.5090242  75.6680811   4.9931032  68.3896990  74.9644151
   4.2373465  69.4571086  75.7268763   1.1642329  68.4617670  75.6042336
   0.8260840  68.3458735  74.7162870   2.0332097  68.0608835  75.5843342
   1.6462112  69.6152522  81.5628541   1.6350752  69.2205320  80.6909045
   1.8082751  68.8818595  82.1562313   2.6028703  73.9824114  66.9053691
   1.9516683  74.5678195  66.5187705   3.3973066  74.5130309  66.9648729
   3.9093891  66.2341696  72.7434019   4.6956980  65.8161119  72.3924436
   4.1732595  67.1387788  72.9115667   4.0803968  71.6714546  67.4422676
   3.4449801  71.7449173  68.1543580   3.7501375  72.2608145  66.7641755
   9.3102318  66.1716929  73.6466997  10.0427490  65.6016146  73.8804827
   8.5541674  65.7838530  74.0873503   0.9278438  68.5944171  70.8430340
   0.5636645  68.0674792  71.5543261   1.7845554  68.2042640  70.6696825
   6.8327738  59.8838503  78.1061606   6.5011063  60.7533914  77.8822821
   6.2373352  59.5674787  78.7855636   3.3259258  72.0851049  77.5057519
   3.0259981  72.9876088  77.3973326   2.9810317  71.8183233  78.3578672
   6.7256402  64.6033590  75.1854956   5.8173279  64.5348998  74.8913717
   6.6743997  65.0805534  76.0136782   8.5918048  62.8050028  76.9632830
   7.9492428  63.0982561  76.3172625   8.0872977  62.6902948  77.7686027
   6.2458212  66.5513201  67.6518689   7.1576068  66.7840588  67.4766387
   5.7367859  67.1350245  67.0893768   4.5298979  70.9737829  81.2879982
   4.9382335  70.5320239  80.5434614   3.8076241  70.3990456  81.5414175
   0.8830049  65.9110436  78.6613539   1.7291245  66.3349849  78.8048188
   0.8228687  65.2544060  79.3552102   4.8527794  71.5339020  75.0432271
   4.2236656  71.6984734  74.3408339   4.4653456  71.9480629  75.8143235
   8.7317026  72.4693457  72.3976634   8.0468064  72.8492359  71.8473668
   8.8160875  73.0788784  73.1308582   4.0329495  63.5714804  80.3194712
   3.7890427  64.3256865  79.7828988   4.3089425  63.9500152  81.1541959
   5.9867957  70.1153416  78.9971978   6.1984853  70.7585176  78.3206359
   5.9397706  69.2815733  78.5293908   3.5894186  62.7271237  75.9008550
   2.7278665  63.0252491  76.1925288   3.6156621  62.9441636  74.9689583
   7.1013785  72.9925372  77.1694335   7.9231229  72.5905559  76.8877017
   7.0976188  72.8893606  78.1210451  15.1919778  69.3364120  73.5179307
  14.4383487  68.7671518  73.3623311  15.3267320  69.3026785  74.4649941
   0.5818407  74.2077523  69.1934026   0.4464081  75.0529058  69.6218874
   1.1228219  74.4096800  68.4299960   2.2086883  74.8301089  83.3234368
   1.7650737  74.0437468  83.0055273   2.8704097  75.0180240  82.6578259
   4.3068121  75.1103889  81.3515770   4.2886596  75.9312770  80.8596039
   5.2288041  74.9857964  81.5765911   3.9310870  57.7308085  77.7232920
   3.5875140  58.6209726  77.6472030   4.2989833  57.5409742  76.8602505
   3.8961153  67.7216696  66.2305355   3.3807776  68.4921300  66.4693742
   3.6238461  67.0481832  66.8538416   1.4808264  62.5666396  71.2890593
   0.6249860  62.1773247  71.1096232   1.8935216  62.6458357  70.4290379
   3.0107410  60.1012740  75.6882153   2.5072206  60.0642875  74.8749958
   3.3038017  61.0105482  75.7478810   8.8695427  70.4749050  68.1658528
   8.0924870  70.1360210  67.7213690   9.5486908  70.4801673  67.4913493
   3.6847456  65.5943788  68.0565136   3.3797592  65.9089937  68.9075279
   4.6377898  65.6725208  68.0992469   2.1293888  71.7534011  69.7058090
   1.6015249  71.0186771  69.3931327   1.6281391  72.5308687  69.4598058
   7.1086734  69.9483032  74.8225136   6.4510408  70.6382293  74.9105265
   7.9127133  70.3379464  75.1659123   5.9192193  68.3027404  72.8729078
   6.4324074  68.9357396  73.3750788   6.5693417  67.7028600  72.5072438
   3.1814567  78.2811729  65.6289749   2.5076266  78.5843425  66.2374707
   3.5680389  79.0840809  65.2795206   2.3973024  65.7776860  75.1187418
   1.4795585  65.9991807  74.9609107   2.8133167  65.8523170  74.2599126
   3.1808071  67.1768275  70.2490099   3.9279890  67.6889673  69.9397221
   3.4499661  66.8552328  71.1094492   1.4534721  69.6726816  67.2317053
   0.5445941  69.3885849  67.3289523   1.4829805  70.0925895  66.3720360
   6.6853989  73.2833406  71.0008221   6.2316316  72.4424316  71.0573411
   6.0547956  73.9194804  71.3383001   5.6286908  64.2125392  72.2308888
   4.8909665  63.7002778  72.5619131   5.8813682  63.7725773  71.4192165
   5.1286928  75.1209902  71.9358039   5.4209902  75.6814960  71.2170404
   5.6385549  75.4138463  72.6911198   5.7298536  56.9901644  72.8250657
   6.0357413  56.1299007  72.5376572   6.4551141  57.5819264  72.6249651
   1.1510809  71.2135560  64.5705132   0.7130239  70.4971419  64.1110769
   1.8921250  71.4411675  64.0090223   3.5386187  66.3674321  79.9232121
   3.8935575  66.5945794  80.7826587   4.1858318  66.6992698  79.3009376
   9.2683924  69.4892757  70.6281450   9.1301823  69.6794353  69.7002639
   8.9120143  70.2512140  71.0849501   9.2953304  71.5569284  75.6392722
   9.7289810  71.4644573  76.4875776  10.0084884  71.5326784  75.0012738
   3.0281199  75.1571378  77.1725822   3.0818221  75.7262314  77.9403538
   2.1595980  75.3273263  76.8079859  10.1568853  71.5992985  78.1725607
  10.3504743  72.5038795  78.4184882  10.0569471  71.1400404  79.0064192
   1.8105164  61.4850875  80.6715934   1.1633079  62.1840825  80.5780411
   2.5806179  61.9187019  81.0392183   5.2183962  71.7499727  83.7466488
   5.0669468  71.5210279  82.8296571   5.2088641  72.7070329  83.7597833
   1.9869298  69.3231640  78.7312754   2.9161358  69.4742800  78.5581721
   1.5660328  69.4115661  77.8761401   1.3805782  78.4491401  67.8436828
   1.5557538  77.9779444  68.6582451   0.6938570  79.0757167  68.0718089
   2.3362845  72.7263907  73.8900130   2.0012678  72.6864677  74.7857779
   1.8366791  72.0608623  73.4170540   5.2722037  70.0719942  64.1637189
   4.6551208  69.3466770  64.0670242   4.8038525  70.8329302  63.8204263
   6.9276169  74.7818850  81.8242970   6.8688715  74.0978070  81.1573553
   7.3295687  75.5237840  81.3723596   6.9293576  72.7458434  80.0556949
   6.0420355  72.4084356  80.1783348   7.4992127  72.0141465  80.2925715
   3.5581159  62.4526286  73.1755219   4.0549858  61.6996248  72.8556290
   2.7868140  62.4890602  72.6098429  11.4110916  68.1566651  74.8173511
  11.4000793  69.0391367  74.4467444  10.5428296  67.8038202  74.6228048
   2.9193413  77.3046720  79.1776351   3.6321385  77.9394185  79.1052253
   2.4283441  77.4010586  78.3616353   4.6410940  71.2097973  70.7493643
   3.7067218  71.3299435  70.5798347   4.8187608  70.3070440  70.4853653
   8.0283491  67.0515292  71.2843677   8.4943943  67.8843284  71.2103980
   8.4790991  66.5860274  71.9888935   6.0959722  73.3959113  68.2829829
   6.3719566  73.2815708  69.1923703   5.2264221  72.9976598  68.2442002
   6.0000154  59.4195879  75.3234578   5.0863234  59.6500106  75.4916785
   6.4293255  59.5034323  76.1748611   5.7706612  67.6085771  77.8234472
   5.1178062  67.8561679  77.1686925   6.1486992  66.7949909  77.4896950
   2.7313786  77.6445464  71.9262643   2.9136181  76.8267120  72.3890395
   3.5546772  77.8613157  71.4887533   3.0655952  76.5713649  69.1877691
   3.5943718  76.0606104  68.5747853   3.3284171  76.2556180  70.0523224
   1.8194185  68.3505582  84.3100509   1.1434822  68.2499711  84.9802885
   2.6421819  68.1944796  84.7736507   0.5616968  79.6572510  78.5458125
   1.1135276  79.8204131  79.3107211   0.9023162  80.2476947  77.8738150
   5.4127842  74.4833767  84.4006780   5.9567746  75.0963725  83.9061735
   4.8314687  75.0413346  84.9173793   3.6985355  77.6054485  75.5321808
   3.5736495  76.8044225  75.0232753   4.3564447  78.1000679  75.0435777
   5.7620264  75.4063505  77.1601358   4.8150599  75.2868856  77.0879684
   6.1103037  74.5186003  77.2427619   2.7666697  75.2016221  73.3605710
   2.6191660  74.2732929  73.5413280   3.5920191  75.2236312  72.8762785
   6.3700819  76.0244780  74.4470583   7.2947366  75.8187642  74.3095034
   6.2016122  75.7761181  75.3559924   2.7628211  63.0554059  68.3537827
   2.9791826  63.9378697  68.0526655   2.2822279  62.6640272  67.6243469
   1.2149946  63.4379661  77.0242589   0.9567724  64.3596731  77.0226919
   0.6834987  63.0410095  77.7143053   6.1596135  76.5430448  69.8032674
   6.3333013  75.9776870  69.0506526   6.6525026  77.3431343  69.6212164
   1.6351902  59.5711611  73.3843751   1.6573599  59.6350944  72.4295731
   2.0519961  58.7316120  73.5784257  12.0135526  69.3066871  71.4222974
  12.4566672  68.5574196  71.0242097  11.1362037  69.2977007  71.0396706
   7.1471308  75.8597212  66.9029572   7.8422212  76.4803905  67.1216887
   7.4894458  75.0092563  67.1781950   9.0462731  73.3096918  68.4316903
   9.5714055  73.6484190  67.7066223   8.9585083  72.3743933  68.2480038
   0.7082779  77.2230991  80.5606780   1.0169906  76.9780138  81.4329479
   1.5058261  77.4277630  80.0725650   8.7356637  73.9429821  83.7368101
   7.9452181  73.9253960  83.1972600   8.4989991  74.4818115  84.4917138
   8.8554512  70.7922288  81.0500830   8.9052517  70.6272295  81.9916352
   8.7468435  69.9249547  80.6598710   6.1458274  66.7753216  82.3660136
   7.0468137  66.6359680  82.0744134   6.2206249  66.9407670  83.3058314
  10.3572709  73.2119229  81.2942851  10.0657517  73.5749210  82.1306312
   9.7444840  72.4986237  81.1156183  11.5568391  70.7772109  73.8145421
  12.3915282  71.2161913  73.9782982  11.6927520  70.3010762  72.9953667
   8.6059897  68.3351844  79.7622909   9.0814019  68.5279490  78.9541760
   7.6825462  68.3911030  79.5166293   3.1840113  60.3699687  78.7278743
   3.7022057  61.1060714  78.4025232   2.8295246  60.6763681  79.5625502
   3.4352708  56.7899970  74.2479640   3.7154461  56.1223159  74.8740066
   4.2203315  56.9829065  73.7354303   1.2386176  75.9658964  65.8104666
   0.6660143  76.5849151  65.3575138   1.8118970  76.5158325  66.3444588
   7.3061566  65.2117604  77.9951215   8.2578989  65.3115701  78.0163439
   7.1365016  64.4195872  78.5049299   5.3275945  62.2973187  78.1810616
   4.7325878  62.5778200  77.4857104   5.0425642  62.7867088  78.9527357
   4.4583436  76.2496114  66.9413248   5.3914109  76.1841676  67.1446124
   4.3706649  77.0852381  66.4827781   7.0871453  75.5661984  63.9017196
   7.0085084  75.2321848  64.7952954   7.9081119  76.0583752  63.9008668
   9.7849644  68.4323723  77.1093514   9.7525964  67.4939724  77.2953198
  10.3950267  68.5107760  76.3759339   1.6232975  67.3019776  63.1520718
   2.5692079  67.1725985  63.2209136   1.2447220  66.5634438  63.6290147
   9.9344132  65.2234767  77.1551798   9.4183181  64.4393224  76.9681726
  10.8184081  64.8953484  77.3198317   7.5954859  58.9675782  73.1147610
   7.3979680  58.6590871  73.9990942   8.2054565  59.6937421  73.2445540
  15.6026194  69.4939730  76.2499551  16.3329582  69.2325018  76.8107254
  14.9933139  68.7568452  76.2901619  13.6841491  67.6347593  76.8474002
  12.9574654  67.5003558  76.2390494  13.2688778  67.9424422  77.6530720
   1.5071667  71.3537523  84.6121375   2.4274677  71.5316122  84.8061422
   1.4721250  70.4093568  84.4601075   1.4237957  59.7706643  69.2419845
   0.6138686  59.4253728  69.6175091   2.1122374  59.4614186  69.8307456
   3.3528506  58.8484689  70.8644142   3.9059544  59.2680143  71.5234165
   3.5898592  57.9220437  70.9067098   6.7307313  60.9585215  70.3722806
   6.1505982  61.6170019  69.9900858   6.4643246  60.1362559  69.9610223
   5.1810879  60.3590272  72.5744126   5.6810658  60.4706807  71.7658445
   5.8246487  60.0551325  73.2144935   5.5132191  63.1185305  69.4279154
   4.6258046  63.4034956  69.2099349   5.9286180  62.9579068  68.5806431
   8.8646727  63.1431826  73.1433493   9.6407117  63.6328278  73.4158110
   8.1394861  63.5689880  73.6005363  11.3019286  63.8559445  74.2007434
  11.8963776  63.6155181  73.4900742  11.3745869  63.1366576  74.8280970
   4.6575404  72.8829980  63.5227174   5.3611254  73.0879982  64.1384830
   3.9338053  73.4506741  63.7876258   5.4873215  68.6339841  69.6429444
   5.4308416  69.0908392  68.8037077   6.0401557  67.8730525  69.4652287
   9.2978021  64.4229573  70.4679564   9.0414955  64.0226208  71.2987771
   8.6730889  65.1373367  70.3429703  13.6090358  67.1625646  72.9750855
  13.0489916  67.2318835  73.7482417  13.0033862  66.9866631  72.2550351
   6.5662102  73.3212509  65.5725634   7.4007706  72.8893707  65.3903109
   6.4046445  73.1494522  66.5002529   6.2207994  69.8244622  66.9381973
   6.1656798  69.6588894  65.9970418   5.5954049  70.5320655  67.0944163
   3.5353901  72.1293534  86.2635536   4.4045061  72.3034186  85.9022171
   3.0560653  72.9487951  86.1411266   3.3456239  55.9195508  70.7713229
   2.5788635  55.3653994  70.9169911   3.7566944  55.9917377  71.6327380
  15.1946377  83.8382160  75.6680811  15.8324787  83.7188907  74.9644151
  15.0767220  84.7863004  75.7268763  12.0036083  83.7909588  75.6042336
  11.6654595  83.6750653  74.7162870  12.8725851  83.3900753  75.5843342
   7.8622899  85.6445064  71.5939226   7.2987764  85.5535001  70.8255514
   7.7475294  84.8244969  72.0741719  12.4855866  84.9444440  81.5628541
  12.4744507  84.5497238  80.6909045  12.6476506  84.2110512  82.1562313
   5.4087331  87.1396256  74.4323447   6.2008623  86.7987081  74.0169746
   5.6483981  87.2491231  75.3525600  13.4422458  89.3116032  66.9053691
  12.7910437  89.8970113  66.5187705  14.2366820  89.8422227  66.9648729
   7.3678085  86.4005169  67.3040826   8.1408961  85.8534156  67.1653702
   7.7203484  87.2649419  67.5155287   9.2063127  87.7281552  80.5107725
   8.9152993  88.6327182  80.3954391   9.8420112  87.7698079  81.2251795
  10.1319334  85.1058400  77.1009085  10.7282906  84.8814422  76.3866048
  10.1894306  84.3643146  77.7034533   9.7044362  82.5597835  64.9359276
   9.9569883  82.0379357  64.1742739   8.7668922  82.3963981  65.0385959
  14.7487645  81.5633614  72.7434019  15.5350735  81.1453037  72.3924436
  15.0126350  82.4679706  72.9115667  14.9197723  87.0006464  67.4422676
  14.2843556  87.0741091  68.1543580  14.5895129  87.5900063  66.7641755
  20.1496072  81.5008847  73.6466997  20.8821244  80.9308064  73.8804827
  19.3935428  81.1130447  74.0873503   9.4240651  84.4625941  67.1383651
   9.3076909  83.7870845  67.8064735   9.5342911  83.9758315  66.3215804
  11.7672192  83.9236088  70.8430340  11.4030399  83.3966709  71.5543261
  12.6239308  83.5334558  70.6696825  17.6721493  75.2130421  78.1061606
  17.3404818  76.0825832  77.8822821  17.0767106  74.8966705  78.7855636
  11.4077679  78.9525988  65.8391688  11.5752081  79.8206225  66.2062159
  11.2174848  79.1153270  64.9152978  14.1653012  87.4142967  77.5057519
  13.8653735  88.3168006  77.3973326  13.8204072  87.1475150  78.3578672
   7.6165494  83.8656764  73.5394223   6.6915990  83.7332978  73.7471915
   7.8649907  84.6450983  74.0364166  17.5650156  79.9325507  75.1854956
  16.6567033  79.8640916  74.8913717  17.5137752  80.4097452  76.0136782
  11.3866900  81.4083646  66.8238355  11.2666525  81.8540696  67.6623835
  10.6919488  81.7568963  66.2651893   4.9774305  83.5090037  74.3738012
   5.1066686  83.7624516  75.2877424   4.2971756  84.1017745  74.0542667
   9.1473792  94.1787287  70.4728486   9.0697822  95.1295112  70.5516967
   8.5435436  93.8333160  71.1303413  11.6391022  81.3515153  83.1289853
  10.8624356  81.9109073  83.1192718  12.2781585  81.8371936  83.6504723
  19.4311803  78.1341946  76.9632830  18.7886183  78.4274479  76.3172625
  18.9266731  78.0194866  77.7686027  17.0851966  81.8805119  67.6518689
  17.9969822  82.1132506  67.4766387  16.5761613  82.4642163  67.0893768
   9.8937394  84.1600606  82.6907820  10.6352079  84.6985650  82.4142644
   9.1874380  84.7866895  82.8479372  15.3692734  86.3029747  81.2879982
  15.7776090  85.8612157  80.5434614  14.6469995  85.7282374  81.5414175
  11.7223804  81.2402353  78.6613539  12.5684999  81.6641767  78.8048188
  11.6622442  80.5835978  79.3552102  15.6921548  86.8630937  75.0432271
  15.0630411  87.0276651  74.3408339  15.3047211  87.2772547  75.8143235
  19.5710780  87.7985375  72.3976634  18.8861819  88.1784276  71.8473668
  19.6554630  88.4080702  73.1308582  14.8723249  78.9006722  80.3194712
  14.6284181  79.6548782  79.7828988  15.1483180  79.2792069  81.1541959
  16.8261712  85.4445334  78.9971978  17.0378607  86.0877094  78.3206359
  16.7791460  84.6107651  78.5293908  14.4287941  78.0563155  75.9008550
  13.5672420  78.3544408  76.1925288  14.4550376  78.2733554  74.9689583
  11.2449510  86.6005345  72.3082356  11.7087856  86.8793048  71.5186978
  10.9806308  85.6988790  72.1255446   8.1373591  86.1476827  75.2462119
   8.7074948  86.5764095  74.6079604   8.7281703  85.8659412  75.9446305
  10.1818396  82.7228498  69.1171921  10.8842440  83.1749541  69.5845847
   9.8499025  82.0812317  69.7451814   8.6298758  81.3140254  83.4923130
   7.9997419  81.9956535  83.7258527   8.5234846  81.2023336  82.5476269
   3.9243730  80.9812050  74.4189055   3.1342784  81.2369579  73.9429165
   4.4154978  81.7960388  74.5241095  17.9407540  88.3217290  77.1694335
  18.7624984  87.9197477  76.8877017  17.9369943  88.2185524  78.1210451
   5.8758476  81.3456630  71.3772531   5.0789639  81.4575324  71.8956027
   5.6484068  81.6843282  70.5113422  11.7064143  87.8701333  79.3255046
  11.7708576  88.3321740  80.1613218  10.9975067  87.2398698  79.4537356
   2.2081433  81.2342541  76.8504045   2.4589472  82.1189551  77.1161621
   2.7440982  81.0547142  76.0779137  26.0313533  84.6656038  73.5179307
  25.2777241  84.0963436  73.3623311  26.1661074  84.6318703  74.4649941
  11.4212161  89.5369440  69.1934026  11.2857836  90.3820976  69.6218874
  11.9621974  89.7388718  68.4299960   7.9079501  75.6161020  85.8548381
   7.5146446  75.0627219  86.5296026   8.7245641  75.9271599  86.2454899
   4.8741558  87.0544878  69.7661951   5.3866079  87.8488129  69.9167516
   5.5264271  86.3571169  69.6995553   6.6836443  90.1710635  71.8484704
   6.8603071  91.0928599  71.6605688   7.4793277  89.8569054  72.2779084
  10.8247462  77.0318899  83.4468638  11.5657175  77.6326052  83.3673100
  11.0565384  76.2896537  82.8886681   5.9688800  82.2175267  81.7246868
   5.8542315  81.3160524  82.0253967   5.1133317  82.4638963  81.3731684
  13.0480637  90.1593007  83.3234368  12.6044492  89.3729385  83.0055273
  13.7097851  90.3472157  82.6578259   7.8067759  91.6888808  77.8495047
   8.3575184  91.5605872  77.0772041   6.9679234  91.9883697  77.4989940
  15.1461875  90.4395807  81.3515770  15.1280351  91.2604688  80.8596039
  16.0681796  90.3149882  81.5765911  11.6034930  87.9539936  82.1939278
  12.1363266  87.1928224  81.9638586  11.0749011  87.6613588  82.9363432
  14.7704625  73.0600002  77.7232920  14.4268894  73.9501644  77.6472030
  15.1383587  72.8701660  76.8602505   2.8390475  85.3833533  70.5421522
   3.6765697  85.7930541  70.3255229   3.0168743  84.4432975  70.5121716
  14.7354907  83.0508613  66.2305355  14.2201531  83.8213218  66.4693742
  14.4632216  82.3773749  66.8538416  12.3202018  77.8958314  71.2890593
  11.4643615  77.5065165  71.1096232  12.7328970  77.9750275  70.4290379
  13.8501165  75.4304657  75.6882153  13.3465961  75.3934793  74.8749958
  14.1431772  76.3397400  75.7478810  10.0944051  75.5143387  74.6948335
  10.9597048  75.3186196  74.3354224  10.1621560  75.2853739  75.6217691
  19.7089181  85.8040968  68.1658528  18.9318624  85.4652127  67.7213690
  20.3880662  85.8093591  67.4913493  14.5241210  80.9235705  68.0565136
  14.2191346  81.2381855  68.9075279  15.4771653  81.0017125  68.0992469
  12.9687642  87.0825929  69.7058090  12.4409004  86.3478688  69.3931327
  12.4675145  87.8600605  69.4598058  17.9480488  85.2774949  74.8225136
  17.2904163  85.9674211  74.9105265  18.7520888  85.6671381  75.1659123
   7.7006370  77.7445595  72.0664701   8.2750122  77.5220777  71.3337894
   8.2877352  77.8134290  72.8193303  16.7585947  83.6319322  72.8729078
  17.2717829  84.2649314  73.3750788  17.4087171  83.0320517  72.5072438
   8.0275957  79.7750056  66.0860587   7.1913269  80.1124743  66.4069861
   7.8880727  79.6399036  65.1487724  10.0029038  74.6186844  70.7939771
   9.3493450  74.3035861  70.1696386   9.9609512  73.9962584  71.5199594
  11.1140243  84.9006139  62.7093063  10.2067304  84.6695392  62.9084212
  11.6111275  84.1043758  62.8967044  14.0208321  93.6103646  65.6289749
  13.3470020  93.9135343  66.2374707  14.4074143  94.4132727  65.2795206
  13.2366778  81.1068777  75.1187418  12.3189339  81.3283724  74.9609107
  13.6526922  81.1815088  74.2599126  14.0201826  82.5060193  70.2490099
  14.7673645  83.0181590  69.9397221  14.2893415  82.1844246  71.1094492
  12.2928476  85.0018734  67.2317053  11.3839695  84.7177767  67.3289523
  12.3223560  85.4217812  66.3720360  17.5247743  88.6125323  71.0008221
  17.0710070  87.7716233  71.0573411  16.8941710  89.2486722  71.3383001
  16.4680663  79.5417309  72.2308888  15.7303420  79.0294696  72.5619131
  16.7207436  79.1017691  71.4192165  15.9680683  90.4501820  71.9358039
  16.2603657  91.0106877  71.2170404  16.4779303  90.7430381  72.6911198
  16.5692290  72.3193561  72.8250657  16.8751167  71.4590925  72.5376572
  17.2944895  72.9111182  72.6249651   2.8616646  82.7224248  71.2132255
   2.6641046  82.1293609  70.4883322   2.3063310  82.4176458  71.9308194
  10.8413370  82.6147354  73.3326848  10.8961980  81.6621191  73.2569325
  10.0304572  82.7706794  73.8168147  11.9904564  86.5427478  64.5705132
  11.5523994  85.8263336  64.1110769  12.7315005  86.7703592  64.0090223
   8.7805730  81.2324414  71.0917227   7.9673595  81.5318585  71.4982419
   9.2764724  80.8380103  71.8091709  10.9314308  91.2282171  73.0251492
  10.8890487  91.4543017  72.0960024  11.8477007  90.9945546  73.1737293
  14.3779942  81.6966239  79.9232121  14.7329329  81.9237712  80.7826587
  15.0252073  82.0284615  79.3009376  20.1077679  84.8184675  70.6281450
  19.9695577  85.0086271  69.7002639  19.7513897  85.5804057  71.0849501
   8.2719805  78.8042770  76.7078462   8.9119184  78.6631529  76.0101426
   7.4397335  78.5177283  76.3317064  20.1347058  86.8861202  75.6392722
  20.5683565  86.7936491  76.4875776  20.8478639  86.8618702  75.0012738
   9.0480109  88.1045200  72.8213455   9.8420707  87.6095520  72.6196030
   8.3371801  87.5763063  72.4581160  13.8674953  90.4863296  77.1725822
  13.9211975  91.0554232  77.9403538  12.9989734  90.6565181  76.8079859
   5.3562872  82.2488282  68.8973207   4.4260460  82.1872737  69.1143169
   5.4520344  81.7264235  68.1009849   5.2748421  78.7743095  71.4851449
   5.5355238  79.6888428  71.3760609   6.0965593  78.3067537  71.6348062
   6.7473346  80.1880852  78.6550274   7.4196400  79.9798214  78.0062922
   5.9203133  79.9902938  78.2155506  20.9962608  86.9284902  78.1725607
  21.1898498  87.8330713  78.4184882  20.8963226  86.4692321  79.0064192
  12.6498918  76.8142793  80.6715934  12.0026833  77.5132742  80.5780411
  13.4199934  77.2478937  81.0392183  16.0577716  87.0791645  83.7466488
  15.9063223  86.8502197  82.8296571  16.0482396  88.0362246  83.7597833
  12.8263053  84.6523558  78.7312754  13.7555113  84.8034717  78.5581721
  12.4054083  84.7407579  77.8761401  11.6251385  88.6774222  76.5011292
  11.4862470  88.3093007  77.3737230  10.8365981  89.1921862  76.3295250
  12.2199537  93.7783319  67.8436828  12.3951292  93.3071362  68.6582451
  11.5332325  94.4049085  68.0718089  13.1756600  88.0555825  73.8900130
  12.8406432  88.0156595  74.7857779  12.6760545  87.3900541  73.4170540
   7.1500844  83.4623455  79.4152711   7.0120642  82.7303694  80.0164250
   8.0605767  83.3732355  79.1336898  16.1115791  85.4011859  64.1637189
  15.4944962  84.6758687  64.0670242  15.6432280  86.1621219  63.8204263
   9.7783144  83.1743414  78.9036390  10.4882763  82.5336606  78.8623009
   9.7352453  83.4256309  79.8262571  17.7669923  90.1110768  81.8242970
  17.7082469  89.4269988  81.1573553  18.1689441  90.8529758  81.3723596
   8.4912078  80.1608632  80.7232030   7.9549435  79.7099371  81.3753626
   7.9028787  80.2954541  79.9802494   6.7860622  96.9272681  74.6176688
   7.0257220  97.5591206  75.2955707   5.9429818  96.5760721  74.9042048
   7.9014337  79.6197284  63.2858493   7.0243804  79.4986084  62.9220740
   8.3772090  78.8283362  63.0337382  17.7687330  88.0750351  80.0556949
  16.8814109  87.7376273  80.1783348  18.3385881  87.3433383  80.2925715
   4.2251200  79.2964640  77.8085024   4.1409388  78.6890309  77.0735434
   3.4033906  79.7873658  77.8094521  11.2988484  92.7351804  77.0218192
  11.2258655  93.5406775  77.5337497  10.8565877  92.9343770  76.1966214
  11.0878263  91.9723574  70.5321014  10.3045785  92.5145254  70.6259238
  11.7871008  92.4897554  70.9315255  14.3974913  77.7818203  73.1755219
  14.8943613  77.0288166  72.8556290  13.6261895  77.8182520  72.6098429
  22.2504671  83.4858569  74.8173511  22.2394547  84.3683284  74.4467444
  21.3822050  83.1330120  74.6228048  13.7587167  92.6338638  79.1776351
  14.4715139  93.2686103  79.1052253  13.2677196  92.7302504  78.3616353
  15.4804694  86.5389891  70.7493643  14.5460973  86.6591353  70.5798347
  15.6581363  85.6362357  70.4853653  10.9809882  79.9235586  72.9026904
  10.6107670  79.3706627  73.5907810  11.4768975  79.3193720  72.3501904
  18.8677245  82.3807210  71.2843677  19.3337698  83.2135201  71.2103980
  19.3184746  81.9152191  71.9888935   8.8099081  90.3833081  79.9981922
   9.5108540  91.0169564  80.1511316   8.3394196  90.7247813  79.2377561
  16.9353477  88.7251031  68.2829829  17.2113320  88.6107626  69.1923703
  16.0657975  88.3268516  68.2442002  16.8393908  74.7487797  75.3234578
  15.9256988  74.9792024  75.4916785  17.2687010  74.8326241  76.1748611
  16.6100367  82.9377689  77.8234472  15.9571817  83.1853596  77.1686925
  16.9880747  82.1241827  77.4896950  13.5707541  92.9737382  71.9262643
  13.7529935  92.1559038  72.3890395  14.3940527  93.1905074  71.4887533
  13.9049706  91.9005567  69.1877691  14.4337473  91.3898022  68.5747853
  14.1677926  91.5848097  70.0523224  12.6587940  83.6797500  84.3100509
  11.9828577  83.5791629  84.9802885  13.4815574  83.5236714  84.7736507
   4.4066799  89.9169436  76.9313025   4.9920236  89.1713124  77.0640929
   4.2091637  90.2273393  77.8149688   7.2605454  92.9520684  71.9475467
   6.5915829  93.4366811  71.4639507   7.1218324  93.1989904  72.8618846
  11.4010723  94.9864427  78.5458125  11.9529031  95.1496049  79.3107211
  11.7416916  95.5768865  77.8738150   6.3775216  77.3339577  79.1480010
   6.4416542  78.1954408  78.7357408   6.3142336  76.7213579  78.4152369
   5.8527488  79.4062710  82.7953044   6.4799527  79.0239787  83.4090569
   4.9955407  79.1876912  83.1608737  16.2521597  89.8125685  84.4006780
  16.7961501  90.4255643  83.9061735  15.6708442  90.3705263  84.9173793
   2.6293031  81.2139139  68.7271399   2.9246472  80.3049817  68.6738453
   1.7281067  81.1926878  68.4052401  14.5379110  92.9346403  75.5321808
  14.4130249  92.1336143  75.0232753  15.1958201  93.4292596  75.0435777
   6.1587278  79.2895135  74.7098948   5.4373864  79.9031103  74.5706421
   6.9480534  79.8252900  74.6315594  16.6014018  90.7355423  77.1601358
  15.6544354  90.6160774  77.0879684  16.9496791  89.8477921  77.2427619
   8.9613592  76.6249562  80.9839599   9.4847993  76.8711858  81.7465909
   8.7425925  77.4569597  80.5642737   4.3580873  78.8953236  68.8510724
   4.0293579  78.0150615  68.6685830   4.7120243  78.8400905  69.7387114
  13.6060452  90.5308139  73.3605710  13.4585414  89.6024847  73.5413280
  14.4313945  90.5528230  72.8762785   7.4722696  79.1826206  69.2186202
   7.8118768  79.7112127  68.4964810   7.9194816  79.5206612  69.9944768
  17.2094573  91.3536698  74.4470583  18.1341121  91.1479559  74.3095034
  17.0409877  91.1053099  75.3559924  10.1666137  77.5663257  78.6689270
   9.8262957  76.7671070  79.0709950   9.4605143  77.8664968  78.0966103
  10.8182609  74.6512569  77.1216593  11.6408678  74.1773048  76.9995483
  11.0620672  75.4303053  77.6215279   9.4590843  77.6800828  67.4179495
  10.1799206  78.0582081  66.9143212   8.8356147  78.3989705  67.5214473
  13.6021966  78.3845977  68.3537827  13.8185580  79.2670615  68.0526655
  13.1216033  77.9932190  67.6243469   8.3421187  81.3431690  74.9308572
   8.1965768  81.6571993  75.8232853   7.8646391  81.9616590  74.3779470
  10.2017570  78.3334238  74.9789461  10.1879139  77.4375331  74.6421759
  10.9189998  78.3404902  75.6127747  12.0543701  78.7671578  77.0242589
  11.7961479  79.6888649  77.0226919  11.5228741  78.3702013  77.7143053
  16.9989890  91.8722365  69.8032674  17.1726767  91.3068788  69.0506526
  17.4918781  92.6723260  69.6212164   2.8166849  83.8837034  77.8696233
   2.2720318  84.6596842  78.0016507   3.6946199  84.2307839  77.7115354
   9.6054466  77.2148618  70.2477031   9.7270377  76.2865264  70.4467919
   9.3156508  77.2287304  69.3355347  12.4745656  74.9003529  73.3843751
  12.4967353  74.9642862  72.4295731  12.8913715  74.0608037  73.5784257
  22.8529281  84.6358788  71.4222974  23.2960427  83.8866113  71.0242097
  21.9755791  84.6268925  71.0396706  17.9865062  91.1889130  66.9029572
  18.6815967  91.8095822  67.1216887  18.3288212  90.3384481  67.1781950
   3.6032871  83.0106931  80.7626390   2.8614607  83.1589566  81.3491020
   3.2825616  83.2715196  79.8993139  19.8856485  88.6388835  68.4316903
  20.4107809  88.9776108  67.7066223  19.7978838  87.7035851  68.2480038
  11.5476534  92.5522909  80.5606780  11.8563660  92.3072056  81.4329479
  12.3452016  92.7569547  80.0725650  11.5697146  94.7060819  72.7912156
  11.1302136  94.2137197  73.4845013  12.3205263  94.1633786  72.5504231
   4.0489485  90.8972359  72.7936784   4.8747505  90.5976131  72.4135428
   3.6983537  90.1279982  73.2426573   9.0171018  90.2498828  74.8634458
   8.3951027  89.5869533  74.5636686   9.6875885  90.2759959  74.1808106
   2.2498090  88.8158686  73.7525718   1.4129998  88.3880860  73.5709719
   2.2221735  89.0091129  74.6896509   9.0895546  78.7280616  84.4566964
   9.1383701  79.6042738  84.0744734   9.6318060  78.1858009  83.8838607
  19.5750391  89.2721739  83.7368101  18.7845935  89.2545878  83.1972600
  19.3383746  89.8110033  84.4917138  19.6948266  86.1214205  81.0500830
  19.7446271  85.9564213  81.9916352  19.5862190  85.2541464  80.6598710
   8.5784525  88.8002751  68.3392918   8.7272645  89.4838215  67.6859591
   9.3850969  88.7807841  68.8542374  16.9852029  82.1045133  82.3660136
  17.8861892  81.9651598  82.0744134  17.0600003  82.2699588  83.3058314
  11.3194834  79.4811988  81.2113323  10.4498143  79.7745554  80.9395911
  11.5554314  80.0652433  81.9320586  21.1966463  88.5411147  81.2942851
  20.9051271  88.9041127  82.1306312  20.5838594  87.8278155  81.1156183
  22.3962145  86.1064027  73.8145421  23.2309037  86.5453831  73.9782982
  22.5321274  85.6302680  72.9953667  19.4453651  83.6643761  79.7622909
  19.9207773  83.8571408  78.9541760  18.5219217  83.7202947  79.5166293
   6.3337158  84.8267929  69.3453987   6.0883200  83.9230259  69.5434198
   6.5033073  84.8285079  68.4033465  14.0233868  75.6991605  78.7278743
  14.5415812  76.4352632  78.4025232  13.6689001  76.0055598  79.5625502
   5.6032806  80.5596286  66.8440149   4.9102051  80.6340641  66.1880185
   5.3584557  79.7956630  67.3661666  14.2746462  72.1191887  74.2479640
  14.5548216  71.4515077  74.8740066  15.0597069  72.3120983  73.7354303
  12.0779931  91.2950881  65.8104666  11.5053898  91.9141069  65.3575138
  12.6512724  91.8450243  66.3444588  18.1455320  80.5409521  77.9951215
  19.0972743  80.6407619  78.0163439  17.9758771  79.7487790  78.5049299
  16.1669700  77.6265105  78.1810616  15.5719632  77.9070117  77.4857104
  15.8819397  78.1159006  78.9527357  15.2977190  91.5788032  66.9413248
  16.2307864  91.5133593  67.1446124  15.2100403  92.4144298  66.4827781
  17.9265207  90.8953902  63.9017196  17.8478839  90.5613765  64.7952954
  18.7474874  91.3875670  63.9008668  20.6243398  83.7615641  77.1093514
  20.5919718  82.8231642  77.2953198  21.2344022  83.8399678  76.3759339
  12.4626729  82.6311694  63.1520718  13.4085834  82.5017902  63.2209136
  12.0840974  81.8926356  63.6290147  20.7737887  80.5526685  77.1551798
  20.2576935  79.7685141  76.9681726  21.6577835  80.2245401  77.3198317
  18.4348614  74.2967700  73.1147610  18.2373435  73.9882788  73.9990942
  19.0448319  75.0229339  73.2445540  26.4419948  84.8231648  76.2499551
  27.1723337  84.5616936  76.8107254  25.8326894  84.0860370  76.2901619
  24.5235245  82.9639511  76.8474002  23.7968409  82.8295476  76.2390494
  24.1082532  83.2716339  77.6530720  12.3465422  86.6829440  84.6121375
  13.2668431  86.8608039  84.8061422  12.3115005  85.7385486  84.4601075
  10.6469646  80.5561671  63.0875604   9.7401102  80.2594783  63.1638317
  10.9245627  80.2591489  62.2209890   1.5647587  81.8768034  73.5374650
   1.2450371  81.0233342  73.2449024   1.0181015  82.0916612  74.2932617
   5.3427494  84.5930475  77.2544157   5.5613504  85.5247583  77.2732190
   5.7553268  84.2338449  78.0398960  12.2631712  75.0998560  69.2419845
  11.4532440  74.7545645  69.6175091  12.9516129  74.7906104  69.8307456
  14.1922260  74.1776607  70.8644142  14.7453299  74.5972060  71.5234165
  14.4292347  73.2512355  70.9067098  10.2155359  80.1663681  86.6446905
  10.1152086  81.1158038  86.5758997   9.9976902  79.8381920  85.7722976
   9.4168431  77.4148606  63.2287583  10.2787595  77.7403504  63.4883400
   9.6018775  76.6280102  62.7160649   1.4335847  85.4970945  75.5067772
   0.7399318  85.0824898  74.9937726   2.1808838  85.5391482  74.9101190
  17.5701067  76.2877132  70.3722806  16.9899736  76.9461936  69.9900858
  17.3037000  75.4654477  69.9610223  16.0204634  75.6882190  72.5744126
  16.5204412  75.7998724  71.7658445  16.6640242  75.3843243  73.2144935
  10.0786630  83.5960820  85.4611967   9.5953711  84.3961180  85.6675856
  10.1647569  83.6068764  84.5079411   3.3472589  85.4289199  73.3833786
   3.3243277  85.5276886  72.4315670   3.6573226  86.2754350  73.7050953
   6.0059967  87.4865354  77.4980401   6.9603221  87.4549297  77.4310332
   5.8072491  87.0255978  78.3130627   6.5959349  86.0566470  80.0651199
   7.4152238  86.5510549  80.0886036   6.8696157  85.1398438  80.0368766
  16.3525945  78.4477223  69.4279154  15.4651800  78.7326873  69.2099349
  16.7679934  78.2870986  68.5806431  19.7040481  78.4723744  73.1433493
  20.4800872  78.9620196  73.4158110  18.9788616  78.8981798  73.6005363
  22.1413040  79.1851363  74.2007434  22.7357531  78.9447099  73.4900742
  22.2139624  78.4658493  74.8280970   4.3610196  93.0284974  74.5150599
   4.2264664  92.2685375  73.9488597   3.9442258  93.7525874  74.0479388
  15.4969159  88.2121897  63.5227174  16.2005009  88.4171900  64.1384830
  14.7731808  88.7798659  63.7876258  16.3266969  83.9631759  69.6429444
  16.2702170  84.4200310  68.8037077  16.8795312  83.2022443  69.4652287
  20.1371775  79.7521490  70.4679564  19.8808709  79.3518126  71.2987771
  19.5124643  80.4665284  70.3429703  24.4484113  82.4917564  72.9750855
  23.8883671  82.5610753  73.7482417  23.8427616  82.3158548  72.2550351
   7.5179322  93.9254291  74.7269041   7.4011706  94.8699723  74.6247732
   6.6971768  93.6227852  75.1154841  17.4055856  88.6504426  65.5725634
  18.2401460  88.2185625  65.3903109  17.2440199  88.4786440  66.5002529
  17.0601748  85.1536540  66.9381973  17.0050552  84.9880811  65.9970418
  16.4347804  85.8612573  67.0944163   1.8494263  80.3904604  80.7643396
   2.4953127  79.8803558  81.2530621   1.6411415  81.1273286  81.3386821
  14.3747656  87.4585452  86.2635536  15.2438815  87.6326104  85.9022171
  13.8954407  88.2779868  86.1411266  10.3697874  74.6544649  66.5167292
  10.3576544  75.5986489  66.6735563  11.2621296  74.4714794  66.2226753
   8.5433836  94.5782553  77.9424970   9.4461083  94.6106163  78.2591465
   8.3171206  93.6483004  77.9571306  10.2987438  93.3313539  74.6035048
   9.3483069  93.3315401  74.4899421  10.6019924  92.5846274  74.0871083
  14.1849993  71.2487425  70.7713229  13.4182389  70.6945912  70.9169911
  14.5960698  71.3209294  71.6327380   6.1891754  77.5372221  84.8618410
   7.0523216  77.1809026  85.0721734   5.6157165  77.1986116  85.5493814
  26.0340131  99.1674078  75.6680811  26.6718541  99.0480825  74.9644151
  25.9160974 100.1154922  75.7268763  22.8429838  99.1201506  75.6042336
  22.5048349  99.0042570  74.7162870  23.7119606  98.7192671  75.5843342
  18.7016653 100.9736982  71.5939226  18.1381518 100.8826919  70.8255514
  18.5869048 100.1536887  72.0741719  23.3249621 100.2736357  81.5628541
  23.3138261  99.8789156  80.6909045  23.4870260  99.5402430  82.1562313
  16.2481085 102.4688174  74.4323447  17.0402377 102.1278998  74.0169746
  16.4877735 102.5783149  75.3525600  24.2816212 104.6407950  66.9053691
  23.6304192 105.2262030  66.5187705  25.0760575 105.1714145  66.9648729
  18.2071839 101.7297087  67.3040826  18.9802715 101.1826074  67.1653702
  18.5597238 102.5941336  67.5155287  20.0456882 103.0573469  80.5107725
  19.7546748 103.9619100  80.3954391  20.6813866 103.0989997  81.2251795
  20.9713089 100.4350318  77.1009085  21.5676661 100.2106340  76.3866048
  21.0288060  99.6935063  77.7034533  20.5438117  97.8889753  64.9359276
  20.7963638  97.3671274  64.1742739  19.6062676  97.7255899  65.0385959
  25.5881400  96.8925531  72.7434019  26.3744489  96.4744955  72.3924436
  25.8520104  97.7971624  72.9115667  25.7591477 102.3298382  67.4422676
  25.1237310 102.4033008  68.1543580  25.4288884 102.9191981  66.7641755
  30.9889827  96.8300765  73.6466997  31.7214999  96.2599981  73.8804827
  30.2329183  96.4422365  74.0873503  20.2634406  99.7917859  67.1383651
  20.1470664  99.1162762  67.8064735  20.3736666  99.3050233  66.3215804
  22.6065947  99.2528006  70.8430340  22.2424154  98.7258627  71.5543261
  23.4633063  98.8626475  70.6696825  28.5115247  90.5422339  78.1061606
  28.1798572  91.4117750  77.8822821  27.9160861  90.2258623  78.7855636
  22.2471434  94.2817906  65.8391688  22.4145836  95.1498142  66.2062159
  22.0568603  94.4445188  64.9152978  25.0046767 102.7434885  77.5057519
  24.7047490 103.6459924  77.3973326  24.6597826 102.4767068  78.3578672
  18.4559248  99.1948682  73.5394223  17.5309745  99.0624896  73.7471915
  18.7043661  99.9742901  74.0364166  28.4043911  95.2617425  75.1854956
  27.4960788  95.1932833  74.8913717  28.3531506  95.7389370  76.0136782
  22.2260655  96.7375563  66.8238355  22.1060280  97.1832614  67.6623835
  21.5313243  97.0860881  66.2651893  15.8168059  98.8381955  74.3738012
  15.9460440  99.0916434  75.2877424  15.1365511  99.4309663  74.0542667
  19.9867547 109.5079205  70.4728486  19.9091576 110.4587030  70.5516967
  19.3829190 109.1625078  71.1303413  22.4784776  96.6807070  83.1289853
  21.7018110  97.2400991  83.1192718  23.1175339  97.1663853  83.6504723
  30.2705557  93.4633863  76.9632830  29.6279937  93.7566396  76.3172625
  29.7660486  93.3486784  77.7686027  27.9245721  97.2097037  67.6518689
  28.8363577  97.4424423  67.4766387  27.4155368  97.7934081  67.0893768
  20.7331149  99.4892524  82.6907820  21.4745833 100.0277568  82.4142644
  20.0268134 100.1158813  82.8479372  26.2086488 101.6321664  81.2879982
  26.6169844 101.1904075  80.5434614  25.4863750 101.0574292  81.5414175
  22.5617558  96.5694271  78.6613539  23.4078754  96.9933685  78.8048188
  22.5016196  95.9127895  79.3552102  26.5315303 102.1922855  75.0432271
  25.9024165 102.3568569  74.3408339  26.1440965 102.6064465  75.8143235
  30.4104535 103.1277293  72.3976634  29.7255573 103.5076194  71.8473668
  30.4948384 103.7372619  73.1308582  25.7117004  94.2298639  80.3194712
  25.4677936  94.9840700  79.7828988  25.9876934  94.6083987  81.1541959
  27.6655466 100.7737252  78.9971978  27.8772362 101.4169012  78.3206359
  27.6185215  99.9399568  78.5293908  25.2681695  93.3855072  75.9008550
  24.4066174  93.6836326  76.1925288  25.2944130  93.6025471  74.9689583
  22.0843265 101.9297263  72.3082356  22.5481610 102.2084966  71.5186978
  21.8200063 101.0280708  72.1255446  18.9767346 101.4768745  75.2462119
  19.5468703 101.9056013  74.6079604  19.5675458 101.1951329  75.9446305
  21.0212151  98.0520415  69.1171921  21.7236194  98.5041459  69.5845847
  20.6892779  97.4104234  69.7451814  19.4692512  96.6432172  83.4923130
  18.8391173  97.3248453  83.7258527  19.3628600  96.5315254  82.5476269
  14.7637485  96.3103968  74.4189055  13.9736539  96.5661497  73.9429165
  15.2548732  97.1252306  74.5241095  28.7801294 103.6509207  77.1694335
  29.6018738 103.2489395  76.8877017  28.7763697 103.5477441  78.1210451
  16.7152230  96.6748547  71.3772531  15.9183394  96.7867242  71.8956027
  16.4877822  97.0135200  70.5113422  22.5457898 103.1993251  79.3255046
  22.6102330 103.6613658  80.1613218  21.8368822 102.5690615  79.4537356
  13.0475188  96.5634459  76.8504045  13.2983226  97.4481468  77.1161621
  13.5834736  96.3839060  76.0779137  36.8707287  99.9947956  73.5179307
  36.1170996  99.4255354  73.3623311  37.0054829  99.9610620  74.4649941
  22.2605916 104.8661358  69.1934026  22.1251590 105.7112894  69.6218874
  22.8015728 105.0680636  68.4299960  18.7473255  90.9452938  85.8548381
  18.3540201  90.3919136  86.5296026  19.5639395  91.2563516  86.2454899
  15.7135313 102.3836796  69.7661951  16.2259833 103.1780046  69.9167516
  16.3658026 101.6863087  69.6995553  17.5230198 105.5002552  71.8484704
  17.6996826 106.4220517  71.6605688  18.3187031 105.1860972  72.2779084
  21.6641216  92.3610817  83.4468638  22.4050930  92.9617970  83.3673100
  21.8959139  91.6188455  82.8886681  16.8082554  97.5467184  81.7246868
  16.6936069  96.6452441  82.0253967  15.9527072  97.7930881  81.3731684
  23.8874392 105.4884925  83.3234368  23.4438246 104.7021303  83.0055273
  24.5491605 105.6764075  82.6578259  18.6461513 107.0180726  77.8495047
  19.1968938 106.8897789  77.0772041  17.8072989 107.3175615  77.4989940
  25.9855630 105.7687724  81.3515770  25.9674105 106.5896606  80.8596039
  26.9075550 105.6441800  81.5765911  22.4428684 103.2831854  82.1939278
  22.9757021 102.5220142  81.9638586  21.9142765 102.9905506  82.9363432
  25.6098379  88.3891920  77.7232920  25.2662648  89.2793562  77.6472030
  25.9777342  88.1993578  76.8602505  13.6784230 100.7125450  70.5421522
  14.5159452 101.1222459  70.3255229  13.8562497  99.7724893  70.5121716
  25.5748662  98.3800531  66.2305355  25.0595285  99.1505136  66.4693742
  25.3025970  97.7065667  66.8538416  23.1595773  93.2250232  71.2890593
  22.3037369  92.8357082  71.1096232  23.5722725  93.3042193  70.4290379
  24.6894919  90.7596575  75.6882153  24.1859715  90.7226710  74.8749958
  24.9825526  91.6689318  75.7478810  20.9337805  90.8435305  74.6948335
  21.7990802  90.6478113  74.3354224  21.0015314  90.6145657  75.6217691
  30.5482936 101.1332886  68.1658528  29.7712379 100.7944045  67.7213690
  31.2274417 101.1385509  67.4913493  25.3634965  96.2527623  68.0565136
  25.0585101  96.5673772  68.9075279  26.3165407  96.3309043  68.0992469
  23.8081397 102.4117846  69.7058090  23.2802758 101.6770606  69.3931327
  23.3068900 103.1892523  69.4598058  28.7874243 100.6066867  74.8225136
  28.1297917 101.2966128  74.9105265  29.5914642 100.9963299  75.1659123
  18.5400124  93.0737513  72.0664701  19.1143876  92.8512694  71.3337894
  19.1271107  93.1426207  72.8193303  27.5979702  98.9611240  72.8729078
  28.1111583  99.5941231  73.3750788  28.2480926  98.3612435  72.5072438
  18.8669712  95.1041974  66.0860587  18.0307024  95.4416660  66.4069861
  18.7274481  94.9690954  65.1487724  20.8422792  89.9478762  70.7939771
  20.1887204  89.6327779  70.1696386  20.8003266  89.3254502  71.5199594
  21.9533997 100.2298057  62.7093063  21.0461059  99.9987310  62.9084212
  22.4505029  99.4335676  62.8967044  24.8602076 108.9395564  65.6289749
  24.1863775 109.2427261  66.2374707  25.2467898 109.7424644  65.2795206
  24.0760533  96.4360695  75.1187418  23.1583094  96.6575642  74.9609107
  24.4920676  96.5107006  74.2599126  24.8595580  97.8352111  70.2490099
  25.6067399  98.3473508  69.9397221  25.1287170  97.5136164  71.1094492
  23.1322230 100.3310652  67.2317053  22.2233450 100.0469684  67.3289523
  23.1617314 100.7509730  66.3720360  28.3641498 103.9417241  71.0008221
  27.9103825 103.1008151  71.0573411  27.7335465 104.5778639  71.3383001
  27.3074417  94.8709227  72.2308888  26.5697174  94.3586613  72.5619131
  27.5601191  94.4309609  71.4192165  26.8074437 105.7793738  71.9358039
  27.0997411 106.3398795  71.2170404  27.3173058 106.0722299  72.6911198
  27.4086045  87.6485479  72.8250657  27.7144922  86.7882843  72.5376572
  28.1338650  88.2403099  72.6249651  13.7010401  98.0516166  71.2132255
  13.5034801  97.4585526  70.4883322  13.1457065  97.7468376  71.9308194
  21.6807124  97.9439272  73.3326848  21.7355734  96.9913109  73.2569325
  20.8698327  98.0998711  73.8168147  22.8298318 101.8719395  64.5705132
  22.3917748 101.1555254  64.1110769  23.5708759 102.0995510  64.0090223
  19.6199484  96.5616332  71.0917227  18.8067350  96.8610502  71.4982419
  20.1158479  96.1672021  71.8091709  21.7708062 106.5574089  73.0251492
  21.7284241 106.7834935  72.0960024  22.6870761 106.3237463  73.1737293
  25.2173696  97.0258156  79.9232121  25.5723084  97.2529630  80.7826587
  25.8645827  97.3576533  79.3009376  30.9471433 100.1476592  70.6281450
  30.8089332 100.3378188  69.7002639  30.5907652 100.9095975  71.0849501
  19.1113559  94.1334687  76.7078462  19.7512938  93.9923447  76.0101426
  18.2791090  93.8469201  76.3317064  30.9740813 102.2153119  75.6392722
  31.4077319 102.1228408  76.4875776  31.6872393 102.1910620  75.0012738
  19.8873863 103.4337118  72.8213455  20.6814462 102.9387438  72.6196030
  19.1765555 102.9054981  72.4581160  24.7068708 105.8155213  77.1725822
  24.7605730 106.3846150  77.9403538  23.8383489 105.9857098  76.8079859
  16.1956627  97.5780200  68.8973207  15.2654215  97.5164655  69.1143169
  16.2914099  97.0556152  68.1009849  16.1142176  94.1035012  71.4851449
  16.3748993  95.0180346  71.3760609  16.9359348  93.6359455  71.6348062
  17.5867101  95.5172770  78.6550274  18.2590154  95.3090132  78.0062922
  16.7596887  95.3194856  78.2155506  31.8356362 102.2576820  78.1725607
  32.0292252 103.1622630  78.4184882  31.7356980 101.7984239  79.0064192
  23.4892673  92.1434711  80.6715934  22.8420588  92.8424660  80.5780411
  24.2593688  92.5770854  81.0392183  26.8971471 102.4083563  83.7466488
  26.7456977 102.1794114  82.8296571  26.8876150 103.3654164  83.7597833
  23.6656807  99.9815475  78.7312754  24.5948867 100.1326635  78.5581721
  23.2447837 100.0699496  77.8761401  22.4645139 104.0066140  76.5011292
  22.3256225 103.6384924  77.3737230  21.6759735 104.5213779  76.3295250
  23.0593291 109.1075236  67.8436828  23.2345047 108.6363279  68.6582451
  22.3726079 109.7341003  68.0718089  24.0150354 103.3847743  73.8900130
  23.6800187 103.3448513  74.7857779  23.5154300 102.7192458  73.4170540
  17.9894598  98.7915373  79.4152711  17.8514396  98.0595611  80.0164250
  18.8999522  98.7024273  79.1336898  26.9509546 100.7303777  64.1637189
  26.3338716 100.0050605  64.0670242  26.4826034 101.4913137  63.8204263
  20.6176899  98.5035332  78.9036390  21.3276517  97.8628524  78.8623009
  20.5746207  98.7548227  79.8262571  28.6063678 105.4402685  81.8242970
  28.5476224 104.7561905  81.1573553  29.0083196 106.1821675  81.3723596
  19.3305833  95.4900550  80.7232030  18.7943190  95.0391288  81.3753626
  18.7422541  95.6246459  79.9802494  18.7408092  94.9489201  63.2858493
  17.8637558  94.8278002  62.9220740  19.2165845  94.1575279  63.0337382
  28.6081085 103.4042269  80.0556949  27.7207864 103.0668191  80.1783348
  29.1779636 102.6725300  80.2925715  10.2610232  99.7366361  73.3800001
  10.9481272  99.4228091  72.7921016  10.1058361 100.6407726  73.1067252
  15.0644954  94.6256557  77.8085024  14.9803143  94.0182227  77.0735434
  14.2427660  95.1165576  77.8094521  22.1382238 108.0643722  77.0218192
  22.0652410 108.8698693  77.5337497  21.6959631 108.2635687  76.1966214
  21.9272018 107.3015492  70.5321014  21.1439540 107.8437172  70.6259238
  22.6264763 107.8189471  70.9315255  25.2368668  93.1110121  73.1755219
  25.7337367  92.3580083  72.8556290  24.4655649  93.1474438  72.6098429
  33.0898425  98.8150487  74.8173511  33.0788302  99.6975202  74.4467444
  32.2215805  98.4622037  74.6228048  24.5980922 107.9630556  79.1776351
  25.3108894 108.5978020  79.1052253  24.1070950 108.0594422  78.3616353
  26.3198449 101.8681808  70.7493643  25.3854727 101.9883271  70.5798347
  26.4975117 100.9654275  70.4853653  21.8203637  95.2527504  72.9026904
  21.4501424  94.6998544  73.5907810  22.3162729  94.6485637  72.3501904
  29.7071000  97.7099128  71.2843677  30.1731452  98.5427119  71.2103980
  30.1578500  97.2444109  71.9888935  19.6492835 105.7124999  79.9981922
  20.3502295 106.3461482  80.1511316  19.1787950 106.0539731  79.2377561
  27.7747231 104.0542949  68.2829829  28.0507075 103.9399543  69.1923703
  26.9051730 103.6560434  68.2442002  27.6787663  90.0779714  75.3234578
  26.7650743  90.3083941  75.4916785  28.1080764  90.1618159  76.1748611
  27.4494121  98.2669606  77.8234472  26.7965571  98.5145514  77.1686925
  27.8274501  97.4533745  77.4896950  24.4101295 108.3029300  71.9262643
  24.5923690 107.4850956  72.3890395  25.2334281 108.5196992  71.4887533
  24.7443461 107.2297485  69.1877691  25.2731227 106.7189939  68.5747853
  25.0071680 106.9140015  70.0523224  23.4981694  99.0089418  84.3100509
  22.8222331  98.9083547  84.9802885  24.3209328  98.8528631  84.7736507
  15.2460553 105.2461354  76.9313025  15.8313990 104.5005042  77.0640929
  15.0485392 105.5565311  77.8149688  18.0999209 108.2812601  71.9475467
  17.4309584 108.7658729  71.4639507  17.9612078 108.5281822  72.8618846
   9.8378208  97.8166954  75.6517468   9.8762308  97.2830545  76.4454586
   9.3318501  97.2902160  75.0328445  22.2404477 110.3156345  78.5458125
  22.7922785 110.4787966  79.3107211  22.5810671 110.9060783  77.8738150
  17.2168970  92.6631495  79.1480010  17.2810297  93.5246326  78.7357408
  17.1536091  92.0505496  78.4152369  16.6921243  94.7354627  82.7953044
  17.3193282  94.3531705  83.4090569  15.8349162  94.5168829  83.1608737
  27.0915351 105.1417602  84.4006780  27.6355255 105.7547561  83.9061735
  26.5102196 105.6997181  84.9173793  13.4686786  96.5431056  68.7271399
  13.7640227  95.6341735  68.6738453  12.5674821  96.5218796  68.4052401
  25.3772864 108.2638320  75.5321808  25.2524004 107.4628060  75.0232753
  26.0351955 108.7584514  75.0435777  16.9981033  94.6187053  74.7098948
  16.2767618  95.2323021  74.5706421  17.7874288  95.1544818  74.6315594
  27.4407773 106.0647341  77.1601358  26.4938108 105.9452692  77.0879684
  27.7890546 105.1769839  77.2427619  19.8007346  91.9541479  80.9839599
  20.3241748  92.2003776  81.7465909  19.5819679  92.7861514  80.5642737
  15.1974627  94.2245154  68.8510724  14.8687333  93.3442533  68.6685830
  15.5513998  94.1692823  69.7387114  24.4454206 105.8600057  73.3605710
  24.2979168 104.9316764  73.5413280  25.2707700 105.8820148  72.8762785
  18.3116450  94.5118124  69.2186202  18.6512523  95.0404045  68.4964810
  18.7588571  94.8498530  69.9944768  28.0488328 106.6828616  74.4470583
  28.9734875 106.4771477  74.3095034  27.8803631 106.4345017  75.3559924
  21.0059891  92.8955175  78.6689270  20.6656712  92.0962988  79.0709950
  20.2998897  93.1956885  78.0966103  21.6576363  89.9804487  77.1216593
  22.4802432  89.5064965  76.9995483  21.9014427  90.7594971  77.6215279
  20.2984598  93.0092745  67.4179495  21.0192960  93.3873998  66.9143212
  19.6749902  93.7281622  67.5214473  24.4415720  93.7137894  68.3537827
  24.6579335  94.5962532  68.0526655  23.9609788  93.3224108  67.6243469
  19.1814942  96.6723608  74.9308572  19.0359522  96.9863911  75.8232853
  18.7040145  97.2908508  74.3779470  21.0411325  93.6626156  74.9789461
  21.0272893  92.7667249  74.6421759  21.7583753  93.6696819  75.6127747
  22.8937455  94.0963496  77.0242589  22.6355233  95.0180567  77.0226919
  22.3622496  93.6993930  77.7143053  27.8383644 107.2014283  69.8032674
  28.0120522 106.6360705  69.0506526  28.3312535 108.0015178  69.6212164
  13.6560604  99.2128952  77.8696233  13.1114072  99.9888760  78.0016507
  14.5339954  99.5599757  77.7115354  20.4448221  92.5440536  70.2477031
  20.5664132  91.6157182  70.4467919  20.1550263  92.5579222  69.3355347
  23.3139411  90.2295446  73.3843751  23.3361108  90.2934779  72.4295731
  23.7307470  89.3899955  73.5784257  33.6923035  99.9650706  71.4222974
  34.1354181  99.2158031  71.0242097  32.8149546  99.9560842  71.0396706
  28.8258817 106.5181047  66.9029572  29.5209721 107.1387740  67.1216887
  29.1681967 105.6676399  67.1781950  14.4426626  98.3398848  80.7626390
  13.7008362  98.4881484  81.3491020  14.1219370  98.6007114  79.8993139
  30.7250240 103.9680753  68.4316903  31.2501564 104.3068026  67.7066223
  30.6372592 103.0327768  68.2480038  22.3870288 107.8814827  80.5606780
  22.6957415 107.6363973  81.4329479  23.1845770 108.0861465  80.0725650
  22.4090900 110.0352736  72.7912156  21.9695891 109.5429115  73.4845013
  23.1599017 109.4925704  72.5504231  14.8883239 106.2264277  72.7936784
  15.7141259 105.9268049  72.4135428  14.5377291 105.4571899  73.2426573
  19.8564773 105.5790745  74.8634458  19.2344782 104.9161450  74.5636686
  20.5269640 105.6051877  74.1808106  13.0891845 104.1450604  73.7525718
  12.2523753 103.7172778  73.5709719  13.0615490 104.3383047  74.6896509
  19.9289300  94.0572533  84.4566964  19.9777456  94.9334656  84.0744734
  20.4711814  93.5149926  83.8838607  30.4144146 104.6013657  83.7368101
  29.6239690 104.5837795  83.1972600  30.1777500 105.1401950  84.4917138
  30.5342021 101.4506123  81.0500830  30.5840026 101.2856130  81.9916352
  30.4255944 100.5833382  80.6598710  19.4178280 104.1294669  68.3392918
  19.5666400 104.8130133  67.6859591  20.2244723 104.1099759  68.8542374
  27.8245783  97.4337051  82.3660136  28.7255646  97.2943516  82.0744134
  27.8993758  97.5991506  83.3058314  22.1588589  94.8103906  81.2113323
  21.2891898  95.1037472  80.9395911  22.3948069  95.3944351  81.9320586
  32.0360218 103.8703064  81.2942851  31.7445026 104.2333045  82.1306312
  31.4232349 103.1570073  81.1156183  33.2355900 101.4355944  73.8145421
  34.0702791 101.8745748  73.9782982  33.3715029 100.9594597  72.9953667
  30.2847406  98.9935679  79.7622909  30.7601528  99.1863325  78.9541760
  29.3612971  99.0494865  79.5166293  17.1730913 100.1559846  69.3453987
  16.9276954  99.2522176  69.5434198  17.3426827 100.1576997  68.4033465
  24.8627622  91.0283523  78.7278743  25.3809566  91.7644550  78.4025232
  24.5082755  91.3347516  79.5625502  16.4426560  95.8888204  66.8440149
  15.7495805  95.9632559  66.1880185  16.1978312  95.1248547  67.3661666
  25.1140217  87.4483805  74.2479640  25.3941970  86.7806994  74.8740066
  25.8990823  87.6412901  73.7354303  22.9173685 106.6242799  65.8104666
  22.3447652 107.2432986  65.3575138  23.4906479 107.1742161  66.3444588
  28.9849075  95.8701439  77.9951215  29.9366498  95.9699537  78.0163439
  28.8152525  95.0779708  78.5049299  27.0063454  92.9557022  78.1810616
  26.4113386  93.2362035  77.4857104  26.7213151  93.4450923  78.9527357
  26.1370945 106.9079949  66.9413248  27.0701618 106.8425511  67.1446124
  26.0494158 107.7436216  66.4827781  28.7658962 106.2245820  63.9017196
  28.6872593 105.8905683  64.7952954  29.5868628 106.7167587  63.9008668
  31.4637153  99.0907559  77.1093514  31.4313473  98.1523560  77.2953198
  32.0737776  99.1691596  76.3759339  23.3020484  97.9603612  63.1520718
  24.2479588  97.8309820  63.2209136  22.9234729  97.2218274  63.6290147
  31.6131641  95.8818602  77.1551798  31.0970690  95.0977059  76.9681726
  32.4971590  95.5537319  77.3198317  29.2742368  89.6259618  73.1147610
  29.0767189  89.3174706  73.9990942  29.8842074  90.3521257  73.2445540
  37.2813703 100.1523566  76.2499551  38.0117091  99.8908854  76.8107254
  36.6720648  99.4152288  76.2901619  35.3629000  98.2931428  76.8474002
  34.6362163  98.1587393  76.2390494  34.9476287  98.6008257  77.6530720
  23.1859176 102.0121358  84.6121375  24.1062186 102.1899957  84.8061422
  23.1508759 101.0677403  84.4601075  21.4863401  95.8853588  63.0875604
  20.5794856  95.5886701  63.1638317  21.7639382  95.5883406  62.2209890
  12.4041341  97.2059952  73.5374650  12.0844125  96.3525260  73.2449024
  11.8574769  97.4208530  74.2932617  16.1821249  99.9222393  77.2544157
  16.4007258 100.8539500  77.2732190  16.5947022  99.5630367  78.0398960
  23.1025466  90.4290478  69.2419845  22.2926195  90.0837563  69.6175091
  23.7909883  90.1198022  69.8307456  25.0316015  89.5068525  70.8644142
  25.5847053  89.9263978  71.5234165  25.2686101  88.5804273  70.9067098
  21.0549114  95.4955598  86.6446905  20.9545841  96.4449955  86.5758997
  20.8370656  95.1673837  85.7722976  20.2562185  92.7440523  63.2287583
  21.1181349  93.0695422  63.4883400  20.4412530  91.9572019  62.7160649
  12.2729601 100.8262863  75.5067772  11.5793073 100.4116816  74.9937726
  13.0202592 100.8683400  74.9101190  28.4094822  91.6169050  70.3722806
  27.8293491  92.2753854  69.9900858  28.1430755  90.7946394  69.9610223
  26.8598388  91.0174108  72.5744126  27.3598167  91.1290642  71.7658445
  27.5033996  90.7135160  73.2144935  20.9180384  98.9252737  85.4611967
  20.4347466  99.7253097  85.6675856  21.0041323  98.9360682  84.5079411
  14.1866344 100.7581117  73.3833786  14.1637032 100.8568804  72.4315670
  14.4966980 101.6046268  73.7050953  16.8453722 102.8157272  77.4980401
  17.7996975 102.7841214  77.4310332  16.6466245 102.3547896  78.3130627
  17.4353104 101.3858388  80.0651199  18.2545993 101.8802467  80.0886036
  17.7089911 100.4690356  80.0368766  27.1919700  93.7769140  69.4279154
  26.3045555  94.0618791  69.2099349  27.6073689  93.6162904  68.5806431
  30.5434236  93.8015661  73.1433493  31.3194626  94.2912114  73.4158110
  29.8182370  94.2273715  73.6005363  32.9806795  94.5143280  74.2007434
  33.5751285  94.2739016  73.4900742  33.0533378  93.7950411  74.8280970
  26.3362913 103.5413815  63.5227174  27.0398763 103.7463817  64.1384830
  25.6125562 104.1090577  63.7876258  27.1660724  99.2923676  69.6429444
  27.1095925  99.7492228  68.8037077  27.7189066  98.5314361  69.4652287
  30.9765529  95.0813408  70.4679564  30.7202464  94.6810044  71.2987771
  30.3518398  95.7957202  70.3429703  35.2877867  97.8209481  72.9750855
  34.7277425  97.8902671  73.7482417  34.6821371  97.6450466  72.2550351
  28.2449611 103.9796344  65.5725634  29.0795215 103.5477543  65.3903109
  28.0833954 103.8078358  66.5002529  27.8995503 100.4828457  66.9381973
  27.8444307 100.3172729  65.9970418  27.2741558 101.1904490  67.0944163
  12.6888018  95.7196522  80.7643396  13.3346881  95.2095476  81.2530621
  12.4805169  96.4565203  81.3386821  25.2141410 102.7877369  86.2635536
  26.0832570 102.9618022  85.9022171  24.7348162 103.6071786  86.1411266
  21.2091628  89.9836566  66.5167292  21.1970298  90.9278406  66.6735563
  22.1015050  89.8006712  66.2226753  19.3827590 109.9074470  77.9424970
  20.2854837 109.9398081  78.2591465  19.1564960 108.9774921  77.9571306
  21.1381192 108.6605457  74.6035048  20.1876823 108.6607318  74.4899421
  21.4413678 107.9138191  74.0871083  25.0243748  86.5779343  70.7713229
  24.2576144  86.0237830  70.9169911  25.4354453  86.6501212  71.6327380
  17.0285509  92.8664139  84.8618410  17.8916970  92.5100944  85.0721734
  16.4550920  92.5278034  85.5493814  36.8733886 114.4965995  75.6680811
  37.5112296 114.3772743  74.9644151  36.7554729 115.4446839  75.7268763
  33.6823592 114.4493423  75.6042336  33.3442104 114.3334488  74.7162870
  34.5513360 114.0484588  75.5843342  34.1643375 115.6028275  81.5628541
  34.1532016 115.2081073  80.6909045  34.3264015 114.8694348  82.1562313
  31.3831871 113.2181671  64.9359276  31.6357392 112.6963192  64.1742739
  30.4456431 113.0547816  65.0385959  36.4275154 112.2217449  72.7434019
  37.2138244 111.8036872  72.3924436  36.6913859 113.1263541  72.9115667
  41.8283581 112.1592682  73.6466997  42.5608753 111.5891899  73.8804827
  41.0722937 111.7714283  74.0873503  33.4459701 114.5819924  70.8430340
  33.0817908 114.0550545  71.5543261  34.3026817 114.1918393  70.6696825
  39.3509002 105.8714256  78.1061606  39.0192327 106.7409667  77.8822821
  38.7554615 105.5550540  78.7855636  33.0865188 109.6109823  65.8391688
  33.2539590 110.4790060  66.2062159  32.8962357 109.7737105  64.9152978
  39.2437665 110.5909343  75.1854956  38.3354542 110.5224751  74.8913717
  39.1925261 111.0681288  76.0136782  33.0654409 112.0667481  66.8238355
  32.9454034 112.5124532  67.6623835  32.3706997 112.4152799  66.2651893
  33.3178531 112.0098988  83.1289853  32.5411865 112.5692908  83.1192718
  33.9569094 112.4955771  83.6504723  41.1099311 108.7925781  76.9632830
  40.4673692 109.0858314  76.3172625  40.6054240 108.6778701  77.7686027
  38.7639475 112.5388954  67.6518689  39.6757331 112.7716341  67.4766387
  38.2549122 113.1225998  67.0893768  33.4011313 111.8986189  78.6613539
  34.2472508 112.3225602  78.8048188  33.3409951 111.2419813  79.3552102
  36.5510758 109.5590557  80.3194712  36.3071690 110.3132618  79.7828988
  36.8270689 109.9375905  81.1541959  38.5049221 116.1029169  78.9971978
  38.7166116 116.7460929  78.3206359  38.4578969 115.2691486  78.5293908
  36.1075450 108.7146990  75.9008550  35.2459929 109.0128244  76.1925288
  36.1337885 108.9317389  74.9689583  31.8605905 113.3812333  69.1171921
  32.5629949 113.8333377  69.5845847  31.5286534 112.7396152  69.7451814
  30.3086267 111.9724090  83.4923130  29.6784927 112.6540371  83.7258527
  30.2022355 111.8607171  82.5476269  25.6031239 111.6395886  74.4189055
  24.8130293 111.8953414  73.9429165  26.0942487 112.4544224  74.5241095
  27.5545985 112.0040465  71.3772531  26.7577148 112.1159159  71.8956027
  27.3271577 112.3427117  70.5113422  47.7101042 115.3239873  73.5179307
  46.9564750 114.7547271  73.3623311  47.8448583 115.2902538  74.4649941
  29.5867010 106.2744856  85.8548381  29.1933955 105.7211054  86.5296026
  30.4033150 106.5855434  86.2454899  32.5034971 107.6902735  83.4468638
  33.2444684 108.2909888  83.3673100  32.7352893 106.9480372  82.8886681
  36.4492134 103.7183838  77.7232920  36.1056403 104.6085479  77.6472030
  36.8171096 103.5285495  76.8602505  36.4142416 113.7092449  66.2305355
  35.8989040 114.4797053  66.4693742  36.1419725 113.0357585  66.8538416
  33.9989527 108.5542149  71.2890593  33.1431124 108.1649000  71.1096232
  34.4116479 108.6334110  70.4290379  35.5288674 106.0888493  75.6882153
  35.0253470 106.0518628  74.8749958  35.8219281 106.9981235  75.7478810
  31.7731560 106.1727222  74.6948335  32.6384557 105.9770031  74.3354224
  31.8409069 105.9437574  75.6217691  41.3876690 116.4624803  68.1658528
  40.6106133 116.1235963  67.7213690  42.0668171 116.4677427  67.4913493
  36.2028719 111.5819541  68.0565136  35.8978855 111.8965690  68.9075279
  37.1559162 111.6600961  68.0992469  39.6267997 115.9358785  74.8225136
  38.9691672 116.6258046  74.9105265  40.4308397 116.3255217  75.1659123
  29.3793879 108.4029430  72.0664701  29.9537631 108.1804612  71.3337894
  29.9664861 108.4718125  72.8193303  38.4373456 114.2903157  72.8729078
  38.9505338 114.9233149  73.3750788  39.0874680 113.6904353  72.5072438
  29.7063466 110.4333891  66.0860587  28.8700778 110.7708578  66.4069861
  29.5668236 110.2982871  65.1487724  31.6816547 105.2770679  70.7939771
  31.0280959 104.9619696  70.1696386  31.6397021 104.6546420  71.5199594
  34.9154287 111.7652613  75.1187418  33.9976848 111.9867560  74.9609107
  35.3314431 111.8398923  74.2599126  35.6989335 113.1644029  70.2490099
  36.4461154 113.6765426  69.9397221  35.9680924 112.8428081  71.1094492
  38.1468172 110.2001145  72.2308888  37.4090929 109.6878531  72.5619131
  38.3994945 109.7601526  71.4192165  38.2479799 102.9777397  72.8250657
  38.5538676 102.1174760  72.5376572  38.9732404 103.5695017  72.6249651
  32.5200879 113.2731190  73.3326848  32.5749489 112.3205026  73.2569325
  31.7092081 113.4290629  73.8168147  30.4593239 111.8908250  71.0917227
  29.6461104 112.1902420  71.4982419  30.9552233 111.4963938  71.8091709
  36.0567451 112.3550074  79.9232121  36.4116838 112.5821547  80.7826587
  36.7039582 112.6868451  79.3009376  41.7865188 115.4768510  70.6281450
  41.6483086 115.6670106  69.7002639  41.4301406 116.2387893  71.0849501
  29.9507314 109.4626605  76.7078462  30.5906693 109.3215364  76.0101426
  29.1184844 109.1761118  76.3317064  41.8134567 117.5445037  75.6392722
  42.2471074 117.4520326  76.4875776  42.5266148 117.5202537  75.0012738
  27.0350381 112.9072117  68.8973207  26.1047969 112.8456573  69.1143169
  27.1307853 112.3848070  68.1009849  26.9535930 109.4326930  71.4851449
  27.2142747 110.3472263  71.3760609  27.7753102 108.9651373  71.6348062
  28.4260855 110.8464687  78.6550274  29.0983909 110.6382049  78.0062922
  27.5990642 110.6486773  78.2155506  42.6750117 117.5868738  78.1725607
  42.8686007 118.4914548  78.4184882  42.5750735 117.1276157  79.0064192
  34.3286427 107.4726628  80.6715934  33.6814342 108.1716578  80.5780411
  35.0987443 107.9062772  81.0392183  34.5050562 115.3107393  78.7312754
  35.4342622 115.4618553  78.5581721  34.0841592 115.3991414  77.8761401
  37.7903300 116.0595695  64.1637189  37.1732471 115.3342523  64.0670242
  37.3219789 116.8205055  63.8204263  31.4570653 113.8327250  78.9036390
  32.1670272 113.1920442  78.8623009  31.4139961 114.0840144  79.8262571
  30.1699587 110.8192467  80.7232030  29.6336944 110.3683206  81.3753626
  29.5816296 110.9538376  79.9802494  29.5801846 110.2781119  63.2858493
  28.7031313 110.1569920  62.9220740  30.0559599 109.4867197  63.0337382
  25.9038709 109.9548475  77.8085024  25.8196897 109.3474145  77.0735434
  25.0821415 110.4457493  77.8094521  36.0762422 108.4402039  73.1755219
  36.5731122 107.6872001  72.8556290  35.3049404 108.4766355  72.6098429
  43.9292180 114.1442404  74.8173511  43.9182056 115.0267120  74.4467444
  43.0609559 113.7913955  74.6228048  32.6597391 110.5819422  72.9026904
  32.2895179 110.0290462  73.5907810  33.1556484 109.9777555  72.3501904
  40.5464754 113.0391045  71.2843677  41.0125207 113.8719037  71.2103980
  40.9972255 112.5736027  71.9888935  38.5181417 105.4071632  75.3234578
  37.6044497 105.6375859  75.4916785  38.9474519 105.4910076  76.1748611
  38.2887876 113.5961524  77.8234472  37.6359326 113.8437432  77.1686925
  38.6668256 112.7825662  77.4896950  34.3375449 114.3381335  84.3100509
  33.6616086 114.2375465  84.9802885  35.1603083 114.1820549  84.7736507
  28.0562725 107.9923412  79.1480010  28.1204051 108.8538243  78.7357408
  27.9929845 107.3797414  78.4152369  27.5314997 110.0646545  82.7953044
  28.1587036 109.6823622  83.4090569  26.6742916 109.8460747  83.1608737
  24.3080540 111.8722974  68.7271399  24.6033981 110.9633653  68.6738453
  23.4068576 111.8510714  68.4052401  27.8374787 109.9478971  74.7098948
  27.1161373 110.5614938  74.5706421  28.6268043 110.4836735  74.6315594
  30.6401101 107.2833397  80.9839599  31.1635502 107.5295694  81.7465909
  30.4213434 108.1153432  80.5642737  26.0368382 109.5537072  68.8510724
  25.7081088 108.6734451  68.6685830  26.3907752 109.4984740  69.7387114
  29.1510205 109.8410042  69.2186202  29.4906277 110.3695963  68.4964810
  29.5982325 110.1790448  69.9944768  31.8453646 108.2247092  78.6689270
  31.5050466 107.4254905  79.0709950  31.1392652 108.5248803  78.0966103
  32.4970117 105.3096405  77.1216593  33.3196187 104.8356883  76.9995483
  32.7408181 106.0886888  77.6215279  31.1378352 108.3384663  67.4179495
  31.8586714 108.7165916  66.9143212  30.5143656 109.0573540  67.5214473
  35.2809475 109.0429812  68.3537827  35.4973089 109.9254450  68.0526655
  34.8003542 108.6516026  67.6243469  30.0208696 112.0015525  74.9308572
  29.8753277 112.3155828  75.8232853  29.5433900 112.6200426  74.3779470
  31.8805079 108.9918073  74.9789461  31.8666648 108.0959167  74.6421759
  32.5977507 108.9988737  75.6127747  33.7331210 109.4255414  77.0242589
  33.4748988 110.3472484  77.0226919  33.2016250 109.0285848  77.7143053
  31.2841975 107.8732454  70.2477031  31.4057886 106.9449100  70.4467919
  30.9944017 107.8871140  69.3355347  34.1533165 105.5587364  73.3843751
  34.1754862 105.6226697  72.4295731  34.5701224 104.7191873  73.5784257
  44.5316790 115.2942624  71.4222974  44.9747936 114.5449949  71.0242097
  43.6543300 115.2852760  71.0396706  30.7683055 109.3864451  84.4566964
  30.8171210 110.2626574  84.0744734  31.3105569 108.8441844  83.8838607
  41.3735775 116.7798041  81.0500830  41.4233780 116.6148048  81.9916352
  41.2649699 115.9125300  80.6598710  38.6639538 112.7628969  82.3660136
  39.5649400 112.6235433  82.0744134  38.7387512 112.9283423  83.3058314
  32.9982343 110.1395823  81.2113323  32.1285652 110.4329389  80.9395911
  33.2341823 110.7236268  81.9320586  44.0749654 116.7647862  73.8145421
  44.9096546 117.2037666  73.9782982  44.2108783 116.2886515  72.9953667
  41.1241160 114.3227597  79.7622909  41.5995282 114.5155243  78.9541760
  40.2006726 114.3786783  79.5166293  35.7021377 106.3575440  78.7278743
  36.2203321 107.0936467  78.4025232  35.3476510 106.6639434  79.5625502
  27.2820315 111.2180122  66.8440149  26.5889559 111.2924476  66.1880185
  27.0372066 110.4540465  67.3661666  35.9533971 102.7775723  74.2479640
  36.2335725 102.1098912  74.8740066  36.7384578 102.9704818  73.7354303
  39.8242829 111.1993357  77.9951215  40.7760252 111.2991454  78.0163439
  39.6546280 110.4071625  78.5049299  37.8457209 108.2848940  78.1810616
  37.2507141 108.5653953  77.4857104  37.5606906 108.7742841  78.9527357
  42.3030907 114.4199477  77.1093514  42.2707227 113.4815477  77.2953198
  42.9131531 114.4983513  76.3759339  34.1414238 113.2895530  63.1520718
  35.0873343 113.1601738  63.2209136  33.7628483 112.5510191  63.6290147
  42.4525396 111.2110520  77.1551798  41.9364444 110.4268977  76.9681726
  43.3365344 110.8829237  77.3198317  40.1136123 104.9551536  73.1147610
  39.9160944 104.6466624  73.9990942  40.7235828 105.6813174  73.2445540
  48.1207457 115.4815483  76.2499551  48.8510846 115.2200771  76.8107254
  47.5114403 114.7444205  76.2901619  46.2022754 113.6223346  76.8474002
  45.4755918 113.4879311  76.2390494  45.7870041 113.9300175  77.6530720
  32.3257155 111.2145506  63.0875604  31.4188611 110.9178619  63.1638317
  32.6033136 110.9175324  62.2209890  33.9419221 105.7582396  69.2419845
  33.1319949 105.4129481  69.6175091  34.6303638 105.4489939  69.8307456
  35.8709769 104.8360442  70.8644142  36.4240808 105.2555896  71.5234165
  36.1079856 103.9096191  70.9067098  31.8942868 110.8247516  86.6446905
  31.7939595 111.7741873  86.5758997  31.6764410 110.4965755  85.7722976
  31.0955940 108.0732441  63.2287583  31.9575104 108.3987339  63.4883400
  31.2806284 107.2863937  62.7160649  39.2488576 106.9460968  70.3722806
  38.6687245 107.6045772  69.9900858  38.9824509 106.1238312  69.9610223
  37.6992143 106.3466025  72.5744126  38.1991921 106.4582560  71.7658445
  38.3427751 106.0427078  73.2144935  38.0313454 109.1061058  69.4279154
  37.1439309 109.3910709  69.2099349  38.4467443 108.9454821  68.5806431
  41.3827990 109.1307579  73.1433493  42.1588381 109.6204031  73.4158110
  40.6576125 109.5565633  73.6005363  43.8200549 109.8435198  74.2007434
  44.4145040 109.6030934  73.4900742  43.8927133 109.1242329  74.8280970
  38.0054478 114.6215594  69.6429444  37.9489679 115.0784145  68.8037077
  38.5582821 113.8606278  69.4652287  41.8159284 110.4105326  70.4679564
  41.5596218 110.0101961  71.2987771  41.1912152 111.1249120  70.3429703
  46.1271622 113.1501399  72.9750855  45.5671180 113.2194588  73.7482417
  45.5215125 112.9742384  72.2550351  38.7389257 115.8120375  66.9381973
  38.6838061 115.6464647  65.9970418  38.1135313 116.5196408  67.0944163
  23.5281772 111.0488440  80.7643396  24.1740636 110.5387393  81.2530621
  23.3198923 111.7857121  81.3386821  32.0485383 105.3128484  66.5167292
  32.0364053 106.2570324  66.6735563  32.9408805 105.1298630  66.2226753
  35.8637502 101.9071261  70.7713229  35.0969898 101.3529747  70.9169911
  36.2748207 101.9793130  71.6327380  27.8679263 108.1956057  84.8618410
  28.7310725 107.8392861  85.0721734  27.2944674 107.8569951  85.5493814
  47.2885888 119.0475755  77.7232920  46.9450157 119.9377397  77.6472030
  47.6564851 118.8577413  76.8602505  49.0873554 118.3069314  72.8250657
  49.3932431 117.4466678  72.5376572  49.8126159 118.8986935  72.6249651
  46.7927726 118.1067641  74.2479640  47.0729479 117.4390830  74.8740066
  47.5778332 118.2996736  73.7354303  50.9529877 120.2843453  73.1147610
  50.7554698 119.9758541  73.9990942  51.5629583 121.0105092  73.2445540
  46.7031257 117.2363178  70.7713229  45.9363653 116.6821665  70.9169911
  47.1141962 117.3085047  71.6327380   4.3526025  31.0134325  60.2424613
   3.5989734  30.4441723  60.0868618   4.4873566  30.9796990  61.1895248
   0.7174638  32.4542314  60.5390728   1.5521529  32.8932118  60.7028288
   0.8533767  31.9780967  59.7198974   4.7632440  31.1709935  62.9744858
   5.4935829  30.9095223  63.5352561   4.1539386  30.4338657  63.0146926
   2.8447737  29.3117798  63.5719309   2.1180901  29.1773763  62.9635801
   2.4295024  29.6194626  64.3776027   0.4625532  25.5329650  60.9252741
   1.0570023  25.2925386  60.2146049   0.5352116  24.8136781  61.5526277
   2.7696605  28.8395851  59.6996162   2.2096163  28.9089040  60.4727724
   2.1640109  28.6636836  58.9795658   4.3552624  45.5152365  62.3926117
   4.9931034  45.3959112  61.6889458   4.2373466  46.4633209  62.4514070
   1.1642330  45.4679793  62.3287642   0.8260841  45.3520858  61.4408177
   2.0332098  45.0670958  62.3088648   1.6462113  46.6214645  68.2873848
   1.6350754  46.2267443  67.4154351   1.8082752  45.8880717  68.8807619
   2.6028704  50.9886237  53.6298998   1.9516684  51.5740317  53.2433012
   3.3973067  51.5192432  53.6894036   3.9093892  43.2403819  59.4679326
   4.6956981  42.8223242  59.1169743   4.1732596  44.1449911  59.6360974
   4.0803969  48.6776669  54.1667982   3.4449802  48.7511295  54.8788887
   3.7501376  49.2670268  53.4887062   9.3102319  43.1779052  60.3712304
  10.0427491  42.6078269  60.6050134   8.5541675  42.7900652  60.8118810
   0.9278439  45.6006293  57.5675646   0.5636646  45.0736914  58.2788568
   1.7845555  45.2104762  57.3942132   6.8327740  36.8900626  64.8306913
   6.5011064  37.7596037  64.6068128   6.2373353  36.5736910  65.5100943
   3.3259259  49.0913172  64.2302825   3.0259982  49.9938211  64.1218633
   2.9810319  48.8245355  65.0823978   6.7256403  41.6095712  61.9100263
   5.8173280  41.5411121  61.6159024   6.6743999  42.0867657  62.7382088
   8.5918049  39.8112151  63.6878137   7.9492430  40.1044684  63.0417931
   8.0872978  39.6965071  64.4931333   6.2458213  43.5575324  54.3763996
   7.1576069  43.7902710  54.2011693   5.7367860  44.1412368  53.8139074
   4.5298981  47.9799952  68.0125288   4.9382337  47.5382362  67.2679921
   3.8076242  47.4052579  68.2659481   0.8830051  42.9172558  65.3858845
   1.7291246  43.3411972  65.5293494   0.8228688  42.2606183  66.0797409
   4.8527795  48.5401142  61.7677577   4.2236658  48.7046856  61.0653645
   4.4653457  48.9542752  62.5388541   8.7317027  49.4755580  59.1221941
   8.0468065  49.8554481  58.5718974   8.8160876  50.0850907  59.8553889
   4.0329496  40.5776927  67.0440019   3.7890428  41.3318987  66.5074295
   4.3089426  40.9562274  67.8787266   5.9867959  47.1215539  65.7217285
   6.1984854  47.7647299  65.0451666   5.9397707  46.2877856  65.2539215
   3.5894188  39.7333360  62.6253857   2.7278667  40.0314613  62.9170594
   3.6156622  39.9503759  61.6934889   7.1013787  49.9987494  63.8939642
   7.9231230  49.5967682  63.6122324   7.0976190  49.8955729  64.8455758
  15.1919780  46.3426243  60.2424613  14.4383488  45.7733641  60.0868618
  15.3267321  46.3088907  61.1895248   0.5818408  51.2139645  55.9179333
   0.4464083  52.0591181  56.3464181   1.1228220  51.4158923  55.1545267
   2.2086884  51.8363212  70.0479675   1.7650738  51.0499590  69.7300579
   2.8704098  52.0242362  69.3823566   4.3068122  52.1166012  68.0761076
   4.2886598  52.9374893  67.5841345   5.2288042  51.9920087  68.3011217
   3.9310871  34.7370207  64.4478226   3.5875141  35.6271849  64.3717337
   4.2989834  34.5471865  63.5847811   3.8961154  44.7278818  52.9550661
   3.3807778  45.4983423  53.1939049   3.6238463  44.0543954  53.5783723
   1.4808265  39.5728519  58.0135900   0.6249861  39.1835369  57.8341538
   1.8935217  39.6520480  57.1535685   3.0107412  37.1074862  62.4127460
   2.5072207  37.0704997  61.5995265   3.3038019  38.0167605  62.4724116
   8.8695428  47.4811173  54.8903835   8.0924871  47.1422332  54.4458997
   9.5486909  47.4863796  54.2158800   3.6847457  42.6005910  54.7810443
   3.3797593  42.9152060  55.6320586   4.6377899  42.6787330  54.8237776
   2.1293889  48.7596134  56.4303397   1.6015251  48.0248893  56.1176634
   1.6281392  49.5370810  56.1843365   7.1086735  46.9545154  61.5470443
   6.4510410  47.6444416  61.6350571   7.9127134  47.3441586  61.8904429
   5.9192194  45.3089527  59.5974385   6.4324076  45.9419519  60.0996094
   6.5693418  44.7090722  59.2317745   3.1814568  55.2873851  52.3535056
   2.5076267  55.5905548  52.9620014   3.5680390  56.0902931  52.0040513
   2.3973025  42.7838982  61.8432725   1.4795586  43.0053929  61.6854413
   2.8133168  42.8585293  60.9844432   3.1808073  44.1830398  56.9735405
   3.9279891  44.6951795  56.6642527   3.4499662  43.8614451  57.8339799
   1.4534723  46.6788939  53.9562360   0.5445942  46.3947972  54.0534829
   1.4829807  47.0988017  53.0965667   6.6853990  50.2895528  57.7253527
   6.2316317  49.4486438  57.7818718   6.0547957  50.9256927  58.0628307
   5.6286910  41.2187514  58.9554195   4.8909667  40.7064901  59.2864437
   5.8813683  40.7787896  58.1437472   5.1286929  52.1272025  58.6603345
   5.4209904  52.6877082  57.9415711   5.6385550  52.4200586  59.4156504
   5.7298537  33.9963766  59.5495964   6.0357414  33.1361130  59.2621879
   6.4551142  34.5881387  59.3494958   1.1510811  48.2197682  51.2950438
   0.7130240  47.5033541  50.8356076   1.8921251  48.4473797  50.7335530
   3.5386188  43.3736444  66.6477428   3.8935576  43.6007917  67.5071894
   4.1858320  43.7054820  66.0254683   9.2683925  46.4954880  57.3526757
   9.1301824  46.6856475  56.4247946   8.9120144  47.2574262  57.8094808
   9.2953305  48.5631407  62.3638028   9.7289812  48.4706696  63.2121082
  10.0084886  48.5388907  61.7258044   3.0281200  52.1633501  63.8971129
   3.0818222  52.7324437  64.6648845   2.1595981  52.3335386  63.5325166
  10.1568854  48.6055107  64.8970914  10.3504745  49.5100918  65.1430189
  10.0569473  48.1462526  65.7309499   1.8105165  38.4912998  67.3961241
   1.1633080  39.1902947  67.3025717   2.5806181  38.9249142  67.7637489
   5.2183963  48.7561850  70.4711794   5.0669470  48.5272402  69.5541878
   5.2088643  49.7132451  70.4843139   1.9869300  46.3293763  65.4558061
   2.9161360  46.4804922  65.2827028   1.5660330  46.4177783  64.6006707
   1.3805783  55.4553524  54.5682135   1.5557539  54.9841567  55.3827758
   0.6938571  56.0819290  54.7963396   2.3362846  49.7326030  60.6145436
   2.0012679  49.6926800  61.5103086   1.8366792  49.0670746  60.1415846
   5.2722038  47.0782064  50.8882496   4.6551209  46.3528892  50.7915548
   4.8038527  47.8391424  50.5449570   6.9276170  51.7880972  68.5488276
   6.8688716  51.1040193  67.8818859   7.3295688  52.5299962  68.0968902
   6.9293577  49.7520556  66.7802256   6.0420356  49.4146478  66.9028655
   7.4992128  49.0203588  67.0171021   3.5581160  39.4588408  59.9000526
   4.0549860  38.7058371  59.5801596   2.7868142  39.4952725  59.3343735
  11.4110918  45.1628774  61.5418817  11.4000794  46.0453489  61.1712751
  10.5428297  44.8100325  61.3473355   2.9193414  54.3108843  65.9021658
   3.6321386  54.9456308  65.8297559   2.4283443  54.4072709  65.0861660
   4.6410941  48.2160095  57.4738949   3.7067220  48.3361558  57.3043654
   4.8187609  47.3132562  57.2098959   8.0283492  44.0577415  58.0088984
   8.4943944  44.8905406  57.9349286   8.4790993  43.5922396  58.7134242
   6.0959723  50.4021236  55.0075136   6.3719567  50.2877831  55.9169010
   5.2264222  50.0038721  54.9687309   6.0000155  36.4258002  62.0479885
   5.0863235  36.6562229  62.2162092   6.4293256  36.5096446  62.8993917
   5.7706613  44.6147894  64.5479779   5.1178064  44.8623801  63.8932232
   6.1486993  43.8012032  64.2142256   2.7313787  54.6507587  58.6507949
   2.9136182  53.8329243  59.1135702   3.5546773  54.8675279  58.2132839
   3.0655953  53.5775772  55.9122998   3.5943719  53.0668227  55.2993160
   3.3284172  53.2618302  56.7768531   1.8194187  45.3567705  71.0345816
   1.1434824  45.2561834  71.7048191   2.6421820  45.2006918  71.4981813
   0.5616969  56.6634632  65.2703432   1.1135277  56.8266254  66.0352517
   0.9023163  57.2539070  64.5983457   5.4127844  51.4895890  71.1252086
   5.9567748  52.1025848  70.6307041   4.8314689  52.0475468  71.6419099
   3.6985357  54.6116608  62.2567114   3.5736496  53.8106348  61.7478060
   4.3564448  55.1062801  61.7681084   5.7620265  52.4125628  63.8846664
   4.8150601  52.2930979  63.8124991   6.1103038  51.5248126  63.9672926
   2.7666698  52.2078344  60.0851016   2.6191661  51.2795051  60.2658586
   3.5920192  52.2298435  59.6008092   6.3700820  53.0306903  61.1715889
   7.2947368  52.8249764  61.0340340   6.2016124  52.7823304  62.0805231
   2.7628213  40.0616182  55.0783134   2.9791827  40.9440820  54.7771962
   2.2822280  39.6702395  54.3488776   1.2149948  40.4441783  63.7487895
   0.9567725  41.3658854  63.7472226   0.6834988  40.0472218  64.4388359
   6.1596136  53.5492570  56.5277981   6.3333014  52.9838993  55.7751833
   6.6525028  54.3493465  56.3457471   1.6351903  36.5773734  60.1089058
   1.6573600  36.6413067  59.1541037   2.0519962  35.7378242  60.3029564
  12.0135528  46.3128993  58.1468280  12.4566674  45.5636318  57.7487404
  11.1362038  46.3039130  57.7642012   7.1471309  52.8659335  53.6274879
   7.8422214  53.4866027  53.8462194   7.4894459  52.0154686  53.9027257
   9.0462732  50.3159040  55.1562210   9.5714056  50.6546313  54.4311530
   8.9585085  49.3806055  54.9725344   0.7082781  54.2293114  67.2852086
   1.0169907  53.9842261  68.1574786   1.5058263  54.4339752  66.7970957
   8.7356638  50.9491944  70.4613408   7.9452182  50.9316083  69.9217907
   8.4989993  51.4880237  71.2162444   8.8554513  47.7984410  67.7746136
   8.9052518  47.6334418  68.7161659   8.7468436  46.9311669  67.3844017
   6.1458276  43.7815338  69.0905443   7.0468138  43.6421803  68.7989441
   6.2206250  43.9469793  70.0303620  10.3572710  50.2181352  68.0188158
  10.0657518  50.5811332  68.8551619   9.7444841  49.5048360  67.8401490
  11.5568392  47.7834231  60.5390728  12.3915284  48.2224036  60.7028288
  11.6927521  47.3072885  59.7198974   8.6059898  45.3413966  66.4868216
   9.0814020  45.5341613  65.6787067   7.6825464  45.3973152  66.2411599
   3.1840115  37.3761810  65.4524050   3.7022059  38.1122837  65.1270538
   2.8295247  37.6825803  66.2870809   3.4352709  33.7962092  60.9724946
   3.7154463  33.1285281  61.5985373   4.2203316  33.9891188  60.4599610
   1.2386177  52.9721086  52.5349973   0.6660144  53.5911273  52.0820444
   1.8118971  53.5220448  53.0689894   7.3061567  42.2179726  64.7196521
   8.2578990  42.3177824  64.7408745   7.1365018  41.4257995  65.2294606
   5.3275947  39.3035310  64.9055922   4.7325879  39.5840322  64.2102411
   5.0425643  39.7929211  65.6772663   4.4583437  53.2558236  53.6658555
   5.3914110  53.1903798  53.8691430   4.3706650  54.0914503  53.2073087
   7.0871454  52.5724107  50.6262502   7.0085085  52.2383970  51.5198260
   7.9081121  53.0645875  50.6253975   9.7849645  45.4385846  63.8338821
   9.7525965  44.5001847  64.0198505  10.3950269  45.5169883  63.1004646
   1.6232976  44.3081899  49.8766025   2.5692081  44.1788107  49.9454443
   1.2447221  43.5696561  50.3535453   9.9344133  42.2296890  63.8797104
   9.4183182  41.4455346  63.6927033  10.8184082  41.9015606  64.0443624
   7.5954860  35.9737905  59.8392917   7.3979682  35.6652993  60.7236249
   8.2054566  36.6999544  59.9690847  15.6026195  46.5001853  62.9744858
  16.3329583  46.2387141  63.5352561  14.9933140  45.7630575  63.0146926
  13.6841492  44.6409716  63.5719309  12.9574656  44.5065680  62.9635801
  13.2688779  44.9486544  64.3776027   1.5071668  48.3599645  71.3366682
   2.4274678  48.5378244  71.5306729   1.4721251  47.4155691  71.1846381
   1.4237959  36.7768765  55.9665152   0.6138687  36.4315850  56.3420398
   2.1122376  36.4676309  56.5552763   3.3528507  35.8546812  57.5889448
   3.9059546  36.2742265  58.2479471   3.5898593  34.9282560  57.6312404
   6.7307314  37.9647337  57.0968112   6.1505983  38.6232141  56.7146165
   6.4643247  37.1424682  56.6855530   5.1810880  37.3652395  59.2989433
   5.6810659  37.4768929  58.4903752   5.8246488  37.0613448  59.9390241
   5.5132192  40.1247428  56.1524461   4.6258047  40.4097078  55.9344655
   5.9286181  39.9641191  55.3051738   8.8646728  40.1493948  59.8678800
   9.6407118  40.6390401  60.1403417   8.1394862  40.5752003  60.3250669
  11.3019287  40.8621568  60.9252741  11.8963778  40.6217304  60.2146049
  11.3745871  40.1428698  61.5526277   4.6575406  49.8892102  50.2472481
   5.3611256  50.0942105  50.8630136   3.9338054  50.4568864  50.5121564
   5.4873216  45.6401963  56.3674751   5.4308417  46.0970515  55.5282383
   6.0401558  44.8792648  56.1897594   9.2978022  41.4291695  57.1924870
   9.0414956  41.0288331  58.0233078   8.6730890  42.1435489  57.0675010
  13.6090360  44.1687769  59.6996162  13.0489918  44.2380958  60.4727724
  13.0033863  43.9928753  58.9795658   6.5662103  50.3274631  52.2970941
   7.4007707  49.8955830  52.1148416   6.4046446  50.1556645  53.2247835
   6.2207995  46.8306745  53.6627280   6.1656799  46.6651016  52.7215724
   5.5954050  47.5382778  53.8189470   3.5353902  49.1355657  72.9880843
   4.4045062  49.3096309  72.6267478   3.0560654  49.9550073  72.8656572
   3.3456240  32.9257630  57.4958535   2.5788636  32.3716117  57.6415218
   3.7566945  32.9979499  58.3572687  15.1946378  60.8444282  62.3926117
  15.8324788  60.7251030  61.6889458  15.0767221  61.7925126  62.4514070
  12.0036084  60.7971711  62.3287642  11.6654596  60.6812775  61.4408177
  12.8725853  60.3962876  62.3088648   7.8622900  62.6507187  58.3184533
   7.2987765  62.5597124  57.5500821   7.7475295  61.8307091  58.7987026
  12.4855867  61.9506562  68.2873848  12.4744508  61.5559361  67.4154351
  12.6476507  61.2172635  68.8807619   5.4087332  64.1458379  61.1568754
   6.2008624  63.8049203  60.7415053   5.6483982  64.2553354  62.0770907
  13.4422459  66.3178155  53.6298998  12.7910439  66.9032235  53.2433012
  14.2366822  66.8484350  53.6894036   7.3678086  63.4067292  54.0286132
   8.1408962  62.8596279  53.8899008   7.7203485  64.2711541  54.2400594
   9.2063128  64.7343674  67.2353032   8.9152994  65.6389305  67.1199698
   9.8420113  64.7760202  67.9497101  10.1319335  62.1120523  63.8254391
  10.7282908  61.8876545  63.1111354  10.1894307  61.3705268  64.4279839
   9.7044364  59.5659958  51.6604582   9.9569884  59.0441479  50.8988045
   8.7668923  59.4026103  51.7631266  14.7487647  58.5695736  59.4679326
  15.5350736  58.1515160  59.1169743  15.0126351  59.4741829  59.6360974
  14.9197724  64.0068587  54.1667982  14.2843557  64.0803213  54.8788887
  14.5895130  64.5962185  53.4887062  20.1496074  58.5070970  60.3712304
  20.8821246  57.9370186  60.6050134  19.3935429  58.1192570  60.8118810
   9.4240652  61.4688064  53.8628957   9.3076911  60.7932967  54.5310042
   9.5342912  60.9820438  53.0461110  11.7672193  60.9298211  57.5675646
  11.4030401  60.4028832  58.2788568  12.6239309  60.5396680  57.3942132
  17.6721494  52.2192544  64.8306913  17.3404819  53.0887955  64.6068128
  17.0767107  51.9028828  65.5100943  11.4077680  55.9588111  52.5636995
  11.5752083  56.8268347  52.9307466  11.2174849  56.1215392  51.6398284
  14.1653014  64.4205090  64.2302825  13.8653737  65.3230128  64.1218633
  13.8204073  64.1537273  65.0823978   7.6165495  60.8718886  60.2639530
   6.6915992  60.7395101  60.4717222   7.8649908  61.6513106  60.7609472
  17.5650157  56.9387630  61.9100263  16.6567035  56.8703038  61.6159024
  17.5137753  57.4159575  62.7382088  11.3866901  58.4145768  53.5483662
  11.2666526  58.8602819  54.3869142  10.6919490  58.7631086  52.9897200
   4.9774306  60.5152160  61.0983319   5.1066687  60.7686639  62.0122731
   4.2971757  61.1079868  60.7787974   9.1473793  71.1849410  57.1973793
   9.0697823  72.1357235  57.2762274   8.5435437  70.8395282  57.8548719
  11.6391023  58.3577275  69.8535160  10.8624357  58.9171196  69.8438025
  12.2781586  58.8434058  70.3750030  19.4311804  55.1404068  63.6878137
  18.7886184  55.4336601  63.0417931  18.9266732  55.0256989  64.4931333
  17.0851967  58.8867241  54.3763996  17.9969824  59.1194628  54.2011693
  16.5761615  59.4704286  53.8139074   9.8937395  61.1662729  69.4153127
  10.6352080  61.7047773  69.1387951   9.1874381  61.7929018  69.5724679
  15.3692735  63.3091869  68.0125288  15.7776091  62.8674280  67.2679921
  14.6469997  62.7344497  68.2659481  11.7223805  58.2464476  65.3858845
  12.5685000  58.6703890  65.5293494  11.6622443  57.5898100  66.0797409
  15.6921550  63.8693060  61.7677577  15.0630412  64.0338774  61.0653645
  15.3047212  64.2834669  62.5388541  19.5710782  64.8047498  59.1221941
  18.8861820  65.1846399  58.5718974  19.6554631  65.4142824  59.8553889
  14.8723250  55.9068844  67.0440019  14.6284182  56.6610905  66.5074295
  15.1483181  56.2854192  67.8787266  16.8261713  62.4507457  65.7217285
  17.0378608  63.0939217  65.0451666  16.7791461  61.6169773  65.2539215
  14.4287942  55.0625277  62.6253857  13.5672421  55.3606531  62.9170594
  14.4550377  55.2795676  61.6934889  11.2449512  63.6067468  59.0327662
  11.7087857  63.8855171  58.2432285  10.9806310  62.7050913  58.8500753
   8.1373593  63.1538949  61.9707426   8.7074950  63.5826218  61.3324910
   8.7281705  62.8721534  62.6691611  10.1818398  59.7290620  55.8417228
  10.8842441  60.1811664  56.3091154   9.8499026  59.0874439  56.4697121
   8.6298759  58.3202377  70.2168437   7.9997420  59.0018658  70.4503834
   8.5234847  58.2085459  69.2721575   3.9243732  57.9874173  61.1434361
   3.1342786  58.2431702  60.6674472   4.4154979  58.8022511  61.2486402
  17.9407541  65.3279412  63.8939642  18.7624985  64.9259599  63.6122324
  17.9369944  65.2247646  64.8455758   5.8758477  58.3518752  58.1017838
   5.0789640  58.4637446  58.6201334   5.6484069  58.6905404  57.2358728
  11.7064145  64.8763455  66.0500352  11.7708577  65.3383863  66.8858524
  10.9975069  64.2460820  66.1782662   2.2081435  58.2404663  63.5749352
   2.4589473  59.1251673  63.8406928   2.7440983  58.0609265  62.8024444
  26.0313534  61.6718161  60.2424613  25.2777243  61.1025559  60.0868618
  26.1661075  61.6380825  61.1895248  11.4212162  66.5431563  55.9179333
  11.2857837  67.3883099  56.3464181  11.9621975  66.7450841  55.1545267
   7.9079502  52.6223143  72.5793688   7.5146447  52.0689341  73.2541332
   8.7245642  52.9333721  72.9700206   4.8741560  64.0607001  56.4907258
   5.3866080  64.8550251  56.6412823   5.5264273  63.3633291  56.4240859
   6.6836444  67.1772757  58.5730011   6.8603073  68.0990722  58.3850995
   7.4793278  66.8631176  59.0024391  10.8247463  54.0381022  70.1713945
  11.5657176  54.6388175  70.0918407  11.0565386  53.2958660  69.6131987
   5.9688801  59.2237389  68.4492174   5.8542316  58.3222646  68.7499273
   5.1133319  59.4701086  68.0976991  13.0480639  67.1655129  70.0479675
  12.6044493  66.3791508  69.7300579  13.7097852  67.3534280  69.3823566
   7.8067760  68.6950931  64.5740353   8.3575185  68.5667994  63.8017347
   6.9679236  68.9945820  64.2235246  15.1461877  67.4457929  68.0761076
  15.1280352  68.2666810  67.5841345  16.0681797  67.3212005  68.3011217
  11.6034931  64.9602059  68.9184585  12.1363268  64.1990347  68.6883892
  11.0749012  64.6675711  69.6608739  14.7704626  50.0662125  64.4478226
  14.4268895  50.9563767  64.3717337  15.1383588  49.8763782  63.5847811
   2.8390476  62.3895655  57.2666828   3.6765698  62.7992664  57.0500536
   3.0168744  61.4495097  57.2367022  14.7354909  60.0570736  52.9550661
  14.2201532  60.8275341  53.1939049  14.4632217  59.3835872  53.5783723
  12.3202020  54.9020437  58.0135900  11.4643616  54.5127287  57.8341538
  12.7328971  54.9812398  57.1535685  13.8501166  52.4366780  62.4127460
  13.3465962  52.3996915  61.5995265  14.1431773  53.3459523  62.4724116
  10.0944052  52.5205510  61.4193641  10.9597049  52.3248318  61.0599531
  10.1621561  52.2915861  62.3462998  19.7089183  62.8103091  54.8903835
  18.9318625  62.4714250  54.4458997  20.3880664  62.8155714  54.2158800
  14.5241212  57.9297828  54.7810443  14.2191347  58.2443977  55.6320586
  15.4771654  58.0079248  54.8237776  12.9687644  64.0888051  56.4303397
  12.4409005  63.3540811  56.1176634  12.4675146  64.8662728  56.1843365
  17.9480490  62.2837072  61.5470443  17.2904164  62.9736333  61.6350571
  18.7520889  62.6733504  61.8904429   7.7006371  54.7507718  58.7910008
   8.2750123  54.5282899  58.0583201   8.2877354  54.8196412  59.5438609
  16.7585948  60.6381445  59.5974385  17.2717830  61.2711436  60.0996094
  17.4087172  60.0382640  59.2317745   8.0275958  56.7812179  52.8105893
   7.1913271  57.1186865  53.1315168   7.8880728  56.6461158  51.8733030
  10.0029039  51.6248967  57.5185077   9.3493451  51.3097984  56.8941692
   9.9609513  51.0024707  58.2444900  11.1140244  61.9068262  49.4338370
  10.2067306  61.6757515  49.6329519  11.6111276  61.1105881  49.6212351
  14.0208323  70.6165769  52.3535056  13.3470021  70.9197466  52.9620014
  14.4074145  71.4194849  52.0040513  13.2366779  58.1130900  61.8432725
  12.3189341  58.3345847  61.6854413  13.6526923  58.1877211  60.9844432
  14.0201827  59.5122316  56.9735405  14.7673646  60.0243713  56.6642527
  14.2893417  59.1906368  57.8339799  12.2928477  62.0080856  53.9562360
  11.3839696  61.7239889  54.0534829  12.3223561  62.4279935  53.0965667
  17.5247745  65.6187446  57.7253527  17.0710072  64.7778356  57.7818718
  16.8941711  66.2548844  58.0628307  16.4680664  56.5479432  58.9554195
  15.7303421  56.0356818  59.2864437  16.7207438  56.1079814  58.1437472
  15.9680684  67.4563943  58.6603345  16.2603658  68.0169000  57.9415711
  16.4779304  67.7492504  59.4156504  16.5692292  49.3255684  59.5495964
  16.8751168  48.4653047  59.2621879  17.2944896  49.9173304  59.3494958
   2.8616648  59.7286371  57.9377562   2.6641047  59.1355731  57.2128628
   2.3063312  59.4238581  58.6553501  10.8413371  59.6209477  60.0572155
  10.8961981  58.6683313  59.9814632  10.0304573  59.7768916  60.5413453
  11.9904565  63.5489600  51.2950438  11.5523995  62.8325459  50.8356076
  12.7315006  63.7765715  50.7335530   8.7805731  58.2386537  57.8162534
   7.9673597  58.5380707  58.2227726   9.2764725  57.8442226  58.5337016
  10.9314309  68.2344294  59.7496799  10.8890488  68.4605140  58.8205331
  11.8477008  68.0007668  59.8982600  14.3779943  58.7028361  66.6477428
  14.7329331  58.9299834  67.5071894  15.0252074  59.0346738  66.0254683
  20.1077680  61.8246797  57.3526757  19.9695578  62.0148393  56.4247946
  19.7513899  62.5866180  57.8094808   8.2719806  55.8104892  63.4323769
   8.9119185  55.6693651  62.7346732   7.4397336  55.5239406  63.0562371
  20.1347059  63.8923324  62.3638028  20.5683566  63.7998613  63.2121082
  20.8478640  63.8680825  61.7258044   9.0480110  65.1107323  59.5458761
   9.8420708  64.6157643  59.3441336   8.3371802  64.5825186  59.1826467
  13.8674954  67.4925418  63.8971129  13.9211977  68.0616355  64.6648845
  12.9989736  67.6627303  63.5325166   5.3562873  59.2550405  55.6218514
   4.4260461  59.1934860  55.8388476   5.4520345  58.7326357  54.8255155
   5.2748422  55.7805217  58.2096756   5.5355240  56.6950551  58.1005916
   6.0965595  55.3129660  58.3593368   6.7473348  57.1942975  65.3795580
   7.4196401  56.9860337  64.7308229   5.9203134  56.9965061  64.9400812
  20.9962609  63.9347025  64.8970914  21.1898499  64.8392835  65.1430189
  20.8963227  63.4754444  65.7309499  12.6498920  53.8204915  67.3961241
  12.0026835  54.5194865  67.3025717  13.4199935  54.2541059  67.7637489
  16.0577718  64.0853768  70.4711794  15.9063224  63.8564319  69.5541878
  16.0482397  65.0424369  70.4843139  12.8263054  61.6585680  65.4558061
  13.7555114  61.8096840  65.2827028  12.4054084  61.7469701  64.6006707
  11.6251386  65.6836345  63.2256598  11.4862472  65.3155129  64.0982536
  10.8365982  66.1983984  63.0540556  12.2199538  70.7845441  54.5682135
  12.3951293  70.3133484  55.3827758  11.5332326  71.4111207  54.7963396
  13.1756601  65.0617947  60.6145436  12.8406434  65.0218717  61.5103086
  12.6760547  64.3962663  60.1415846   7.1500845  60.4685577  66.1398017
   7.0120643  59.7365816  66.7409556   8.0605768  60.3794478  65.8582205
  16.1115793  62.4073982  50.8882496  15.4944963  61.6820810  50.7915548
  15.6432281  63.1683342  50.5449570   9.7783146  60.1805537  65.6281697
  10.4882764  59.5398729  65.5868315   9.7352454  60.4318432  66.5507878
  17.7669924  67.1172890  68.5488276  17.7082470  66.4332110  67.8818859
  18.1689443  67.8591880  68.0968902   8.4912080  57.1670755  67.4477336
   7.9549437  56.7161493  68.0998933   7.9028788  57.3016664  66.7047801
   6.7860623  73.9334804  61.3421995   7.0257221  74.5653328  62.0201014
   5.9429820  73.5822844  61.6287354   7.9014339  56.6259406  50.0103800
   7.0243805  56.5048207  49.6466047   8.3772092  55.8345484  49.7582689
  17.7687332  65.0812474  66.7802256  16.8814110  64.7438396  66.9028655
  18.3385883  64.3495505  67.0171021   4.2251201  56.3026762  64.5330331
   4.1409390  55.6952432  63.7980741   3.4033907  56.7935781  64.5339827
  11.2988485  69.7413926  63.7463499  11.2258656  70.5468898  64.2582804
  10.8565878  69.9405892  62.9211520  11.0878265  68.9785696  57.2566321
  10.3045786  69.5207377  57.3504545  11.7871010  69.4959676  57.6560562
  14.3974915  54.7880326  59.9000526  14.8943614  54.0350288  59.5801596
  13.6261896  54.8244643  59.3343735  22.2504672  60.4920691  61.5418817
  22.2394548  61.3745407  61.1712751  21.3822052  60.1392242  61.3473355
  13.7587168  69.6400760  65.9021658  14.4715141  70.2748225  65.8297559
  13.2677197  69.7364626  65.0861660  15.4804695  63.5452013  57.4738949
  14.5460974  63.6653476  57.3043654  15.6581364  62.6424480  57.2098959
  10.9809883  56.9297709  59.6272211  10.6107671  56.3768749  60.3153116
  11.4768976  56.3255842  59.0747211  18.8677247  59.3869332  58.0088984
  19.3337699  60.2197324  57.9349286  19.3184747  58.9214314  58.7134242
   8.8099082  67.3895204  66.7227229   9.5108542  68.0231687  66.8756623
   8.3394197  67.7309935  65.9622868  16.9353478  65.7313154  55.0075136
  17.2113322  65.6169748  55.9169010  16.0657977  65.3330639  54.9687309
  16.8393909  51.7549919  62.0479885  15.9256989  51.9854146  62.2162092
  17.2687011  51.8388363  62.8993917  16.6100368  59.9439811  64.5479779
  15.9571818  60.1915719  63.8932232  16.9880748  59.1303950  64.2142256
  13.5707542  69.9799505  58.6507949  13.7529936  69.1621160  59.1135702
  14.3940528  70.1967197  58.2132839  13.9049707  68.9067690  55.9122998
  14.4337474  68.3960144  55.2993160  14.1677927  68.5910220  56.7768531
  12.6587941  60.6859622  71.0345816  11.9828578  60.5853752  71.7048191
  13.4815575  60.5298836  71.4981813   4.4066800  66.9231559  63.6558331
   4.9920237  66.1775247  63.7886235   4.2091639  67.2335516  64.5394995
   7.2605455  69.9582806  58.6720774   6.5915831  70.4428934  58.1884814
   7.1218325  70.2052027  59.5864152  11.4010724  71.9926550  65.2703432
  11.9529032  72.1558171  66.0352517  11.7416917  72.5830988  64.5983457
   6.3775217  54.3401700  65.8725317   6.4416544  55.2016531  65.4602714
   6.3142337  53.7275701  65.1397675   5.8527490  56.4124832  69.5198351
   6.4799528  56.0301910  70.1335875   4.9955408  56.1939034  69.8854043
  16.2521598  66.8187807  71.1252086  16.7961502  67.4317766  70.6307041
  15.6708443  67.3767386  71.6419099   2.6293032  58.2201261  55.4516706
   2.9246473  57.3111940  55.3983759   1.7281068  58.1989001  55.1297708
  14.5379111  69.9408525  62.2567114  14.4130251  69.1398265  61.7478060
  15.1958202  70.4354719  61.7681084   6.1587279  56.2957258  61.4344254
   5.4373865  56.9093226  61.2951728   6.9480535  56.8315023  61.3560900
  16.6014020  67.7417545  63.8846664  15.6544355  67.6222897  63.8124991
  16.9496793  66.8540044  63.9672926   8.9613593  53.6311684  67.7084906
   9.4847995  53.8773981  68.4711215   8.7425926  54.4631719  67.2888043
   4.3580874  55.9015359  55.5756031   4.0293580  55.0212738  55.3931137
   4.7120245  55.8463028  56.4632420  13.6060453  67.5370262  60.0851016
  13.4585415  66.6086969  60.2658586  14.4313946  67.5590352  59.6008092
   7.4722697  56.1888329  55.9431509   7.8118770  56.7174250  55.2210117
   7.9194818  56.5268735  56.7190075  17.2094575  68.3598820  61.1715889
  18.1341122  68.1541682  61.0340340  17.0409878  68.1115222  62.0805231
  10.1666138  54.5725380  65.3934577   9.8262958  53.7733193  65.7955257
   9.4605144  54.8727090  64.8211410  10.8182610  51.6574692  63.8461900
  11.6408679  51.1835170  63.7240790  11.0620673  52.4365176  64.3460586
   9.4590844  54.6862950  54.1424801  10.1799207  55.0644203  53.6388518
   8.8356148  55.4051827  54.2459779  13.6021967  55.3908099  55.0783134
  13.8185582  56.2732737  54.7771962  13.1216034  54.9994313  54.3488776
   8.3421189  58.3493813  61.6553878   8.1965769  58.6634116  62.5478160
   7.8646392  58.9678713  61.1024777  10.2017571  55.3396361  61.7034768
  10.1879140  54.4437454  61.3667066  10.9190000  55.3467024  62.3373054
  12.0543702  55.7733701  63.7487895  11.7961480  56.6950771  63.7472226
  11.5228743  55.3764135  64.4388359  16.9989891  68.8784488  56.5277981
  17.1726768  68.3130910  55.7751833  17.4918782  69.6785383  56.3457471
   2.8166851  60.8899157  64.5941539   2.2720319  61.6658965  64.7261814
   3.6946201  61.2369961  64.4360661   9.6054467  54.2210741  56.9722338
   9.7270379  53.2927387  57.1713225   9.3156510  54.2349427  56.0600653
  12.4745658  51.9065651  60.1089058  12.4967355  51.9704984  59.1541037
  12.8913717  51.0670160  60.3029564  22.8529282  61.6420911  58.1468280
  23.2960428  60.8928236  57.7487404  21.9755792  61.6331047  57.7642012
  17.9865063  68.1951252  53.6274879  18.6815968  68.8157945  53.8462194
  18.3288214  67.3446604  53.9027257   3.6032873  60.0169053  67.4871696
   2.8614609  60.1651689  68.0736327   3.2825617  60.2777319  66.6238446
  19.8856487  65.6450958  55.1562210  20.4107811  65.9838231  54.4311530
  19.7978839  64.7097973  54.9725344  11.5476535  69.5585031  67.2852086
  11.8563662  69.3134178  68.1574786  12.3452017  69.7631670  66.7970957
  11.5697147  71.7122941  59.5157463  11.1302138  71.2199320  60.2090320
  12.3205264  71.1695909  59.2749538   4.0489486  67.9034482  59.5182091
   4.8747506  67.6038254  59.1380734   3.6983538  67.1342104  59.9671880
   9.0171019  67.2560950  61.5879765   8.3951029  66.5931655  61.2881992
   9.6875886  67.2822082  60.9053412   2.2498091  65.8220808  60.4771025
   1.4130000  65.3942983  60.2955026   2.2221737  66.0153252  61.4141816
   9.0895547  55.7342738  71.1812271   9.1383702  56.6104861  70.7990040
   9.6318061  55.1920131  70.6083914  19.5750393  66.2783861  70.4613408
  18.7845936  66.2608000  69.9217907  19.3383747  66.8172155  71.2162444
  19.6948268  63.1276328  67.7746136  19.7446273  62.9626335  68.7161659
  19.5862191  62.2603587  67.3844017   8.5784526  65.8064874  55.0638225
   8.7272647  66.4900338  54.4104898   9.3850970  65.7869964  55.5787681
  16.9852030  59.1107256  69.0905443  17.8861893  58.9713721  68.7989441
  17.0600005  59.2761711  70.0303620  11.3194835  56.4874111  67.9358629
  10.4498145  56.7807677  67.6641218  11.5554316  57.0714556  68.6565893
  21.1966464  65.5473269  68.0188158  20.9051273  65.9103250  68.8551619
  20.5838596  64.8340278  67.8401490  22.3962147  63.1126149  60.5390728
  23.2309038  63.5515953  60.7028288  22.5321276  62.6364802  59.7198974
  19.4453653  60.6705884  66.4868216  19.9207774  60.8633530  65.6787067
  18.5219218  60.7265070  66.2411599   6.3337159  61.8330051  56.0699294
   6.0883201  60.9292381  56.2679504   6.5033074  61.8347202  55.1278772
  14.0233869  52.7053728  65.4524050  14.5415813  53.4414754  65.1270538
  13.6689002  53.0117721  66.2870809   5.6032807  57.5658409  53.5685455
   4.9102052  57.6402764  52.9125491   5.3584559  56.8018752  54.0906972
  14.2746463  49.1254010  60.9724946  14.5548217  48.4577199  61.5985373
  15.0597070  49.3183106  60.4599610  12.0779932  68.3013004  52.5349973
  11.5053899  68.9203191  52.0820444  12.6512726  68.8512366  53.0689894
  18.1455322  57.5471644  64.7196521  19.0972745  57.6469742  64.7408745
  17.9758772  56.7549913  65.2294606  16.1669701  54.6327227  64.9055922
  15.5719633  54.9132240  64.2102411  15.8819398  55.1221128  65.6772663
  15.2977192  68.5850154  53.6658555  16.2307865  68.5195716  53.8691430
  15.2100404  69.4206421  53.2073087  17.9265208  67.9016024  50.6262502
  17.8478840  67.5675888  51.5198260  18.7474875  68.3937792  50.6253975
  20.6243399  60.7677764  63.8338821  20.5919720  59.8293764  64.0198505
  21.2344023  60.8461800  63.1004646  12.4626730  59.6373817  49.8766025
  13.4085835  59.5080025  49.9454443  12.0840975  58.8988479  50.3535453
  20.7737888  57.5588807  63.8797104  20.2576937  56.7747264  63.6927033
  21.6577836  57.2307524  64.0443624  18.4348615  51.3029823  59.8392917
  18.2373436  50.9944911  60.7236249  19.0448320  52.0291462  59.9690847
  26.4419949  61.8293771  62.9744858  27.1723338  61.5679059  63.5352561
  25.8326895  61.0922493  63.0146926  24.5235246  59.9701633  63.5719309
  23.7968410  59.8357598  62.9635801  24.1082533  60.2778462  64.3776027
  12.3465423  63.6891563  71.3366682  13.2668432  63.8670162  71.5306729
  12.3115006  62.7447608  71.1846381  10.6469647  57.5623793  49.8120910
   9.7401103  57.2656906  49.8883624  10.9245628  57.2653611  48.9455196
   1.5647588  58.8830157  60.2619957   1.2450372  58.0295465  59.9694331
   1.0181016  59.0978735  61.0177924   5.3427495  61.5992598  63.9789463
   5.5613505  62.5309705  63.9977497   5.7553269  61.2400572  64.7644267
  12.2631713  52.1060683  55.9665152  11.4532442  51.7607768  56.3420398
  12.9516130  51.7968227  56.5552763  14.1922261  51.1838730  57.5889448
  14.7453300  51.6034183  58.2479471  14.4292348  50.2574478  57.6312404
  10.2155361  57.1725803  73.3692212  10.1152088  58.1220160  73.3004303
   9.9976903  56.8444042  72.4968282   9.4168432  54.4210728  49.9532889
  10.2787596  54.7465627  50.2128707   9.6018776  53.6342224  49.4405955
   1.4335848  62.5033068  62.2313078   0.7399319  62.0887021  61.7183033
   2.1808839  62.5453605  61.6346497  17.5701069  53.2939255  57.0968112
  16.9899738  53.9524059  56.7146165  17.3037001  52.4716599  56.6855530
  16.0204635  52.6944313  59.2989433  16.5204413  52.8060847  58.4903752
  16.6640243  52.3905365  59.9390241  10.0786631  60.6022942  72.1857274
   9.5953712  61.4023302  72.3921163  10.1647570  60.6130887  71.2324718
   3.3472590  62.4351322  60.1079093   3.3243279  62.5339009  59.1560976
   3.6573227  63.2816473  60.4296259   6.0059968  64.4927477  64.2225708
   6.9603222  64.4611419  64.1555639   5.8072492  64.0318101  65.0375933
   6.5959350  63.0628593  66.7896505   7.4152239  63.5572672  66.8131342
   6.8696158  62.1460561  66.7614073  16.3525947  55.4539345  56.1524461
  15.4651802  55.7388996  55.9344655  16.7679936  55.2933109  55.3051738
  19.7040483  55.4785866  59.8678800  20.4800873  55.9682319  60.1403417
  18.9788617  55.9043920  60.3250669  22.1413041  56.1913485  60.9252741
  22.7357532  55.9509221  60.2146049  22.2139625  55.4720616  61.5526277
   4.3610197  70.0347096  61.2395905   4.2264665  69.2747497  60.6733903
   3.9442259  70.7587996  60.7724694  15.4969160  65.2184020  50.2472481
  16.2005010  65.4234022  50.8630136  14.7731809  65.7860782  50.5121564
  16.3266970  60.9693881  56.3674751  16.2702172  61.4262433  55.5282383
  16.8795313  60.2084566  56.1897594  20.1371776  56.7583613  57.1924870
  19.8808710  56.3580249  58.0233078  19.5124644  57.4727407  57.0675010
  24.4484114  59.4979686  59.6996162  23.8883672  59.5672876  60.4727724
  23.8427617  59.3220671  58.9795658   7.5179323  70.9316413  61.4514348
   7.4011707  71.8761846  61.3493038   6.6971769  70.6289975  61.8400147
  17.4055857  65.6566549  52.2970941  18.2401461  65.2247748  52.1148416
  17.2440200  65.4848563  53.2247835  17.0601750  62.1598662  53.6627280
  17.0050553  61.9942934  52.7215724  16.4347805  62.8674695  53.8189470
   1.8494265  57.3966727  67.4888702   2.4953128  56.8865681  67.9775927
   1.6411416  58.1335408  68.0632128  14.3747657  64.4647574  72.9880843
  15.2438816  64.6388227  72.6267478  13.8954408  65.2841991  72.8656572
  10.3697875  51.6606771  53.2412598  10.3576545  52.6048611  53.3980869
  11.2621297  51.4776917  52.9472060   8.5433837  71.5844675  64.6670276
   9.4461084  71.6168286  64.9836771   8.3171207  70.6545126  64.6816612
  10.2987439  70.3375662  61.3280355   9.3483070  70.3377523  61.2144727
  10.6019925  69.5908396  60.8116390  14.1849995  48.2549548  57.4958535
  13.4182390  47.7008035  57.6415218  14.5960700  48.3271417  58.3572687
   6.1891756  54.5434344  71.5863716   7.0523217  54.1871149  71.7967041
   5.6157166  54.2048239  72.2739121  18.7016655  77.9799105  58.3184533
  18.1381520  77.8889042  57.5500821  18.5869050  77.1599009  58.7987026
  16.2481086  79.4750296  61.1568754  17.0402378  79.1341121  60.7415053
  16.4877737  79.5845271  62.0770907  24.2816213  81.6470072  53.6298998
  23.6304193  82.2324153  53.2433012  25.0760576  82.1776267  53.6894036
  18.2071840  78.7359210  54.0286132  18.9802716  78.1888197  53.8899008
  18.5597239  79.6003459  54.2400594  20.0456883  80.0635592  67.2353032
  19.7546749  80.9681223  67.1199698  20.6813867  80.1052119  67.9497101
  20.9713090  77.4412440  63.8254391  21.5676662  77.2168463  63.1111354
  21.0288061  76.6997186  64.4279839  20.5438118  74.8951876  51.6604582
  20.7963639  74.3733397  50.8988045  19.6062677  74.7318021  51.7631266
  25.7591478  79.3360504  54.1667982  25.1237311  79.4095131  54.8788887
  25.4288885  79.9254103  53.4887062  20.2634407  76.7979982  53.8628957
  20.1470665  76.1224885  54.5310042  20.3736667  76.3112356  53.0461110
  22.6065948  76.2590129  57.5675646  22.2424155  75.7320750  58.2788568
  23.4633064  75.8688598  57.3942132  22.2471435  71.2880028  52.5636995
  22.4145837  72.1560265  52.9307466  22.0568604  71.4507310  51.6398284
  25.0046768  79.7497007  64.2302825  24.7047491  80.6522046  64.1218633
  24.6597828  79.4829191  65.0823978  18.4559250  76.2010804  60.2639530
  17.5309746  76.0687018  60.4717222  18.7043663  76.9805023  60.7609472
  22.2260656  73.7437686  53.5483662  22.1060281  74.1894737  54.3869142
  21.5313244  74.0923004  52.9897200  15.8168061  75.8444078  61.0983319
  15.9460442  76.0978557  62.0122731  15.1365512  76.4371786  60.7787974
  19.9867548  86.5141328  57.1973793  19.9091578  87.4649153  57.2762274
  19.3829191  86.1687200  57.8548719  27.9245722  74.2159159  54.3763996
  28.8363578  74.4486546  54.2011693  27.4155369  74.7996203  53.8139074
  20.7331150  76.4954646  69.4153127  21.4745834  77.0339690  69.1387951
  20.0268135  77.1220935  69.5724679  26.5315304  79.1984978  61.7677577
  25.9024167  79.3630692  61.0653645  26.1440966  79.6126587  62.5388541
  30.4104536  80.1339415  59.1221941  29.7255574  80.5138317  58.5718974
  30.4948385  80.7434742  59.8553889  22.0843266  78.9359386  59.0327662
  22.5481612  79.2147089  58.2432285  21.8200064  78.0342830  58.8500753
  18.9767347  78.4830867  61.9707426  19.5468704  78.9118136  61.3324910
  19.5675459  78.2013452  62.6691611  21.0212152  75.0582538  55.8417228
  21.7236196  75.5103582  56.3091154  20.6892781  74.4166357  56.4697121
  19.4692514  73.6494295  70.2168437  18.8391174  74.3310575  70.4503834
  19.3628602  73.5377376  69.2721575  14.7637486  73.3166091  61.1434361
  13.9736540  73.5723619  60.6674472  15.2548733  74.1314429  61.2486402
  28.7801296  80.6571330  63.8939642  29.6018739  80.2551517  63.6122324
  28.7763699  80.5539564  64.8455758  16.7152231  73.6810670  58.1017838
  15.9183395  73.7929364  58.6201334  16.4877824  74.0197322  57.2358728
  22.5457899  80.2055373  66.0500352  22.6102332  80.6675780  66.8858524
  21.8368823  79.5752738  66.1782662  13.0475189  73.5696581  63.5749352
  13.2983228  74.4543591  63.8406928  13.5834738  73.3901183  62.8024444
  22.2605917  81.8723481  55.9179333  22.1251592  82.7175016  56.3464181
  22.8015729  82.0742758  55.1545267  18.7473256  67.9515060  72.5793688
  18.3540202  67.3981259  73.2541332  19.5639397  68.2625639  72.9700206
  15.7135314  79.3898919  56.4907258  16.2259835  80.1842169  56.6412823
  16.3658027  78.6925209  56.4240859  17.5230199  82.5064675  58.5730011
  17.6996827  83.4282640  58.3850995  18.3187032  82.1923094  59.0024391
  21.6641217  69.3672940  70.1713945  22.4050931  69.9680093  70.0918407
  21.8959140  68.6250577  69.6131987  16.8082555  74.5529307  68.4492174
  16.6936071  73.6514564  68.7499273  15.9527073  74.7993004  68.0976991
  23.8874393  82.4947047  70.0479675  23.4438247  81.7083426  69.7300579
  24.5491607  82.6826198  69.3823566  18.6461514  84.0242849  64.5740353
  19.1968939  83.8959912  63.8017347  17.8072990  84.3237738  64.2235246
  25.9855631  82.7749847  68.0761076  25.9674107  83.5958728  67.5841345
  26.9075551  82.6503922  68.3011217  22.4428685  80.2893977  68.9184585
  22.9757022  79.5282265  68.6883892  21.9142766  79.9967628  69.6608739
  13.6784231  77.7187573  57.2666828  14.5159453  78.1284581  57.0500536
  13.8562499  76.7787015  57.2367022  25.5748663  75.3862654  52.9550661
  25.0595287  76.1567258  53.1939049  25.3025972  74.7127790  53.5783723
  23.1595774  70.2312354  58.0135900  22.3037370  69.8419205  57.8341538
  23.5722726  70.3104315  57.1535685  20.9337807  67.8497427  61.4193641
  21.7990803  67.6540236  61.0599531  21.0015316  67.6207779  62.3462998
  30.5482937  78.1395008  54.8903835  29.7712380  77.8006168  54.4458997
  31.2274418  78.1447631  54.2158800  25.3634966  73.2589746  54.7810443
  25.0585102  73.5735895  55.6320586  26.3165408  73.3371166  54.8237776
  23.8081398  79.4179969  56.4303397  23.2802760  78.6832729  56.1176634
  23.3068901  80.1954645  56.1843365  18.5400126  70.0799635  58.7910008
  19.1143878  69.8574817  58.0583201  19.1271108  70.1488330  59.5438609
  18.8669713  72.1104096  52.8105893  18.0307025  72.4478783  53.1315168
  18.7274482  71.9753076  51.8733030  20.8422793  66.9540884  57.5185077
  20.1887206  66.6389901  56.8941692  20.8003268  66.3316625  58.2444900
  21.9533998  77.2360179  49.4338370  21.0461060  77.0049433  49.6329519
  22.4505030  76.4397799  49.6212351  24.8602077  85.9457686  52.3535056
  24.1863776  86.2489383  52.9620014  25.2467899  86.7486767  52.0040513
  23.1322232  77.3372774  53.9562360  22.2233451  77.0531807  54.0534829
  23.1617316  77.7571853  53.0965667  28.3641499  80.9479364  57.7253527
  27.9103826  80.1070274  57.7818718  27.7335466  81.5840762  58.0628307
  26.8074438  82.7855860  58.6603345  27.0997413  83.3460917  57.9415711
  27.3173059  83.0784421  59.4156504  27.4086046  64.6547602  59.5495964
  27.7144923  63.7944965  59.2621879  28.1338651  65.2465222  59.3494958
  13.7010402  75.0578288  57.9377562  13.5034802  74.4647649  57.2128628
  13.1457066  74.7530498  58.6553501  22.8298320  78.8781518  51.2950438
  22.3917749  78.1617377  50.8356076  23.5708760  79.1057633  50.7335530
  19.6199486  73.5678455  57.8162534  18.8067351  73.8672625  58.2227726
  20.1158480  73.1734143  58.5337016  21.7708064  83.5636211  59.7496799
  21.7284242  83.7897058  58.8205331  22.6870762  83.3299586  59.8982600
  30.9471434  77.1538715  57.3526757  30.8089333  77.3440311  56.4247946
  30.5907653  77.9158098  57.8094808  19.1113560  71.1396810  63.4323769
  19.7512940  70.9985569  62.7346732  18.2791091  70.8531323  63.0562371
  19.8873864  80.4399240  59.5458761  20.6814463  79.9449561  59.3441336
  19.1765557  79.9117104  59.1826467  24.7068709  82.8217336  63.8971129
  24.7605731  83.3908272  64.6648845  23.8383490  82.9919221  63.5325166
  16.1956628  74.5842322  55.6218514  15.2654216  74.5226778  55.8388476
  16.2914100  74.0618275  54.8255155  16.1142177  71.1097135  58.2096756
  16.3748994  72.0242468  58.1005916  16.9359349  70.6421578  58.3593368
  17.5867102  72.5234892  65.3795580  18.2590156  72.3152254  64.7308229
  16.7596889  72.3256978  64.9400812  22.4645140  81.0128262  63.2256598
  22.3256226  80.6447047  64.0982536  21.6759737  81.5275902  63.0540556
  23.0593292  86.1137359  54.5682135  23.2345048  85.6425402  55.3827758
  22.3726080  86.7403125  54.7963396  24.0150355  80.3909865  60.6145436
  23.6800188  80.3510635  61.5103086  23.5154301  79.7254581  60.1415846
  17.9894599  75.7977495  66.1398017  17.8514397  75.0657734  66.7409556
  18.8999523  75.7086395  65.8582205  26.9509547  77.7365899  50.8882496
  26.3338718  77.0112728  50.7915548  26.4826036  78.4975260  50.5449570
  28.6063679  82.4464808  68.5488276  28.5476225  81.7624028  67.8818859
  29.0083197  83.1883798  68.0968902  17.6254378  89.2626722  61.3421995
  17.8650976  89.8945246  62.0201014  16.7823574  88.9114762  61.6287354
  18.7408093  71.9551324  50.0103800  17.8637559  71.8340125  49.6466047
  19.2165846  71.1637402  49.7582689  28.6081086  80.4104392  66.7802256
  27.7207865  80.0730314  66.9028655  29.1779637  79.6787423  67.0171021
  10.2610233  76.7428484  60.1045307  10.9481273  76.4290214  59.5166323
  10.1058362  77.6469848  59.8312559  15.0644955  71.6318680  64.5330331
  14.9803144  71.0244350  63.7980741  14.2427662  72.1227698  64.5339827
  22.1382239  85.0705844  63.7463499  22.0652411  85.8760816  64.2582804
  21.6959633  85.2697810  62.9211520  21.9272019  84.3077614  57.2566321
  21.1439541  84.8499294  57.3504545  22.6264764  84.8251594  57.6560562
  24.5980923  84.9692678  65.9021658  25.3108895  85.6040143  65.8297559
  24.1070952  85.0656544  65.0861660  26.3198450  78.8743931  57.4738949
  25.3854729  78.9945393  57.3043654  26.4975118  77.9716398  57.2098959
  19.6492836  82.7187122  66.7227229  20.3502296  83.3523605  66.8756623
  19.1787951  83.0601853  65.9622868  27.7747232  81.0605071  55.0075136
  28.0507076  80.9461666  55.9169010  26.9051731  80.6622556  54.9687309
  24.4101296  85.3091422  58.6507949  24.5923691  84.4913078  59.1135702
  25.2334282  85.5259114  58.2132839  24.7443462  84.2359607  55.9122998
  25.2731228  83.7252062  55.2993160  25.0071681  83.9202138  56.7768531
  15.2460555  82.2523477  63.6558331  15.8313991  81.5067165  63.7886235
  15.0485393  82.5627433  64.5394995  18.0999210  85.2874724  58.6720774
  17.4309585  85.7720852  58.1884814  17.9612079  85.5343944  59.5864152
   9.8378209  74.8229077  62.3762774   9.8762309  74.2892668  63.1699892
   9.3318502  74.2964282  61.7573752  22.2404478  87.3218468  65.2703432
  22.7922786  87.4850089  66.0352517  22.5810672  87.9122905  64.5983457
  17.2168972  69.6693617  65.8725317  17.2810298  70.5308448  65.4602714
  17.1536092  69.0567619  65.1397675  16.6921244  71.7416750  69.5198351
  17.3193283  71.3593827  70.1335875  15.8349163  71.5230952  69.8854043
  27.0915353  82.1479725  71.1252086  27.6355257  82.7609683  70.6307041
  26.5102198  82.7059303  71.6419099  13.4686787  73.5493179  55.4516706
  13.7640228  72.6403857  55.3983759  12.5674823  73.5280918  55.1297708
  25.3772866  85.2700443  62.2567114  25.2524005  84.4690183  61.7478060
  26.0351957  85.7646636  61.7681084  16.9981034  71.6249176  61.4344254
  16.2767620  72.2385143  61.2951728  17.7874290  72.1606940  61.3560900
  27.4407774  83.0709463  63.8846664  26.4938110  82.9514814  63.8124991
  27.7890547  82.1831961  63.9672926  19.8007347  68.9603602  67.7084906
  20.3241749  69.2065899  68.4711215  19.5819681  69.7923637  67.2888043
  15.1974628  71.2307277  55.5756031  14.8687335  70.3504656  55.3931137
  15.5513999  71.1754945  56.4632420  24.4454207  82.8662179  60.0851016
  24.2979170  81.9378887  60.2658586  25.2707701  82.8882270  59.6008092
  18.3116452  71.5180246  55.9431509  18.6512524  72.0466168  55.2210117
  18.7588572  71.8560653  56.7190075  28.0488329  83.6890738  61.1715889
  28.9734877  83.4833599  61.0340340  27.8803633  83.4407139  62.0805231
  21.6576364  66.9866610  63.8461900  22.4802434  66.5127088  63.7240790
  21.9014428  67.7657093  64.3460586  20.2984599  70.0154868  54.1424801
  21.0192961  70.3936121  53.6388518  19.6749903  70.7343745  54.2459779
  24.4415722  70.7200017  55.0783134  24.6579336  71.6024655  54.7771962
  23.9609789  70.3286230  54.3488776  19.1814943  73.6785730  61.6553878
  19.0359524  73.9926033  62.5478160  18.7040147  74.2970631  61.1024777
  21.0411326  70.6688278  61.7034768  21.0272895  69.7729372  61.3667066
  21.7583754  70.6758942  62.3373054  27.8383645  84.2076406  56.5277981
  28.0120523  83.6422828  55.7751833  28.3312537  85.0077300  56.3457471
  13.6560605  76.2191075  64.5941539  13.1114073  76.9950883  64.7261814
  14.5339955  76.5661879  64.4360661  20.4448222  69.5502659  56.9722338
  20.5664133  68.6219305  57.1713225  20.1550264  69.5641344  56.0600653
  23.3139412  67.2357569  60.1089058  23.3361109  67.2996902  59.1541037
  23.7307471  66.3962078  60.3029564  33.6923037  76.9712829  58.1468280
  34.1354183  76.2220154  57.7487404  32.8149547  76.9622965  57.7642012
  28.8258818  83.5243170  53.6274879  29.5209722  84.1449863  53.8462194
  29.1681968  82.6738521  53.9027257  14.4426627  75.3460971  67.4871696
  13.7008363  75.4943606  68.0736327  14.1219371  75.6069237  66.6238446
  30.7250241  80.9742876  55.1562210  31.2501565  81.3130148  54.4311530
  30.6372594  80.0389891  54.9725344  22.3870290  84.8876949  67.2852086
  22.6957416  84.6426096  68.1574786  23.1845772  85.0923588  66.7970957
  22.4090902  87.0414859  59.5157463  21.9695892  86.5491237  60.2090320
  23.1599019  86.4987826  59.2749538  14.8883241  83.2326400  59.5182091
  15.7141261  82.9330172  59.1380734  14.5377293  82.4634022  59.9671880
  19.8564774  82.5852868  61.5879765  19.2344783  81.9223573  61.2881992
  20.5269641  82.6114000  60.9053412  13.0891846  81.1512726  60.4771025
  12.2523754  80.7234900  60.2955026  13.0615491  81.3445169  61.4141816
  19.9289301  71.0634656  71.1812271  19.9777457  71.9396779  70.7990040
  20.4711816  70.5212049  70.6083914  30.4144147  81.6075779  70.4613408
  29.6239691  81.5899918  69.9217907  30.1777502  82.1464073  71.2162444
  19.4178281  81.1356791  55.0638225  19.5666401  81.8192256  54.4104898
  20.2244724  81.1161881  55.5787681  32.0360219  80.8765187  68.0188158
  31.7445027  81.2395168  68.8551619  31.4232350  80.1632195  67.8401490
  33.2355901  78.4418067  60.5390728  34.0702793  78.8807871  60.7028288
  33.3715030  77.9656720  59.7198974  17.1730914  77.1621969  56.0699294
  16.9276956  76.2584299  56.2679504  17.3426828  77.1639119  55.1278772
  16.4426561  72.8950326  53.5685455  15.7495806  72.9694681  52.9125491
  16.1978313  72.1310670  54.0906972  25.1140218  64.4545928  60.9724946
  25.3941972  63.7869117  61.5985373  25.8990825  64.6475023  60.4599610
  22.9173686  83.6304922  52.5349973  22.3447653  84.2495109  52.0820444
  23.4906480  84.1804283  53.0689894  26.1370946  83.9142072  53.6658555
  27.0701619  83.8487633  53.8691430  26.0494159  84.7498339  53.2073087
  28.7658963  83.2307942  50.6262502  28.6872594  82.8967806  51.5198260
  29.5868630  83.7229710  50.6253975  23.3020485  74.9665734  49.8766025
  24.2479590  74.8371943  49.9454443  22.9234730  74.2280396  50.3535453
  29.2742369  66.6321740  59.8392917  29.0767191  66.3236829  60.7236249
  29.8842075  67.3583379  59.9690847  23.1859177  79.0183481  71.3366682
  24.1062187  79.1962080  71.5306729  23.1508760  78.0739526  71.1846381
  21.4863402  72.8915711  49.8120910  20.5794857  72.5948824  49.8883624
  21.7639383  72.5945529  48.9455196  12.4041342  74.2122074  60.2619957
  12.0844127  73.3587382  59.9694331  11.8574771  74.4270652  61.0177924
  16.1821250  76.9284515  63.9789463  16.4007260  77.8601623  63.9977497
  16.5947024  76.5692490  64.7644267  23.1025468  67.4352601  55.9665152
  22.2926196  67.0899685  56.3420398  23.7909885  67.1260144  56.5552763
  25.0316016  66.5130647  57.5889448  25.5847055  66.9326101  58.2479471
  25.2686102  65.5866395  57.6312404  21.0549115  72.5017721  73.3692212
  20.9545842  73.4512078  73.3004303  20.8370657  72.1735960  72.4968282
  20.2562187  69.7502646  49.9532889  21.1181351  70.0757544  50.2128707
  20.4412531  68.9634142  49.4405955  12.2729602  77.8324986  62.2313078
  11.5793074  77.4178938  61.7183033  13.0202593  77.8745522  61.6346497
  26.8598389  68.0236230  59.2989433  27.3598168  68.1352765  58.4903752
  27.5033997  67.7197283  59.9390241  20.9180385  75.9314860  72.1857274
  20.4347467  76.7315220  72.3921163  21.0041324  75.9422805  71.2324718
  14.1866345  77.7643239  60.1079093  14.1637033  77.8630927  59.1560976
  14.4966981  78.6108390  60.4296259  16.8453723  79.8219395  64.2225708
  17.7996976  79.7903337  64.1555639  16.6466246  79.3610018  65.0375933
  17.4353105  78.3920511  66.7896505  18.2545994  78.8864589  66.8131342
  17.7089913  77.4752479  66.7614073  27.1919701  70.7831263  56.1524461
  26.3045556  71.0680913  55.9344655  27.6073690  70.6225026  55.3051738
  15.2003952  85.3639014  61.2395905  15.0658419  84.6039415  60.6733903
  14.7836014  86.0879914  60.7724694  26.3362915  80.5475938  50.2472481
  27.0398765  80.7525940  50.8630136  25.6125563  81.1152699  50.5121564
  27.1660725  76.2985799  56.3674751  27.1095926  76.7554350  55.5282383
  27.7189067  75.5376483  56.1897594  35.2877869  74.8271604  59.6996162
  34.7277427  74.8964793  60.4727724  34.6821372  74.6512589  58.9795658
  18.3573077  86.2608331  61.4514348  18.2405462  87.2053764  61.3493038
  17.5365524  85.9581893  61.8400147  28.2449612  80.9858467  52.2970941
  29.0795216  80.5539665  52.1148416  28.0833955  80.8140480  53.2247835
  27.8995504  77.4890580  53.6627280  27.8444308  77.3234851  52.7215724
  27.2741559  78.1966613  53.8189470  12.6888019  72.7258644  67.4888702
  13.3346883  72.2157598  67.9775927  12.4805170  73.4627326  68.0632128
  25.2141411  79.7939492  72.9880843  26.0832571  79.9680144  72.6267478
  24.7348163  80.6133909  72.8656572  21.2091630  66.9898689  53.2412598
  21.1970299  67.9340529  53.3980869  22.1015051  66.8068834  52.9472060
  19.3827592  86.9136593  64.6670276  20.2854838  86.9460203  64.9836771
  19.1564962  85.9837044  64.6816612  21.1381194  85.6667579  61.3280355
  20.1876825  85.6669441  61.2144727  21.4413680  84.9200314  60.8116390
  25.0243749  63.5841466  57.4958535  24.2576145  63.0299952  57.6415218
  25.4354454  63.6563334  58.3572687  17.0285510  69.8726261  71.5863716
  17.8916972  69.5163066  71.7967041  16.4550921  69.5340156  72.2739121
  36.8733887  91.5028118  62.3926117  37.5112297  91.3834865  61.6889458
  36.7554730  92.4508962  62.4514070  33.6823593  91.4555546  62.3287642
  33.3442105  91.3396611  61.4408177  34.5513362  91.0546711  62.3088648
  29.5410409  93.3091022  58.3184533  28.9775274  93.2180959  57.5500821
  29.4262804  92.4890927  58.7987026  34.1643376  92.6090398  68.2873848
  34.1532017  92.2143196  67.4154351  34.3264016  91.8756470  68.8807619
  27.0874841  94.8042214  61.1568754  27.8796133  94.4633039  60.7415053
  27.3271491  94.9137189  62.0770907  35.1209968  96.9761990  53.6298998
  34.4697948  97.5616070  53.2433012  35.9154331  97.5068185  53.6894036
  29.0465595  94.0651127  54.0286132  29.8196471  93.5180114  53.8899008
  29.3990994  94.9295377  54.2400594  30.8850637  95.3927509  67.2353032
  30.5940503  96.2973140  67.1199698  31.5207622  95.4344037  67.9497101
  31.8106844  92.7704358  63.8254391  32.4070417  92.5460380  63.1111354
  31.8681816  92.0289103  64.4279839  31.3831873  90.2243793  51.6604582
  31.6357393  89.7025315  50.8988045  30.4456432  90.0609939  51.7631266
  36.4275156  89.2279572  59.4679326  37.2138245  88.8098995  59.1169743
  36.6913860  90.1325664  59.6360974  36.5985233  94.6652422  54.1667982
  35.9631066  94.7387049  54.8788887  36.2682639  95.2546021  53.4887062
  41.8283583  89.1654805  60.3712304  42.5608755  88.5954022  60.6050134
  41.0722938  88.7776405  60.8118810  31.1028161  92.1271899  53.8628957
  30.9864420  91.4516803  54.5310042  31.2130421  91.6404273  53.0461110
  33.4459702  91.5882046  57.5675646  33.0817910  91.0612667  58.2788568
  34.3026818  91.1980515  57.3942132  33.0865189  86.6171946  52.5636995
  33.2539592  87.4852182  52.9307466  32.8962358  86.7799228  51.6398284
  35.8440523  95.0788925  64.2302825  35.5441246  95.9813964  64.1218633
  35.4991582  94.8121108  65.0823978  29.2953004  91.5302722  60.2639530
  28.3703501  91.3978936  60.4717222  29.5437417  92.3096941  60.7609472
  39.2437666  87.5971465  61.9100263  38.3354544  87.5286874  61.6159024
  39.1925262  88.0743410  62.7382088  33.0654410  89.0729604  53.5483662
  32.9454035  89.5186654  54.3869142  32.3706999  89.4214921  52.9897200
  26.6561815  91.1735995  61.0983319  26.7854196  91.4270474  62.0122731
  25.9759266  91.7663703  60.7787974  30.8261302 101.8433245  57.1973793
  30.7485332 102.7941070  57.2762274  30.2222946 101.4979118  57.8548719
  33.3178532  89.0161111  69.8535160  32.5411866  89.5755031  69.8438025
  33.9569095  89.5017894  70.3750030  41.1099313  85.7987904  63.6878137
  40.4673693  86.0920437  63.0417931  40.6054241  85.6840824  64.4931333
  38.7639476  89.5451077  54.3763996  39.6757333  89.7778464  54.2011693
  38.2549123  90.1288121  53.8139074  31.5724904  91.8246564  69.4153127
  32.3139589  92.3631608  69.1387951  30.8661890  92.4512853  69.5724679
  37.0480244  93.9675705  68.0125288  37.4563600  93.5258115  67.2679921
  36.3257506  93.3928332  68.2659481  33.4011314  88.9048311  65.3858845
  34.2472509  89.3287725  65.5293494  33.3409952  88.2481936  66.0797409
  37.3709059  94.5276895  61.7677577  36.7417921  94.6922609  61.0653645
  36.9834721  94.9418505  62.5388541  41.2498291  95.4631333  59.1221941
  40.5649329  95.8430234  58.5718974  41.3342140  96.0726660  59.8553889
  36.5510759  86.5652680  67.0440019  36.3071691  87.3194740  66.5074295
  36.8270690  86.9438027  67.8787266  38.5049222  93.1091292  65.7217285
  38.7166117  93.7523052  65.0451666  38.4578970  92.2753609  65.2539215
  36.1075451  85.7209113  62.6253857  35.2459930  86.0190366  62.9170594
  36.1337886  85.9379512  61.6934889  32.9237021  94.2651303  59.0327662
  33.3875366  94.5439006  58.2432285  32.6593819  93.3634748  58.8500753
  29.8161102  93.8122785  61.9707426  30.3862459  94.2410053  61.3324910
  30.4069214  93.5305370  62.6691611  31.8605907  90.3874456  55.8417228
  32.5629950  90.8395499  56.3091154  31.5286535  89.7458275  56.4697121
  30.3086268  88.9786212  70.2168437  29.6784929  89.6602493  70.4503834
  30.2022356  88.8669294  69.2721575  25.6031241  88.6458008  61.1434361
  24.8130295  88.9015537  60.6674472  26.0942488  89.4606346  61.2486402
  39.6195050  95.9863248  63.8939642  40.4412494  95.5843435  63.6122324
  39.6157453  95.8831482  64.8455758  27.5545986  89.0102588  58.1017838
  26.7577149  89.1221282  58.6201334  27.3271578  89.3489240  57.2358728
  33.3851654  95.5347291  66.0500352  33.4496086  95.9967698  66.8858524
  32.6762577  94.9044656  66.1782662  23.8868944  88.8988499  63.5749352
  24.1376982  89.7835509  63.8406928  24.4228492  88.7193100  62.8024444
  47.7101043  92.3301996  60.2424613  46.9564752  91.7609394  60.0868618
  47.8448584  92.2964660  61.1895248  33.0999671  97.2015398  55.9179333
  32.9645346  98.0466934  56.3464181  33.6409484  97.4034676  55.1545267
  29.5867011  83.2806978  72.5793688  29.1933956  82.7273177  73.2541332
  30.4033151  83.5917557  72.9700206  26.5529069  94.7190836  56.4907258
  27.0653589  95.5134087  56.6412823  27.2051781  94.0217127  56.4240859
  28.3623953  97.8356593  58.5730011  28.5390582  98.7574557  58.3850995
  29.1580787  97.5215012  59.0024391  32.5034972  84.6964857  70.1713945
  33.2444685  85.2972010  70.0918407  32.7352895  83.9542495  69.6131987
  27.6476310  89.8821225  68.4492174  27.5329825  88.9806482  68.7499273
  26.7920828  90.1284921  68.0976991  34.7268148  97.8238965  70.0479675
  34.2832002  97.0375343  69.7300579  35.3885361  98.0118115  69.3823566
  29.4855269  99.3534766  64.5740353  30.0362694  99.2251830  63.8017347
  28.6466745  99.6529655  64.2235246  36.8249386  98.1041765  68.0761076
  36.8067861  98.9250646  67.5841345  37.7469306  97.9795840  68.3011217
  33.2822440  95.6185894  68.9184585  33.8150777  94.8574182  68.6883892
  32.7536521  95.3259546  69.6608739  24.5177985  93.0479491  57.2666828
  25.3553207  93.4576499  57.0500536  24.6956253  92.1078933  57.2367022
  36.4142418  90.7154571  52.9550661  35.8989041  91.4859176  53.1939049
  36.1419726  90.0419707  53.5783723  33.9989529  85.5604272  58.0135900
  33.1431125  85.1711122  57.8341538  34.4116480  85.6396233  57.1535685
  35.5288675  83.0950615  62.4127460  35.0253471  83.0580751  61.5995265
  35.8219282  84.0043358  62.4724116  31.7731561  83.1789345  61.4193641
  32.6384558  82.9832154  61.0599531  31.8409070  82.9499697  62.3462998
  41.3876692  93.4686926  54.8903835  40.6106134  93.1298085  54.4458997
  42.0668173  93.4739549  54.2158800  36.2028721  88.5881663  54.7810443
  35.8978856  88.9027813  55.6320586  37.1559163  88.6663083  54.8237776
  34.6475153  94.7471887  56.4303397  34.1196514  94.0124646  56.1176634
  34.1462655  95.5246563  56.1843365  39.6267999  92.9420907  61.5470443
  38.9691673  93.6320169  61.6350571  40.4308398  93.3317339  61.8904429
  29.3793880  85.4091553  58.7910008  29.9537632  85.1866734  58.0583201
  29.9664863  85.4780247  59.5438609  38.4373457  91.2965280  59.5974385
  38.9505339  91.9295272  60.0996094  39.0874681  90.6966475  59.2317745
  29.7063467  87.4396014  52.8105893  28.8700780  87.7770701  53.1315168
  29.5668237  87.3044994  51.8733030  31.6816548  82.2832802  57.5185077
  31.0280960  81.9681819  56.8941692  31.6397022  81.6608542  58.2444900
  32.7927753  92.5652097  49.4338370  31.8854814  92.3341350  49.6329519
  33.2898785  91.7689716  49.6212351  35.6995832 101.2749604  52.3535056
  35.0257530 101.5781301  52.9620014  36.0861654 102.0778684  52.0040513
  34.9154288  88.7714735  61.8432725  33.9976850  88.9929682  61.6854413
  35.3314432  88.8461046  60.9844432  35.6989336  90.1706151  56.9735405
  36.4461155  90.6827548  56.6642527  35.9680926  89.8490204  57.8339799
  33.9715986  92.6664692  53.9562360  33.0627205  92.3823725  54.0534829
  34.0011070  93.0863770  53.0965667  39.2035254  96.2771281  57.7253527
  38.7497581  95.4362191  57.7818718  38.5729220  96.9132680  58.0628307
  38.1468173  87.2063267  58.9554195  37.4090930  86.6940654  59.2864437
  38.3994947  86.7663649  58.1437472  37.6468193  98.1147778  58.6603345
  37.9391167  98.6752835  57.9415711  38.1566813  98.4076339  59.4156504
  38.2479800  79.9839519  59.5495964  38.5538677  79.1236883  59.2621879
  38.9732405  80.5757140  59.3494958  24.5404157  90.3870206  57.9377562
  24.3428556  89.7939567  57.2128628  23.9850821  90.0822416  58.6553501
  32.5200880  90.2793312  60.0572155  32.5749490  89.3267149  59.9814632
  31.7092082  90.4352752  60.5413453  33.6692074  94.2073436  51.2950438
  33.2311504  93.4909294  50.8356076  34.4102515  94.4349550  50.7335530
  30.4593240  88.8970372  57.8162534  29.6461106  89.1964543  58.2227726
  30.9552234  88.5026061  58.5337016  32.6101818  98.8928129  59.7496799
  32.5677997  99.1188975  58.8205331  33.5264517  98.6591504  59.8982600
  36.0567452  89.3612197  66.6477428  36.4116840  89.5883670  67.5071894
  36.7039583  89.6930573  66.0254683  41.7865189  92.4830633  57.3526757
  41.6483087  92.6732229  56.4247946  41.4301408  93.2450015  57.8094808
  29.9507315  86.4688728  63.4323769  30.5906694  86.3277487  62.7346732
  29.1184845  86.1823241  63.0562371  41.8134568  94.5507160  62.3638028
  42.2471075  94.4582449  63.2121082  42.5266149  94.5264660  61.7258044
  30.7267619  95.7691158  59.5458761  31.5208217  95.2741478  59.3441336
  30.0159311  95.2409021  59.1826467  35.5462463  98.1509254  63.8971129
  35.5999486  98.7200190  64.6648845  34.6777245  98.3211139  63.5325166
  27.0350382  89.9134240  55.6218514  26.1047970  89.8518695  55.8388476
  27.1307854  89.3910193  54.8255155  26.9535931  86.4389053  58.2096756
  27.2142749  87.3534386  58.1005916  27.7753104  85.9713495  58.3593368
  28.4260857  87.8526810  65.3795580  29.0983910  87.6444172  64.7308229
  27.5990643  87.6548896  64.9400812  42.6750118  94.5930860  64.8970914
  42.8686008  95.4976671  65.1430189  42.5750736  94.1338279  65.7309499
  34.3286429  84.4788751  67.3961241  33.6814344  85.1778700  67.3025717
  35.0987444  84.9124895  67.7637489  37.7365227  94.7437603  70.4711794
  37.5850733  94.5148155  69.5541878  37.7269906  95.7008204  70.4843139
  34.5050563  92.3169516  65.4558061  35.4342623  92.4680675  65.2827028
  34.0841593  92.4053536  64.6006707  33.3038895  96.3420180  63.2256598
  33.1649981  95.9738965  64.0982536  32.5153491  96.8567820  63.0540556
  33.8987047 101.4429277  54.5682135  34.0738802 100.9717320  55.3827758
  33.2119835 102.0695043  54.7963396  34.8544110  95.7201783  60.6145436
  34.5193943  95.6802553  61.5103086  34.3548056  95.0546499  60.1415846
  28.8288354  91.1269413  66.1398017  28.6908152  90.3949652  66.7409556
  29.7393277  91.0378313  65.8582205  37.7903302  93.0657817  50.8882496
  37.1732472  92.3404645  50.7915548  37.3219790  93.8267177  50.5449570
  31.4570655  90.8389372  65.6281697  32.1670273  90.1982564  65.5868315
  31.4139963  91.0902267  66.5507878  39.4457433  97.7756725  68.5488276
  39.3869979  97.0915946  67.8818859  39.8476952  98.5175716  68.0968902
  30.1699589  87.8254590  67.4477336  29.6336946  87.3745329  68.0998933
  29.5816297  87.9600499  66.7047801  28.4648132 104.5918639  61.3421995
  28.7044730 105.2237164  62.0201014  27.6217329 104.2406679  61.6287354
  29.5801848  87.2843241  50.0103800  28.7031314  87.1632042  49.6466047
  30.0559601  86.4929320  49.7582689  39.4474841  95.7396309  66.7802256
  38.5601619  95.4022231  66.9028655  40.0173392  95.0079341  67.0171021
  21.1003988  92.0720401  60.1045307  21.7875027  91.7582131  59.5166323
  20.9452116  92.9761766  59.8312559  25.9038710  86.9610598  64.5330331
  25.8196899  86.3536267  63.7980741  25.0821416  87.4519616  64.5339827
  32.9775994 100.3997762  63.7463499  32.9046165 101.2052733  64.2582804
  32.5353387 100.5989728  62.9211520  32.7665774  99.6369532  57.2566321
  31.9833295 100.1791212  57.3504545  33.4658519 100.1543511  57.6560562
  36.0762424  85.4464161  59.9000526  36.5731123  84.6934124  59.5801596
  35.3049405  85.4828478  59.3343735  43.9292181  91.1504527  61.5418817
  43.9182057  92.0329242  61.1712751  43.0609561  90.7976078  61.3473355
  35.4374677 100.2984596  65.9021658  36.1502650 100.9332061  65.8297559
  34.9464706 100.3948462  65.0861660  37.1592204  94.2035848  57.4738949
  36.2248483  94.3237311  57.3043654  37.3368873  93.3008315  57.2098959
  32.6597392  87.5881544  59.6272211  32.2895180  87.0352585  60.3153116
  33.1556485  86.9839678  59.0747211  40.5464756  90.0453168  58.0088984
  41.0125208  90.8781159  57.9349286  40.9972256  89.5798149  58.7134242
  30.4886591  98.0479039  66.7227229  31.1896050  98.6815522  66.8756623
  30.0181706  98.3893771  65.9622868  38.6140987  96.3896989  55.0075136
  38.8900831  96.2753584  55.9169010  37.7445486  95.9914474  54.9687309
  38.2887877  90.6023647  64.5479779  37.6359327  90.8499554  63.8932232
  38.6668257  89.7887785  64.2142256  35.2495051 100.6383340  58.6507949
  35.4317445  99.8204996  59.1135702  36.0728037 100.8551032  58.2132839
  35.5837216  99.5651525  55.9122998  36.1124983  99.0543980  55.2993160
  35.8465436  99.2494055  56.7768531  34.3375450  91.3443458  71.0345816
  33.6616087  91.2437587  71.7048191  35.1603084  91.1882672  71.4981813
  26.0854309  97.5815394  63.6558331  26.6707746  96.8359082  63.7886235
  25.8879148  97.8919351  64.5394995  28.9392964 100.6166642  58.6720774
  28.2703340 101.1012769  58.1884814  28.8005834 100.8635862  59.5864152
  20.6771964  90.1520995  62.3762774  20.7156063  89.6184585  63.1699892
  20.1712257  89.6256200  61.7573752  33.0798233 102.6510385  65.2703432
  33.6316541 102.8142007  66.0352517  33.4204426 103.2414823  64.5983457
  28.0562726  84.9985535  65.8725317  28.1204053  85.8600366  65.4602714
  27.9929846  84.3859537  65.1397675  27.5314999  87.0708668  69.5198351
  28.1587037  86.6885745  70.1335875  26.6742917  86.8522870  69.8854043
  37.9309107  97.4771643  71.1252086  38.4749011  98.0901601  70.6307041
  37.3495952  98.0351221  71.6419099  24.3080541  88.8785097  55.4516706
  24.6033982  87.9695775  55.3983759  23.4068577  88.8572836  55.1297708
  36.2166620 100.5992361  62.2567114  36.0917760  99.7982101  61.7478060
  36.8745711 101.0938554  61.7681084  27.8374788  86.9541093  61.4344254
  27.1161374  87.5677061  61.2951728  28.6268044  87.4898858  61.3560900
  38.2801529  98.4001381  63.8846664  37.3331864  98.2806732  63.8124991
  38.6284302  97.5123879  63.9672926  30.6401102  84.2895520  67.7084906
  31.1635504  84.5357816  68.4711215  30.4213435  85.1215555  67.2888043
  26.0368383  86.5599194  55.5756031  25.7081089  85.6796573  55.3931137
  26.3907754  86.5046863  56.4632420  35.2847962  98.1954097  60.0851016
  35.1372924  97.2670804  60.2658586  36.1101455  98.2174188  59.6008092
  29.1510206  86.8472164  55.9431509  29.4906279  87.3758085  55.2210117
  29.5982327  87.1852570  56.7190075  38.8882084  99.0182656  61.1715889
  39.8128631  98.8125517  61.0340340  38.7197387  98.7699057  62.0805231
  31.8453647  85.2309215  65.3934577  31.5050467  84.4317028  65.7955257
  31.1392653  85.5310926  64.8211410  32.4970119  82.3158527  63.8461900
  33.3196188  81.8419005  63.7240790  32.7408182  83.0949011  64.3460586
  31.1378353  85.3446786  54.1424801  31.8586716  85.7228039  53.6388518
  30.5143657  86.0635663  54.2459779  35.2809476  86.0491935  55.0783134
  35.4973091  86.9316573  54.7771962  34.8003543  85.6578148  54.3488776
  30.0208698  89.0077648  61.6553878  29.8753278  89.3217951  62.5478160
  29.5433901  89.6262548  61.1024777  31.8805080  85.9980196  61.7034768
  31.8666649  85.1021289  61.3667066  32.5977509  86.0050860  62.3373054
  33.7331211  86.4317536  63.7487895  33.4748989  87.3534607  63.7472226
  33.2016251  86.0347971  64.4388359  38.6777400  99.5368323  56.5277981
  38.8514277  98.9714746  55.7751833  39.1706291 100.3369218  56.3457471
  24.4954360  91.5482992  64.5941539  23.9507828  92.3242800  64.7261814
  25.3733710  91.8953797  64.4360661  31.2841976  84.8794576  56.9722338
  31.4057888  83.9511222  57.1713225  30.9944019  84.8933262  56.0600653
  34.1533167  82.5649487  60.1089058  34.1754864  82.6288820  59.1541037
  34.5701226  81.7253995  60.3029564  44.5316791  92.3004746  58.1468280
  44.9747937  91.5512071  57.7487404  43.6543301  92.2914883  57.7642012
  39.6652572  98.8535088  53.6274879  40.3603477  99.4741780  53.8462194
  40.0075722  98.0030439  53.9027257  25.2820382  90.6752889  67.4871696
  24.5402118  90.8235524  68.0736327  24.9613126  90.9361154  66.6238446
  41.5643995  96.3034793  55.1562210  42.0895320  96.6422066  54.4311530
  41.4766348  95.3681809  54.9725344  33.2264044 100.2168867  67.2852086
  33.5351171  99.9718014  68.1574786  34.0239526 100.4215505  66.7970957
  33.2484656 102.3706776  59.5157463  32.8089647 101.8783155  60.2090320
  33.9992773 101.8279744  59.2749538  25.7276995  98.5618317  59.5182091
  26.5535015  98.2622089  59.1380734  25.3771047  97.7925940  59.9671880
  30.6958528  97.9144786  61.5879765  30.0738538  97.2515491  61.2881992
  31.3663395  97.9405917  60.9053412  23.9285600  96.4804644  60.4771025
  23.0917509  96.0526818  60.2955026  23.9009246  96.6737087  61.4141816
  30.7683056  86.3926574  71.1812271  30.8171211  87.2688696  70.7990040
  31.3105570  85.8503967  70.6083914  41.2537902  96.9367697  70.4613408
  40.4633445  96.9191836  69.9217907  41.0171256  97.4755991  71.2162444
  41.3735777  93.7860163  67.7746136  41.4233782  93.6210171  68.7161659
  41.2649700  92.9187422  67.3844017  30.2572035  96.4648709  55.0638225
  30.4060156  97.1484173  54.4104898  31.0638479  96.4453799  55.5787681
  38.6639539  89.7691091  69.0905443  39.5649402  89.6297556  68.7989441
  38.7387513  89.9345546  70.0303620  32.9982344  87.1457946  67.9358629
  32.1285654  87.4391512  67.6641218  33.2341825  87.7298391  68.6565893
  42.8753973  96.2057105  68.0188158  42.5838782  96.5687085  68.8551619
  42.2626105  95.4924113  67.8401490  44.0749656  93.7709984  60.5390728
  44.9096547  94.2099789  60.7028288  44.2108785  93.2948638  59.7198974
  41.1241162  91.3289719  66.4868216  41.5995283  91.5217366  65.6787067
  40.2006727  91.3848905  66.2411599  28.0124668  92.4913887  56.0699294
  27.7670710  91.5876217  56.2679504  28.1820583  92.4931037  55.1278772
  27.2820316  88.2242244  53.5685455  26.5889561  88.2986599  52.9125491
  27.0372068  87.4602588  54.0906972  33.7567441  98.9596839  52.5349973
  33.1841408  99.5787026  52.0820444  34.3300234  99.5096201  53.0689894
  39.8242831  88.2055479  64.7196521  40.7760254  88.3053577  64.7408745
  39.6546281  87.4133748  65.2294606  37.8457210  85.2911063  64.9055922
  37.2507142  85.5716075  64.2102411  37.5606907  85.7804964  65.6772663
  36.9764701  99.2433989  53.6658555  37.9095374  99.1779551  53.8691430
  36.8887913 100.0790256  53.2073087  39.6052717  98.5599860  50.6262502
  39.5266349  98.2259723  51.5198260  40.4262384  99.0521628  50.6253975
  42.3030908  91.4261599  63.8338821  42.2707229  90.4877600  64.0198505
  42.9131532  91.5045636  63.1004646  34.1414239  90.2957652  49.8766025
  35.0873344  90.1663860  49.9454443  33.7628484  89.5572314  50.3535453
  42.4525397  88.2172643  63.8797104  41.9364446  87.4331099  63.6927033
  43.3365345  87.8891359  64.0443624  40.1136124  81.9613658  59.8392917
  39.9160945  81.6528746  60.7236249  40.7235829  82.6875297  59.9690847
  48.1207458  92.4877606  62.9744858  48.8510847  92.2262894  63.5352561
  47.5114404  91.7506328  63.0146926  46.2022755  90.6285469  63.5719309
  45.4755919  90.4941433  62.9635801  45.7870042  90.9362297  64.3776027
  34.0252932  94.3475398  71.3366682  34.9455941  94.5253997  71.5306729
  33.9902515  93.4031444  71.1846381  32.3257156  88.2207628  49.8120910
  31.4188612  87.9240741  49.8883624  32.6033137  87.9237447  48.9455196
  23.2435097  89.5413992  60.2619957  22.9237881  88.6879300  59.9694331
  22.6968525  89.7562570  61.0177924  27.0215004  92.2576433  63.9789463
  27.2401014  93.1893541  63.9977497  27.4340778  91.8984407  64.7644267
  33.9419222  82.7644518  55.9665152  33.1319951  82.4191603  56.3420398
  34.6303639  82.4552062  56.5552763  35.8709770  81.8422565  57.5889448
  36.4240809  82.2618018  58.2479471  36.1079857  80.9158313  57.6312404
  31.8942870  87.8309639  73.3692212  31.7939597  88.7803996  73.3004303
  31.6764412  87.5027878  72.4968282  31.0955941  85.0794564  49.9532889
  31.9575105  85.4049462  50.2128707  31.2806285  84.2926060  49.4405955
  23.1123357  93.1616903  62.2313078  22.4186828  92.7470856  61.7183033
  23.8596348  93.2037440  61.6346497  39.2488578  83.9523090  57.0968112
  38.6687247  84.6107894  56.7146165  38.9824510  83.1300435  56.6855530
  37.6992144  83.3528148  59.2989433  38.1991922  83.4644682  58.4903752
  38.3427752  83.0489201  59.9390241  31.7574140  91.2606777  72.1857274
  31.2741221  92.0607138  72.3921163  31.8435079  91.2714722  71.2324718
  25.0260099  93.0935157  60.1079093  25.0030787  93.1922844  59.1560976
  25.3360736  93.9400308  60.4296259  27.6847477  95.1511312  64.2225708
  28.6390731  95.1195255  64.1555639  27.4860001  94.6901936  65.0375933
  28.2746859  93.7212428  66.7896505  29.0939748  94.2156507  66.8131342
  28.5483667  92.8044396  66.7614073  38.0313456  86.1123181  56.1524461
  37.1439311  86.3972831  55.9344655  38.4467445  85.9516944  55.3051738
  41.3827992  86.1369702  59.8678800  42.1588382  86.6266154  60.1403417
  40.6576126  86.5627756  60.3250669  43.8200550  86.8497321  60.9252741
  44.4145041  86.6093057  60.2146049  43.8927134  86.1304451  61.5526277
  26.0397706 100.6930932  61.2395905  25.9052174  99.9331333  60.6733903
  25.6229768 101.4171832  60.7724694  37.1756669  95.8767855  50.2472481
  37.8792519  96.0817858  50.8630136  36.4519318  96.4444617  50.5121564
  38.0054479  91.6277716  56.3674751  37.9489681  92.0846268  55.5282383
  38.5582822  90.8668401  56.1897594  41.8159285  87.4167448  57.1924870
  41.5596219  87.0164084  58.0233078  41.1912153  88.1311242  57.0675010
  46.1271623  90.1563522  59.6996162  45.5671181  90.2256711  60.4727724
  45.5215126  89.9804506  58.9795658  29.1966832 101.5900249  61.4514348
  29.0799216 102.5345681  61.3493038  28.3759278 101.2873810  61.8400147
  39.0843366  96.3150384  52.2970941  39.9188970  95.8831583  52.1148416
  38.9227709  96.1432398  53.2247835  38.7389259  92.8182498  53.6627280
  38.6838062  92.6526769  52.7215724  38.1135314  93.5258531  53.8189470
  23.5281774  88.0550562  67.4888702  24.1740637  87.5449516  67.9775927
  23.3198925  88.7919244  68.0632128  36.0535166  95.1231410  72.9880843
  36.9226325  95.2972062  72.6267478  35.5741917  95.9425826  72.8656572
  32.0485384  82.3190607  53.2412598  32.0364054  83.2632447  53.3980869
  32.9408806  82.1360752  52.9472060  30.2221346 102.2428511  64.6670276
  31.1248593 102.2752121  64.9836771  29.9958716 101.3128962  64.6816612
  31.9774948 100.9959497  61.3280355  31.0270579 100.9961359  61.2144727
  32.2807434 100.2492232  60.8116390  35.8637504  78.9133383  57.4958535
  35.0969899  78.3591870  57.6415218  36.2748209  78.9855252  58.3572687
  27.8679265  85.2018179  71.5863716  28.7310726  84.8454984  71.7967041
  27.2944675  84.8632074  72.2739121  47.7127642 106.8320036  62.3926117
  48.3506052 106.7126783  61.6889458  47.5948484 107.7800879  62.4514070
  44.5217348 106.7847464  62.3287642  44.1835859 106.6688528  61.4408177
  45.3907116 106.3838629  62.3088648  40.3804164 108.6382940  58.3184533
  39.8169029 108.5472877  57.5500821  40.2656559 107.8182844  58.7987026
  45.0037131 107.9382315  68.2873848  44.9925772 107.5435114  67.4154351
  45.1657770 107.2048388  68.8807619  37.9268595 110.1334132  61.1568754
  38.7189887 109.7924956  60.7415053  38.1665246 110.2429107  62.0770907
  45.9603722 112.3053908  53.6298998  45.3091702 112.8907988  53.2433012
  46.7548085 112.8360103  53.6894036  39.8859349 109.3943045  54.0286132
  40.6590225 108.8472032  53.8899008  40.2384748 110.2587294  54.2400594
  41.7244392 110.7219427  67.2353032  41.4334258 111.6265058  67.1199698
  42.3601376 110.7635955  67.9497101  42.6500599 108.0996276  63.8254391
  43.2464171 107.8752298  63.1111354  42.7075570 107.3581021  64.4279839
  42.2225627 105.5535711  51.6604582  42.4751148 105.0317232  50.8988045
  41.2850186 105.3901856  51.7631266  47.2668910 104.5571489  59.4679326
  48.0531999 104.1390913  59.1169743  47.5307614 105.4617582  59.6360974
  47.4378987 109.9944340  54.1667982  46.8024820 110.0678966  54.8788887
  47.1076394 110.5837939  53.4887062  52.6677337 104.4946723  60.3712304
  53.4002509 103.9245939  60.6050134  51.9116693 104.1068323  60.8118810
  41.9421916 107.4563817  53.8628957  41.8258174 106.7808720  54.5310042
  42.0524176 106.9696191  53.0461110  44.2853457 106.9173964  57.5675646
  43.9211664 106.3904585  58.2788568  45.1420573 106.5272433  57.3942132
  50.1902758  98.2068297  64.8306913  49.8586082  99.0763708  64.6068128
  49.5948371  97.8904581  65.5100943  43.9258944 101.9463864  52.5636995
  44.0933346 102.8144100  52.9307466  43.7356113 102.1091145  51.6398284
  46.6834277 110.4080843  64.2302825  46.3835000 111.3105881  64.1218633
  46.3385337 110.1413026  65.0823978  40.1346759 106.8594640  60.2639530
  39.2097255 106.7270854  60.4717222  40.3831172 107.6388859  60.7609472
  50.0831421 102.9263383  61.9100263  49.1748298 102.8578791  61.6159024
  50.0319017 103.4035328  62.7382088  43.9048165 104.4021521  53.5483662
  43.7847790 104.8478572  54.3869142  43.2100753 104.7506839  52.9897200
  37.4955570 106.5027913  61.0983319  37.6247951 106.7562392  62.0122731
  36.8153021 107.0955621  60.7787974  41.6655057 117.1725163  57.1973793
  41.5879087 118.1232988  57.2762274  41.0616700 116.8271036  57.8548719
  44.1572287 104.3453028  69.8535160  43.3805621 104.9046949  69.8438025
  44.7962850 104.8309811  70.3750030  51.9493067 101.1279821  63.6878137
  51.3067447 101.4212354  63.0417931  51.4447996 101.0132742  64.4931333
  49.6033231 104.8742994  54.3763996  50.5151087 105.1070381  54.2011693
  49.0942878 105.4580039  53.8139074  42.4118659 107.1538482  69.4153127
  43.1533343 107.6923526  69.1387951  41.7055644 107.7804771  69.5724679
  47.8873999 109.2967622  68.0125288  48.2957355 108.8550033  67.2679921
  47.1651260 108.7220250  68.2659481  44.2405069 104.2340229  65.3858845
  45.0866264 104.6579643  65.5293494  44.1803706 103.5773853  66.0797409
  48.2102813 109.8568813  61.7677577  47.5811676 110.0214527  61.0653645
  47.8228475 110.2710422  62.5388541  52.0892045 110.7923251  59.1221941
  51.4043083 111.1722152  58.5718974  52.1735894 111.4018577  59.8553889
  47.3904514 101.8944597  67.0440019  47.1465446 102.6486658  66.5074295
  47.6664444 102.2729945  67.8787266  49.3442977 108.4383210  65.7217285
  49.5559872 109.0814970  65.0451666  49.2972725 107.6045526  65.2539215
  46.9469206 101.0501030  62.6253857  46.0853685 101.3482284  62.9170594
  46.9731640 101.2671429  61.6934889  43.7630775 109.5943221  59.0327662
  44.2269121 109.8730924  58.2432285  43.4987573 108.6926666  58.8500753
  40.6554856 109.1414703  61.9707426  41.2256213 109.5701971  61.3324910
  41.2462968 108.8597287  62.6691611  42.6999661 105.7166373  55.8417228
  43.4023704 106.1687417  56.3091154  42.3680290 105.0750192  56.4697121
  41.1480023 104.3078130  70.2168437  40.5178683 104.9894411  70.4503834
  41.0416111 104.1961212  69.2721575  36.4424995 103.9749926  61.1434361
  35.6524049 104.2307455  60.6674472  36.9336242 104.7898264  61.2486402
  50.4588805 111.3155165  63.8939642  51.2806248 110.9135352  63.6122324
  50.4551208 111.2123399  64.8455758  38.3939740 104.3394505  58.1017838
  37.5970904 104.4513200  58.6201334  38.1665333 104.6781157  57.2358728
  44.2245408 110.8639208  66.0500352  44.2889841 111.3259616  66.8858524
  43.5156332 110.2336573  66.1782662  34.7262698 104.2280416  63.5749352
  34.9770736 105.1127426  63.8406928  35.2622246 104.0485018  62.8024444
  58.5494798 107.6593914  60.2424613  57.7958506 107.0901312  60.0868618
  58.6842339 107.6256578  61.1895248  43.9393426 112.5307316  55.9179333
  43.8039101 113.3758852  56.3464181  44.4803238 112.7326594  55.1545267
  40.4260765  98.6098896  72.5793688  40.0327711  98.0565094  73.2541332
  41.2426906  98.9209474  72.9700206  37.3922823 110.0482754  56.4907258
  37.9047344 110.8426004  56.6412823  38.0445536 109.3509044  56.4240859
  39.2017708 113.1648510  58.5730011  39.3784336 114.0866475  58.3850995
  39.9974541 112.8506930  59.0024391  43.3428726 100.0256775  70.1713945
  44.0838440 100.6263928  70.0918407  43.5746649  99.2834413  69.6131987
  38.4870064 105.2113142  68.4492174  38.3723580 104.3098399  68.7499273
  37.6314582 105.4576839  68.0976991  45.5661902 113.1530882  70.0479675
  45.1225756 112.3667261  69.7300579  46.2279116 113.3410033  69.3823566
  40.3249023 114.6826684  64.5740353  40.8756448 114.5543747  63.8017347
  39.4860499 114.9821573  64.2235246  47.6643140 113.4333682  68.0761076
  47.6461616 114.2542563  67.5841345  48.5863060 113.3087758  68.3011217
  44.1216194 110.9477812  68.9184585  44.6544531 110.1866100  68.6883892
  43.5930275 110.6551464  69.6608739  47.2885889  96.0537878  64.4478226
  46.9450159  96.9439520  64.3717337  47.6564852  95.8639535  63.5847811
  35.3571740 108.3771408  57.2666828  36.1946962 108.7868417  57.0500536
  35.5350008 107.4370850  57.2367022  47.2536172 106.0446489  52.9550661
  46.7382795 106.8151094  53.1939049  46.9813480 105.3711625  53.5783723
  44.8383283 100.8896190  58.0135900  43.9824879 100.5003040  57.8341538
  45.2510235 100.9688151  57.1535685  46.3682430  98.4242533  62.4127460
  45.8647225  98.3872668  61.5995265  46.6613037  99.3335276  62.4724116
  42.6125316  98.5081263  61.4193641  43.4778312  98.3124071  61.0599531
  42.6802825  98.2791615  62.3462998  52.2270446 108.7978844  54.8903835
  51.4499889 108.4590003  54.4458997  52.9061927 108.8031467  54.2158800
  47.0422475 103.9173581  54.7810443  46.7372611 104.2319730  55.6320586
  47.9952917 103.9955001  54.8237776  45.4868907 110.0763804  56.4303397
  44.9590269 109.3416564  56.1176634  44.9856410 110.8538481  56.1843365
  50.4661753 108.2712825  61.5470443  49.8085428 108.9612086  61.6350571
  51.2702152 108.6609257  61.8904429  40.2187635 100.7383471  58.7910008
  40.7931387 100.5158652  58.0583201  40.8058617 100.8072165  59.5438609
  49.2767212 106.6257198  59.5974385  49.7899094 107.2587189  60.0996094
  49.9268436 106.0258393  59.2317745  40.5457222 102.7687932  52.8105893
  39.7094534 103.1062618  53.1315168  40.4061991 102.6336911  51.8733030
  42.5210302  97.6124720  57.5185077  41.8674715  97.2973737  56.8941692
  42.4790777  96.9900460  58.2444900  43.6321507 107.8944015  49.4338370
  42.7248569 107.6633268  49.6329519  44.1292539 107.0981634  49.6212351
  46.5389586 116.6041522  52.3535056  45.8651285 116.9073219  52.9620014
  46.9255408 117.4070602  52.0040513  45.7548043 104.1006653  61.8432725
  44.8370604 104.3221600  61.6854413  46.1708186 104.1752964  60.9844432
  46.5383091 105.4998069  56.9735405  47.2854909 106.0119466  56.6642527
  46.8074680 105.1782122  57.8339799  44.8109741 107.9956610  53.9562360
  43.9020960 107.7115642  54.0534829  44.8404824 108.4155688  53.0965667
  50.0429008 111.6063199  57.7253527  49.5891335 110.7654109  57.7818718
  49.4122975 112.2424597  58.0628307  48.9861928 102.5355185  58.9554195
  48.2484684 102.0232571  59.2864437  49.2388701 102.0955567  58.1437472
  48.4861947 113.4439696  58.6603345  48.7784922 114.0044753  57.9415711
  48.9960568 113.7368257  59.4156504  49.0873555  95.3131437  59.5495964
  49.3932432  94.4528800  59.2621879  49.8126160  95.9049057  59.3494958
  35.3797911 105.7162124  57.9377562  35.1822311 105.1231484  57.2128628
  34.8244575 105.4114334  58.6553501  43.3594635 105.6085230  60.0572155
  43.4143245 104.6559067  59.9814632  42.5485837 105.7644669  60.5413453
  44.5085828 109.5365353  51.2950438  44.0705258 108.8201212  50.8356076
  45.2496269 109.7641468  50.7335530  41.2986995 104.2262290  57.8162534
  40.4854860 104.5256460  58.2227726  41.7945989 103.8317979  58.5337016
  43.4495573 114.2220047  59.7496799  43.4071751 114.4480893  58.8205331
  44.3658271 113.9883421  59.8982600  46.8961206 104.6904114  66.6477428
  47.2510594 104.9175587  67.5071894  47.5433338 105.0222491  66.0254683
  52.6258943 107.8122550  57.3526757  52.4876842 108.0024146  56.4247946
  52.2695162 108.5741933  57.8094808  40.7901069 101.7980645  63.4323769
  41.4300449 101.6569404  62.7346732  39.9578600 101.5115159  63.0562371
  52.6528323 109.8799077  62.3638028  53.0864830 109.7874366  63.2121082
  53.3659904 109.8556578  61.7258044  41.5661373 111.0983076  59.5458761
  42.3601972 110.6033396  59.3441336  40.8553066 110.5700939  59.1826467
  46.3856218 113.4801171  63.8971129  46.4393240 114.0492108  64.6648845
  45.5170999 113.6503056  63.5325166  37.8744137 105.2426158  55.6218514
  36.9441725 105.1810613  55.8388476  37.9701609 104.7202110  54.8255155
  37.7929686 101.7680970  58.2096756  38.0536503 102.6826304  58.1005916
  38.6146858 101.3005413  58.3593368  39.2654611 103.1818728  65.3795580
  39.9377665 102.9736090  64.7308229  38.4384398 102.9840814  64.9400812
  53.5143872 109.9222778  64.8970914  53.7079763 110.8268588  65.1430189
  53.4144491 109.4630197  65.7309499  45.1680183  99.8080668  67.3961241
  44.5208098 100.5070618  67.3025717  45.9381199 100.2416812  67.7637489
  48.5758981 110.0729521  70.4711794  48.4244488 109.8440072  69.5541878
  48.5663661 111.0300122  70.4843139  45.3444318 107.6461433  65.4558061
  46.2736378 107.7972593  65.2827028  44.9235348 107.7345454  64.6006707
  44.1432649 111.6712098  63.2256598  44.0043735 111.3030882  64.0982536
  43.3547246 112.1859737  63.0540556  44.7380801 116.7721194  54.5682135
  44.9132557 116.3009237  55.3827758  44.0513589 117.3986960  54.7963396
  45.6937864 111.0493700  60.6145436  45.3587697 111.0094470  61.5103086
  45.1941810 110.3838416  60.1415846  39.6682108 106.4561331  66.1398017
  39.5301906 105.7241569  66.7409556  40.5787032 106.3670231  65.8582205
  48.6297056 108.3949735  50.8882496  48.0126227 107.6696563  50.7915548
  48.1613545 109.1559095  50.5449570  42.2964409 106.1681290  65.6281697
  43.0064028 105.5274482  65.5868315  42.2533717 106.4194185  66.5507878
  50.2851188 113.1048643  68.5488276  50.2263734 112.4207863  67.8818859
  50.6870706 113.8467633  68.0968902  41.0093343 103.1546508  67.4477336
  40.4730700 102.7037246  68.0998933  40.4210052 103.2892417  66.7047801
  40.4195602 102.6135159  50.0103800  39.5425068 102.4923960  49.6466047
  40.8953355 101.8221237  49.7582689  50.2868595 111.0688227  66.7802256
  49.3995374 110.7314149  66.9028655  50.8567146 110.3371258  67.0171021
  31.9397742 107.4012319  60.1045307  32.6268782 107.0874049  59.5166323
  31.7845871 108.3053683  59.8312559  36.7432464 102.2902515  64.5330331
  36.6590653 101.6828185  63.7980741  35.9215171 102.7811534  64.5339827
  43.8169748 115.7289679  63.7463499  43.7439920 116.5344651  64.2582804
  43.3747142 115.9281645  62.9211520  43.6059528 114.9661449  57.2566321
  42.8227050 115.5083130  57.3504545  44.3052273 115.4835429  57.6560562
  46.9156178 100.7756079  59.9000526  47.4124878 100.0226041  59.5801596
  46.1443160 100.8120396  59.3343735  54.7685936 106.4796444  61.5418817
  54.7575812 107.3621160  61.1712751  53.9003315 106.1267995  61.3473355
  46.2768432 115.6276513  65.9021658  46.9896404 116.2623978  65.8297559
  45.7858461 115.7240379  65.0861660  47.9985959 109.5327766  57.4738949
  47.0642238 109.6529229  57.3043654  48.1762627 108.6300233  57.2098959
  43.4991147 102.9173462  59.6272211  43.1288934 102.3644502  60.3153116
  43.9950239 102.3131595  59.0747211  51.3858510 105.3745085  58.0088984
  51.8518962 106.2073077  57.9349286  51.8366011 104.9090067  58.7134242
  41.3280345 113.3770957  66.7227229  42.0289805 114.0107440  66.8756623
  40.8575460 113.7185689  65.9622868  49.4534741 111.7188907  55.0075136
  49.7294585 111.6045501  55.9169010  48.5839240 111.3206392  54.9687309
  49.3575173  97.7425672  62.0479885  48.4438253  97.9729899  62.2162092
  49.7868274  97.8264117  62.8993917  49.1281631 105.9315564  64.5479779
  48.4753082 106.1791472  63.8932232  49.5062011 105.1179703  64.2142256
  46.0888805 115.9675258  58.6507949  46.2711200 115.1496914  59.1135702
  46.9121791 116.1842950  58.2132839  46.4230971 114.8943443  55.9122998
  46.9518737 114.3835897  55.2993160  46.6859190 114.5785973  56.7768531
  45.1769204 106.6735375  71.0345816  44.5009841 106.5729505  71.7048191
  45.9996838 106.5174589  71.4981813  36.9248064 112.9107312  63.6558331
  37.5101500 112.1651000  63.7886235  36.7272902 113.2211269  64.5394995
  39.7786719 115.9458559  58.6720774  39.1097094 116.4304687  58.1884814
  39.6399588 116.1927780  59.5864152  31.5165718 105.4812912  62.3762774
  31.5549818 104.9476503  63.1699892  31.0106011 104.9548118  61.7573752
  43.9191987 117.9802303  65.2703432  44.4710295 118.1433924  66.0352517
  44.2598181 118.5706741  64.5983457  38.8956481 100.3277453  65.8725317
  38.9597807 101.1892284  65.4602714  38.8323601  99.7151454  65.1397675
  38.3708753 102.4000585  69.5198351  38.9980792 102.0177663  70.1335875
  37.5136672 102.1814787  69.8854043  48.7702862 112.8063560  71.1252086
  49.3142766 113.4193519  70.6307041  48.1889707 113.3643139  71.6419099
  35.1474296 104.2077014  55.4516706  35.4427737 103.2987693  55.3983759
  34.2462332 104.1864754  55.1297708  47.0560375 115.9284278  62.2567114
  46.9311514 115.1274018  61.7478060  47.7139466 116.4230472  61.7681084
  38.6768543 102.2833011  61.4344254  37.9555129 102.8968979  61.2951728
  39.4661799 102.8190776  61.3560900  49.1195283 113.7293299  63.8846664
  48.1725619 113.6098650  63.8124991  49.4678056 112.8415797  63.9672926
  41.4794856  99.6187437  67.7084906  42.0029258  99.8649734  68.4711215
  41.2607190 100.4507472  67.2888043  36.8762137 101.8891112  55.5756031
  36.5474844 101.0088491  55.3931137  37.2301508 101.8338781  56.4632420
  46.1241716 113.5246015  60.0851016  45.9766679 112.5962722  60.2658586
  46.9495210 113.5466105  59.6008092  39.9903961 102.1764082  55.9431509
  40.3300033 102.7050003  55.2210117  40.4376081 102.5144488  56.7190075
  49.7275838 114.3474573  61.1715889  50.6522386 114.1417435  61.0340340
  49.5591142 114.0990975  62.0805231  42.6847401 100.5601133  65.3934577
  42.3444222  99.7608946  65.7955257  41.9786408 100.8602843  64.8211410
  43.3363873  97.6450445  63.8461900  44.1589943  97.1710923  63.7240790
  43.5801937  98.4240929  64.3460586  41.9772108 100.6738703  54.1424801
  42.6980470 101.0519956  53.6388518  41.3537412 101.3927580  54.2459779
  46.1203231 101.3783852  55.0783134  46.3366845 102.2608490  54.7771962
  45.6397298 100.9870066  54.3488776  40.8602452 104.3369566  61.6553878
  40.7147033 104.6509869  62.5478160  40.3827656 104.9554466  61.1024777
  42.7198835 101.3272114  61.7034768  42.7060404 100.4313207  61.3667066
  43.4371263 101.3342777  62.3373054  44.5724966 101.7609454  63.7487895
  44.3142743 102.6826524  63.7472226  44.0410006 101.3639888  64.4388359
  49.5171154 114.8660241  56.5277981  49.6908032 114.3006663  55.7751833
  50.0100046 115.6661136  56.3457471  35.3348114 106.8774910  64.5941539
  34.7901582 107.6534718  64.7261814  36.2127464 107.2245714  64.4360661
  42.1235731 100.2086494  56.9722338  42.2451642  99.2803140  57.1713225
  41.8337773 100.2225180  56.0600653  44.9926921  97.8941404  60.1089058
  45.0148618  97.9580737  59.1541037  45.4094980  97.0545913  60.3029564
  55.3710546 107.6296664  58.1468280  55.8141692 106.8803989  57.7487404
  54.4937056 107.6206800  57.7642012  50.5046327 114.1827005  53.6274879
  51.1997231 114.8033698  53.8462194  50.8469477 113.3322357  53.9027257
  36.1214136 106.0044806  67.4871696  35.3795872 106.1527442  68.0736327
  35.8006880 106.2653072  66.6238446  52.4037750 111.6326711  55.1562210
  52.9289074 111.9713984  54.4311530  52.3160103 110.6973726  54.9725344
  44.0657799 115.5460785  67.2852086  44.3744925 115.3009931  68.1574786
  44.8633281 115.7507423  66.7970957  44.0878411 117.6998694  59.5157463
  43.6483401 117.2075073  60.2090320  44.8386528 117.1571662  59.2749538
  36.5670750 113.8910235  59.5182091  37.3928770 113.5914007  59.1380734
  36.2164802 113.1217857  59.9671880  41.5352283 113.2436703  61.5879765
  40.9132292 112.5807408  61.2881992  42.2057150 113.2697835  60.9053412
  34.7679355 111.8096561  60.4771025  33.9311263 111.3818736  60.2955026
  34.7403000 112.0029005  61.4141816  41.6076810 101.7218491  71.1812271
  41.6564966 102.5980614  70.7990040  42.1499325 101.1795884  70.6083914
  52.0931656 112.2659615  70.4613408  51.3027200 112.2483753  69.9217907
  51.8565011 112.8047908  71.2162444  52.2129531 109.1152081  67.7746136
  52.2627536 108.9502088  68.7161659  52.1043454 108.2479340  67.3844017
  41.0965790 111.7940627  55.0638225  41.2453910 112.4776091  54.4104898
  41.9032233 111.7745717  55.5787681  49.5033293 105.0983009  69.0905443
  50.4043156 104.9589474  68.7989441  49.5781268 105.2637464  70.0303620
  43.8376099 102.4749864  67.9358629  42.9679408 102.7683430  67.6641218
  44.0735579 103.0590309  68.6565893  53.7147728 111.5349022  68.0188158
  53.4232536 111.8979003  68.8551619  53.1019859 110.8216031  67.8401490
  54.9143410 109.1001902  60.5390728  55.7490302 109.5391706  60.7028288
  55.0502539 108.6240555  59.7198974  51.9634916 106.6581637  66.4868216
  52.4389038 106.8509283  65.6787067  51.0400482 106.7140823  66.2411599
  38.8518423 107.8205804  56.0699294  38.6064465 106.9168134  56.2679504
  39.0214337 107.8222955  55.1278772  46.5415133  98.6929481  65.4524050
  47.0597077  99.4290508  65.1270538  46.1870265  98.9993474  66.2870809
  38.1214070 103.5534162  53.5685455  37.4283315 103.6278517  52.9125491
  37.8765822 102.7894505  54.0906972  46.7927727  95.1129763  60.9724946
  47.0729481  94.4452952  61.5985373  47.5778334  95.3058859  60.4599610
  44.5961195 114.2888757  52.5349973  44.0235162 114.9078944  52.0820444
  45.1693989 114.8388119  53.0689894  50.6636585 103.5347397  64.7196521
  51.6154008 103.6345495  64.7408745  50.4940036 102.7425666  65.2294606
  48.6850965 100.6202980  64.9055922  48.0900897 100.9007993  64.2102411
  48.4000661 101.1096881  65.6772663  47.8158455 114.5725907  53.6658555
  48.7489128 114.5071469  53.8691430  47.7281668 115.4082174  53.2073087
  50.4446472 113.8891777  50.6262502  50.3660103 113.5551641  51.5198260
  51.2656139 114.3813545  50.6253975  53.1424663 106.7553517  63.8338821
  53.1100983 105.8169518  64.0198505  53.7525287 106.8337554  63.1004646
  44.9807994 105.6249570  49.8766025  45.9267099 105.4955778  49.9454443
  44.6022239 104.8864232  50.3535453  53.2919151 103.5464560  63.8797104
  52.7758200 102.7623017  63.6927033  54.1759100 103.2183277  64.0443624
  50.9529878  97.2905576  59.8392917  50.7554699  96.9820664  60.7236249
  51.5629584  98.0167215  59.9690847  58.9601213 107.8169524  62.9744858
  59.6904601 107.5554812  63.5352561  58.3508158 107.0798246  63.0146926
  57.0416510 105.9577386  63.5719309  56.3149673 105.8233351  62.9635801
  56.6263797 106.2654215  64.3776027  44.8646686 109.6767316  71.3366682
  45.7849696 109.8545915  71.5306729  44.8296269 108.7323361  71.1846381
  43.1650911 103.5499546  49.8120910  42.2582366 103.2532659  49.8883624
  43.4426892 103.2529364  48.9455196  34.0828851 104.8705910  60.2619957
  33.7631636 104.0171218  59.9694331  33.5362280 105.0854488  61.0177924
  37.8608759 107.5868351  63.9789463  38.0794769 108.5185458  63.9977497
  38.2734533 107.2276325  64.7644267  44.7812977  98.0936436  55.9665152
  43.9713705  97.7483521  56.3420398  45.4697394  97.7843980  56.5552763
  46.7103525  97.1714483  57.5889448  47.2634564  97.5909936  58.2479471
  46.9473611  96.2450231  57.6312404  42.7336624 103.1601556  73.3692212
  42.6333351 104.1095913  73.3004303  42.5158166 102.8319795  72.4968282
  41.9349696 100.4086481  49.9532889  42.7968860 100.7341380  50.2128707
  42.1200040  99.6217977  49.4405955  33.9517111 108.4908821  62.2313078
  33.2580583 108.0762774  61.7183033  34.6990102 108.5329358  61.6346497
  50.0882332  99.2815008  57.0968112  49.5081001  99.9399812  56.7146165
  49.8218265  98.4592352  56.6855530  48.5385898  98.6820066  59.2989433
  49.0385677  98.7936600  58.4903752  49.1821506  98.3781118  59.9390241
  42.5967894 106.5898695  72.1857274  42.1134976 107.3899055  72.3921163
  42.6828833 106.6006640  71.2324718  35.8653854 108.4227075  60.1079093
  35.8424542 108.5214762  59.1560976  36.1754490 109.2692226  60.4296259
  38.5241232 110.4803230  64.2225708  39.4784485 110.4487172  64.1555639
  38.3253755 110.0193854  65.0375933  39.1140614 109.0504346  66.7896505
  39.9333503 109.5448425  66.8131342  39.3877422 108.1336314  66.7614073
  48.8707210 101.4415098  56.1524461  47.9833065 101.7264749  55.9344655
  49.2861199 101.2808862  55.3051738  52.2221746 101.4661619  59.8678800
  52.9982136 101.9558072  60.1403417  51.4969880 101.8919673  60.3250669
  54.6594305 102.1789238  60.9252741  55.2538796 101.9384974  60.2146049
  54.7320889 101.4596369  61.5526277  48.0150424 111.2059773  50.2472481
  48.7186274 111.4109775  50.8630136  47.2913072 111.7736535  50.5121564
  48.8448234 106.9569634  56.3674751  48.7883435 107.4138186  55.5282383
  49.3976576 106.1960319  56.1897594  52.6553040 102.7459366  57.1924870
  52.3989974 102.3456002  58.0233078  52.0305908 103.4603160  57.0675010
  56.9665378 105.4855439  59.6996162  56.4064936 105.5548629  60.4727724
  56.3608881 105.3096424  58.9795658  49.9237121 111.6442302  52.2970941
  50.7582725 111.2123501  52.1148416  49.7621464 111.4724316  53.2247835
  49.5783013 108.1474415  53.6627280  49.5231817 107.9818687  52.7215724
  48.9529068 108.8550448  53.8189470  34.3675528 103.3842480  67.4888702
  35.0134392 102.8741434  67.9775927  34.1592679 104.1211161  68.0632128
  46.8928920 110.4523327  72.9880843  47.7620080 110.6263980  72.6267478
  46.4135672 111.2717744  72.8656572  42.8879139  97.6482524  53.2412598
  42.8757808  98.5924364  53.3980869  43.7802560  97.4652670  52.9472060
  41.0615101 117.5720428  64.6670276  41.9642347 117.6044039  64.9836771
  40.8352471 116.6420879  64.6816612  42.8168703 116.3251415  61.3280355
  41.8664334 116.3253276  61.2144727  43.1201189 115.5784149  60.8116390
  46.7031258  94.2425301  57.4958535  45.9363654  93.6883788  57.6415218
  47.1141963  94.3147170  58.3572687  38.7073019 100.5310097  71.5863716
  39.5704481 100.1746902  71.7967041  38.1338430 100.1923992  72.2739121
  58.5521396 122.1611953  62.3926117  59.1899806 122.0418701  61.6889458
  58.4342239 123.1092797  62.4514070  55.3611102 122.1139381  62.3287642
  55.0229614 121.9980446  61.4408177  56.2300871 121.7130546  62.3088648
  55.8430885 123.2674233  68.2873848  55.8319526 122.8727031  67.4154351
  56.0051525 122.5340306  68.8807619  53.0619382 120.8827629  51.6604582
  53.3144902 120.3609150  50.8988045  52.1243941 120.7193774  51.7631266
  58.1062665 119.8863407  59.4679326  58.8925754 119.4682830  59.1169743
  58.3701369 120.7909499  59.6360974  63.5071092 119.8238640  60.3712304
  64.2396264 119.2537857  60.6050134  62.7510447 119.4360241  60.8118810
  55.1247211 122.2465882  57.5675646  54.7605419 121.7196503  58.2788568
  55.9814327 121.8564351  57.3942132  61.0296512 113.5360214  64.8306913
  60.6979837 114.4055625  64.6068128  60.4342125 113.2196498  65.5100943
  54.7652698 117.2755781  52.5636995  54.9327101 118.1436018  52.9307466
  54.5749867 117.4383063  51.6398284  60.9225175 118.2555301  61.9100263
  60.0142053 118.1870709  61.6159024  60.8712771 118.7327245  62.7382088
  54.7441919 119.7313439  53.5483662  54.6241544 120.1770490  54.3869142
  54.0494508 120.0798757  52.9897200  54.9966041 119.6744946  69.8535160
  54.2199375 120.2338866  69.8438025  55.6356604 120.1601729  70.3750030
  62.7886822 116.4571739  63.6878137  62.1461202 116.7504272  63.0417931
  62.2841750 116.3424659  64.4931333  60.4426985 120.2034912  54.3763996
  61.3544841 120.4362299  54.2011693  59.9336632 120.7871956  53.8139074
  55.0798823 119.5632147  65.3858845  55.9260018 119.9871560  65.5293494
  55.0197461 118.9065771  66.0797409  58.2298268 117.2236515  67.0440019
  57.9859200 117.9778576  66.5074295  58.5058199 117.6021863  67.8787266
  60.1836731 123.7675127  65.7217285  60.3953626 124.4106887  65.0451666
  60.1366479 122.9337444  65.2539215  57.7862960 116.3792948  62.6253857
  56.9247439 116.6774202  62.9170594  57.8125395 116.5963347  61.6934889
  53.5393416 121.0458291  55.8417228  54.2417459 121.4979335  56.3091154
  53.2074044 120.4042110  56.4697121  51.9873777 119.6370048  70.2168437
  51.3572438 120.3186329  70.4503834  51.8809865 119.5253129  69.2721575
  47.2818750 119.3041844  61.1434361  46.4917804 119.5599372  60.6674472
  47.7729997 120.1190182  61.2486402  49.2333495 119.6686423  58.1017838
  48.4364658 119.7805117  58.6201334  49.0059087 120.0073075  57.2358728
  69.3888552 122.9885831  60.2424613  68.6352261 122.4193229  60.0868618
  69.5236093 122.9548496  61.1895248  51.2654520 113.9390814  72.5793688
  50.8721465 113.3857012  73.2541332  52.0820660 114.2501392  72.9700206
  54.1822481 115.3548693  70.1713945  54.9232194 115.9555846  70.0918407
  54.4140404 114.6126330  69.6131987  58.1279644 111.3829796  64.4478226
  57.7843913 112.2731437  64.3717337  58.4958606 111.1931453  63.5847811
  58.0929927 121.3738407  52.9550661  57.5776550 122.1443011  53.1939049
  57.8207235 120.7003543  53.5783723  55.6777038 116.2188107  58.0135900
  54.8218634 115.8294958  57.8341538  56.0903989 116.2980068  57.1535685
  57.2076184 113.7534451  62.4127460  56.7040980 113.7164586  61.5995265
  57.5006791 114.6627193  62.4724116  53.4519070 113.8373180  61.4193641
  54.3172067 113.6415989  61.0599531  53.5196579 113.6083532  62.3462998
  63.0664201 124.1270761  54.8903835  62.2893643 123.7881921  54.4458997
  63.7455682 124.1323384  54.2158800  57.8816230 119.2465499  54.7810443
  57.5766365 119.5611648  55.6320586  58.8346672 119.3246919  54.8237776
  61.3055508 123.6004743  61.5470443  60.6479182 124.2904004  61.6350571
  62.1095907 123.9901174  61.8904429  51.0581389 116.0675388  58.7910008
  51.6325141 115.8450570  58.0583201  51.6452372 116.1364083  59.5438609
  60.1160966 121.9549115  59.5974385  60.6292848 122.5879107  60.0996094
  60.7662190 121.3550311  59.2317745  51.3850976 118.0979849  52.8105893
  50.5488289 118.4354536  53.1315168  51.2455746 117.9628829  51.8733030
  53.3604057 112.9416637  57.5185077  52.7068469 112.6265654  56.8941692
  53.3184531 112.3192378  58.2444900  56.5941797 119.4298571  61.8432725
  55.6764359 119.6513518  61.6854413  57.0101941 119.5044881  60.9844432
  57.3776845 120.8289986  56.9735405  58.1248664 121.3411384  56.6642527
  57.6468435 120.5074039  57.8339799  59.8255682 117.8647103  58.9554195
  59.0878439 117.3524489  59.2864437  60.0782456 117.4247484  58.1437472
  59.9267309 110.6423355  59.5495964  60.2326186 109.7820718  59.2621879
  60.6519914 111.2340975  59.3494958  54.1988389 120.9377148  60.0572155
  54.2536999 119.9850984  59.9814632  53.3879591 121.0936587  60.5413453
  52.1380749 119.5554208  57.8162534  51.3248615 119.8548378  58.2227726
  52.6339743 119.1609896  58.5337016  57.7354961 120.0196032  66.6477428
  58.0904349 120.2467505  67.5071894  58.3827092 120.3514409  66.0254683
  63.4652698 123.1414468  57.3526757  63.3270596 123.3316064  56.4247946
  63.1088917 123.9033851  57.8094808  51.6294824 117.1272563  63.4323769
  52.2694203 116.9861322  62.7346732  50.7972354 116.8407076  63.0562371
  63.4922077 125.2090995  62.3638028  63.9258584 125.1166284  63.2121082
  64.2053658 125.1848495  61.7258044  48.7137891 120.5718075  55.6218514
  47.7835479 120.5102531  55.8388476  48.8095363 120.0494028  54.8255155
  48.6323440 117.0972888  58.2096756  48.8930258 118.0118221  58.1005916
  49.4540613 116.6297331  58.3593368  50.1048366 118.5110645  65.3795580
  50.7771419 118.3028007  64.7308229  49.2778152 118.3132731  64.9400812
  64.3537627 125.2514696  64.8970914  64.5473517 126.1560506  65.1430189
  64.2538245 124.7922115  65.7309499  56.0073938 115.1372586  67.3961241
  55.3601853 115.8362536  67.3025717  56.7774953 115.5708730  67.7637489
  56.1838072 122.9753351  65.4558061  57.1130132 123.1264511  65.2827028
  55.7629102 123.0637372  64.6006707  59.4690811 123.7241653  50.8882496
  58.8519981 122.9988481  50.7915548  59.0007299 124.4851013  50.5449570
  53.1358164 121.4973208  65.6281697  53.8457782 120.8566400  65.5868315
  53.0927472 121.7486102  66.5507878  51.8487098 118.4838425  67.4477336
  51.3124455 118.0329164  68.0998933  51.2603806 118.6184334  66.7047801
  51.2589357 117.9427077  50.0103800  50.3818823 117.8215878  49.6466047
  51.7347110 117.1513155  49.7582689  47.5826219 117.6194433  64.5330331
  47.4984408 117.0120103  63.7980741  46.7608925 118.1103451  64.5339827
  57.7549933 116.1047997  59.9000526  58.2518632 115.3517959  59.5801596
  56.9836914 116.1412313  59.3343735  65.6079690 121.8088362  61.5418817
  65.5969566 122.6913078  61.1712751  64.7397069 121.4559913  61.3473355
  54.3384901 118.2465380  59.6272211  53.9682689 117.6936420  60.3153116
  54.8343994 117.6423513  59.0747211  62.2252265 120.7037003  58.0088984
  62.6912717 121.5364995  57.9349286  62.6759765 120.2381985  58.7134242
  60.1968927 113.0717590  62.0479885  59.2832007 113.3021817  62.2162092
  60.6262029 113.1556034  62.8993917  59.9675386 121.2607482  64.5479779
  59.3146836 121.5083390  63.8932232  60.3455766 120.4471620  64.2142256
  56.0162959 122.0027293  71.0345816  55.3403596 121.9021422  71.7048191
  56.8390593 121.8466507  71.4981813  49.7350235 115.6569370  65.8725317
  49.7991562 116.5184201  65.4602714  49.6717355 115.0443372  65.1397675
  49.2102508 117.7292503  69.5198351  49.8374546 117.3469580  70.1335875
  48.3530426 117.5106705  69.8854043  45.9868050 119.5368932  55.4516706
  46.2821491 118.6279610  55.3983759  45.0856086 119.5156671  55.1297708
  49.5162297 117.6124929  61.4344254  48.7948883 118.2260896  61.2951728
  50.3055553 118.1482693  61.3560900  52.3188611 114.9479355  67.7084906
  52.8423013 115.1941652  68.4711215  52.1000944 115.7799390  67.2888043
  47.7155892 117.2183030  55.5756031  47.3868598 116.3380409  55.3931137
  48.0695263 117.1630698  56.4632420  50.8297715 117.5056000  55.9431509
  51.1693788 118.0341921  55.2210117  51.2769836 117.8436406  56.7190075
  53.5241156 115.8893050  65.3934577  53.1837976 115.0900863  65.7955257
  52.8180162 116.1894761  64.8211410  54.1757628 112.9742363  63.8461900
  54.9983697 112.5002841  63.7240790  54.4195691 113.7532846  64.3460586
  52.8165862 116.0030621  54.1424801  53.5374225 116.3811874  53.6388518
  52.1931166 116.7219498  54.2459779  56.9596985 116.7075770  55.0783134
  57.1760600 117.5900408  54.7771962  56.4791052 116.3161983  54.3488776
  51.6996206 119.6661483  61.6553878  51.5540787 119.9801786  62.5478160
  51.2221410 120.2846384  61.1024777  53.5592589 116.6564031  61.7034768
  53.5454158 115.7605125  61.3667066  54.2765017 116.6634695  62.3373054
  55.4118720 117.0901371  63.7487895  55.1536498 118.0118442  63.7472226
  54.8803760 116.6931806  64.4388359  52.9629485 115.5378412  56.9722338
  53.0845397 114.6095058  57.1713225  52.6731528 115.5517098  56.0600653
  55.8320676 113.2233322  60.1089058  55.8542373 113.2872655  59.1541037
  56.2488735 112.3837831  60.3029564  66.2104300 122.9588582  58.1468280
  66.6535446 122.2095907  57.7487404  65.3330810 122.9498718  57.7642012
  52.4470565 117.0510409  71.1812271  52.4958720 117.9272532  70.7990040
  52.9893079 116.5087802  70.6083914  63.0523286 124.4443999  67.7746136
  63.1021291 124.2794006  68.7161659  62.9437209 123.5771258  67.3844017
  60.3427048 120.4274927  69.0905443  61.2436911 120.2881391  68.7989441
  60.4175022 120.5929381  70.0303620  54.6769853 117.8041781  67.9358629
  53.8073163 118.0975347  67.6641218  54.9129334 118.3882226  68.6565893
  65.7537165 124.4293820  60.5390728  66.5884056 124.8683624  60.7028288
  65.8896294 123.9532473  59.7198974  62.8028671 121.9873555  66.4868216
  63.2782792 122.1801201  65.6787067  61.8794236 122.0432741  66.2411599
  57.3808887 114.0221398  65.4524050  57.8990831 114.7582425  65.1270538
  57.0264020 114.3285392  66.2870809  48.9607825 118.8826079  53.5685455
  48.2677070 118.9570434  52.9125491  48.7159577 118.1186423  54.0906972
  57.6321481 110.4421681  60.9724946  57.9123235 109.7744870  61.5985373
  58.4172088 110.6350776  60.4599610  61.5030340 118.8639315  64.7196521
  62.4547763 118.9637412  64.7408745  61.3333790 118.0717583  65.2294606
  59.5244719 115.9494898  64.9055922  58.9294651 116.2299911  64.2102411
  59.2394416 116.4388799  65.6772663  63.9818417 122.0845434  63.8338821
  63.9494738 121.1461435  64.0198505  64.5919041 122.1629471  63.1004646
  55.8201748 120.9541487  49.8766025  56.7660853 120.8247696  49.9454443
  55.4415993 120.2156149  50.3535453  64.1312906 118.8756478  63.8797104
  63.6151955 118.0914935  63.6927033  65.0152854 118.5475195  64.0443624
  61.7923633 112.6197493  59.8392917  61.5948454 112.3112582  60.7236249
  62.4023338 113.3459132  59.9690847  69.7994967 123.1461441  62.9744858
  70.5298356 122.8846729  63.5352561  69.1901913 122.4090163  63.0146926
  67.8810264 121.2869304  63.5719309  67.1543428 121.1525269  62.9635801
  67.4657551 121.5946133  64.3776027  54.0044665 118.8791464  49.8120910
  53.0976121 118.5824577  49.8883624  54.2820646 118.5821282  48.9455196
  55.6206731 113.4228354  55.9665152  54.8107459 113.0775439  56.3420398
  56.3091148 113.1135897  56.5552763  57.5497279 112.5006400  57.5889448
  58.1028318 112.9201854  58.2479471  57.7867366 111.5742148  57.6312404
  53.5730379 118.4893474  73.3692212  53.4727106 119.4387831  73.3004303
  53.3551921 118.1611713  72.4968282  52.7743450 115.7378399  49.9532889
  53.6362614 116.0633297  50.2128707  52.9593794 114.9509895  49.4405955
  60.9276087 114.6106926  57.0968112  60.3474756 115.2691730  56.7146165
  60.6612019 113.7884270  56.6855530  59.3779653 114.0111983  59.2989433
  59.8779431 114.1228518  58.4903752  60.0215261 113.7073036  59.9390241
  59.7100965 116.7707016  56.1524461  58.8226820 117.0556667  55.9344655
  60.1254954 116.6100779  55.3051738  63.0615501 116.7953537  59.8678800
  63.8375891 117.2849989  60.1403417  62.3363635 117.2211591  60.3250669
  65.4988059 117.5081156  60.9252741  66.0932550 117.2676892  60.2146049
  65.5714643 116.7888287  61.5526277  59.6841988 122.2861552  56.3674751
  59.6277190 122.7430103  55.5282383  60.2370331 121.5252236  56.1897594
  63.4946794 118.0751284  57.1924870  63.2383728 117.6747919  58.0233078
  62.8699662 118.7895078  57.0675010  67.8059132 120.8147357  59.6996162
  67.2458690 120.8840546  60.4727724  67.2002635 120.6388342  58.9795658
  60.4176768 123.4766333  53.6627280  60.3625571 123.3110605  52.7215724
  59.7922823 124.1842366  53.8189470  45.2069283 118.7134397  67.4888702
  45.8528146 118.2033351  67.9775927  44.9986434 119.4503079  68.0632128
  53.7272893 112.9774442  53.2412598  53.7151563 113.9216282  53.3980869
  54.6196315 112.7944587  52.9472060  57.5425013 109.5717219  57.4958535
  56.7757408 109.0175705  57.6415218  57.9535718 109.6439087  58.3572687
  49.5466774 115.8602015  71.5863716  50.4098235 115.5038819  71.7967041
  48.9732184 115.5215909  72.2739121  68.9673398 126.7121713  64.4478226
  68.6237668 127.6023355  64.3717337  69.3352361 126.5223371  63.5847811
  70.7661064 125.9715272  59.5495964  71.0719941 125.1112636  59.2621879
  71.4913669 126.5632893  59.3494958  68.4715236 125.7713598  60.9724946
  68.7516990 125.1036788  61.5985373  69.2565843 125.9642694  60.4599610
  72.6317387 127.9489411  59.8392917  72.4342208 127.6404499  60.7236249
  73.2417093 128.6751050  59.9690847  68.3818767 124.9009136  57.4958535
  67.6151163 124.3467623  57.6415218  68.7929472 124.9731005  58.3572687
   4.3552625  22.5214487  49.1171424   4.9931035  22.4021235  48.4134764
   4.2373468  23.4695331  49.1759376   1.1642331  22.4741916  49.0532949
   0.8260843  22.3582980  48.1653484   2.0332099  22.0733081  49.0333955
   1.6462114  23.6276767  55.0119154   1.6350755  23.2329566  54.1399658
   1.8082754  22.8942840  55.6052926   2.6028706  27.9948360  40.3544305
   1.9516685  28.5802440  39.9678318   3.3973068  28.5254555  40.4139342
   3.9093893  20.2465941  46.1924632   4.6956983  19.8285364  45.8415049
   4.1732598  21.1512033  46.3606281   4.0803971  25.6838792  40.8913289
   3.4449804  25.7573418  41.6034194   3.7501377  26.2732390  40.2132368
   9.3102320  20.1841174  47.0957611  10.0427492  19.6140391  47.3295440
   8.5541676  19.7962775  47.5364116   0.9278440  22.6068416  44.2920953
   0.5636647  22.0799037  45.0033875   1.7845556  22.2166885  44.1187439
   3.3259260  26.0975295  50.9548132   3.0259983  27.0000333  50.8463939
   2.9810320  25.8307478  51.8069285   6.7256404  18.6157835  48.6345569
   5.8173281  18.5473243  48.3404330   6.6744000  19.0929780  49.4627395
   8.5918051  16.8174273  50.4123443   7.9492431  17.1106806  49.7663238
   8.0872979  16.7027193  51.2176640   6.2458214  20.5637446  41.1009303
   7.1576070  20.7964833  40.9257000   5.7367861  21.1474491  40.5384381
   4.5298982  24.9862074  54.7370595   4.9382338  24.5444485  53.9925227
   3.8076243  24.4114702  54.9904788   0.8830052  19.9234681  52.1104152
   1.7291247  20.3474094  52.2538801   0.8228690  19.2668305  52.8042715
   4.8527797  25.5463265  48.4922884   4.2236659  25.7108979  47.7898952
   4.4653459  25.9604874  49.2633848   8.7317028  26.4817703  45.8467248
   8.0468067  26.8616604  45.2964281   8.8160878  27.0913029  46.5799195
   4.0329497  17.5839049  53.7685326   3.7890429  18.3381110  53.2319601
   4.3089428  17.9624397  54.6032573   5.9867960  24.1277662  52.4462591
   6.1984855  24.7709422  51.7696972   5.9397708  23.2939978  51.9784521
   3.5894189  16.7395482  49.3499163   2.7278668  17.0376736  49.6415901
   3.6156624  16.9565881  48.4180196   7.1013788  27.0049617  50.6184949
   7.9231232  26.6029804  50.3367630   7.0976191  26.9017851  51.5701064
  15.1919781  23.3488366  46.9669920  14.4383489  22.7795764  46.8113925
  15.3267322  23.3151030  47.9140555   0.5818409  28.2201768  42.6424639
   0.4464084  29.0653304  43.0709487   1.1228222  28.4221046  41.8790573
   2.2086885  28.8425334  56.7724982   1.7650740  28.0561713  56.4545886
   2.8704099  29.0304485  56.1068872   4.3068124  29.1228134  54.8006383
   4.2886599  29.9437015  54.3086652   5.2288044  28.9982210  55.0256524
   3.8961155  21.7340941  39.6795968   3.3807779  22.5045545  39.9184355
   3.6238464  21.0606077  40.3029029   8.8695429  24.4873296  41.6149141
   8.0924872  24.1484455  41.1704304   9.5486910  24.4925919  40.9404107
   3.6847459  19.6068033  41.5055749   3.3797594  19.9214182  42.3565892
   4.6377901  19.6849453  41.5483082   2.1293890  25.7658256  43.1548703
   1.6015252  25.0311016  42.8421941   1.6281393  26.5432933  42.9088672
   7.1086736  23.9607277  48.2715749   6.4510411  24.6506538  48.3595878
   7.9127136  24.3503709  48.6149736   5.9192195  22.3151649  46.3219691
   6.4324077  22.9481641  46.8241401   6.5693419  21.7152845  45.9563051
   3.1814569  32.2935974  39.0780362   2.5076268  32.5967670  39.6865320
   3.5680391  33.0965054  38.7285819   2.3973026  19.7901105  48.5678032
   1.4795587  20.0116052  48.4099720   2.8133170  19.8647415  47.7089739
   3.1808074  21.1892521  43.6980712   3.9279893  21.7013918  43.3887834
   3.4499663  20.8676573  44.5585106   1.4534724  23.6851061  40.6807666
   0.5445943  23.4010094  40.7780136   1.4829808  24.1050140  39.8210973
   6.6853991  27.2957651  44.4498834   6.2316319  26.4548561  44.5064024
   6.0547958  27.9319049  44.7873614   5.6286911  18.2249637  45.6799501
   4.8909668  17.7127023  46.0109744   5.8813684  17.7850019  44.8682778
   5.1286931  29.1334148  45.3848652   5.4209905  29.6939205  44.6661018
   5.6385551  29.4262709  46.1401811   1.1510812  25.2259805  38.0195745
   0.7130242  24.5095664  37.5601382   1.8921253  25.4535920  37.4580836
   3.5386190  20.3798566  53.3722734   3.8935577  20.6070039  54.2317200
   4.1858321  20.7116943  52.7499990   9.2683927  23.5017002  44.0772063
   9.1301825  23.6918598  43.1493253   8.9120145  24.2636385  44.5340115
   9.2953306  25.5693529  49.0883335   9.7289813  25.4768818  49.9366389
  10.0084887  25.5451030  48.4503351   3.0281201  29.1695623  50.6216436
   3.0818223  29.7386560  51.3894151   2.1595982  29.3397508  50.2570473
  10.1568856  25.6117230  51.6216220  10.3504746  26.5163040  51.8675495
  10.0569474  25.1524649  52.4554805   5.2183964  25.7623973  57.1957101
   5.0669471  25.5334524  56.2787185   5.2088644  26.7194574  57.2088446
   1.9869301  23.3355885  52.1803367   2.9161361  23.4867045  52.0072335
   1.5660331  23.4239906  51.3252014   1.3805785  32.4615646  41.2927442
   1.5557540  31.9903689  42.1073064   0.6938573  33.0881412  41.5208702
   2.3362848  26.7388152  47.3390743   2.0012680  26.6988922  48.2348393
   1.8366793  26.0732868  46.8661153   5.2722039  24.0844187  37.6127802
   4.6551210  23.3591015  37.5160855   4.8038528  24.8453547  37.2694877
   6.9276171  28.7943095  55.2733583   6.8688717  28.1102315  54.6064166
   7.3295689  29.5362085  54.8214209   6.9293578  26.7582679  53.5047562
   6.0420357  26.4208601  53.6273961   7.4992129  26.0265710  53.7416328
   3.5581161  16.4650531  46.6245833   4.0549861  15.7120493  46.3046903
   2.7868143  16.5014847  46.0589042  11.4110919  22.1690896  48.2664124
  11.4000795  23.0515612  47.8958057  10.5428298  21.8162447  48.0718661
   2.9193415  31.3170965  52.6266964   3.6321387  31.9518430  52.5542866
   2.4283444  31.4134831  51.8106966   4.6410942  25.2222218  44.1984256
   3.7067221  25.3423681  44.0288960   4.8187611  24.3194685  43.9344266
   8.0283493  21.0639537  44.7334290   8.4943946  21.8967529  44.6594593
   8.4790994  20.5984519  45.4379549   6.0959725  27.4083359  41.7320442
   6.3719569  27.2939953  42.6414316   5.2264223  27.0100843  41.6932615
   5.7706615  21.6210016  51.2725086   5.1178065  21.8685924  50.6177538
   6.1486995  20.8074154  50.9387563   2.7313789  31.6569709  45.3753256
   2.9136183  30.8391365  45.8381008   3.5546775  31.8737402  44.9378146
   3.0655954  30.5837895  42.6368304   3.5943721  30.0730349  42.0238466
   3.3284174  30.2680425  43.5013837   1.8194188  22.3629827  57.7591123
   1.1434825  22.2623957  58.4293498   2.6421822  22.2069041  58.2227120
   0.5616971  33.6696755  51.9948739   1.1135279  33.8328376  52.7597824
   0.9023164  34.2601193  51.3228763   5.4127845  28.4958012  57.8497393
   5.9567749  29.1087971  57.3552348   4.8314690  29.0537591  58.3664406
   3.6985358  31.6178730  48.9812421   3.5736497  30.8168470  48.4723366
   4.3564449  32.1124924  48.4926391   5.7620266  29.4187750  50.6091971
   4.8150602  29.2993102  50.5370298   6.1103039  28.5310248  50.6918232
   2.7666700  29.2140467  46.8096323   2.6191662  28.2857174  46.9903893
   3.5920193  29.2360557  46.3253398   6.3700821  30.0369025  47.8961196
   7.2947369  29.8311887  47.7585647   6.2016125  29.7885427  48.8050537
   6.1596138  30.5554693  43.2523287   6.3333015  29.9901115  42.4997140
   6.6525029  31.3555588  43.0702777  12.0135529  23.3191116  44.8713587
  12.4566675  22.5698441  44.4732710  11.1362039  23.3101252  44.4887319
   7.1471310  29.8721457  40.3520186   7.8422215  30.4928150  40.5707500
   7.4894460  29.0216808  40.6272563   9.0462733  27.3221163  41.8807516
   9.5714057  27.6608436  41.1556836   8.9585086  26.3868178  41.6970651
   0.7082782  31.2355236  54.0097393   1.0169908  30.9904383  54.8820093
   1.5058264  31.4401875  53.5216263   8.7356639  27.9554066  57.1858714
   7.9452183  27.9378205  56.6463214   8.4989994  28.4942360  57.9407751
   8.8554514  24.8046533  54.4991443   8.9052519  24.6396540  55.4406966
   8.7468438  23.9373792  54.1089324   6.1458277  20.7877461  55.8150750
   7.0468140  20.6483926  55.5234747   6.2206251  20.9531916  56.7548927
  10.3572711  27.2243474  54.7433464  10.0657520  27.5873455  55.5796925
   9.7444842  26.5110483  54.5646796  11.5568394  24.7896354  47.2636035
  12.3915285  25.2286158  47.4273595  11.6927522  24.3135007  46.4444280
   8.6059899  22.3476089  53.2113522   9.0814021  22.5403735  52.4032374
   7.6825465  22.4035275  52.9656906   1.2386179  29.9783209  39.2595279
   0.6660146  30.5973396  38.8065751   1.8118972  30.5282571  39.7935201
   7.3061568  19.2241849  51.4441828   8.2578991  19.3239947  51.4654052
   7.1365019  18.4320118  51.9539912   5.3275948  16.3097432  51.6301229
   4.7325880  16.5902445  50.9347718   5.0425645  16.7991333  52.4017970
   4.4583438  30.2620359  40.3903861   5.3914112  30.1965921  40.5936737
   4.3706651  31.0976626  39.9318394   7.0871455  29.5786229  37.3507809
   7.0085087  29.2446093  38.2443567   7.9081122  30.0707997  37.3499281
   9.7849646  22.4447969  50.5584128   9.7525966  21.5063969  50.7443811
  10.3950270  22.5232005  49.8249952   1.6232977  21.3144022  36.6011332
   2.5692082  21.1850230  36.6699750   1.2447222  20.5758684  37.0780760
   9.9344135  19.2359012  50.6042411   9.4183183  18.4517469  50.4172340
  10.8184083  18.9077729  50.7688930  15.6026196  23.5063976  49.6990164
  16.3329585  23.2449264  50.2597868  14.9933142  22.7692697  49.7392232
  13.6841493  21.6471838  50.2964616  12.9574657  21.5127803  49.6881107
  13.2688780  21.9548667  51.1021334   1.5071670  25.3661768  58.0611989
   2.4274679  25.5440367  58.2552035   1.4721253  24.4217813  57.9091688
   6.7307315  14.9709460  43.8213419   6.1505984  15.6294264  43.4391471
   6.4643248  14.1486804  43.4100837   5.5132193  17.1309550  42.8769767
   4.6258048  17.4159201  42.6589962   5.9286182  16.9703313  42.0297044
   8.8646730  17.1556071  46.5924107   9.6407120  17.6452524  46.8648723
   8.1394864  17.5814125  47.0495976  11.3019288  17.8683690  47.6498047
  11.8963779  17.6279426  46.9391355  11.3745872  17.1490821  48.2771583
   4.6575407  26.8954225  36.9717787   5.3611257  27.1004227  37.5875443
   3.9338056  27.4630987  37.2366871   5.4873217  22.6464086  43.0920057
   5.4308419  23.1032637  42.2527690   6.0401560  21.8854771  42.9142900
   9.2978023  18.4353818  43.9170177   9.0414957  18.0350454  44.7478385
   8.6730891  19.1497612  43.7920316  13.6090361  21.1749891  46.4241468
  13.0489919  21.2443080  47.1973030  13.0033864  20.9990876  45.7040965
   6.5662104  27.3336754  39.0216247   7.4007708  26.9017952  38.8393722
   6.4046447  27.1618768  39.9493142   6.2207996  23.8368867  40.3872587
   6.1656800  23.6713139  39.4461031   5.5954052  24.5444900  40.5434776
   3.5353904  26.1417779  59.7126149   4.4045063  26.3158431  59.3512784
   3.0560655  26.9612196  59.5901879  15.1946379  37.8506405  49.1171424
  15.8324789  37.7313152  48.4134764  15.0767222  38.7987249  49.1759376
  12.0036086  37.8033833  49.0532949  11.6654597  37.6874898  48.1653484
  12.8725854  37.4024998  49.0333955   7.8622901  39.6569310  45.0429840
   7.2987766  39.5659247  44.2746128   7.7475296  38.8369214  45.5232332
  12.4855869  38.9568685  55.0119154  12.4744509  38.5621483  54.1399658
  12.6476508  38.2234758  55.6052926   5.4087333  41.1520501  47.8814060
   6.2008625  40.8111326  47.4660360   5.6483983  41.2615476  48.8016214
  13.4422460  43.3240277  40.3544305  12.7910440  43.9094358  39.9678318
  14.2366823  43.8546472  40.4139342   7.3678087  40.4129414  40.7531439
   8.1408963  39.8658402  40.6144315   7.7203486  41.2773664  40.9645900
   9.2063130  41.7405797  53.9598338   8.9152996  42.6451428  53.8445005
   9.8420114  41.7822324  54.6742408  10.1319337  39.1182645  50.5499698
  10.7282909  38.8938668  49.8356661  10.1894308  38.3767391  51.1525146
   9.7044365  36.5722081  38.3849889   9.9569886  36.0503602  37.6233352
   8.7668924  36.4088226  38.4876573  14.7487648  35.5757859  46.1924632
  15.5350737  35.1577282  45.8415049  15.0126352  36.4803951  46.3606281
  14.9197725  41.0130709  40.8913289  14.2843558  41.0865336  41.6034194
  14.5895132  41.6024308  40.2132368  20.1496075  35.5133092  47.0957611
  20.8821247  34.9432309  47.3295440  19.3935431  35.1254693  47.5364116
   9.4240654  38.4750187  40.5874264   9.3076912  37.7995090  41.2555348
   9.5342914  37.9882560  39.7706417  11.7672195  37.9360334  44.2920953
  11.4030402  37.4090955  45.0033875  12.6239311  37.5458803  44.1187439
  17.6721495  29.2254666  51.5552219  17.3404820  30.0950077  51.3313434
  17.0767109  28.9090950  52.2346250  11.4077682  32.9650233  39.2882302
  11.5752084  33.8330470  39.6552773  11.2174851  33.1277515  38.3643591
  14.1653015  41.4267212  50.9548132  13.8653738  42.3292251  50.8463939
  13.8204074  41.1599395  51.8069285   7.6165496  37.8781009  46.9884836
   6.6915993  37.7457223  47.1962528   7.8649910  38.6575228  47.4854779
  17.5650159  33.9449752  48.6345569  16.6567036  33.8765161  48.3404330
  17.5137754  34.4221697  49.4627395  11.3866903  35.4207891  40.2728968
  11.2666528  35.8664942  41.1114449  10.6919491  35.7693209  39.7142507
   4.9774307  37.5214283  47.8228626   5.1066689  37.7748762  48.7368037
   4.2971759  38.1141991  47.5033281   9.1473795  48.1911533  43.9219100
   9.0697824  49.1419358  44.0007580   8.5435438  47.8457405  44.5794026
  11.6391024  35.3639398  56.5780467  10.8624358  35.9233318  56.5683331
  12.2781587  35.8496181  57.0995337  19.4311805  32.1466191  50.4123443
  18.7886185  32.4398724  49.7663238  18.9266734  32.0319111  51.2176640
  17.0851969  35.8929364  41.1009303  17.9969825  36.1256751  40.9257000
  16.5761616  36.4766408  40.5384381   9.8937397  38.1724851  56.1398434
  10.6352081  38.7109895  55.8633257   9.1874382  38.7991140  56.2969985
  15.3692736  40.3153992  54.7370595  15.7776092  39.8736402  53.9925227
  14.6469998  39.7406619  54.9904788  11.7223806  35.2526599  52.1104152
  12.5685002  35.6766012  52.2538801  11.6622444  34.5960223  52.8042715
  15.6921551  40.8755182  48.4922884  15.0630413  41.0400897  47.7898952
  15.3047213  41.2896792  49.2633848  19.5710783  41.8109620  45.8467248
  18.8861821  42.1908522  45.2964281  19.6554632  42.4204947  46.5799195
  14.8723252  32.9130967  53.7685326  14.6284184  33.6673028  53.2319601
  15.1483182  33.2916315  54.6032573  16.8261715  39.4569579  52.4462591
  17.0378610  40.1001339  51.7696972  16.7791463  38.6231896  51.9784521
  14.4287943  32.0687400  49.3499163  13.5672422  32.3668654  49.6415901
  14.4550378  32.2857799  48.4180196  11.2449513  40.6129591  45.7572969
  11.7087858  40.8917294  44.9677592  10.9806311  39.7113035  45.5746060
   8.1373594  40.1601072  48.6952732   8.7074951  40.5888340  48.0570217
   8.7281706  39.8783657  49.3936918  10.1818399  36.7352743  42.5662534
  10.8842442  37.1873787  43.0336461   9.8499027  36.0936562  43.1942427
   8.6298760  35.3264500  56.9413744   7.9997421  36.0080780  57.1749140
   8.5234848  35.2147581  55.9966882   3.9243733  34.9936296  47.8679668
   3.1342787  35.2493824  47.3919778   4.4154980  35.8084633  47.9731708
  17.9407542  42.3341535  50.6184949  18.7624986  41.9321722  50.3367630
  17.9369945  42.2309769  51.5701064   5.8758478  35.3580875  44.8263144
   5.0789642  35.4699569  45.3446640   5.6484070  35.6967527  43.9604035
  11.7064146  41.8825578  52.7745659  11.7708578  42.3445985  53.6103831
  10.9975070  41.2522943  52.9027969   2.2081436  35.2466786  50.2994659
   2.4589474  36.1313796  50.5652235   2.7440984  35.0671388  49.5269750
  26.0313535  38.6780283  46.9669920  25.2777244  38.1087681  46.8113925
  26.1661077  38.6442948  47.9140555  11.4212164  43.5493686  42.6424639
  11.2857838  44.3945221  43.0709487  11.9621976  43.7512963  41.8790573
   7.9079503  29.6285265  59.3038995   7.5146449  29.0751464  59.9786639
   8.7245644  29.9395844  59.6945512   4.8741561  41.0669124  43.2152565
   5.3866082  41.8612374  43.3658129   5.5264274  40.3695414  43.1486166
   6.6836446  44.1834880  45.2975318   6.8603074  45.1052845  45.1096302
   7.4793279  43.8693299  45.7269697  10.8247464  31.0443144  56.8959251
  11.5657178  31.6450298  56.8163714  11.0565387  30.3020782  56.3377294
   5.9688802  36.2299512  55.1737481   5.8542317  35.3284769  55.4744580
   5.1133320  36.4763209  54.8222297  13.0480640  44.1717252  56.7724982
  12.6044494  43.3853631  56.4545886  13.7097854  44.3596403  56.1068872
   7.8067761  45.7013054  51.2985660   8.3575186  45.5730117  50.5262654
   6.9679237  46.0007943  50.9480553  15.1461878  44.4520052  54.8006383
  15.1280353  45.2728933  54.3086652  16.0681798  44.3274127  55.0256524
  11.6034932  41.9664181  55.6429891  12.1363269  41.2052470  55.4129199
  11.0749013  41.6737833  56.3854046  14.7704627  27.0724247  51.1723533
  14.4268897  27.9625889  51.0962643  15.1383590  26.8825905  50.3093118
   2.8390478  39.3957778  43.9912135   3.6765700  39.8054786  43.7745843
   3.0168745  38.4557220  43.9612329  14.7354910  37.0632859  39.6795968
  14.2201533  37.8337463  39.9184355  14.4632218  36.3897995  40.3029029
  12.3202021  31.9082559  44.7381206  11.4643617  31.5189410  44.5586845
  12.7328973  31.9874520  43.8780992  13.8501168  29.4428903  49.1372766
  13.3465963  29.4059038  48.3240571  14.1431774  30.3521645  49.1969423
  10.0944053  29.5267632  48.1438948  10.9597050  29.3310441  47.7844837
  10.1621562  29.2977984  49.0708305  19.7089184  39.8165213  41.6149141
  18.9318627  39.4776373  41.1704304  20.3880665  39.8217836  40.9404107
  14.5241213  34.9359951  41.5055749  14.2191349  35.2506100  42.3565892
  15.4771655  35.0141371  41.5483082  12.9687645  41.0950174  43.1548703
  12.4409006  40.3602934  42.8421941  12.4675148  41.8724850  42.9088672
  17.9480491  39.2899194  48.2715749  17.2904165  39.9798456  48.3595878
  18.7520890  39.6795626  48.6149736   7.7006372  31.7569840  45.5155315
   8.2750124  31.5345022  44.7828508   8.2877355  31.8258535  46.2683916
  16.7585950  37.6443567  46.3219691  17.2717831  38.2773559  46.8241401
  17.4087174  37.0444763  45.9563051   8.0275960  33.7874301  39.5351200
   7.1913272  34.1248988  39.8560475   7.8880729  33.6523281  38.5978337
  10.0029040  28.6311089  44.2430384   9.3493453  28.3160106  43.6186999
   9.9609514  28.0086830  44.9690207  11.1140245  38.9130384  36.1583676
  10.2067307  38.6819638  36.3574825  11.6111277  38.1168003  36.3457658
  14.0208324  47.6227891  39.0780362  13.3470023  47.9259588  39.6865320
  14.4074146  48.4256972  38.7285819  13.2366781  35.1193023  48.5678032
  12.3189342  35.3407970  48.4099720  13.6526924  35.1939333  47.7089739
  14.0201828  36.5184438  43.6980712  14.7673647  37.0305836  43.3887834
  14.2893418  36.1968491  44.5585106  12.2928478  39.0142979  40.6807666
  11.3839698  38.7302012  40.7780136  12.3223562  39.4342058  39.8210973
  17.5247746  42.6249569  44.4498834  17.0710073  41.7840478  44.5064024
  16.8941713  43.2610967  44.7873614  16.4680665  33.5541555  45.6799501
  15.7303422  33.0418941  46.0109744  16.7207439  33.1141936  44.8682778
  15.9680685  44.4626065  45.3848652  16.2603660  45.0231122  44.6661018
  16.4779306  44.7554626  46.1401811  16.5692293  26.3317807  46.2741271
  16.8751170  25.4715170  45.9867186  17.2944898  26.9235427  46.0740264
   2.8616649  36.7348493  44.6622869   2.6641049  36.1417854  43.9373935
   2.3063313  36.4300703  45.3798807  10.8413373  36.6271600  46.7817462
  10.8961982  35.6745436  46.7059938  10.0304575  36.7831039  47.2658760
  11.9904566  40.5551723  38.0195745  11.5523996  39.8387582  37.5601382
  12.7315007  40.7827838  37.4580836   8.7805732  35.2448659  44.5407841
   7.9673598  35.5442830  44.9473033   9.2764727  34.8504348  45.2582323
  10.9314310  45.2406416  46.4742105  10.8890489  45.4667263  45.5450637
  11.8477009  45.0069791  46.6227906  14.3779944  35.7090484  53.3722734
  14.7329332  35.9361957  54.2317200  15.0252075  36.0408861  52.7499990
  20.1077681  38.8308920  44.0772063  19.9695580  39.0210516  43.1493253
  19.7513900  39.5928303  44.5340115   8.2719807  32.8167015  50.1569075
   8.9119187  32.6755774  49.4592039   7.4397338  32.5301528  49.7807677
  20.1347061  40.8985447  49.0883335  20.5683567  40.8060736  49.9366389
  20.8478641  40.8742947  48.4503351   9.0480111  42.1169445  46.2704068
   9.8420710  41.6219766  46.0686643   8.3371803  41.5887309  45.9071773
  13.8674956  44.4987541  50.6216436  13.9211978  45.0678477  51.3894151
  12.9989737  44.6689426  50.2570473   5.3562875  36.2612527  42.3463821
   4.4260463  36.1996983  42.5633783   5.4520347  35.7388480  41.5500462
   5.2748424  32.7867340  44.9342062   5.5355241  33.7012673  44.8251223
   6.0965596  32.3191783  45.0838675   6.7473349  34.2005097  52.1040887
   7.4196402  33.9922459  51.4553536   5.9203135  34.0027183  51.6646119
  20.9962610  40.9409147  51.6216220  21.1898500  41.8454958  51.8675495
  20.8963228  40.4816567  52.4554805  12.6498921  30.8267038  54.1206548
  12.0026836  31.5256988  54.0271024  13.4199936  31.2603182  54.4882796
  16.0577719  41.0915890  57.1957101  15.9063225  40.8626442  56.2787185
  16.0482398  42.0486492  57.2088446  12.8263055  38.6647803  52.1803367
  13.7555115  38.8158963  52.0072335  12.4054085  38.7531824  51.3252014
  11.6251387  42.6898467  49.9501905  11.4862473  42.3217252  50.8227843
  10.8365983  43.2046107  49.7785863  12.2199539  47.7907564  41.2927442
  12.3951295  47.3195607  42.1073064  11.5332327  48.4173330  41.5208702
  13.1756602  42.0680070  47.3390743  12.8406435  42.0280840  48.2348393
  12.6760548  41.4024786  46.8661153   7.1500846  37.4747700  52.8643324
   7.0120644  36.7427939  53.4654863   8.0605770  37.3856600  52.5827512
  16.1115794  39.4136104  37.6127802  15.4944965  38.6882933  37.5160855
  15.6432282  40.1745465  37.2694877   9.7783147  37.1867659  52.3527004
  10.4882765  36.5460852  52.3113622   9.7352455  37.4380554  53.2753184
  17.7669926  44.1235013  55.2733583  17.7082472  43.4394233  54.6064166
  18.1689444  44.8654003  54.8214209   8.4912081  34.1732877  54.1722643
   7.9549438  33.7223616  54.8244239   7.9028789  34.3078786  53.4293107
   6.7860624  50.9396927  48.0667302   7.0257223  51.5715451  48.7446320
   5.9429821  50.5884967  48.3532661   7.9014340  33.6321529  36.7349107
   7.0243806  33.5110329  36.3711353   8.3772093  32.8407607  36.4827995
  17.7687333  42.0874597  53.5047562  16.8814112  41.7500518  53.6273961
  18.3385884  41.3557628  53.7416328   4.2251202  33.3088885  51.2575638
   4.1409391  32.7014555  50.5226048   3.4033908  33.7997903  51.2585134
  11.2988486  46.7476049  50.4708806  11.2258658  47.5531021  50.9828110
  10.8565879  46.9468015  49.6456827  11.0878266  45.9847819  43.9811627
  10.3045788  46.5269499  44.0749852  11.7871011  46.5021799  44.3805868
  14.3974916  31.7942449  46.6245833  14.8943615  31.0412411  46.3046903
  13.6261897  31.8306765  46.0589042  22.2504673  37.4982814  48.2664124
  22.2394550  38.3807529  47.8958057  21.3822053  37.1454365  48.0718661
  13.7587170  46.6462883  52.6266964  14.4715142  47.2810348  52.5542866
  13.2677198  46.7426749  51.8106966  15.4804697  40.5514136  44.1984256
  14.5460975  40.6715598  44.0288960  15.6581365  39.6486603  43.9344266
  10.9809885  33.9359832  46.3517517  10.6107672  33.3830872  47.0398423
  11.4768977  33.3317965  45.7992517  18.8677248  36.3931455  44.7334290
  19.3337700  37.2259447  44.6594593  19.3184748  35.9276437  45.4379549
   8.8099083  44.3957327  53.4472535   9.5108543  45.0293809  53.6001929
   8.3394198  44.7372058  52.6868174  16.9353479  42.7375276  41.7320442
  17.2113323  42.6231871  42.6414316  16.0657978  42.3392761  41.6932615
  16.8393911  28.7612042  48.7725191  15.9256991  28.9916269  48.9407398
  17.2687012  28.8450486  49.6239224  16.6100369  36.9501934  51.2725086
  15.9571819  37.1977841  50.6177538  16.9880749  36.1366072  50.9387563
  13.5707543  46.9861627  45.3753256  13.7529938  46.1683283  45.8381008
  14.3940529  47.2029319  44.9378146  13.9049709  45.9129812  42.6368304
  14.4337475  45.4022267  42.0238466  14.1677928  45.5972342  43.5013837
  12.6587942  37.6921745  57.7591123  11.9828579  37.5915874  58.4293498
  13.4815576  37.5360959  58.2227120   4.4066801  43.9293682  50.3803638
   4.9920238  43.1837369  50.5131542   4.2091640  44.2397638  51.2640302
   7.2605457  46.9644929  45.3966080   6.5915832  47.4491057  44.9130120
   7.1218326  47.2114149  46.3109459  11.4010725  48.9988672  51.9948739
  11.9529033  49.1620294  52.7597824  11.7416919  49.5893110  51.3228763
   6.3775218  31.3463822  52.5970623   6.4416545  32.2078653  52.1848021
   6.3142339  30.7337824  51.8642982   5.8527491  33.4186955  56.2443658
   6.4799530  33.0364032  56.8581182   4.9955410  33.2001157  56.6099350
  16.2521599  43.8249930  57.8497393  16.7961503  44.4379888  57.3552348
  15.6708444  44.3829508  58.3664406   2.6293034  35.2263384  42.1762012
   2.9246475  34.3174062  42.1229066   1.7281069  35.2051123  41.8543015
  14.5379112  46.9470648  48.9812421  14.4130252  46.1460388  48.4723366
  15.1958204  47.4416841  48.4926391   6.1587281  33.3019381  48.1589561
   5.4373866  33.9155348  48.0197034   6.9480536  33.8377145  48.0806207
  16.6014021  44.7479668  50.6091971  15.6544356  44.6285019  50.5370298
  16.9496794  43.8602166  50.6918232   8.9613594  30.6373807  54.4330213
   9.4847996  30.8836104  55.1956522   8.7425927  31.4693842  54.0133350
   4.3580875  32.9077482  42.3001338   4.0293581  32.0274861  42.1176443
   4.7120246  32.8525150  43.1877727  13.6060454  44.5432384  46.8096323
  13.4585417  43.6149092  46.9903893  14.4313948  44.5652475  46.3253398
   7.4722698  33.1950451  42.6676815   7.8118771  33.7236373  41.9455424
   7.9194819  33.5330858  43.4435382  17.2094576  45.3660943  47.8961196
  18.1341123  45.1603804  47.7585647  17.0409879  45.1177344  48.8050537
  10.1666139  31.5787502  52.1179883   9.8262960  30.7795315  52.5200563
   9.4605145  31.8789213  51.5456716  10.8182611  28.6636815  50.5707206
  11.6408680  28.1897293  50.4486097  11.0620675  29.4427298  51.0705893
   9.4590846  31.6925073  40.8670108  10.1799208  32.0706326  40.3633825
   8.8356150  32.4113950  40.9705086  13.6021968  32.3970222  41.8028440
  13.8185583  33.2794860  41.5017268  13.1216036  32.0056435  41.0734082
   8.3421190  35.3555935  48.3799185   8.1965771  35.6696238  49.2723466
   7.8646393  35.9740836  47.8270084  10.2017573  32.3458483  48.4280074
  10.1879141  31.4499576  48.0912372  10.9190001  32.3529147  49.0618361
  12.0543703  32.7795823  50.4733202  11.7961481  33.7012894  50.4717532
  11.5228744  32.3826258  51.1633666  16.9989892  45.8846610  43.2523287
  17.1726770  45.3193033  42.4997140  17.4918783  46.6847505  43.0702777
   2.8166852  37.8961280  51.3186846   2.2720320  38.6721088  51.4507120
   3.6946202  38.2432084  51.1605968   9.6054469  31.2272863  43.6967645
   9.7270380  30.2989510  43.8958532   9.3156511  31.2411549  42.7845960
  12.4745659  28.9127774  46.8334364  12.4967356  28.9767107  45.8786344
  12.8913718  28.0732283  47.0274871  22.8529283  38.6483033  44.8713587
  23.2960429  37.8990359  44.4732710  21.9755794  38.6393170  44.4887319
  17.9865065  45.2013375  40.3520186  18.6815969  45.8220068  40.5707500
  18.3288215  44.3508726  40.6272563   3.6032874  37.0231176  54.2117003
   2.8614610  37.1713811  54.7981633   3.2825618  37.2839441  53.3483752
  19.8856488  42.6513080  41.8807516  20.4107812  42.9900353  41.1556836
  19.7978840  41.7160096  41.6970651  11.5476536  46.5647154  54.0097393
  11.8563663  46.3196301  54.8820093  12.3452018  46.7693793  53.5216263
  11.5697149  48.7185064  46.2402770  11.1302139  48.2261442  46.9335626
  12.3205265  48.1758031  45.9994845   4.0489487  44.9096605  46.2427398
   4.8747507  44.6100376  45.8626041   3.6983539  44.1404227  46.6917186
   9.0171021  44.2623073  48.3125071   8.3951030  43.5993778  48.0127299
   9.6875888  44.2884205  47.6298719   2.2498093  42.8282931  47.2016331
   1.4130001  42.4005105  47.0200332   2.2221738  43.0215374  48.1387122
   9.0895548  32.7404861  57.9057577   9.1383704  33.6166984  57.5235347
   9.6318062  32.1982254  57.3329220  19.5750394  43.2845984  57.1858714
  18.7845938  43.2670123  56.6463214  19.3383748  43.8234278  57.9407751
  19.6948269  40.1338450  54.4991443  19.7446274  39.9688458  55.4406966
  19.5862192  39.2665709  54.1089324   8.5784528  42.8126996  41.7883532
   8.7272648  43.4962461  41.1350204   9.3850971  42.7932086  42.3032987
  16.9852031  36.1169378  55.8150750  17.8861894  35.9775843  55.5234747
  17.0600006  36.2823833  56.7548927  11.3194837  33.4936233  54.6603936
  10.4498146  33.7869799  54.3886524  11.5554317  34.0776678  55.3811199
  21.1966466  42.5535392  54.7433464  20.9051274  42.9165373  55.5796925
  20.5838597  41.8402400  54.5646796  22.3962148  40.1188272  47.2636035
  23.2309039  40.5578076  47.4273595  22.5321277  39.6426925  46.4444280
  19.4453654  37.6768007  53.2113522  19.9207776  37.8695653  52.4032374
  18.5219219  37.7327192  52.9656906   6.3337161  38.8392174  42.7944601
   6.0883202  37.9354504  42.9924811   6.5033075  38.8409324  41.8524079
  14.0233870  29.7115850  52.1769356  14.5415814  30.4476877  51.8515845
  13.6689003  30.0179843  53.0116115   5.6032808  34.5720531  40.2930762
   4.9102053  34.6464886  39.6370798   5.3584560  33.8080875  40.8152279
  14.2746465  26.1316133  47.6970253  14.5548218  25.4639322  48.3230679
  15.0597072  26.3245228  47.1844917  12.0779933  45.3075127  39.2595279
  11.5053900  45.9265314  38.8065751  12.6512727  45.8574488  39.7935201
  18.1455323  34.5533767  51.4441828  19.0972746  34.6531864  51.4654052
  17.9758773  33.7612035  51.9539912  16.1669702  31.6389350  51.6301229
  15.5719635  31.9194363  50.9347718  15.8819399  32.1283251  52.4017970
  15.2977193  45.5912277  40.3903861  16.2307866  45.5257838  40.5936737
  15.2100406  46.4268544  39.9318394  17.9265210  44.9078147  37.3507809
  17.8478841  44.5738011  38.2443567  18.7474876  45.3999915  37.3499281
  20.6243401  37.7739886  50.5584128  20.5919721  36.8355887  50.7443811
  21.2344024  37.8523923  49.8249952  12.4626732  36.6435939  36.6011332
  13.4085836  36.5142147  36.6699750  12.0840977  35.9050601  37.0780760
  20.7737889  34.5650930  50.6042411  20.2576938  33.7809386  50.4172340
  21.6577838  34.2369646  50.7688930  18.4348616  28.3091945  46.5638223
  18.2373437  28.0007034  47.4481555  19.0448322  29.0353584  46.6936153
  26.4419951  38.8355893  49.6990164  27.1723339  38.5741181  50.2597868
  25.8326896  38.0984615  49.7392232  24.5235248  36.9763756  50.2964616
  23.7968411  36.8419721  49.6881107  24.1082535  37.2840584  51.1021334
  12.3465424  40.6953685  58.0611989  13.2668434  40.8732284  58.2552035
  12.3115007  39.7509731  57.9091688  10.6469649  34.5685916  36.5366217
   9.7401104  34.2719028  36.6128930  10.9245630  34.2715734  35.6700503
   1.5647589  35.8892279  46.9865263   1.2450373  35.0357587  46.6939637
   1.0181017  36.1040857  47.7423231   5.3427497  38.6054720  50.7034770
   5.5613506  39.5371828  50.7222804   5.7553270  38.2462695  51.4889574
  12.2631714  29.1122805  42.6910458  11.4532443  28.7669890  43.0665704
  12.9516131  28.8030349  43.2798070  14.1922263  28.1900852  44.3134755
  14.7453301  28.6096306  44.9724778  14.4292349  27.2636600  44.3557711
  10.2155362  34.1787926  60.0937519  10.1152089  35.1282283  60.0249610
   9.9976904  33.8506165  59.2213589   9.4168433  31.4272851  36.6778196
  10.2787597  31.7527749  36.9374013   9.6018778  30.6404347  36.1651262
   1.4335849  39.5095191  48.9558385   0.7399321  39.0949143  48.4428339
   2.1808840  39.5515727  48.3591804  17.5701070  30.3001377  43.8213419
  16.9899739  30.9586181  43.4391471  17.3037003  29.4778722  43.4100837
  16.0204636  29.7006435  46.0234739  16.5204415  29.8122970  45.2149058
  16.6640244  29.3967488  46.6635548  10.0786632  37.6085065  58.9102580
   9.5953714  38.4085425  59.1166469  10.1647571  37.6193010  57.9570024
   3.3472592  39.4413444  46.8324400   3.3243280  39.5401132  45.8806283
   3.6573228  40.2878595  47.1541566   6.0059970  41.4989599  50.9471014
   6.9603223  41.4673542  50.8800946   5.8072493  41.0380223  51.7621240
   6.5959352  40.0690715  53.5141812   7.4152241  40.5634794  53.5376649
   6.8696159  39.1522684  53.4859379  16.3525948  32.4601468  42.8769767
  15.4651803  32.7451118  42.6589962  16.7679937  32.2995231  42.0297044
  19.7040484  32.4847989  46.5924107  20.4800874  32.9744441  46.8648723
  18.9788618  32.9106043  47.0495976  22.1413043  33.1975608  47.6498047
  22.7357533  32.9571344  46.9391355  22.2139626  32.4782739  48.2771583
   4.3610198  47.0409219  47.9641212   4.2264666  46.2809620  47.3979210
   3.9442261  47.7650119  47.4970001  15.4969161  42.2246142  36.9717787
  16.2005011  42.4296145  37.5875443  14.7731810  42.7922904  37.2366871
  16.3266972  37.9756004  43.0920057  16.2702173  38.4324555  42.2527690
  16.8795314  37.2146688  42.9142900  20.1371778  33.7645736  43.9170177
  19.8808712  33.3642371  44.7478385  19.5124646  34.4789530  43.7920316
  24.4484115  36.5041809  46.4241468  23.8883673  36.5734998  47.1973030
  23.8427619  36.3282793  45.7040965   7.5179324  47.9378536  48.1759655
   7.4011708  48.8823968  48.0738345   6.6971770  47.6352097  48.5645454
  17.4055859  42.6628672  39.0216247  18.2401463  42.2309870  38.8393722
  17.2440202  42.4910685  39.9493142  17.0601751  39.1660785  40.3872587
  17.0050555  39.0005056  39.4461031  16.4347806  39.8736818  40.5434776
   1.8494266  34.4028849  54.2134009   2.4953130  33.8927803  54.7021234
   1.6411417  35.1397531  54.7877434  14.3747658  41.4709697  59.7126149
  15.2438818  41.6450349  59.3512784  13.8954410  42.2904114  59.5901879
  10.3697876  28.6668894  39.9657905  10.3576546  29.6110734  40.1226176
  11.2621298  28.4839039  39.6717366   8.5433838  48.5906798  51.3915583
   9.4461085  48.6230408  51.7082078   8.3171208  47.6607249  51.4061919
  10.2987440  47.3437784  48.0525662   9.3483071  47.3439646  47.9390034
  10.6019926  46.5970519  47.5361696  14.1849996  25.2611671  44.2203842
  13.4182392  24.7070157  44.3660524  14.5960701  25.3333539  45.0817993
   6.1891757  31.5496466  58.3109023   7.0523218  31.1933271  58.5212348
   5.6157168  31.2110361  58.9984427  26.0340134  53.1798323  49.1171424
  26.6718544  53.0605070  48.4134764  25.9160977  54.1279167  49.1759376
  22.8429840  53.1325751  49.0532949  22.5048352  53.0166816  48.1653484
  23.7119608  52.7316916  49.0333955  18.7016656  54.9861227  45.0429840
  18.1381521  54.8951164  44.2746128  18.5869051  54.1661132  45.5232332
  23.3249623  54.2860603  55.0119154  23.3138264  53.8913401  54.1399658
  23.4870263  53.5526675  55.6052926  16.2481088  56.4812419  47.8814060
  17.0402380  56.1403244  47.4660360  16.4877738  56.5907394  48.8016214
  24.2816215  58.6532195  40.3544305  23.6304194  59.2386275  39.9678318
  25.0760577  59.1838390  40.4139342  18.2071842  55.7421332  40.7531439
  18.9802718  55.1950319  40.6144315  18.5597241  56.6065581  40.9645900
  20.0456884  57.0697714  53.9598338  19.7546750  57.9743345  53.8445005
  20.6813869  57.1114242  54.6742408  20.9713091  54.4474563  50.5499698
  21.5676663  54.2230585  49.8356661  21.0288063  53.7059308  51.1525146
  20.5438120  51.9013998  38.3849889  20.7963640  51.3795520  37.6233352
  19.6062679  51.7380144  38.4876573  25.5881402  50.9049777  46.1924632
  26.3744492  50.4869200  45.8415049  25.8520107  51.8095869  46.3606281
  25.7591480  56.3422627  40.8913289  25.1237313  56.4157253  41.6034194
  25.4288886  56.9316226  40.2132368  30.9889829  50.8425010  47.0957611
  31.7215001  50.2724227  47.3295440  30.2329185  50.4546610  47.5364116
  20.2634408  53.8042104  40.5874264  20.1470666  53.1287008  41.2555348
  20.3736668  53.3174478  39.7706417  22.6065949  53.2652251  44.2920953
  22.2424156  52.7382872  45.0033875  23.4633065  52.8750720  44.1187439
  28.5115250  44.5546584  51.5552219  28.1798575  45.4241995  51.3313434
  27.9160863  44.2382868  52.2346250  22.2471436  48.2942151  39.2882302
  22.4145838  49.1622387  39.6552773  22.0568605  48.4569433  38.3643591
  25.0046769  56.7559130  50.9548132  24.7047492  57.6584169  50.8463939
  24.6597829  56.4891313  51.8069285  18.4559251  53.2072927  46.9884836
  17.5309747  53.0749141  47.1962528  18.7043664  53.9867146  47.4854779
  28.4043913  49.2741670  48.6345569  27.4960790  49.2057079  48.3404330
  28.3531509  49.7513615  49.4627395  22.2260657  50.7499809  40.2728968
  22.1060282  51.1956859  41.1114449  21.5313245  51.0985126  39.7142507
  15.8168062  52.8506200  47.8228626  15.9460443  53.1040679  48.7368037
  15.1365513  53.4433908  47.5033281  19.9867549  63.5203450  43.9219100
  19.9091579  64.4711275  44.0007580  19.3829193  63.1749323  44.5794026
  22.4784779  50.6931316  56.5780467  21.7018113  51.2525236  56.5683331
  23.1175342  51.1788099  57.0995337  30.2705560  47.4758108  50.4123443
  29.6279940  47.7690642  49.7663238  29.7660488  47.3611029  51.2176640
  27.9245723  51.2221282  41.1009303  28.8363579  51.4548668  40.9257000
  27.4155370  51.8058326  40.5384381  20.7331151  53.5016769  56.1398434
  21.4745836  54.0401813  55.8633257  20.0268137  54.1283058  56.2969985
  26.2086491  55.6445910  54.7370595  26.6169847  55.2028320  53.9925227
  25.4863752  55.0698537  54.9904788  22.5617561  50.5818516  52.1104152
  23.4078756  51.0057930  52.2538801  22.5016199  49.9252141  52.8042715
  26.5315305  56.2047100  48.4922884  25.9024168  56.3692814  47.7898952
  26.1440968  56.6188710  49.2633848  25.7117006  48.2422885  53.7685326
  25.4677938  48.9964945  53.2319601  25.9876937  48.6208232  54.6032573
  27.6655469  54.7861497  52.4462591  27.8772364  55.4293257  51.7696972
  27.6185217  53.9523814  51.9784521  25.2681698  47.3979318  49.3499163
  24.4066177  47.6960571  49.6415901  25.2944133  47.6149717  48.4180196
  22.0843267  55.9421508  45.7572969  22.5481613  56.2209211  44.9677592
  21.8200065  55.0404953  45.5746060  18.9767348  55.4892990  48.6952732
  19.5468705  55.9180258  48.0570217  19.5675460  55.2075574  49.3936918
  21.0212153  52.0644661  42.5662534  21.7236197  52.5165704  43.0336461
  20.6892782  51.4228479  43.1942427  19.4692515  50.6556417  56.9413744
  18.8391176  51.3372698  57.1749140  19.3628603  50.5439499  55.9966882
  14.7637487  50.3228213  47.8679668  13.9736541  50.5785742  47.3919778
  15.2548735  51.1376551  47.9731708  28.7801297  57.6633452  50.6184949
  29.6018741  57.2613640  50.3367630  28.7763700  57.5601687  51.5701064
  16.7152233  50.6872793  44.8263144  15.9183396  50.7991487  45.3446640
  16.4877825  51.0259445  43.9604035  22.5457900  57.2117496  52.7745659
  22.6102333  57.6737903  53.6103831  21.8368824  56.5814861  52.9027969
  13.0475190  50.5758704  50.2994659  13.2983229  51.4605714  50.5652235
  13.5834739  50.3963305  49.5269750  22.2605918  58.8785603  42.6424639
  22.1251593  59.7237139  43.0709487  22.8015731  59.0804881  41.8790573
  18.7473258  44.9577183  59.3038995  18.3540203  44.4043382  59.9786639
  19.5639398  45.2687762  59.6945512  15.7135315  56.3961041  43.2152565
  16.2259836  57.1904292  43.3658129  16.3658028  55.6987332  43.1486166
  17.5230200  59.5126798  45.2975318  17.6996828  60.4344762  45.1096302
  18.3187034  59.1985217  45.7269697  21.6641219  46.3735062  56.8959251
  22.4050932  46.9742215  56.8163714  21.8959141  45.6312700  56.3377294
  16.8082557  51.5591429  55.1737481  16.6936072  50.6576687  55.4744580
  15.9527074  51.8055126  54.8222297  23.8874394  59.5009170  56.7724982
  23.4438249  58.7145548  56.4545886  24.5491608  59.6888320  56.1068872
  18.6461516  61.0304971  51.2985660  19.1968941  60.9022035  50.5262654
  17.8072991  61.3299860  50.9480553  25.9855632  59.7811970  54.8006383
  25.9674108  60.6020851  54.3086652  26.9075553  59.6566045  55.0256524
  22.4428687  57.2956099  55.6429891  22.9757023  56.5344387  55.4129199
  21.9142768  57.0029751  56.3854046  25.6098382  42.4016165  51.1723533
  25.2662651  43.2917807  51.0962643  25.9777344  42.2117823  50.3093118
  13.6784232  54.7249696  43.9912135  14.5159454  55.1346704  43.7745843
  13.8562500  53.7849138  43.9612329  25.5748664  52.3924776  39.6795968
  25.0595288  53.1629381  39.9184355  25.3025973  51.7189912  40.3029029
  23.1595775  47.2374477  44.7381206  22.3037372  46.8481327  44.5586845
  23.5722727  47.3166438  43.8780992  24.6894922  44.7720820  49.1372766
  24.1859718  44.7350955  48.3240571  24.9825529  45.6813563  49.1969423
  20.9337808  44.8559550  48.1438948  21.7990805  44.6602359  47.7844837
  21.0015317  44.6269902  49.0708305  30.5482938  55.1457131  41.6149141
  29.7712381  54.8068290  41.1704304  31.2274419  55.1509754  40.9404107
  25.3634967  50.2651868  41.5055749  25.0585103  50.5798017  42.3565892
  26.3165410  50.3433288  41.5483082  23.8081399  56.4242092  43.1548703
  23.2802761  55.6894851  42.8421941  23.3068902  57.2016768  42.9088672
  28.7874245  54.6191112  48.2715749  28.1297920  55.3090374  48.3595878
  29.5914645  55.0087544  48.6149736  18.5400127  47.0861758  45.5155315
  19.1143879  46.8636939  44.7828508  19.1271109  47.1550452  46.2683916
  27.5979704  52.9735485  46.3219691  28.1111586  53.6065477  46.8241401
  28.2480928  52.3736680  45.9563051  18.8669714  49.1166219  39.5351200
  18.0307026  49.4540905  39.8560475  18.7274484  48.9815199  38.5978337
  20.8422795  43.9603007  44.2430384  20.1887207  43.6452024  43.6186999
  20.8003269  43.3378747  44.9690207  21.9534000  54.2422302  36.1583676
  21.0461061  54.0111555  36.3574825  22.4505032  53.4459921  36.3457658
  24.8602078  62.9519809  39.0780362  24.1863777  63.2551506  39.6865320
  25.2467900  63.7548889  38.7285819  24.0760535  50.4484940  48.5678032
  23.1583096  50.6699887  48.4099720  24.4920679  50.5231251  47.7089739
  24.8595583  51.8476356  43.6980712  25.6067402  52.3597753  43.3887834
  25.1287172  51.5260409  44.5585106  23.1322233  54.3434897  40.6807666
  22.2233452  54.0593930  40.7780136  23.1617317  54.7633975  39.8210973
  28.3641500  57.9541486  44.4498834  27.9103827  57.1132396  44.5064024
  27.7335467  58.5902885  44.7873614  27.3074420  48.8833472  45.6799501
  26.5697177  48.3710858  46.0109744  27.5601193  48.4433854  44.8682778
  26.8074440  59.7917983  45.3848652  27.0997414  60.3523040  44.6661018
  27.3173060  60.0846544  46.1401811  27.4086047  41.6609724  46.2741271
  27.7144924  40.8007088  45.9867186  28.1338652  42.2527344  46.0740264
  13.7010403  52.0640411  44.6622869  13.5034803  51.4709772  43.9373935
  13.1457067  51.7592621  45.3798807  21.6807127  51.9563517  46.7817462
  21.7355737  51.0037354  46.7059938  20.8698329  52.1122956  47.2658760
  22.8298321  55.8843640  38.0195745  22.3917751  55.1679499  37.5601382
  23.5708762  56.1119755  37.4580836  19.6199487  50.5740577  44.5407841
  18.8067352  50.8734748  44.9473033  20.1158481  50.1796266  45.2582323
  21.7708065  60.5698334  46.4742105  21.7284244  60.7959180  45.5450637
  22.6870764  60.3361709  46.6227906  25.2173699  51.0382402  53.3722734
  25.5723086  51.2653875  54.2317200  25.8645830  51.3700778  52.7499990
  30.9471436  54.1600837  44.0772063  30.8089334  54.3502433  43.1493253
  30.5907654  54.9220220  44.5340115  19.1113562  48.1458933  50.1569075
  19.7512941  48.0047692  49.4592039  18.2791092  47.8593446  49.7807677
  30.9740815  56.2277364  49.0883335  31.4077322  56.1352654  49.9366389
  31.6872396  56.2034865  48.4503351  19.8873866  57.4461363  46.2704068
  20.6814464  56.9511683  46.0686643  19.1765558  56.9179226  45.9071773
  24.7068710  59.8279459  50.6216436  24.7605732  60.3970395  51.3894151
  23.8383491  59.9981344  50.2570473  16.1956629  51.5904445  42.3463821
  15.2654217  51.5288900  42.5633783  16.2914101  51.0680398  41.5500462
  16.1142178  48.1159258  44.9342062  16.3748995  49.0304591  44.8251223
  16.9359350  47.6483700  45.0838675  17.5867103  49.5297015  52.1040887
  18.2590157  49.3214377  51.4553536  16.7596890  49.3319101  51.6646119
  23.4892675  46.1558956  54.1206548  22.8420590  46.8548905  54.0271024
  24.2593691  46.5895100  54.4882796  26.8971473  56.4207808  57.1957101
  26.7456980  56.1918360  56.2787185  26.8876153  57.3778409  57.2088446
  23.6656810  53.9939721  52.1803367  24.5948870  54.1450880  52.0072335
  23.2447840  54.0823741  51.3252014  22.4645142  58.0190385  49.9501905
  22.3256227  57.6509169  50.8227843  21.6759738  58.5338024  49.7785863
  23.0593294  63.1199481  41.2927442  23.2345049  62.6487525  42.1073064
  22.3726082  63.7465248  41.5208702  24.0150357  57.3971988  47.3390743
  23.6800189  57.3572758  48.2348393  23.5154302  56.7316704  46.8661153
  17.9894601  52.8039618  52.8643324  17.8514399  52.0719857  53.4654863
  18.8999524  52.7148518  52.5827512  26.9509548  54.7428022  37.6127802
  26.3338719  54.0174850  37.5160855  26.4826037  55.5037382  37.2694877
  20.6176901  52.5159577  52.3527004  21.3276520  51.8752769  52.3113622
  20.5746210  52.7672472  53.2753184  28.6063680  59.4526930  55.2733583
  28.5476226  58.7686151  54.6064166  29.0083198  60.1945920  54.8214209
  19.3305835  49.5024795  54.1722643  18.7943192  49.0515533  54.8244239
  18.7422544  49.6370704  53.4293107  17.6254379  66.2688844  48.0667302
  17.8650977  66.9007368  48.7446320  16.7823575  65.9176884  48.3532661
  18.7408094  48.9613446  36.7349107  17.8637561  48.8402247  36.3711353
  19.2165847  48.1699525  36.4827995  28.6081087  57.4166514  53.5047562
  27.7207866  57.0792436  53.6273961  29.1779638  56.6849546  53.7416328
  10.2610234  53.7490606  46.8290614  10.9481274  53.4352336  46.2411629
  10.1058363  54.6531971  46.5557865  15.0644957  48.6380803  51.2575638
  14.9803145  48.0306472  50.5226048  14.2427663  49.1289821  51.2585134
  22.1382241  62.0767967  50.4708806  22.0652412  62.8822938  50.9828110
  21.6959634  62.2759933  49.6456827  21.9272020  61.3139737  43.9811627
  21.1439542  61.8561417  44.0749852  22.6264765  61.8313716  44.3805868
  25.2368670  47.1234366  46.6245833  25.7337370  46.3704329  46.3046903
  24.4655652  47.1598683  46.0589042  33.0898428  52.8274732  48.2664124
  33.0788304  53.7099447  47.8958057  32.2215807  52.4746283  48.0718661
  24.5980924  61.9754801  52.6266964  25.3108896  62.6102266  52.5542866
  24.1070953  62.0718667  51.8106966  26.3198451  55.8806053  44.1984256
  25.3854730  56.0007516  44.0288960  26.4975120  54.9778520  43.9344266
  21.8203639  49.2651749  46.3517517  21.4501427  48.7122790  47.0398423
  22.3162732  48.6609883  45.7992517  29.7071002  51.7223373  44.7334290
  30.1731455  52.5551364  44.6594593  30.1578503  51.2568354  45.4379549
  19.6492838  59.7249244  53.4472535  20.3502297  60.3585727  53.6001929
  19.1787953  60.0663976  52.6868174  27.7747234  58.0667194  41.7320442
  28.0507077  57.9523789  42.6414316  26.9051732  57.6684679  41.6932615
  27.6787665  44.0903960  48.7725191  26.7650745  44.3208187  48.9407398
  28.1080767  44.1742404  49.6239224  27.4494124  52.2793852  51.2725086
  26.7965574  52.5269759  50.6177538  27.8274504  51.4657990  50.9387563
  24.4101298  62.3153545  45.3753256  24.5923692  61.4975201  45.8381008
  25.2334284  62.5321237  44.9378146  24.7443463  61.2421730  42.6368304
  25.2731230  60.7314185  42.0238466  25.0071683  60.9264260  43.5013837
  23.4981697  53.0213663  57.7591123  22.8222334  52.9207792  58.4293498
  24.3209331  52.8652876  58.2227120  15.2460556  59.2585599  50.3803638
  15.8313993  58.5129287  50.5131542  15.0485394  59.5689556  51.2640302
  18.0999211  62.2936847  45.3966080  17.4309586  62.7782974  44.9130120
  17.9612081  62.5406067  46.3109459   9.8378211  51.8291199  49.1008081
   9.8762310  51.2954790  49.8945199   9.3318503  51.3026405  48.4819058
  22.2404480  64.3280590  51.9948739  22.7922788  64.4912212  52.7597824
  22.5810673  64.9185028  51.3228763  17.2168973  46.6755740  52.5970623
  17.2810299  47.5370571  52.1848021  17.1536093  46.0629742  51.8642982
  16.6921245  48.7478873  56.2443658  17.3193284  48.3655950  56.8581182
  15.8349164  48.5293074  56.6099350  27.0915354  59.1541848  57.8497393
  27.6355258  59.7671806  57.3552348  26.5102199  59.7121426  58.3664406
  13.4686788  50.5555302  42.1762012  13.7640229  49.6465980  42.1229066
  12.5674824  50.5343041  41.8543015  25.3772867  62.2762566  48.9812421
  25.2524006  61.4752306  48.4723366  26.0351958  62.7708759  48.4926391
  16.9981035  48.6311298  48.1589561  16.2767621  49.2447266  48.0197034
  17.7874291  49.1669063  48.0806207  27.4407775  60.0771586  50.6091971
  26.4938111  59.9576937  50.5370298  27.7890548  59.1894084  50.6918232
  19.8007349  45.9665725  54.4330213  20.3241750  46.2128021  55.1956522
  19.5819682  46.7985759  54.0133350  15.1974630  48.2369399  42.3001338
  14.8687336  47.3566778  42.1176443  15.5514000  48.1817068  43.1877727
  24.4454209  59.8724302  46.8096323  24.2979171  58.9441009  46.9903893
  25.2707702  59.8944393  46.3253398  18.3116453  48.5242369  42.6676815
  18.6512525  49.0528290  41.9455424  18.7588573  48.8622775  43.4435382
  28.0488330  60.6952861  47.8961196  28.9734878  60.4895722  47.7585647
  27.8803634  60.4469262  48.8050537  21.0059894  46.9079420  52.1179883
  20.6656714  46.1087233  52.5200563  20.2998900  47.2081131  51.5456716
  21.6576366  43.9928732  50.5707206  22.4802435  43.5189210  50.4486097
  21.9014429  44.7719216  51.0705893  20.2984600  47.0216991  40.8670108
  21.0192963  47.3998243  40.3633825  19.6749904  47.7405867  40.9705086
  24.4415723  47.7262140  41.8028440  24.6579337  48.6086778  41.5017268
  23.9609790  47.3348353  41.0734082  19.1814944  50.6847853  48.3799185
  19.0359525  50.9988156  49.2723466  18.7040148  51.3032753  47.8270084
  21.0411327  47.6750401  48.4280074  21.0272896  46.7791494  48.0912372
  21.7583755  47.6821065  49.0618361  22.8937458  48.1087741  50.4733202
  22.6355236  49.0304812  50.4717532  22.3622498  47.7118176  51.1633666
  27.8383647  61.2138528  43.2523287  28.0120524  60.6484951  42.4997140
  28.3312538  62.0139423  43.0702777  13.6560606  53.2253197  51.3186846
  13.1114075  54.0013005  51.4507120  14.5339956  53.5724002  51.1605968
  20.4448223  46.5564781  43.6967645  20.5664134  45.6281427  43.8958532
  20.1550265  46.5703467  42.7845960  23.3139413  44.2419692  46.8334364
  23.3361110  44.3059025  45.8786344  23.7307472  43.4024200  47.0274871
  33.6923038  53.9774951  44.8713587  34.1354184  53.2282276  44.4732710
  32.8149548  53.9685087  44.4887319  28.8258819  60.5305293  40.3520186
  29.5209724  61.1511985  40.5707500  29.1681969  59.6800644  40.6272563
  14.4426628  52.3523094  54.2117003  13.7008364  52.5005729  54.7981633
  14.1219373  52.6131359  53.3483752  30.7250242  57.9804998  41.8807516
  31.2501566  58.3192271  41.1556836  30.6372595  57.0452013  41.6970651
  22.3870291  61.8939072  54.0097393  22.6957417  61.6488219  54.8820093
  23.1845773  62.0985710  53.5216263  22.4090903  64.0476981  46.2402770
  21.9695893  63.5553360  46.9335626  23.1599020  63.5049949  45.9994845
  14.8883242  60.2388522  46.2427398  15.7141262  59.9392294  45.8626041
  14.5377294  59.4696145  46.6917186  19.8564775  59.5914990  48.3125071
  19.2344784  58.9285695  48.0127299  20.5269642  59.6176122  47.6298719
  13.0891847  58.1574849  47.2016331  12.2523755  57.7297023  47.0200332
  13.0615492  58.3507292  48.1387122  19.9289303  48.0696778  57.9057577
  19.9777458  48.9458901  57.5235347  20.4711817  47.5274172  57.3329220
  30.4144148  58.6137902  57.1858714  29.6239692  58.5962041  56.6463214
  30.1777503  59.1526195  57.9407751  30.5342023  55.4630368  54.4991443
  30.5840028  55.2980376  55.4406966  30.4255947  54.5957627  54.1089324
  19.4178282  58.1418914  41.7883532  19.5666402  58.8254378  41.1350204
  20.2244726  58.1224004  42.3032987  27.8245786  51.4461296  55.8150750
  28.7255649  51.3067761  55.5234747  27.8993760  51.6115751  56.7548927
  22.1588591  48.8228151  54.6603936  21.2891900  49.1161717  54.3886524
  22.3948071  49.4068596  55.3811199  33.2355903  55.4480189  47.2636035
  34.0702794  55.8869993  47.4273595  33.3715031  54.9718843  46.4444280
  30.2847408  53.0059924  53.2113522  30.7601530  53.1987571  52.4032374
  29.3612974  53.0619110  52.9656906  17.1730915  54.1684091  42.7944601
  16.9276957  53.2646421  42.9924811  17.3426830  54.1701242  41.8524079
  24.8627625  45.0407768  52.1769356  25.3809569  45.7768795  51.8515845
  24.5082758  45.3471761  53.0116115  16.4426563  49.9012449  40.2930762
  15.7495808  49.9756804  39.6370798  16.1978314  49.1372793  40.8152279
  25.1140219  41.4608050  47.6970253  25.3941973  40.7931239  48.3230679
  25.8990826  41.6537146  47.1844917  22.9173688  60.6367044  39.2595279
  22.3447655  61.2557231  38.8065751  23.4906481  61.1866406  39.7935201
  28.9849077  49.8825684  51.4441828  29.9366500  49.9823782  51.4654052
  28.8152528  49.0903953  51.9539912  27.0063457  46.9681268  51.6301229
  26.4113389  47.2486280  50.9347718  26.7213154  47.4575168  52.4017970
  26.1370947  60.9204194  40.3903861  27.0701621  60.8549756  40.5936737
  26.0494160  61.7560461  39.9318394  28.7658964  60.2370065  37.3507809
  28.6872596  59.9029928  38.2443567  29.5868631  60.7291833  37.3499281
  31.4637155  53.1031804  50.5584128  31.4313475  52.1647805  50.7443811
  32.0737779  53.1815841  49.8249952  23.3020486  51.9727857  36.6011332
  24.2479591  51.8434065  36.6699750  22.9234731  51.2342519  37.0780760
  31.6131644  49.8942847  50.6042411  31.0970692  49.1101304  50.4172340
  32.4971592  49.5661564  50.7688930  29.2742371  43.6383863  46.5638223
  29.0767192  43.3298951  47.4481555  29.8842076  44.3645502  46.6936153
  35.3629002  52.3055673  50.2964616  34.6362166  52.1711638  49.6881107
  34.9476289  52.6132502  51.1021334  23.1859179  56.0245603  58.0611989
  24.1062188  56.2024202  58.2552035  23.1508762  55.0801648  57.9091688
  21.4863403  49.8977833  36.5366217  20.5794859  49.6010946  36.6128930
  21.7639384  49.6007651  35.6700503  12.4041344  51.2184197  46.9865263
  12.0844128  50.3649505  46.6939637  11.8574772  51.4332775  47.7423231
  16.1821251  53.9346638  50.7034770  16.4007261  54.8663746  50.7222804
  16.5947025  53.5754612  51.4889574  23.1025469  44.4414723  42.6910458
  22.2926197  44.0961808  43.0665704  23.7909886  44.1322267  43.2798070
  25.0316017  43.5192770  44.3134755  25.5847056  43.9388223  44.9724778
  25.2686104  42.5928518  44.3557711  21.0549116  49.5079844  60.0937519
  20.9545843  50.4574201  60.0249610  20.8370659  49.1798082  59.2213589
  20.2562188  46.7564769  36.6778196  21.1181352  47.0819667  36.9374013
  20.4412532  45.9696265  36.1651262  12.2729604  54.8387108  48.9558385
  11.5793075  54.4241061  48.4428339  13.0202595  54.8807645  48.3591804
  28.4094824  45.6293295  43.8213419  27.8293493  46.2878099  43.4391471
  28.1430757  44.8070640  43.4100837  26.8598391  45.0298353  46.0234739
  27.3598169  45.1414887  45.2149058  27.5033999  44.7259406  46.6635548
  20.9180387  52.9376982  58.9102580  20.4347468  53.7377343  59.1166469
  21.0041326  52.9484927  57.9570024  14.1866346  54.7705362  46.8324400
  14.1637034  54.8693049  45.8806283  14.4966983  55.6170513  47.1541566
  16.8453724  56.8281517  50.9471014  17.7996978  56.7965459  50.8800946
  16.6466248  56.3672141  51.7621240  17.4353106  55.3982633  53.5141812
  18.2545995  55.8926712  53.5376649  17.7089914  54.4814601  53.4859379
  27.1919702  47.7893385  42.8769767  26.3045557  48.0743036  42.6589962
  27.6073691  47.6287149  42.0297044  30.5434238  47.8139906  46.5924107
  31.3194629  48.3036359  46.8648723  29.8182373  48.2397961  47.0495976
  32.9806797  48.5267526  47.6498047  33.5751288  48.2863262  46.9391355
  33.0533381  47.8074656  48.2771583  15.2003953  62.3701137  47.9641212
  15.0658421  61.6101537  47.3979210  14.7836015  63.0942036  47.4970001
  26.3362916  57.5538060  36.9717787  27.0398766  57.7588063  37.5875443
  25.6125565  58.1214822  37.2366871  27.1660726  53.3047921  43.0920057
  27.1095928  53.7616473  42.2527690  27.7189069  52.5438606  42.9142900
  30.9765532  49.0937653  43.9170177  30.7202466  48.6934289  44.7478385
  30.3518400  49.8081447  43.7920316  35.2877870  51.8333727  46.4241468
  34.7277428  51.9026916  47.1973030  34.6821373  51.6574711  45.7040965
  18.3573079  63.2670454  48.1759655  18.2405463  64.2115886  48.0738345
  17.5365525  62.9644015  48.5645454  28.2449613  57.9920589  39.0216247
  29.0795217  57.5601788  38.8393722  28.0833956  57.8202603  39.9493142
  27.8995505  54.4952703  40.3872587  27.8444309  54.3296974  39.4461031
  27.2741561  55.2028736  40.5434776  12.6888020  49.7320767  54.2134009
  13.3346884  49.2219721  54.7021234  12.4805172  50.4689449  54.7877434
  25.2141413  56.8001614  59.7126149  26.0832572  56.9742267  59.3512784
  24.7348164  57.6196031  59.5901879  21.2091631  43.9960812  39.9657905
  21.1970301  44.9402652  40.1226176  22.1015053  43.8130957  39.6717366
  19.3827593  63.9198716  51.3915583  20.2854840  63.9522326  51.7082078
  19.1564963  62.9899166  51.4061919  21.1381195  62.6729702  48.0525662
  20.1876826  62.6731564  47.9390034  21.4413681  61.9262437  47.5361696
  25.0243750  40.5903588  44.2203842  24.2576146  40.0362075  44.3660524
  25.4354455  40.6625457  45.0817993  17.0285511  46.8788384  58.3109023
  17.8916973  46.5225189  58.5212348  16.4550922  46.5402279  58.9984427
  29.5410410  70.3153145  45.0429840  28.9775275  70.2243082  44.2746128
  29.4262805  69.4953049  45.5232332  27.0874842  71.8104337  47.8814060
  27.8796134  71.4695161  47.4660360  27.3271492  71.9199312  48.8016214
  35.1209969  73.9824113  40.3544305  34.4697949  74.5678193  39.9678318
  35.9154332  74.5130308  40.4139342  29.0465596  71.0713250  40.7531439
  29.8196472  70.5242237  40.6144315  29.3990995  71.9357499  40.9645900
  31.3831874  67.2305916  38.3849889  31.6357395  66.7087437  37.6233352
  30.4456433  67.0672061  38.4876573  36.5985234  71.6714545  40.8913289
  35.9631067  71.7449171  41.6034194  36.2682641  72.2608143  40.2132368
  31.1028163  69.1334022  40.5874264  30.9864421  68.4578925  41.2555348
  31.2130423  68.6466396  39.7706417  33.0865191  63.6234069  39.2882302
  33.2539593  64.4914305  39.6552773  32.8962360  63.7861350  38.3643591
  29.2953005  68.5364844  46.9884836  28.3703502  68.4041059  47.1962528
  29.5437418  69.3159064  47.4854779  33.0654412  66.0791726  40.2728968
  32.9454037  66.5248777  41.1114449  32.3707000  66.4277044  39.7142507
  26.6561816  68.1798118  47.8228626  26.7854198  68.4332597  48.7368037
  25.9759268  68.7725826  47.5033281  30.8261304  78.8495368  43.9219100
  30.7485333  79.8003193  44.0007580  30.2222947  78.5041240  44.5794026
  32.9237022  71.2713426  45.7572969  33.3875367  71.5501129  44.9677592
  32.6593820  70.3696870  45.5746060  29.8161103  70.8184907  48.6952732
  30.3862460  71.2472176  48.0570217  30.4069215  70.5367492  49.3936918
  31.8605908  67.3936578  42.5662534  32.5629951  67.8457622  43.0336461
  31.5286536  66.7520397  43.1942427  30.3086269  65.9848335  56.9413744
  29.6784930  66.6664616  57.1749140  30.2022357  65.8731417  55.9966882
  25.6031242  65.6520131  47.8679668  24.8130296  65.9077659  47.3919778
  26.0942489  66.4668469  47.9731708  27.5545987  66.0164710  44.8263144
  26.7577151  66.1283404  45.3446640  27.3271579  66.3551362  43.9604035
  23.8868945  65.9050621  50.2994659  24.1376983  66.7897631  50.5652235
  24.4228493  65.7255223  49.5269750  47.7101044  69.3364119  46.9669920
  46.9564753  68.7671517  46.8113925  47.8448586  69.3026783  47.9140555
  33.0999673  74.2077521  42.6424639  32.9645347  75.0529057  43.0709487
  33.6409485  74.4096799  41.8790573  26.5529070  71.7252959  43.2152565
  27.0653590  72.5196209  43.3658129  27.2051783  71.0279249  43.1486166
  28.3623955  74.8418715  45.2975318  28.5390583  75.7636680  45.1096302
  29.1580788  74.5277134  45.7269697  27.6476311  66.8883347  55.1737481
  27.5329826  65.9868604  55.4744580  26.7920829  67.1347044  54.8222297
  29.4855270  76.3596889  51.2985660  30.0362695  76.2313952  50.5262654
  28.6466746  76.6591778  50.9480553  24.5177987  70.0541613  43.9912135
  25.3553209  70.4638622  43.7745843  24.6956254  69.1141055  43.9612329
  36.4142419  67.7216694  39.6795968  35.8989042  68.4921299  39.9184355
  36.1419727  67.0481830  40.3029029  41.3876693  70.4749049  41.6149141
  40.6106136  70.1360208  41.1704304  42.0668174  70.4801672  40.9404107
  34.6475154  71.7534009  43.1548703  34.1196515  71.0186769  42.8421941
  34.1462657  72.5308686  42.9088672  29.3793881  62.4153676  45.5155315
  29.9537633  62.1928857  44.7828508  29.9664864  62.4842370  46.2683916
  29.7063469  64.4458137  39.5351200  28.8700781  64.7832823  39.8560475
  29.5668238  64.3107116  38.5978337  32.7927754  69.5714220  36.1583676
  31.8854816  69.3403473  36.3574825  33.2898786  68.7751839  36.3457658
  35.6995833  78.2811727  39.0780362  35.0257532  78.5843424  39.6865320
  36.0861655  79.0840807  38.7285819  33.9715987  69.6726814  40.6807666
  33.0627207  69.3885847  40.7780136  34.0011071  70.0925893  39.8210973
  39.2035255  73.2833404  44.4498834  38.7497582  72.4424314  44.5064024
  38.5729222  73.9194802  44.7873614  37.6468194  75.1209901  45.3848652
  37.9391168  75.6814958  44.6661018  38.1566815  75.4138462  46.1401811
  24.5404158  67.3932329  44.6622869  24.3428558  66.8001689  43.9373935
  23.9850822  67.0884539  45.3798807  33.6692075  71.2135558  38.0195745
  33.2311505  70.4971417  37.5601382  34.4102516  71.4411673  37.4580836
  30.4593241  65.9032495  44.5407841  29.6461107  66.2026665  44.9473033
  30.9552236  65.5088184  45.2582323  32.6101819  75.8990252  46.4742105
  32.5677998  76.1251098  45.5450637  33.5264518  75.6653626  46.6227906
  29.9507316  63.4750850  50.1569075  30.5906695  63.3339609  49.4592039
  29.1184847  63.1885364  49.7807677  30.7267620  72.7753281  46.2704068
  31.5208219  72.2803601  46.0686643  30.0159312  72.2471144  45.9071773
  35.5462465  75.1571376  50.6216436  35.5999487  75.7262313  51.3894151
  34.6777246  75.3273261  50.2570473  27.0350384  66.9196362  42.3463821
  26.1047972  66.8580818  42.5633783  27.1307856  66.3972315  41.5500462
  26.9535933  63.4451175  44.9342062  27.2142750  64.3596509  44.8251223
  27.7753105  62.9775618  45.0838675  28.4260858  64.8588932  52.1040887
  29.0983911  64.6506295  51.4553536  27.5990644  64.6611018  51.6646119
  33.3038896  73.3482303  49.9501905  33.1649982  72.9801087  50.8227843
  32.5153492  73.8629942  49.7785863  33.8987048  78.4491399  41.2927442
  34.0738804  77.9779442  42.1073064  33.2119836  79.0757165  41.5208702
  34.8544111  72.7263905  47.3390743  34.5193944  72.6864675  48.2348393
  34.3548057  72.0608621  46.8661153  28.8288355  68.1331535  52.8643324
  28.6908153  67.4011774  53.4654863  29.7393279  68.0440436  52.5827512
  37.7903303  70.0719940  37.6127802  37.1732474  69.3466768  37.5160855
  37.3219791  70.8329300  37.2694877  30.1699590  64.8316713  54.1722643
  29.6336947  64.3807451  54.8244239  29.5816298  64.9662621  53.4293107
  28.4648133  81.5980762  48.0667302  28.7044732  82.2299286  48.7446320
  27.6217330  81.2468802  48.3532661  29.5801849  64.2905364  36.7349107
  28.7031315  64.1694165  36.3711353  30.0559602  63.4991442  36.4827995
  21.1003989  69.0782524  46.8290614  21.7875029  68.7644254  46.2411629
  20.9452118  69.9823888  46.5557865  25.9038711  63.9672720  51.2575638
  25.8196900  63.3598390  50.5226048  25.0821417  64.4581739  51.2585134
  32.9775995  77.4059884  50.4708806  32.9046167  78.2114856  50.9828110
  32.5353388  77.6051850  49.6456827  32.7665775  76.6431654  43.9811627
  31.9833297  77.1853335  44.0749852  33.4658520  77.1605634  44.3805868
  35.4374679  77.3046718  52.6266964  36.1502651  77.9394183  52.5542866
  34.9464707  77.4010584  51.8106966  37.1592206  71.2097971  44.1984256
  36.2248484  71.3299434  44.0288960  37.3368874  70.3070438  43.9344266
  38.6140988  73.3959112  41.7320442  38.8900832  73.2815706  42.6414316
  37.7445487  72.9976597  41.6932615  35.2495052  77.6445463  45.3753256
  35.4317447  76.8267118  45.8381008  36.0728038  77.8613155  44.9378146
  35.5837218  76.5713648  42.6368304  36.1124984  76.0606102  42.0238466
  35.8465437  76.2556178  43.5013837  26.0854310  74.5877517  50.3803638
  26.6707747  73.8421205  50.5131542  25.8879149  74.8981474  51.2640302
  28.9392966  77.6228764  45.3966080  28.2703341  78.1074892  44.9130120
  28.8005835  77.8697985  46.3109459  20.6771965  67.1583117  49.1008081
  20.7156065  66.6246708  49.8945199  20.1712258  66.6318323  48.4819058
  33.0798234  79.6572508  51.9948739  33.6316542  79.8204129  52.7597824
  33.4204428  80.2476946  51.3228763  28.0562727  62.0047658  52.5970623
  28.1204054  62.8662489  52.1848021  27.9929848  61.3921659  51.8642982
  27.5315000  64.0770790  56.2443658  28.1587039  63.6947867  56.8581182
  26.6742919  63.8584992  56.6099350  24.3080543  65.8847219  42.1762012
  24.6033984  64.9757898  42.1229066  23.4068578  65.8634959  41.8543015
  36.2166621  77.6054483  48.9812421  36.0917761  76.8044223  48.4723366
  36.8745713  78.1000677  48.4926391  27.8374790  63.9603216  48.1589561
  27.1161375  64.5739184  48.0197034  28.6268045  64.4960981  48.0806207
  26.0368384  63.5661317  42.3001338  25.7081090  62.6858696  42.1176443
  26.3907755  63.5108986  43.1877727  35.2847963  75.2016220  46.8096323
  35.1372926  74.2732927  46.9903893  36.1101457  75.2236310  46.3253398
  29.1510207  63.8534287  42.6676815  29.4906280  64.3820208  41.9455424
  29.5982328  64.1914693  43.4435382  38.8882085  76.0244778  47.8961196
  39.8128632  75.8187640  47.7585647  38.7197388  75.7761180  48.8050537
  31.1378355  62.3508908  40.8670108  31.8586717  62.7290161  40.3633825
  30.5143659  63.0697785  40.9705086  35.2809477  63.0554057  41.8028440
  35.4973092  63.9378695  41.5017268  34.8003545  62.6640271  41.0734082
  30.0208699  66.0139771  48.3799185  29.8753279  66.3280074  49.2723466
  29.5433902  66.6324671  47.8270084  38.6777401  76.5430446  43.2523287
  38.8514279  75.9776868  42.4997140  39.1706292  77.3431341  43.0702777
  24.4954361  68.5545115  51.3186846  23.9507829  69.3304923  51.4507120
  25.3733711  68.9015919  51.1605968  31.2841978  61.8856699  43.6967645
  31.4057889  60.9573345  43.8958532  30.9944020  61.8995385  42.7845960
  39.6652574  75.8597210  40.3520186  40.3603478  76.4803903  40.5707500
  40.0075724  75.0092561  40.6272563  25.2820383  67.6815011  54.2117003
  24.5402119  67.8297647  54.7981633  24.9613127  67.9423277  53.3483752
  41.5643997  73.3096916  41.8807516  42.0895321  73.6484189  41.1556836
  41.4766349  72.3743931  41.6970651  33.2264045  77.2230989  54.0097393
  33.5351172  76.9780136  54.8820093  34.0239527  77.4277628  53.5216263
  33.2484657  79.3768899  46.2402770  32.8089648  78.8845278  46.9335626
  33.9992774  78.8341867  45.9994845  25.7276996  75.5680440  46.2427398
  26.5535016  75.2684212  45.8626041  25.3771048  74.7988062  46.6917186
  30.6958530  74.9206908  48.3125071  30.0738539  74.2577613  48.0127299
  31.3663397  74.9468040  47.6298719  23.9285602  73.4866766  47.2016331
  23.0917510  73.0588941  47.0200332  23.9009247  73.6799210  48.1387122
  30.2572037  73.4710831  41.7883532  30.4060157  74.1546296  41.1350204
  31.0638480  73.4515922  42.3032987  28.0124670  69.4976009  42.7944601
  27.7670711  68.5938339  42.9924811  28.1820584  69.4993160  41.8524079
  27.2820317  65.2304367  40.2930762  26.5889562  65.3048722  39.6370798
  27.0372069  64.4664710  40.8152279  33.7567442  75.9658962  39.2595279
  33.1841409  76.5849149  38.8065751  34.3300236  76.5158324  39.7935201
  36.9764702  76.2496112  40.3903861  37.9095375  76.1841674  40.5936737
  36.8887915  77.0852379  39.9318394  39.6052719  75.5661982  37.3507809
  39.5266350  75.2321846  38.2443567  40.4262385  76.0583750  37.3499281
  34.1414241  67.3019775  36.6011332  35.0873345  67.1725983  36.6699750
  33.7628486  66.5634437  37.0780760  32.3257158  65.2269751  36.5366217
  31.4188613  64.9302864  36.6128930  32.6033139  64.9299569  35.6700503
  23.2435098  66.5476114  46.9865263  22.9237882  65.6941423  46.6939637
  22.6968526  66.7624693  47.7423231  27.0215006  69.2638555  50.7034770
  27.2401015  70.1955663  50.7222804  27.4340779  68.9046530  51.4889574
  31.0955942  62.0856686  36.6778196  31.9575106  62.4111585  36.9374013
  31.2806287  61.2988182  36.1651262  23.1123358  70.1679026  48.9558385
  22.4186830  69.7532979  48.4428339  23.8596349  70.2099562  48.3591804
  31.7574141  68.2668900  58.9102580  31.2741223  69.0669260  59.1166469
  31.8435080  68.2776845  57.9570024  25.0260101  70.0997280  46.8324400
  25.0030789  70.1984967  45.8806283  25.3360737  70.9462431  47.1541566
  27.6847479  72.1573435  50.9471014  28.6390732  72.1257377  50.8800946
  27.4860002  71.6964059  51.7621240  28.2746861  70.7274551  53.5141812
  29.0939750  71.2218630  53.5376649  28.5483668  69.8106519  53.4859379
  26.0397707  77.6993054  47.9641212  25.9052175  76.9393455  47.3979210
  25.6229770  78.4233954  47.4970001  37.1756670  72.8829978  36.9717787
  37.8792520  73.0879980  37.5875443  36.4519319  73.4506740  37.2366871
  29.1966833  78.5962371  48.1759655  29.0799217  79.5407804  48.0738345
  28.3759279  78.2935933  48.5645454  39.0843368  73.3212507  39.0216247
  39.9188972  72.8893705  38.8393722  38.9227711  73.1494521  39.9493142
  38.7389260  69.8244620  40.3872587  38.6838064  69.6588892  39.4461031
  38.1135315  70.5320653  40.5434776  23.5281775  65.0612685  54.2134009
  24.1740638  64.5511639  54.7021234  23.3198926  65.7981366  54.7877434
  32.0485385  59.3252729  39.9657905  32.0364055  60.2694569  40.1226176
  32.9408807  59.1422875  39.6717366  30.2221347  79.2490633  51.3915583
  31.1248594  79.2814243  51.7082078  29.9958717  78.3191084  51.4061919
  31.9774949  78.0021620  48.0525662  31.0270580  78.0023481  47.9390034
  32.2807435  77.2554354  47.5361696  35.8637505  55.9195506  44.2203842
  35.0969901  55.3653993  44.3660524  36.2748210  55.9917375  45.0817993
  27.8679266  62.2080302  58.3109023  28.7310727  61.8517107  58.5212348
  27.2944677  61.8694197  58.9984427  47.7127643  83.8382158  49.1171424
  48.3506053  83.7188905  48.4134764  47.5948486  84.7863002  49.1759376
  44.5217349  83.7909586  49.0532949  44.1835861  83.6750651  48.1653484
  45.3907117  83.3900751  49.0333955  40.3804165  85.6445063  45.0429840
  39.8169030  85.5535000  44.2746128  40.2656560  84.8244967  45.5232332
  45.0037132  84.9444438  55.0119154  44.9925773  84.5497236  54.1399658
  45.1657772  84.2110511  55.6052926  37.9268597  87.1396254  47.8814060
  38.7189889  86.7987079  47.4660360  38.1665247  87.2491229  48.8016214
  45.9603724  89.3116030  40.3544305  45.3091703  89.8970111  39.9678318
  46.7548086  89.8422225  40.4139342  39.8859351  86.4005167  40.7531439
  40.6590227  85.8534155  40.6144315  40.2384750  87.2649417  40.9645900
  41.7244393  87.7281550  53.9598338  41.4334259  88.6327181  53.8445005
  42.3601378  87.7698077  54.6742408  42.6500600  85.1058398  50.5499698
  43.2464172  84.8814421  49.8356661  42.7075572  84.3643144  51.1525146
  42.2225628  82.5597834  38.3849889  42.4751149  82.0379355  37.6233352
  41.2850188  82.3963979  38.4876573  47.2668911  81.5633612  46.1924632
  48.0532001  81.1453035  45.8415049  47.5307616  82.4679704  46.3606281
  47.4378989  87.0006462  40.8913289  46.8024822  87.0741089  41.6034194
  47.1076395  87.5900061  40.2132368  52.6677338  81.5008845  47.0957611
  53.4002510  80.9308062  47.3295440  51.9116694  81.1130446  47.5364116
  41.9421917  84.4625940  40.5874264  41.8258175  83.7870843  41.2555348
  42.0524177  83.9758313  39.7706417  44.2853458  83.9236087  44.2920953
  43.9211665  83.3966708  45.0033875  45.1420574  83.5334556  44.1187439
  50.1902759  75.2130419  51.5552219  49.8586084  76.0825830  51.3313434
  49.5948372  74.8966703  52.2346250  43.9258945  78.9525986  39.2882302
  44.0933347  79.8206223  39.6552773  43.7356114  79.1153268  38.3643591
  46.6834278  87.4142965  50.9548132  46.3835001  88.3168004  50.8463939
  46.3385338  87.1475148  51.8069285  40.1346760  83.8656762  46.9884836
  39.2097256  83.7332976  47.1962528  40.3831173  84.6450981  47.4854779
  50.0831422  79.9325505  48.6345569  49.1748299  79.8640914  48.3404330
  50.0319018  80.4097450  49.4627395  43.9048166  81.4083644  40.2728968
  43.7847791  81.8540695  41.1114449  43.2100754  81.7568962  39.7142507
  37.4955571  83.5090036  47.8228626  37.6247952  83.7624515  48.7368037
  36.8153022  84.1017744  47.5033281  41.6655058  94.1787286  43.9219100
  41.5879088  95.1295111  44.0007580  41.0616702  93.8333158  44.5794026
  44.1572288  81.3515151  56.5780467  43.3805622  81.9109071  56.5683331
  44.7962851  81.8371934  57.0995337  51.9493068  78.1341944  50.4123443
  51.3067449  78.4274477  49.7663238  51.4447997  78.0194864  51.2176640
  49.6033232  81.8805117  41.1009303  50.5151088  82.1132504  40.9257000
  49.0942879  82.4642161  40.5384381  42.4118660  84.1600604  56.1398434
  43.1533345  84.6985648  55.8633257  41.7055646  84.7866893  56.2969985
  47.8874000  86.3029745  54.7370595  48.2957356  85.8612155  53.9925227
  47.1651261  85.7282372  54.9904788  44.2405070  81.2402352  52.1104152
  45.0866265  81.6641765  52.2538801  44.1803708  80.5835976  52.8042715
  48.2102814  86.8630935  48.4922884  47.5811677  87.0276650  47.7898952
  47.8228477  87.2772545  49.2633848  52.0892046  87.7985373  45.8467248
  51.4043085  88.1784275  45.2964281  52.1735896  88.4080700  46.5799195
  47.3904515  78.9006720  53.7685326  47.1465447  79.6548781  53.2319601
  47.6664446  79.2792068  54.6032573  49.3442978  85.4445332  52.4462591
  49.5559873  86.0877092  51.7696972  49.2972726  84.6107649  51.9784521
  46.9469207  78.0563153  49.3499163  46.0853686  78.3544407  49.6415901
  46.9731642  78.2733552  48.4180196  43.7630776  86.6005344  45.7572969
  44.2269122  86.8793047  44.9677592  43.4987574  85.6988788  45.5746060
  40.6554857  86.1476825  48.6952732  41.2256214  86.5764093  48.0570217
  41.2462969  85.8659410  49.3936918  42.6999662  82.7228496  42.5662534
  43.4023706  83.1749540  43.0336461  42.3680291  82.0812315  43.1942427
  41.1480024  81.3140253  56.9413744  40.5178685  81.9956533  57.1749140
  41.0416112  81.2023334  55.9966882  36.4424996  80.9812049  47.8679668
  35.6524050  81.2369577  47.3919778  36.9336244  81.7960386  47.9731708
  50.4588806  88.3217288  50.6184949  51.2806250  87.9197475  50.3367630
  50.4551209  88.2185522  51.5701064  38.3939742  81.3456628  44.8263144
  37.5970905  81.4575322  45.3446640  38.1665334  81.6843280  43.9604035
  44.2245409  87.8701331  52.7745659  44.2889842  88.3321738  53.6103831
  43.5156333  87.2398696  52.9027969  34.7262699  81.2342539  50.2994659
  34.9770738  82.1189549  50.5652235  35.2622248  81.0547141  49.5269750
  58.5494799  84.6656036  46.9669920  57.7958507  84.0963434  46.8113925
  58.6842340  84.6318701  47.9140555  43.9393427  89.5369439  42.6424639
  43.8039102  90.3820974  43.0709487  44.4803240  89.7388716  41.8790573
  37.3922824  87.0544877  43.2152565  37.9047345  87.8488127  43.3658129
  38.0445537  86.3571167  43.1486166  39.2017709  90.1710633  45.2975318
  39.3784337  91.0928598  45.1096302  39.9974543  89.8569052  45.7269697
  43.3428728  77.0318898  56.8959251  44.0838441  77.6326051  56.8163714
  43.5746650  76.2896535  56.3377294  38.4870066  82.2175265  55.1737481
  38.3723581  81.3160522  55.4744580  37.6314583  82.4638962  54.8222297
  45.5661903  90.1593005  56.7724982  45.1225758  89.3729384  56.4545886
  46.2279117  90.3472156  56.1068872  40.3249025  91.6888807  51.2985660
  40.8756450  91.5605870  50.5262654  39.4860500  91.9883696  50.9480553
  47.6643141  90.4395805  54.8006383  47.6461617  91.2604686  54.3086652
  48.5863062  90.3149880  55.0256524  44.1216196  87.9539935  55.6429891
  44.6544532  87.1928223  55.4129199  43.5930277  87.6613586  56.3854046
  47.2885891  73.0600000  51.1723533  46.9450160  73.9501642  51.0962643
  47.6564853  72.8701658  50.3093118  35.3571741  85.3833531  43.9912135
  36.1946963  85.7930539  43.7745843  35.5350009  84.4432973  43.9612329
  47.2536173  83.0508612  39.6795968  46.7382797  83.8213216  39.9184355
  46.9813482  82.3773748  40.3029029  44.8383284  77.8958312  44.7381206
  43.9824881  77.5065163  44.5586845  45.2510236  77.9750273  43.8780992
  46.3682431  75.4304656  49.1372766  45.8647227  75.3934791  48.3240571
  46.6613038  76.3397398  49.1969423  52.2270447  85.8040966  41.6149141
  51.4499890  85.4652126  41.1704304  52.9061928  85.8093589  40.9404107
  47.0422476  80.9235704  41.5055749  46.7372612  81.2381853  42.3565892
  47.9952919  81.0017124  41.5483082  45.4868908  87.0825927  43.1548703
  44.9590270  86.3478687  42.8421941  44.9856411  87.8600603  42.9088672
  50.4661754  85.2774947  48.2715749  49.8085429  85.9674209  48.3595878
  51.2702154  85.6671379  48.6149736  40.2187636  77.7445593  45.5155315
  40.7931388  77.5220775  44.7828508  40.8058618  77.8134288  46.2683916
  49.2767213  83.6319320  46.3219691  49.7899095  84.2649312  46.8241401
  49.9268437  83.0320516  45.9563051  40.5457223  79.7750054  39.5351200
  39.7094535  80.1124741  39.8560475  40.4061993  79.6399034  38.5978337
  42.5210304  74.6186842  44.2430384  41.8674716  74.3035859  43.6186999
  42.4790778  73.9962583  44.9690207  43.6321508  84.9006137  36.1583676
  42.7248570  84.6695391  36.3574825  44.1292540  84.1043756  36.3457658
  46.5389587  93.6103644  39.0780362  45.8651286  93.9135341  39.6865320
  46.9255409  94.4132725  38.7285819  45.7548044  81.1068776  48.5678032
  44.8370605  81.3283723  48.4099720  46.1708188  81.1815086  47.7089739
  46.5383092  82.5060191  43.6980712  47.2854911  83.0181589  43.3887834
  46.8074681  82.1844244  44.5585106  44.8109742  85.0018732  40.6807666
  43.9020961  84.7177765  40.7780136  44.8404826  85.4217811  39.8210973
  50.0429009  88.6125322  44.4498834  49.5891336  87.7716231  44.5064024
  49.4122976  89.2486720  44.7873614  48.9861929  79.5417308  45.6799501
  48.2484686  79.0294694  46.0109744  49.2388702  79.1017689  44.8682778
  48.4861949  90.4501818  45.3848652  48.7784923  91.0106875  44.6661018
  48.9960569  90.7430379  46.1401811  49.0873556  72.3193560  46.2741271
  49.3932433  71.4590923  45.9867186  49.8126161  72.9111180  46.0740264
  35.3797912  82.7224246  44.6622869  35.1822312  82.1293607  43.9373935
  34.8244576  82.4176456  45.3798807  43.3594636  82.6147353  46.7817462
  43.4143246  81.6621189  46.7059938  42.5485838  82.7706792  47.2658760
  44.5085830  86.5427476  38.0195745  44.0705260  85.8263335  37.5601382
  45.2496271  86.7703591  37.4580836  41.2986996  81.2324412  44.5407841
  40.4854861  81.5318583  44.9473033  41.7945990  80.8380101  45.2582323
  43.4495574  91.2282169  46.4742105  43.4071753  91.4543016  45.5450637
  44.3658273  90.9945544  46.6227906  46.8961208  81.6966237  53.3722734
  47.2510595  81.9237710  54.2317200  47.5433339  82.0284614  52.7499990
  52.6258945  84.8184673  44.0772063  52.4876843  85.0086269  43.1493253
  52.2695163  85.5804056  44.5340115  40.7901071  78.8042768  50.1569075
  41.4300450  78.6631527  49.4592039  39.9578601  78.5177281  49.7807677
  52.6528324  86.8861200  49.0883335  53.0864831  86.7936489  49.9366389
  53.3659905  86.8618700  48.4503351  41.5661375  88.1045198  46.2704068
  42.3601973  87.6095519  46.0686643  40.8553067  87.5763062  45.9071773
  46.3856219  90.4863294  50.6216436  46.4393241  91.0554230  51.3894151
  45.5171000  90.6565179  50.2570473  37.8744138  82.2488280  42.3463821
  36.9441726  82.1872736  42.5633783  37.9701610  81.7264233  41.5500462
  37.7929687  78.7743093  44.9342062  38.0536504  79.6888426  44.8251223
  38.6146859  78.3067536  45.0838675  39.2654612  80.1880850  52.1040887
  39.9377666  79.9798212  51.4553536  38.4384399  79.9902936  51.6646119
  53.5143874  86.9284900  51.6216220  53.7079764  87.8330711  51.8675495
  53.4144492  86.4692320  52.4554805  45.1680184  76.8142791  54.1206548
  44.5208099  77.5132741  54.0271024  45.9381200  77.2478935  54.4882796
  45.3444319  84.6523556  52.1803367  46.2736379  84.8034716  52.0072335
  44.9235349  84.7407577  51.3252014  44.1432651  88.6774220  49.9501905
  44.0043736  88.3093005  50.8227843  43.3547247  89.1921860  49.7785863
  44.7380803  93.7783317  41.2927442  44.9132558  93.3071360  42.1073064
  44.0513591  94.4049083  41.5208702  45.6937866  88.0555823  47.3390743
  45.3587698  88.0156593  48.2348393  45.1941811  87.3900539  46.8661153
  39.6682110  83.4623453  52.8643324  39.5301908  82.7303692  53.4654863
  40.5787033  83.3732353  52.5827512  48.6297057  85.4011857  37.6127802
  48.0126228  84.6758686  37.5160855  48.1613546  86.1621218  37.2694877
  42.2964410  83.1743412  52.3527004  43.0064029  82.5336605  52.3113622
  42.2533718  83.4256307  53.2753184  50.2851189  90.1110766  55.2733583
  50.2263735  89.4269986  54.6064166  50.6870707  90.8529756  54.8214209
  41.0093344  80.1608630  54.1722643  40.4730701  79.7099369  54.8244239
  40.4210053  80.2954539  53.4293107  39.3041888  96.9272680  48.0667302
  39.5438486  97.5591204  48.7446320  38.4611084  96.5760720  48.3532661
  40.4195603  79.6197282  36.7349107  39.5425070  79.4986083  36.3711353
  40.8953356  78.8283360  36.4827995  50.2868596  88.0750350  53.5047562
  49.3995375  87.7376271  53.6273961  50.8567147  87.3433381  53.7416328
  31.9397743  84.4074441  46.8290614  32.6268783  84.0936171  46.2411629
  31.7845872  85.3115806  46.5557865  36.7432466  79.2964638  51.2575638
  36.6590654  78.6890308  50.5226048  35.9215172  79.7873656  51.2585134
  43.8169750  92.7351802  50.4708806  43.7439921  93.5406774  50.9828110
  43.3747143  92.9343768  49.6456827  43.6059529  91.9723572  43.9811627
  42.8227051  92.5145252  44.0749852  44.3052274  92.4897552  44.3805868
  46.9156179  77.7818202  46.6245833  47.4124879  77.0288164  46.3046903
  46.1443161  77.8182518  46.0589042  54.7685937  83.4858567  48.2664124
  54.7575813  84.3683283  47.8958057  53.9003316  83.1330118  48.0718661
  46.2768433  92.6338636  52.6266964  46.9896405  93.2686101  52.5542866
  45.7858462  92.7302502  51.8106966  47.9985960  86.5389889  44.1984256
  47.0642239  86.6591351  44.0288960  48.1762629  85.6362356  43.9344266
  43.4991148  79.9235585  46.3517517  43.1288936  79.3706625  47.0398423
  43.9950241  79.3193718  45.7992517  51.3858511  82.3807208  44.7334290
  51.8518964  83.2135200  44.6594593  51.8366012  81.9152190  45.4379549
  41.3280347  90.3833080  53.4472535  42.0289806  91.0169563  53.6001929
  40.8575462  90.7247811  52.6868174  49.4534743  88.7251029  41.7320442
  49.7294586  88.6107624  42.6414316  48.5839241  88.3268514  41.6932615
  49.3575174  74.7487795  48.7725191  48.4438254  74.9792022  48.9407398
  49.7868276  74.8326239  49.6239224  49.1281633  82.9377687  51.2725086
  48.4753083  83.1853594  50.6177538  49.5062013  82.1241825  50.9387563
  46.0888807  92.9737380  45.3753256  46.2711201  92.1559036  45.8381008
  46.9121793  93.1905072  44.9378146  46.4230972  91.9005565  42.6368304
  46.9518739  91.3898020  42.0238466  46.6859192  91.5848096  43.5013837
  45.1769206  83.6797498  57.7591123  44.5009843  83.5791627  58.4293498
  45.9996840  83.5236712  58.2227120  36.9248065  89.9169435  50.3803638
  37.5101502  89.1713123  50.5131542  36.7272903  90.2273391  51.2640302
  39.7786720  92.9520682  45.3966080  39.1097095  93.4366810  44.9130120
  39.6399590  93.1989902  46.3109459  31.5165720  82.4875035  49.1008081
  31.5549819  81.9538626  49.8945199  31.0106012  81.9610240  48.4819058
  43.9191989  94.9864426  51.9948739  44.4710297  95.1496047  52.7597824
  44.2598182  95.5768863  51.3228763  38.3708754  79.4062708  56.2443658
  38.9980793  79.0239785  56.8581182  37.5136673  79.1876910  56.6099350
  48.7702863  89.8125683  57.8497393  49.3142767  90.4255641  57.3552348
  48.1889708  90.3705261  58.3664406  35.1474297  81.2139137  42.1762012
  35.4427738  80.3049815  42.1229066  34.2462333  81.1926876  41.8543015
  47.0560376  92.9346401  48.9812421  46.9311515  92.1336141  48.4723366
  47.7139467  93.4292594  48.4926391  38.6768544  79.2895134  48.1589561
  37.9555130  79.9031101  48.0197034  39.4661800  79.8252898  48.0806207
  49.1195284  90.7355421  50.6091971  48.1725620  90.6160772  50.5370298
  49.4678057  89.8477919  50.6918232  41.4794858  76.6249560  54.4330213
  42.0029259  76.8711857  55.1956522  41.2607191  77.4569595  54.0133350
  36.8762139  78.8953235  42.3001338  36.5474845  78.0150614  42.1176443
  37.2301509  78.8400903  43.1877727  46.1241718  90.5308137  46.8096323
  45.9766680  89.6024845  46.9903893  46.9495211  90.5528228  46.3253398
  39.9903962  79.1826204  42.6676815  40.3300034  79.7112126  41.9455424
  40.4376082  79.5206611  43.4435382  49.7275839  91.3536696  47.8961196
  50.6522387  91.1479557  47.7585647  49.5591143  91.1053097  48.8050537
  42.6847403  77.5663255  52.1179883  42.3444223  76.7671068  52.5200563
  41.9786409  77.8664966  51.5456716  41.9772109  77.6800826  40.8670108
  42.6980471  78.0582079  40.3633825  41.3537413  78.3989703  40.9705086
  46.1203232  78.3845975  41.8028440  46.3366846  79.2670613  41.5017268
  45.6397299  77.9932188  41.0734082  40.8602453  81.3431688  48.3799185
  40.7147034  81.6571991  49.2723466  40.3827657  81.9616589  47.8270084
  42.7198836  78.3334236  48.4280074  42.7060405  77.4375330  48.0912372
  43.4371264  78.3404900  49.0618361  44.5724967  78.7671576  50.4733202
  44.3142745  79.6888647  50.4717532  44.0410007  78.3702011  51.1633666
  49.5171156  91.8722364  43.2523287  49.6908033  91.3068786  42.4997140
  50.0100047  92.6723258  43.0702777  35.3348115  83.8837033  51.3186846
  34.7901583  84.6596841  51.4507120  36.2127465  84.2307837  51.1605968
  42.1235732  77.2148616  43.6967645  42.2451643  76.2865263  43.8958532
  41.8337774  77.2287302  42.7845960  55.3710547  84.6358786  44.8713587
  55.8141693  83.8866112  44.4732710  54.4937057  84.6268923  44.4887319
  50.5046328  91.1889128  40.3520186  51.1997233  91.8095821  40.5707500
  50.8469478  90.3384479  40.6272563  36.1214137  83.0106929  54.2117003
  35.3795873  83.1589564  54.7981633  35.8006882  83.2715194  53.3483752
  52.4037751  88.6388833  41.8807516  52.9289075  88.9776106  41.1556836
  52.3160104  87.7035849  41.6970651  44.0657800  92.5522907  54.0097393
  44.3744926  92.3072054  54.8820093  44.8633282  92.7569546  53.5216263
  44.0878412  94.7060817  46.2402770  43.6483402  94.2137195  46.9335626
  44.8386529  94.1633784  45.9994845  36.5670751  90.8972358  46.2427398
  37.3928771  90.5976129  45.8626041  36.2164803  90.1279980  46.6917186
  41.5352284  90.2498826  48.3125071  40.9132293  89.5869531  48.0127299
  42.2057151  90.2759958  47.6298719  34.7679356  88.8158684  47.2016331
  33.9311264  88.3880858  47.0200332  34.7403001  89.0091127  48.1387122
  41.6076812  78.7280614  57.9057577  41.6564967  79.6042737  57.5235347
  42.1499326  78.1858007  57.3329220  52.0931657  89.2721737  57.1858714
  51.3027201  89.2545876  56.6463214  51.8565012  89.8110031  57.9407751
  52.2129532  86.1214203  54.4991443  52.2627537  85.9564211  55.4406966
  52.1043456  85.2541462  54.1089324  41.0965791  88.8002749  41.7883532
  41.2453911  89.4838214  41.1350204  41.9032234  88.7807839  42.3032987
  43.8376100  79.4811986  54.6603936  42.9679409  79.7745552  54.3886524
  44.0735580  80.0652431  55.3811199  54.9143411  86.1064025  47.2636035
  55.7490303  86.5453829  47.4273595  55.0502540  85.6302678  46.4444280
  51.9634917  83.6643760  53.2113522  52.4389039  83.8571406  52.4032374
  51.0400483  83.7202945  52.9656906  38.8518424  84.8267927  42.7944601
  38.6064466  83.9230257  42.9924811  39.0214339  84.8285077  41.8524079
  46.5415134  75.6991603  52.1769356  47.0597078  76.4352630  51.8515845
  46.1870267  76.0055596  53.0116115  38.1214072  80.5596284  40.2930762
  37.4283316  80.6340639  39.6370798  37.8765823  79.7956628  40.8152279
  46.7927728  72.1191886  47.6970253  47.0729482  71.4515075  48.3230679
  47.5778335  72.3120981  47.1844917  44.5961197  91.2950880  39.2595279
  44.0235164  91.9141067  38.8065751  45.1693990  91.8450241  39.7935201
  50.6636586  80.5409520  51.4441828  51.6154009  80.6407617  51.4654052
  50.4940037  79.7487788  51.9539912  48.6850966  77.6265103  51.6301229
  48.0900898  77.9070116  50.9347718  48.4000663  78.1159004  52.4017970
  47.8158456  91.5788030  40.3903861  48.7489129  91.5133591  40.5936737
  47.7281669  92.4144297  39.9318394  50.4446473  90.8953900  37.3507809
  50.3660105  90.5613764  38.2443567  51.2656140  91.3875668  37.3499281
  53.1424664  83.7615639  50.5584128  53.1100984  82.8231640  50.7443811
  53.7525288  83.8399676  49.8249952  44.9807995  82.6311692  36.6011332
  45.9267100  82.5017900  36.6699750  44.6022240  81.8926354  37.0780760
  53.2919153  80.5526683  50.6042411  52.7758201  79.7685139  50.4172340
  54.1759101  80.2245399  50.7688930  50.9529880  74.2967698  46.5638223
  50.7554701  73.9882787  47.4481555  51.5629585  75.0229337  46.6936153
  58.9601214  84.8231646  49.6990164  59.6904603  84.5616934  50.2597868
  58.3508160  84.0860368  49.7392232  57.0416511  82.9639509  50.2964616
  56.3149675  82.8295474  49.6881107  56.6263798  83.2716337  51.1021334
  44.8646688  86.6829438  58.0611989  45.7849697  86.8608038  58.2552035
  44.8296271  85.7385484  57.9091688  43.1650912  80.5561669  36.5366217
  42.2582368  80.2594781  36.6128930  43.4426893  80.2591487  35.6700503
  34.0828853  81.8768032  46.9865263  33.7631637  81.0233340  46.6939637
  33.5362281  82.0916610  47.7423231  37.8608760  84.5930473  50.7034770
  38.0794770  85.5247581  50.7222804  38.2734534  84.2338448  51.4889574
  44.7812978  75.0998558  42.6910458  43.9713706  74.7545643  43.0665704
  45.4697395  74.7906102  43.2798070  46.7103526  74.1776605  44.3134755
  47.2634565  74.5972059  44.9724778  46.9473613  73.2512353  44.3557711
  42.7336625  80.1663679  60.0937519  42.6333352  81.1158036  60.0249610
  42.5158168  79.8381918  59.2213589  41.9349697  77.4148604  36.6778196
  42.7968861  77.7403502  36.9374013  42.1200041  76.6280100  36.1651262
  33.9517113  85.4970944  48.9558385  33.2580584  85.0824896  48.4428339
  34.6990104  85.5391480  48.3591804  50.0882333  76.2877130  43.8213419
  49.5081002  76.9461934  43.4391471  49.8218266  75.4654475  43.4100837
  48.5385900  75.6882188  46.0234739  49.0385678  75.7998723  45.2149058
  49.1821508  75.3843241  46.6635548  42.5967896  83.5960818  58.9102580
  42.1134977  84.3961178  59.1166469  42.6828835  83.6068763  57.9570024
  35.8653855  85.4289197  46.8324400  35.8424543  85.5276885  45.8806283
  36.1754492  86.2754348  47.1541566  38.5241233  87.4865352  50.9471014
  39.4784487  87.4549295  50.8800946  38.3253757  87.0255976  51.7621240
  39.1140615  86.0566469  53.5141812  39.9333504  86.5510547  53.5376649
  39.3877423  85.1398437  53.4859379  48.8707211  78.4477221  42.8769767
  47.9833066  78.7326871  42.6589962  49.2861200  78.2870984  42.0297044
  52.2221747  78.4723742  46.5924107  52.9982138  78.9620194  46.8648723
  51.4969882  78.8981796  47.0495976  54.6594306  79.1851361  47.6498047
  55.2538797  78.9447097  46.9391355  54.7320890  78.4658492  48.2771583
  36.8791462  93.0284972  47.9641212  36.7445930  92.2685373  47.3979210
  36.4623524  93.7525872  47.4970001  48.0150425  88.2121895  36.9717787
  48.7186275  88.4171898  37.5875443  47.2913074  88.7798657  37.2366871
  48.8448235  83.9631757  43.0920057  48.7883436  84.4200308  42.2527690
  49.3976578  83.2022441  42.9142900  52.6553041  79.7521489  43.9170177
  52.3989975  79.3518124  44.7478385  52.0305909  80.4665283  43.7920316
  56.9665379  82.4917562  46.4241468  56.4064937  82.5610751  47.1973030
  56.3608882  82.3158546  45.7040965  40.0360588  93.9254289  48.1759655
  39.9192972  94.8699721  48.0738345  39.2153034  93.6227851  48.5645454
  49.9237122  88.6504425  39.0216247  50.7582726  88.2185623  38.8393722
  49.7621465  88.4786438  39.9493142  49.5783014  85.1536538  40.3872587
  49.5231818  84.9880809  39.4461031  48.9529070  85.8612571  40.5434776
  34.3675529  80.3904602  54.2134009  35.0134393  79.8803556  54.7021234
  34.1592680  81.1273284  54.7877434  42.8879140  74.6544647  39.9657905
  42.8757810  75.5986487  40.1226176  43.7802562  74.4714792  39.6717366
  41.0615102  94.5782551  51.3915583  41.9642348  94.6106161  51.7082078
  40.8352472  93.6483002  51.4061919  42.8168704  93.3313537  48.0525662
  41.8664335  93.3315399  47.9390034  43.1201190  92.5846272  47.5361696
  46.7031259  71.2487424  44.2203842  45.9363655  70.6945910  44.3660524
  47.1141964  71.3209292  45.0817993  58.5521397  99.1674076  49.1171424
  59.1899807  99.0480823  48.4134764  58.4342240 100.1154920  49.1759376
  55.3611104  99.1201504  49.0532949  55.0229615  99.0042569  48.1653484
  56.2300872  98.7192669  49.0333955  51.2197919 100.9736980  45.0429840
  50.6562784 100.8826917  44.2746128  51.1050314 100.1536885  45.5232332
  55.8430887 100.2736356  55.0119154  55.8319527  99.8789154  54.1399658
  56.0051526  99.5402428  55.6052926  48.7662351 102.4688172  47.8814060
  49.5583643 102.1278997  47.4660360  49.0059001 102.5783147  48.8016214
  56.7997478 104.6407948  40.3544305  56.1485458 105.2262028  39.9678318
  57.5941841 105.1714143  40.4139342  50.7253105 101.7297085  40.7531439
  51.4983981 101.1826072  40.6144315  51.0778504 102.5941334  40.9645900
  52.5638148 103.0573467  53.9598338  52.2728014 103.9619098  53.8445005
  53.1995132 103.0989995  54.6742408  53.4894355 100.4350316  50.5499698
  54.0857927 100.2106338  49.8356661  53.5469326  99.6935061  51.1525146
  53.0619383  97.8889751  38.3849889  53.3144904  97.3671273  37.6233352
  52.1243942  97.7255897  38.4876573  58.1062666  96.8925530  46.1924632
  58.8925755  96.4744953  45.8415049  58.3701370  97.7971622  46.3606281
  58.2772743 102.3298380  40.8913289  57.6418576 102.4033006  41.6034194
  57.9470150 102.9191979  40.2132368  63.5071093  96.8300763  47.0957611
  64.2396265  96.2599980  47.3295440  62.7510449  96.4422363  47.5364116
  52.7815672  99.7917857  40.5874264  52.6651930  99.1162761  41.2555348
  52.8917932  99.3050231  39.7706417  55.1247213  99.2528004  44.2920953
  54.7605420  98.7258625  45.0033875  55.9814329  98.8626473  44.1187439
  61.0296513  90.5422337  51.5552219  60.6979838  91.4117748  51.3313434
  60.4342127  90.2258621  52.2346250  54.7652700  94.2817904  39.2882302
  54.9327102  95.1498140  39.6552773  54.5749869  94.4445186  38.3643591
  57.5228033 102.7434883  50.9548132  57.2228756 103.6459922  50.8463939
  57.1779092 102.4767066  51.8069285  50.9740514  99.1948680  46.9884836
  50.0491011  99.0624894  47.1962528  51.2224927  99.9742899  47.4854779
  60.9225177  95.2617423  48.6345569  60.0142054  95.1932832  48.3404330
  60.8712772  95.7389368  49.4627395  54.7441920  96.7375562  40.2728968
  54.6241546  97.1832612  41.1114449  54.0494509  97.0860879  39.7142507
  48.3349325  98.8381953  47.8228626  48.4641706  99.0916432  48.7368037
  47.6546777  99.4309661  47.5033281  52.5048813 109.5079203  43.9219100
  52.4272842 110.4587028  44.0007580  51.9010456 109.1625076  44.5794026
  54.9966042  96.6807069  56.5780467  54.2199376  97.2400989  56.5683331
  55.6356605  97.1663852  57.0995337  62.7886823  93.4633862  50.4123443
  62.1461203  93.7566395  49.7663238  62.2841752  93.3486782  51.2176640
  60.4426987  97.2097035  41.1009303  61.3544843  97.4424421  40.9257000
  59.9336634  97.7934079  40.5384381  53.2512415  99.4892522  56.1398434
  53.9927099 100.0277566  55.8633257  52.5449400 100.1158811  56.2969985
  58.7267754 101.6321663  54.7370595  59.1351110 101.1904073  53.9925227
  58.0045016 101.0574290  54.9904788  55.0798824  96.5694269  52.1104152
  55.9260020  96.9933683  52.2538801  55.0197462  95.9127894  52.8042715
  59.0496569 102.1922853  48.4922884  58.4205431 102.3568567  47.7898952
  58.6622231 102.6064463  49.2633848  62.9285801 103.1277291  45.8467248
  62.2436839 103.5076192  45.2964281  63.0129650 103.7372618  46.5799195
  58.2298270  94.2298638  53.7685326  57.9859202  94.9840698  53.2319601
  58.5058200  94.6083985  54.6032573  60.1836732 100.7737250  52.4462591
  60.3953628 101.4169010  51.7696972  60.1366481  99.9399567  51.9784521
  57.7862961  93.3855071  49.3499163  56.9247440  93.6836324  49.6415901
  57.8125396  93.6025470  48.4180196  54.6024531 101.9297261  45.7572969
  55.0662876 102.2084964  44.9677592  54.3381329 101.0280706  45.5746060
  51.4948612 101.4768743  48.6952732  52.0649969 101.9056011  48.0570217
  52.0856724 101.1951327  49.3936918  53.5393417  98.0520414  42.5662534
  54.2417460  98.5041457  43.0336461  53.2074045  97.4104232  43.1942427
  51.9873778  96.6432170  56.9413744  51.3572439  97.3248451  57.1749140
  51.8809866  96.5315252  55.9966882  47.2818751  96.3103966  47.8679668
  46.4917805  96.5661495  47.3919778  47.7729998  97.1252304  47.9731708
  61.2982560 103.6509205  50.6184949  62.1200004 103.2489393  50.3367630
  61.2944963 103.5477440  51.5701064  49.2333496  96.6748546  44.8263144
  48.4364660  96.7867240  45.3446640  49.0059088  97.0135198  43.9604035
  55.0639164 103.1993249  52.7745659  55.1283596 103.6613656  53.6103831
  54.3550088 102.5690614  52.9027969  45.5656454  96.5634457  50.2994659
  45.8164492  97.4481467  50.5652235  46.1016002  96.3839058  49.5269750
  69.3888553  99.9947954  46.9669920  68.6352262  99.4255352  46.8113925
  69.5236095  99.9610618  47.9140555  54.7787181 104.8661356  42.6424639
  54.6432856 105.7112892  43.0709487  55.3196994 105.0680634  41.8790573
  51.2654521  90.9452936  59.3038995  50.8721467  90.3919135  59.9786639
  52.0820661  91.2563515  59.6945512  48.2316579 102.3836794  43.2152565
  48.7441099 103.1780045  43.3658129  48.8839292 101.6863085  43.1486166
  50.0411464 105.5002551  45.2975318  50.2178092 106.4220515  45.1096302
  50.8368297 105.1860970  45.7269697  54.1822482  92.3610815  56.8959251
  54.9232196  92.9617968  56.8163714  54.4140405  91.6188453  56.3377294
  49.3263820  97.5467182  55.1737481  49.2117335  96.6452440  55.4744580
  48.4708338  97.7930879  54.8222297  56.4055658 105.4884923  56.7724982
  55.9619512 104.7021301  56.4545886  57.0672871 105.6764073  56.1068872
  51.1642779 107.0180724  51.2985660  51.7150204 106.8897788  50.5262654
  50.3254255 107.3175613  50.9480553  58.5036896 105.7687723  54.8006383
  58.4855371 106.5896604  54.3086652  59.4256816 105.6441798  55.0256524
  54.9609950 103.2831852  55.6429891  55.4938287 102.5220140  55.4129199
  54.4324031 102.9905504  56.3854046  58.1279645  88.3891918  51.1723533
  57.7843914  89.2793560  51.0962643  58.4958608  88.1993576  50.3093118
  46.1965496 100.7125449  43.9912135  47.0340718 101.1222457  43.7745843
  46.3743763  99.7724891  43.9612329  58.0929928  98.3800529  39.6795968
  57.5776551  99.1505134  39.9184355  57.8207236  97.7065665  40.3029029
  55.6777039  93.2250230  44.7381206  54.8218635  92.8357080  44.5586845
  56.0903991  93.3042191  43.8780992  57.2076185  90.7596573  49.1372766
  56.7040981  90.7226708  48.3240571  57.5006792  91.6689316  49.1969423
  53.4519071  90.8435303  48.1438948  54.3172068  90.6478112  47.7844837
  53.5196580  90.6145655  49.0708305  63.0664202 101.1332884  41.6149141
  62.2893645 100.7944043  41.1704304  63.7455683 101.1385507  40.9404107
  57.8816231  96.2527621  41.5055749  57.5766367  96.5673771  42.3565892
  58.8346673  96.3309041  41.5483082  56.3262663 102.4117845  43.1548703
  55.7984024 101.6770604  42.8421941  55.8250166 103.1892521  42.9088672
  61.3055509 100.6066865  48.2715749  60.6479183 101.2966127  48.3595878
  62.1095908 100.9963297  48.6149736  51.0581390  93.0737511  45.5155315
  51.6325142  92.8512692  44.7828508  51.6452373  93.1426205  46.2683916
  60.1160968  98.9611238  46.3219691  60.6292849  99.5941230  46.8241401
  60.7662192  98.3612433  45.9563051  51.3850978  95.1041972  39.5351200
  50.5488290  95.4416659  39.8560475  51.2455747  94.9690952  38.5978337
  53.3604058  89.9478760  44.2430384  52.7068470  89.6327777  43.6186999
  53.3184532  89.3254500  44.9690207  54.4715263 100.2298055  36.1583676
  53.5642325  99.9987308  36.3574825  54.9686295  99.4335674  36.3457658
  57.3783342 108.9395562  39.0780362  56.7045041 109.2427259  39.6865320
  57.7649164 109.7424642  38.7285819  56.5941798  96.4360693  48.5678032
  55.6764360  96.6575640  48.4099720  57.0101942  96.5107004  47.7089739
  57.3776846  97.8352109  43.6980712  58.1248665  98.3473506  43.3887834
  57.6468436  97.5136162  44.5585106  55.6503496 100.3310650  40.6807666
  54.7414716 100.0469683  40.7780136  55.6798580 100.7509728  39.8210973
  60.8822764 103.9417239  44.4498834  60.4285091 103.1008149  44.5064024
  60.2516731 104.5778638  44.7873614  59.8255683  94.8709225  45.6799501
  59.0878440  94.3586612  46.0109744  60.0782457  94.4309607  44.8682778
  59.3255703 105.7793736  45.3848652  59.6178677 106.3398793  44.6661018
  59.8354324 106.0722297  46.1401811  59.9267311  87.6485477  46.2741271
  60.2326188  86.7882841  45.9867186  60.6519916  88.2403098  46.0740264
  46.2191667  98.0516164  44.6622869  46.0216067  97.4585525  43.9373935
  45.6638331  97.7468374  45.3798807  54.1988390  97.9439270  46.7817462
  54.2537000  96.9913107  46.7059938  53.3879592  98.0998709  47.2658760
  55.3479584 101.8719393  38.0195745  54.9099014 101.1555252  37.5601382
  56.0890025 102.0995508  37.4580836  52.1380750  96.5616330  44.5407841
  51.3248616  96.8610501  44.9473033  52.6339745  96.1672019  45.2582323
  54.2889328 106.5574087  46.4742105  54.2465507 106.7834933  45.5450637
  55.2052027 106.3237462  46.6227906  57.7354962  97.0258155  53.3722734
  58.0904350  97.2529628  54.2317200  58.3827093  97.3576531  52.7499990
  63.4652699 100.1476590  44.0772063  63.3270598 100.3378186  43.1493253
  63.1088918 100.9095973  44.5340115  51.6294825  94.1334686  50.1569075
  52.2694204  93.9923445  49.4592039  50.7972356  93.8469199  49.7807677
  63.4922079 102.2153117  49.0883335  63.9258585 102.1228407  49.9366389
  64.2053659 102.1910618  48.4503351  52.4055129 103.4337116  46.2704068
  53.1995728 102.9387436  46.0686643  51.6946821 102.9054979  45.9071773
  57.2249974 105.8155212  50.6216436  57.2786996 106.3846148  51.3894151
  56.3564755 105.9857097  50.2570473  48.7137893  97.5780198  42.3463821
  47.7835481  97.5164653  42.5633783  48.8095365  97.0556151  41.5500462
  48.6323442  94.1035011  44.9342062  48.8930259  95.0180344  44.8251223
  49.4540614  93.6359453  45.0838675  50.1048367  95.5172768  52.1040887
  50.7771420  95.3090130  51.4553536  49.2778153  95.3194854  51.6646119
  64.3537628 102.2576818  51.6216220  64.5473518 103.1622629  51.8675495
  64.2538246 101.7984237  52.4554805  56.0073939  92.1434709  54.1206548
  55.3601854  92.8424658  54.0271024  56.7774954  92.5770853  54.4882796
  59.4152737 102.4083561  57.1957101  59.2638243 102.1794113  56.2787185
  59.4057416 103.3654162  57.2088446  56.1838073  99.9815474  52.1803367
  57.1130133 100.1326633  52.0072335  55.7629103 100.0699494  51.3252014
  54.9826405 104.0066138  49.9501905  54.8437491 103.6384922  50.8227843
  54.1941001 104.5213777  49.7785863  55.5774557 109.1075235  41.2927442
  55.7526313 108.6363278  42.1073064  54.8907345 109.7341001  41.5208702
  56.5331620 103.3847741  47.3390743  56.1981453 103.3448511  48.2348393
  56.0335566 102.7192457  46.8661153  50.5075864  98.7915371  52.8643324
  50.3695662  98.0595610  53.4654863  51.4180788  98.7024271  52.5827512
  59.4690812 100.7303775  37.6127802  58.8519982 100.0050603  37.5160855
  59.0007300 101.4913135  37.2694877  53.1358165  98.5035330  52.3527004
  53.8457783  97.8628522  52.3113622  53.0927473  98.7548225  53.2753184
  61.1244944 105.4402683  55.2733583  61.0657490 104.7561904  54.6064166
  61.5264462 106.1821673  54.8214209  51.8487099  95.4900548  54.1722643
  51.3124456  95.0391286  54.8244239  51.2603807  95.6246457  53.4293107
  50.1435642 112.2564597  48.0667302  50.3832241 112.8883121  48.7446320
  49.3004839 111.9052637  48.3532661  51.2589358  94.9489199  36.7349107
  50.3818824  94.8278000  36.3711353  51.7347111  94.1575278  36.4827995
  61.1262351 103.4042267  53.5047562  60.2389130 103.0668189  53.6273961
  61.6960902 102.6725299  53.7416328  42.7791498  99.7366359  46.8290614
  43.4662538  99.4228089  46.2411629  42.6239627 100.6407724  46.5557865
  47.5826220  94.6256556  51.2575638  47.4984409  94.0182225  50.5226048
  46.7608926  95.1165574  51.2585134  54.6563504 108.0643720  50.4708806
  54.5833676 108.8698691  50.9828110  54.2140897 108.2635686  49.6456827
  54.4453284 107.3015490  43.9811627  53.6620806 107.8437170  44.0749852
  55.1446029 107.8189469  44.3805868  57.7549934  93.1110119  46.6245833
  58.2518633  92.3580082  46.3046903  56.9836915  93.1474436  46.0589042
  65.6079691  98.8150485  48.2664124  65.5969568  99.6975200  47.8958057
  64.7397071  98.4622036  48.0718661  57.1162188 107.9630554  52.6266964
  57.8290160 108.5978019  52.5542866  56.6252216 108.0594420  51.8106966
  58.8379715 101.8681806  44.1984256  57.9035993 101.9883269  44.0288960
  59.0156383 100.9654273  43.9344266  54.3384903  95.2527502  46.3517517
  53.9682690  94.6998543  47.0398423  54.8343995  94.6485636  45.7992517
  62.2252266  97.7099126  44.7334290  62.6912718  98.5427117  44.6594593
  62.6759766  97.2444107  45.4379549  52.1674101 105.7124997  53.4472535
  52.8683561 106.3461480  53.6001929  51.6969216 106.0539729  52.6868174
  60.2928497 104.0542947  41.7320442  60.5688341 103.9399542  42.6414316
  59.4232996 103.6560432  41.6932615  60.1968929  90.0779713  48.7725191
  59.2832008  90.3083940  48.9407398  60.6262030  90.1618157  49.6239224
  59.9675387  98.2669605  51.2725086  59.3146837  98.5145512  50.6177538
  60.3455767  97.4533743  50.9387563  56.9282561 108.3029298  45.3753256
  57.1104956 107.4850954  45.8381008  57.7515547 108.5196990  44.9378146
  57.2624727 107.2297483  42.6368304  57.7912493 106.7189938  42.0238466
  57.5252946 106.9140013  43.5013837  56.0162960  99.0089416  57.7591123
  55.3403597  98.9083545  58.4293498  56.8390594  98.8528629  58.2227120
  47.7641819 105.2461352  50.3803638  48.3495256 104.5005040  50.5131542
  47.5666658 105.5565309  51.2640302  50.6180475 108.2812600  45.3966080
  49.9490850 108.7658727  44.9130120  50.4793344 108.5281820  46.3109459
  42.3559474  97.8166952  49.1008081  42.3943574  97.2830543  49.8945199
  41.8499767  97.2902158  48.4819058  54.7585743 110.3156343  51.9948739
  55.3104051 110.4787965  52.7597824  55.0991937 110.9060781  51.3228763
  49.7350236  92.6631493  52.5970623  49.7991563  93.5246324  52.1848021
  49.6717357  92.0505495  51.8642982  49.2102509  94.7354626  56.2443658
  49.8374548  94.3531703  56.8581182  48.3530428  94.5168827  56.6099350
  59.6096617 105.1417601  57.8497393  60.1536521 105.7547559  57.3552348
  59.0283462 105.6997179  58.3664406  45.9868052  96.5431055  42.1762012
  46.2821493  95.6341733  42.1229066  45.0856087  96.5218794  41.8543015
  57.8954130 108.2638319  48.9812421  57.7705270 107.4628059  48.4723366
  58.5533221 108.7584512  48.4926391  49.5162299  94.6187051  48.1589561
  48.7948884  95.2323019  48.0197034  50.3055554  95.1544816  48.0806207
  59.9589039 106.0647339  50.6091971  59.0119374 105.9452690  50.5370298
  60.3071812 105.1769837  50.6918232  52.3188612  91.9541478  54.4330213
  52.8423014  92.2003774  55.1956522  52.1000945  92.7861513  54.0133350
  47.7155893  94.2245152  42.3001338  47.3868599  93.3442531  42.1176443
  48.0695264  94.1692821  43.1877727  56.9635472 105.8600055  46.8096323
  56.8160434 104.9316762  46.9903893  57.7888966 105.8820146  46.3253398
  50.8297716  94.5118122  42.6676815  51.1693789  95.0404043  41.9455424
  51.2769837  94.8498528  43.4435382  60.5669594 106.6828614  47.8961196
  61.4916141 106.4771475  47.7585647  60.3984897 106.4345015  48.8050537
  53.5241157  92.8955173  52.1179883  53.1837978  92.0962986  52.5200563
  52.8180163  93.1956884  51.5456716  54.1757629  89.9804485  50.5707206
  54.9983698  89.5064963  50.4486097  54.4195693  90.7594969  51.0705893
  52.8165863  93.0092744  40.8670108  53.5374226  93.3873996  40.3633825
  52.1931168  93.7281621  40.9705086  56.9596986  93.7137893  41.8028440
  57.1760601  94.5962531  41.5017268  56.4791054  93.3224106  41.0734082
  51.6996208  96.6723606  48.3799185  51.5540788  96.9863909  49.2723466
  51.2221411  97.2908506  47.8270084  53.5592591  93.6626154  48.4280074
  53.5454159  92.7667247  48.0912372  54.2765019  93.6696818  49.0618361
  55.4118721  94.0963494  50.4733202  55.1536499  95.0180565  50.4717532
  54.8803762  93.6993929  51.1633666  60.3564910 107.2014281  43.2523287
  60.5301788 106.6360704  42.4997140  60.8493801 108.0015176  43.0702777
  46.1741870  99.2128950  51.3186846  45.6295338  99.9888758  51.4507120
  47.0521220  99.5599755  51.1605968  52.9629487  92.5440534  43.6967645
  53.0845398  91.6157180  43.8958532  52.6731529  92.5579220  42.7845960
  55.8320677  90.2295445  46.8334364  55.8542374  90.2934778  45.8786344
  56.2488736  89.3899953  47.0274871  66.2104301  99.9650704  44.8713587
  66.6535447  99.2158029  44.4732710  65.3330812  99.9560841  44.4887319
  61.3440083 106.5181046  40.3520186  62.0390987 107.1387738  40.5707500
  61.6863233 105.6676397  40.6272563  46.9607892  98.3398847  54.2117003
  46.2189628  98.4881482  54.7981633  46.6400636  98.6007112  53.3483752
  63.2431506 103.9680751  41.8807516  63.7682830 104.3068024  41.1556836
  63.1553858 103.0327766  41.6970651  54.9051554 107.8814825  54.0097393
  55.2138681 107.6363972  54.8820093  55.7027036 108.0861463  53.5216263
  54.9272166 110.0352734  46.2402770  54.4877157 109.5429113  46.9335626
  55.6780283 109.4925702  45.9994845  47.4064505 106.2264275  46.2427398
  48.2322525 105.9268047  45.8626041  47.0558557 105.4571898  46.6917186
  52.3746039 105.5790743  48.3125071  51.7526048 104.9161449  48.0127299
  53.0450906 105.6051875  47.6298719  45.6073110 104.1450602  47.2016331
  44.7705019 103.7172776  47.0200332  45.5796756 104.3383045  48.1387122
  52.4470566  94.0572532  57.9057577  52.4958722  94.9334654  57.5235347
  52.9893080  93.5149925  57.3329220  62.9325412 104.6013655  57.1858714
  62.1420955 104.5837794  56.6463214  62.6958766 105.1401948  57.9407751
  63.0523287 101.4506121  54.4991443  63.1021292 101.2856129  55.4406966
  62.9437210 100.5833380  54.1089324  51.9359546 104.1294667  41.7883532
  52.0847666 104.8130131  41.1350204  52.7425989 104.1099757  42.3032987
  60.3427049  97.4337049  55.8150750  61.2436912  97.2943514  55.5234747
  60.4175024  97.5991504  56.7548927  54.6769855  94.8103904  54.6603936
  53.8073164  95.1037470  54.3886524  54.9129335  95.3944349  55.3811199
  64.5541484 103.8703063  54.7433464  64.2626292 104.2333043  55.5796925
  63.9413615 103.1570071  54.5646796  65.7537166 101.4355942  47.2636035
  66.5884057 101.8745747  47.4273595  65.8896295 100.9594596  46.4444280
  62.8028672  98.9935677  53.2113522  63.2782793  99.1863324  52.4032374
  61.8794237  99.0494863  52.9656906  49.6912179 100.1559844  42.7944601
  49.4458220  99.2522174  42.9924811  49.8608093 100.1576995  41.8524079
  57.3808888  91.0283521  52.1769356  57.8990832  91.7644548  51.8515845
  57.0264021  91.3347514  53.0116115  48.9607826  95.8888202  40.2930762
  48.2677071  95.9632557  39.6370798  48.7159578  95.1248546  40.8152279
  57.6321483  87.4483803  47.6970253  57.9123236  86.7806992  48.3230679
  58.4172089  87.6412899  47.1844917  55.4354951 106.6242797  39.2595279
  54.8628918 107.2432984  38.8065751  56.0087745 107.1742159  39.7935201
  61.5030341  95.8701437  51.4441828  62.4547764  95.9699535  51.4654052
  61.3333791  95.0779706  51.9539912  59.5244720  92.9557021  51.6301229
  58.9294652  93.2362033  50.9347718  59.2394417  93.4450922  52.4017970
  58.6552211 106.9079947  40.3903861  59.5882884 106.8425509  40.5936737
  58.5675424 107.7436214  39.9318394  61.2840228 106.2245818  37.3507809
  61.2053859 105.8905681  38.2443567  62.1049894 106.7167586  37.3499281
  63.9818419  99.0907557  50.5584128  63.9494739  98.1523558  50.7443811
  64.5919042  99.1691594  49.8249952  55.8201750  97.9603610  36.6011332
  56.7660854  97.8309818  36.6699750  55.4415995  97.2218272  37.0780760
  64.1312907  95.8818600  50.6042411  63.6151956  95.0977057  50.4172340
  65.0152856  95.5537317  50.7688930  61.7923634  89.6259616  46.5638223
  61.5948455  89.3174704  47.4481555  62.4023340  90.3521255  46.6936153
  69.7994969 100.1523564  49.6990164  70.5298357  99.8908852  50.2597868
  69.1901914  99.4152286  49.7392232  67.8810266  98.2931426  50.2964616
  67.1543429  98.1587391  49.6881107  67.4657553  98.6008255  51.1021334
  55.7040442 102.0121356  58.0611989  56.6243452 102.1899955  58.2552035
  55.6690025 101.0677402  57.9091688  54.0044667  95.8853586  36.5366217
  53.0976122  95.5886699  36.6128930  54.2820648  95.5883405  35.6700503
  44.9222607  97.2059950  46.9865263  44.6025391  96.3525258  46.6939637
  44.3756035  97.4208528  47.7423231  48.7002515  99.9222391  50.7034770
  48.9188524 100.8539499  50.7222804  49.1128288  99.5630365  51.4889574
  55.6206732  90.4290476  42.6910458  54.8107461  90.0837561  43.0665704
  56.3091149  90.1198020  43.2798070  57.5497281  89.5068523  44.3134755
  58.1028319  89.9263976  44.9724778  57.7867367  88.5804271  44.3557711
  53.5730380  95.4955597  60.0937519  53.4727107  96.4449954  60.0249610
  53.3551922  95.1673835  59.2213589  52.7743451  92.7440522  36.6778196
  53.6362615  93.0695420  36.9374013  52.9593795  91.9572018  36.1651262
  44.7910867 100.8262861  48.9558385  44.0974339 100.4116814  48.4428339
  45.5383858 100.8683398  48.3591804  60.9276088  91.6169048  43.8213419
  60.3474757  92.2753852  43.4391471  60.6612020  90.7946393  43.4100837
  59.3779654  91.0174106  46.0234739  59.8779433  91.1290640  45.2149058
  60.0215262  90.7135159  46.6635548  53.4361650  98.9252735  58.9102580
  52.9528732  99.7253096  59.1166469  53.5222589  98.9360680  57.9570024
  46.7047610 100.7581115  46.8324400  46.6818298 100.8568802  45.8806283
  47.0148246 101.6046266  47.1541566  49.3634987 102.8157270  50.9471014
  50.3178241 102.7841212  50.8800946  49.1647511 102.3547894  51.7621240
  49.9534370 101.3858386  53.5141812  50.7727259 101.8802465  53.5376649
  50.2271177 100.4690354  53.4859379  59.7100966  93.7769138  42.8769767
  58.8226821  94.0618789  42.6589962  60.1254955  93.6162902  42.0297044
  63.0615502  93.8015659  46.5924107  63.8375892  94.2912112  46.8648723
  62.3363636  94.2273714  47.0495976  65.4988061  94.5143279  47.6498047
  66.0932551  94.2739015  46.9391355  65.5714644  93.7950409  48.2771583
  47.7185216 108.3576890  47.9641212  47.5839684 107.5977291  47.3979210
  47.3017279 109.0817789  47.4970001  58.8544179 103.5413813  36.9717787
  59.5580029 103.7463816  37.5875443  58.1306828 104.1090575  37.2366871
  59.6841990  99.2923674  43.0920057  59.6277191  99.7492226  42.2527690
  60.2370332  98.5314359  42.9142900  63.4946795  95.0813406  43.9170177
  63.2383730  94.6810042  44.7478385  62.8699664  95.7957200  43.7920316
  67.8059133  97.8209480  46.4241468  67.2458691  97.8902669  47.1973030
  67.2002637  97.6450464  45.7040965  50.8754342 109.2546207  48.1759655
  50.7586726 110.1991639  48.0738345  50.0546788 108.9519768  48.5645454
  60.7630877 103.9796342  39.0216247  61.5976481 103.5477541  38.8393722
  60.6015220 103.8078356  39.9493142  60.4176769 100.4828456  40.3872587
  60.3625573 100.3172727  39.4461031  59.7922824 101.1904489  40.5434776
  45.2069284  95.7196520  54.2134009  45.8528147  95.2095474  54.7021234
  44.9986435  96.4565202  54.7877434  57.7322676 102.7877368  59.7126149
  58.6013836 102.9618020  59.3512784  57.2529428 103.6071784  59.5901879
  53.7272894  89.9836565  39.9657905  53.7151564  90.9278405  40.1226176
  54.6196316  89.8006710  39.6717366  51.9008856 109.9074469  51.3915583
  52.8036103 109.9398079  51.7082078  51.6746226 108.9774919  51.4061919
  53.6562458 108.6605455  48.0525662  52.7058089 108.6607317  47.9390034
  53.9594944 107.9138190  47.5361696  57.5425014  86.5779341  44.2203842
  56.7757410  86.0237828  44.3660524  57.9535719  86.6501210  45.0817993
  49.5466775  92.8664137  58.3109023  50.4098236  92.5100942  58.5212348
  48.9732186  92.5278032  58.9984427  69.3915152 114.4965993  49.1171424
  70.0293562 114.3772741  48.4134764  69.2735995 115.4446837  49.1759376
  66.2004858 114.4493422  49.0532949  65.8623370 114.3334486  48.1653484
  67.0694626 114.0484587  49.0333955  62.0591674 116.3028898  45.0429840
  61.4956539 116.2118835  44.2746128  61.9444069 115.4828802  45.5232332
  66.6824641 115.6028273  55.0119154  66.6713282 115.2081072  54.1399658
  66.8445281 114.8694346  55.6052926  59.6056106 117.7980090  47.8814060
  60.3977398 117.4570914  47.4660360  59.8452756 117.9075065  48.8016214
  67.6391232 119.9699866  40.3544305  66.9879212 120.5553946  39.9678318
  68.4335595 120.5006061  40.4139342  61.5646860 117.0589003  40.7531439
  62.3377736 116.5117990  40.6144315  61.9172259 117.9233252  40.9645900
  63.4031902 118.3865385  53.9598338  63.1121768 119.2911016  53.8445005
  64.0388887 118.4281913  54.6742408  64.3288109 115.7642234  50.5499698
  64.9251681 115.5398256  49.8356661  64.3863081 115.0226979  51.1525146
  63.9013137 113.2181669  38.3849889  64.1538658 112.6963190  37.6233352
  62.9637697 113.0547814  38.4876573  68.9456420 112.2217447  46.1924632
  69.7319510 111.8036870  45.8415049  69.2095125 113.1263540  46.3606281
  69.1166498 117.6590298  40.8913289  68.4812331 117.7324924  41.6034194
  68.7863904 118.2483896  40.2132368  74.3464847 112.1592681  47.0957611
  75.0790019 111.5891897  47.3295440  73.5904203 111.7714281  47.5364116
  63.6209426 115.1209775  40.5874264  63.5045684 114.4454678  41.2555348
  63.7311686 114.6342149  39.7706417  65.9640967 114.5819922  44.2920953
  65.5999174 114.0550543  45.0033875  66.8208083 114.1918391  44.1187439
  71.8690268 105.8714255  51.5552219  71.5373593 106.7409666  51.3313434
  71.2735881 105.5550539  52.2346250  65.6046454 109.6109822  39.2882302
  65.7720856 110.4790058  39.6552773  65.4143623 109.7737103  38.3643591
  68.3621787 118.0726801  50.9548132  68.0622510 118.9751839  50.8463939
  68.0172847 117.8058984  51.8069285  61.8134269 114.5240597  46.9884836
  60.8884765 114.3916812  47.1962528  62.0618682 115.3034817  47.4854779
  71.7618931 110.5909341  48.6345569  70.8535808 110.5224749  48.3404330
  71.7106527 111.0681286  49.4627395  65.5835675 112.0667479  40.2728968
  65.4635300 112.5124530  41.1114449  64.8888263 112.4152797  39.7142507
  59.1743080 114.1673871  47.8228626  59.3035461 114.4208350  48.7368037
  58.4940531 114.7601579  47.5033281  63.3442567 124.8371121  43.9219100
  63.2666597 125.7878946  44.0007580  62.7404211 124.4916993  44.5794026
  65.8359797 112.0098986  56.5780467  65.0593131 112.5692907  56.5683331
  66.4750360 112.4955769  57.0995337  73.6280577 108.7925779  50.4123443
  72.9854958 109.0858312  49.7663238  73.1235506 108.6778700  51.2176640
  71.2820741 112.5388952  41.1009303  72.1938597 112.7716339  40.9257000
  70.7730388 113.1225997  40.5384381  64.0906169 114.8184440  56.1398434
  64.8320854 115.3569484  55.8633257  63.3843155 115.4450729  56.2969985
  69.5661509 116.9613580  54.7370595  69.9744865 116.5195991  53.9925227
  68.8438770 116.3866208  54.9904788  65.9192579 111.8986187  52.1104152
  66.7653774 112.3225601  52.2538801  65.8591217 111.2419811  52.8042715
  69.8890323 117.5214771  48.4922884  69.2599186 117.6860485  47.7898952
  69.5015986 117.9356380  49.2633848  73.7679555 118.4569209  45.8467248
  73.0830593 118.8368110  45.2964281  73.8523405 119.0664535  46.5799195
  69.0692024 109.5590555  53.7685326  68.8252956 110.3132616  53.2319601
  69.3451955 109.9375903  54.6032573  71.0230487 116.1029168  52.4462591
  71.2347382 116.7460928  51.7696972  70.9760235 115.2691484  51.9784521
  68.6256716 108.7146988  49.3499163  67.7641195 109.0128242  49.6415901
  68.6519151 108.9317387  48.4180196  65.4418285 117.2589179  45.7572969
  65.9056631 117.5376882  44.9677592  65.1775083 116.3572624  45.5746060
  62.3342366 116.8060660  48.6952732  62.9043723 117.2347929  48.0570217
  62.9250478 116.5243245  49.3936918  64.3787171 113.3812331  42.5662534
  65.0811215 113.8333375  43.0336461  64.0467800 112.7396150  43.1942427
  62.8267533 111.9724088  56.9413744  62.1966193 112.6540369  57.1749140
  62.7203621 111.8607170  55.9966882  58.1212505 111.6395884  47.8679668
  57.3311559 111.8953413  47.3919778  58.6123753 112.4544222  47.9731708
  72.1376315 118.9801123  50.6184949  72.9593759 118.5781310  50.3367630
  72.1338718 118.8769357  51.5701064  60.0727251 112.0040463  44.8263144
  59.2758414 112.1159157  45.3446640  59.8452843 112.3427115  43.9604035
  65.9032918 118.5285166  52.7745659  65.9677351 118.9905574  53.6103831
  65.1943842 117.8982531  52.9027969  56.4050208 111.8926374  50.2994659
  56.6558247 112.7773384  50.5652235  56.9409757 111.7130976  49.5269750
  80.2282308 115.3239872  46.9669920  79.4746016 114.7547270  46.8113925
  80.3629849 115.2902536  47.9140555  65.6180936 120.1953274  42.6424639
  65.4826611 121.0404810  43.0709487  66.1590748 120.3972552  41.8790573
  62.1048276 106.2744854  59.3038995  61.7115221 105.7211052  59.9786639
  62.9214416 106.5855432  59.6945512  59.0710333 117.7128712  43.2152565
  59.5834854 118.5071962  43.3658129  59.7233046 117.0155002  43.1486166
  60.8805218 120.8294468  45.2975318  61.0571846 121.7512433  45.1096302
  61.6762052 120.5152887  45.7269697  65.0216237 107.6902733  56.8959251
  65.7625950 108.2909886  56.8163714  65.2534159 106.9480371  56.3377294
  60.1657575 112.8759100  55.1737481  60.0511090 111.9744357  55.4744580
  59.3102092 113.1222797  54.8222297  67.2449412 120.8176840  56.7724982
  66.8013267 120.0313219  56.4545886  67.9066626 121.0055991  56.1068872
  62.0036534 122.3472642  51.2985660  62.5543959 122.2189705  50.5262654
  61.1648009 122.6467531  50.9480553  69.3430650 121.0979640  54.8006383
  69.3249126 121.9188521  54.3086652  70.2650570 120.9733716  55.0256524
  65.8003705 118.6123770  55.6429891  66.3332041 117.8512058  55.4129199
  65.2717786 118.3197422  56.3854046  68.9673400 103.7183836  51.1723533
  68.6237669 104.6085477  51.0962643  69.3352362 103.5285493  50.3093118
  57.0359250 116.0417366  43.9912135  57.8734472 116.4514375  43.7745843
  57.2137518 115.1016808  43.9612329  68.9323682 113.7092447  39.6795968
  68.4170306 114.4797052  39.9184355  68.6600991 113.0357583  40.3029029
  66.5170793 108.5542148  44.7381206  65.6612390 108.1648998  44.5586845
  66.9297745 108.6334108  43.8780992  68.0469940 106.0888491  49.1372766
  67.5434736 106.0518626  48.3240571  68.3400547 106.9981234  49.1969423
  64.2912826 106.1727221  48.1438948  65.1565823 105.9770029  47.7844837
  64.3590335 105.9437572  49.0708305  73.9057956 116.4624802  41.6149141
  73.1287399 116.1235961  41.1704304  74.5849437 116.4677425  40.9404107
  68.7209985 111.5819539  41.5055749  68.4160121 111.8965688  42.3565892
  69.6740428 111.6600959  41.5483082  67.1656417 117.7409762  43.1548703
  66.6377779 117.0062522  42.8421941  66.6643920 118.5184439  42.9088672
  72.1449263 115.9358783  48.2715749  71.4872938 116.6258044  48.3595878
  72.9489663 116.3255215  48.6149736  61.8975145 108.4029429  45.5155315
  62.4718897 108.1804610  44.7828508  62.4846127 108.4718123  46.2683916
  70.9554722 114.2903156  46.3219691  71.4686604 114.9233147  46.8241401
  71.6055946 113.6904351  45.9563051  62.2244732 110.4333890  39.5351200
  61.3882044 110.7708576  39.8560475  62.0849502 110.2982869  38.5978337
  64.1997813 105.2770678  44.2430384  63.5462225 104.9619695  43.6186999
  64.1578287 104.6546418  44.9690207  65.3109017 115.5589973  36.1583676
  64.4036079 115.3279226  36.3574825  65.8080049 114.7627592  36.3457658
  68.2177096 124.2687480  39.0780362  67.5438795 124.5719177  39.6865320
  68.6042918 125.0716560  38.7285819  67.4335553 111.7652611  48.5678032
  66.5158114 111.9867558  48.4099720  67.8495697 111.8398922  47.7089739
  68.2170601 113.1644027  43.6980712  68.9642420 113.6765424  43.3887834
  68.4862190 112.8428079  44.5585106  66.4897251 115.6602567  40.6807666
  65.5808470 115.3761600  40.7780136  66.5192335 116.0801646  39.8210973
  71.7216518 119.2709157  44.4498834  71.2678845 118.4300067  44.5064024
  71.0910485 119.9070555  44.7873614  70.6649438 110.2001143  45.6799501
  69.9272195 109.6878529  46.0109744  70.9176211 109.7601525  44.8682778
  70.1649458 121.1085654  45.3848652  70.4572432 121.6690711  44.6661018
  70.6748078 121.4014215  46.1401811  70.7661065 102.9777395  46.2741271
  71.0719942 102.1174758  45.9867186  71.4913670 103.5695015  46.0740264
  57.0585421 113.3808082  44.6622869  56.8609821 112.7877442  43.9373935
  56.5032085 113.0760292  45.3798807  65.0382145 113.2731188  46.7817462
  65.0930755 112.3205024  46.7059938  64.2273347 113.4290627  47.2658760
  66.1873339 117.2011311  38.0195745  65.7492769 116.4847170  37.5601382
  66.9283780 117.4287426  37.4580836  62.9774505 111.8908248  44.5407841
  62.1642370 112.1902418  44.9473033  63.4733499 111.4963937  45.2582323
  65.1283083 121.8866005  46.4742105  65.0859262 122.1126851  45.5450637
  66.0445782 121.6529379  46.6227906  68.5748717 112.3550072  53.3722734
  68.9298104 112.5821545  54.2317200  69.2220848 112.6868449  52.7499990
  74.3046454 115.4768508  44.0772063  74.1664352 115.6670104  43.1493253
  73.9482672 116.2387891  44.5340115  62.4688580 109.4626603  50.1569075
  63.1087959 109.3215362  49.4592039  61.6366110 109.1761117  49.7807677
  74.3315833 117.5445035  49.0883335  74.7652340 117.4520324  49.9366389
  75.0447414 117.5202536  48.4503351  63.2448884 118.7629034  46.2704068
  64.0389482 118.2679354  46.0686643  62.5340576 118.2346897  45.9071773
  68.0643728 121.1447129  50.6216436  68.1180750 121.7138066  51.3894151
  67.1958509 121.3149014  50.2570473  59.5531647 112.9072115  42.3463821
  58.6229235 112.8456571  42.5633783  59.6489119 112.3848068  41.5500462
  59.4717196 109.4326928  44.9342062  59.7324013 110.3472262  44.8251223
  60.2934368 108.9651371  45.0838675  60.9442121 110.8464685  52.1040887
  61.6165175 110.6382048  51.4553536  60.1171908 110.6486771  51.6646119
  75.1931383 117.5868736  51.6216220  75.3867273 118.4914546  51.8675495
  75.0932001 117.1276155  52.4554805  66.8467693 107.4726626  54.1206548
  66.1995608 108.1716576  54.0271024  67.6168709 107.9062770  54.4882796
  70.2546491 117.7375479  57.1957101  70.1031998 117.5086030  56.2787185
  70.2451171 118.6946080  57.2088446  67.0231828 115.3107391  52.1803367
  67.9523888 115.4618551  52.0072335  66.6022858 115.3991412  51.3252014
  65.8220160 119.3358056  49.9501905  65.6831245 118.9676840  50.8227843
  65.0334756 119.8505695  49.7785863  66.4168312 124.4367152  41.2927442
  66.5920067 123.9655195  42.1073064  65.7301100 125.0632918  41.5208702
  67.3725375 118.7139658  47.3390743  67.0375207 118.6740428  48.2348393
  66.8729320 118.0484374  46.8661153  61.3469619 114.1207288  52.8643324
  61.2089417 113.3887527  53.4654863  62.2574542 114.0316189  52.5827512
  70.3084566 116.0595693  37.6127802  69.6913737 115.3342521  37.5160855
  69.8401055 116.8205053  37.2694877  63.9751919 113.8327248  52.3527004
  64.6851538 113.1920440  52.3113622  63.9321227 114.0840143  53.2753184
  71.9638698 120.7694601  55.2733583  71.9051244 120.0853821  54.6064166
  72.3658216 121.5113591  54.8214209  62.6880853 110.8192466  54.1722643
  62.1518210 110.3683204  54.8244239  62.0997562 110.9538375  53.4293107
  62.0983112 110.2781117  36.7349107  61.2212579 110.1569918  36.3711353
  62.5740865 109.4867195  36.4827995  71.9656105 118.7334185  53.5047562
  71.0782884 118.3960107  53.6273961  72.5354656 118.0017216  53.7416328
  53.6185252 115.0658277  46.8290614  54.3056292 114.7520007  46.2411629
  53.4633381 115.9699641  46.5557865  58.4219975 109.9548473  51.2575638
  58.3378163 109.3474143  50.5226048  57.6002681 110.4457492  51.2585134
  65.4957259 123.3935637  50.4708806  65.4227430 124.1990609  50.9828110
  65.0534652 123.5927603  49.6456827  65.2847038 122.6307407  43.9811627
  64.5014560 123.1729088  44.0749852  65.9839783 123.1481387  44.3805868
  68.5943688 108.4402037  46.6245833  69.0912388 107.6871999  46.3046903
  67.8230670 108.4766354  46.0589042  76.4473446 114.1442402  48.2664124
  76.4363322 115.0267118  47.8958057  75.5790825 113.7913953  48.0718661
  67.9555942 123.2922471  52.6266964  68.6683914 123.9269936  52.5542866
  67.4645971 123.3886337  51.8106966  69.6773469 117.1973724  44.1984256
  68.7429748 117.3175187  44.0288960  69.8550138 116.2946191  43.9344266
  65.1778657 110.5819420  46.3517517  64.8076445 110.0290460  47.0398423
  65.6737750 109.9777553  45.7992517  73.0646020 113.0391043  44.7334290
  73.5306473 113.8719035  44.6594593  73.5153521 112.5736025  45.4379549
  63.0067856 121.0416915  53.4472535  63.7077315 121.6753398  53.6001929
  62.5362971 121.3831646  52.6868174  71.1322252 119.3834865  41.7320442
  71.4082095 119.2691459  42.6414316  70.2626750 118.9852350  41.6932615
  71.0362683 105.4071630  48.7725191  70.1225763 105.6375857  48.9407398
  71.4655785 105.4910074  49.6239224  70.8069142 113.5961522  51.2725086
  70.1540592 113.8437430  50.6177538  71.1849522 112.7825661  50.9387563
  67.7676316 123.6321216  45.3753256  67.9498710 122.8142871  45.8381008
  68.5909302 123.8488908  44.9378146  68.1018481 122.5589401  42.6368304
  68.6306247 122.0481855  42.0238466  68.3646701 122.2431931  43.5013837
  66.8556715 114.3381333  57.7591123  66.1797352 114.2375463  58.4293498
  67.6784349 114.1820547  58.2227120  58.6035574 120.5753270  50.3803638
  59.1889011 119.8296958  50.5131542  58.4060412 120.8857227  51.2640302
  61.4574229 123.6104517  45.3966080  60.7884604 124.0950645  44.9130120
  61.3187099 123.8573738  46.3109459  53.1953229 113.1458870  49.1008081
  53.2337328 112.6122461  49.8945199  52.6893521 112.6194076  48.4819058
  65.5979498 125.6448261  51.9948739  66.1497806 125.8079882  52.7597824
  65.9385691 126.2352699  51.3228763  60.5743991 107.9923411  52.5970623
  60.6385317 108.8538242  52.1848021  60.5111111 107.3797412  51.8642982
  60.0496263 110.0646543  56.2443658  60.6768302 109.6823621  56.8581182
  59.1924182 109.8460745  56.6099350  70.4490372 120.4709518  57.8497393
  70.9930276 121.0839477  57.3552348  69.8677217 121.0289097  58.3664406
  56.8261806 111.8722972  42.1762012  57.1215247 110.9633651  42.1229066
  55.9249842 111.8510712  41.8543015  68.7347885 123.5930236  48.9812421
  68.6099024 122.7919976  48.4723366  69.3926976 124.0876430  48.4926391
  60.3556053 109.9478969  48.1589561  59.6342639 110.5614937  48.0197034
  61.1449309 110.4836734  48.0806207  70.7982793 121.3939256  50.6091971
  69.8513129 121.2744608  50.5370298  71.1465566 120.5061755  50.6918232
  63.1582367 107.2833395  54.4330213  63.6816768 107.5295692  55.1956522
  62.9394700 108.1153430  54.0133350  58.5549648 109.5537070  42.3001338
  58.2262354 108.6734449  42.1176443  58.9089018 109.4984739  43.1877727
  67.8029227 121.1891973  46.8096323  67.6554189 120.2608680  46.9903893
  68.6282720 121.2112063  46.3253398  61.6691471 109.8410040  42.6676815
  62.0087543 110.3695961  41.9455424  62.1163591 110.1790446  43.4435382
  71.4063348 122.0120531  47.8961196  72.3309896 121.8063393  47.7585647
  71.2378652 121.7636933  48.8050537  64.3634912 108.2247091  52.1179883
  64.0231732 107.4254904  52.5200563  63.6573918 108.5248801  51.5456716
  65.0151383 105.3096403  50.5707206  65.8377453 104.8356881  50.4486097
  65.2589447 106.0886887  51.0705893  63.6559618 108.3384661  40.8670108
  64.3767980 108.7165914  40.3633825  63.0324922 109.0573538  40.9705086
  67.7990741 109.0429810  41.8028440  68.0154355 109.9254448  41.5017268
  67.3184808 108.6516024  41.0734082  62.5389962 112.0015524  48.3799185
  62.3934543 112.3155827  49.2723466  62.0615166 112.6200424  47.8270084
  64.3986345 108.9918072  48.4280074  64.3847914 108.0959165  48.0912372
  65.1158773 108.9988735  49.0618361  66.2512476 109.4255412  50.4733202
  65.9930254 110.3472482  50.4717532  65.7197516 109.0285846  51.1633666
  71.1958665 122.5306199  43.2523287  71.3695542 121.9652621  42.4997140
  71.6887556 123.3307094  43.0702777  57.0135624 114.5420868  51.3186846
  56.4689092 115.3180676  51.4507120  57.8914974 114.8891672  51.1605968
  63.8023241 107.8732452  43.6967645  63.9239152 106.9449098  43.8958532
  63.5125283 107.8871138  42.7845960  66.6714431 105.5587362  46.8334364
  66.6936128 105.6226695  45.8786344  67.0882490 104.7191871  47.0274871
  77.0498056 115.2942622  44.8713587  77.4929202 114.5449947  44.4732710
  76.1724566 115.2852758  44.4887319  72.1833837 121.8472963  40.3520186
  72.8784742 122.4679656  40.5707500  72.5256987 120.9968315  40.6272563
  57.8001646 113.6690764  54.2117003  57.0583382 113.8173400  54.7981633
  57.4794391 113.9299030  53.3483752  74.0825260 119.2972669  41.8807516
  74.6076584 119.6359942  41.1556836  73.9947613 118.3619684  41.6970651
  65.7445309 123.2106742  54.0097393  66.0532435 122.9655889  54.8820093
  66.5420791 123.4153381  53.5216263  65.7665921 125.3644652  46.2402770
  65.3270911 124.8721031  46.9335626  66.5174038 124.8217620  45.9994845
  58.2458260 121.5556193  46.2427398  59.0716280 121.2559965  45.8626041
  57.8952312 120.7863815  46.6917186  63.2139793 120.9082661  48.3125071
  62.5919802 120.2453366  48.0127299  63.8844660 120.9343793  47.6298719
  56.4466865 119.4742519  47.2016331  55.6098773 119.0464694  47.0200332
  56.4190510 119.6674963  48.1387122  63.2864321 109.3864449  57.9057577
  63.3352476 110.2626572  57.5235347  63.8286835 108.8441842  57.3329220
  73.7719166 119.9305572  57.1858714  72.9814710 119.9129711  56.6463214
  73.5352521 120.4693866  57.9407751  73.8917041 116.7798039  54.4991443
  73.9415046 116.6148046  55.4406966  73.7830965 115.9125298  54.1089324
  62.7753300 119.4586585  41.7883532  62.9241420 120.1422049  41.1350204
  63.5819743 119.4391675  42.3032987  71.1820804 112.7628967  55.8150750
  72.0830666 112.6235432  55.5234747  71.2568778 112.9283422  56.7548927
  65.5163609 110.1395822  54.6603936  64.6466918 110.4329388  54.3886524
  65.7523089 110.7236267  55.3811199  75.3935238 119.1994980  54.7433464
  75.1020046 119.5624961  55.5796925  74.7807369 118.4861989  54.5646796
  76.5930920 116.7647860  47.2636035  77.4277812 117.2037664  47.4273595
  76.7290049 116.2886513  46.4444280  73.6422426 114.3227595  53.2113522
  74.1176548 114.5155241  52.4032374  72.7187992 114.3786781  52.9656906
  60.5305933 115.4851762  42.7944601  60.2851975 114.5814092  42.9924811
  60.7001848 115.4868913  41.8524079  68.2202643 106.3575439  52.1769356
  68.7384587 107.0936465  51.8515845  67.8657776 106.6639432  53.0116115
  59.8001581 111.2180120  40.2930762  59.1070825 111.2924475  39.6370798
  59.5553332 110.4540463  40.8152279  68.4715237 102.7775721  47.6970253
  68.7516991 102.1098910  48.3230679  69.2565844 102.9704817  47.1844917
  66.2748706 121.9534715  39.2595279  65.7022673 122.5724902  38.8065751
  66.8481499 122.5034077  39.7935201  72.3424095 111.1993355  51.4441828
  73.2941518 111.2991453  51.4654052  72.1727546 110.4071624  51.9539912
  70.3638475 108.2848938  51.6301229  69.7688407 108.5653951  50.9347718
  70.0788172 108.7742839  52.4017970  69.4945965 122.2371865  40.3903861
  70.4276638 122.1717427  40.5936737  69.4069178 123.0728132  39.9318394
  72.1233982 121.5537735  37.3507809  72.0447614 121.2197599  38.2443567
  72.9443649 122.0459503  37.3499281  74.8212173 114.4199475  50.5584128
  74.7888493 113.4815475  50.7443811  75.4312797 114.4983511  49.8249952
  66.6595504 113.2895528  36.6011332  67.6054609 113.1601736  36.6699750
  66.2809749 112.5510190  37.0780760  74.9706662 111.2110518  50.6042411
  74.4545710 110.4268975  50.4172340  75.8546610 110.8829235  50.7688930
  72.6317389 104.9551534  46.5638223  72.4342210 104.6466622  47.4481555
  73.2417094 105.6813173  46.6936153  80.6388723 115.4815482  49.6990164
  81.3692112 115.2200770  50.2597868  80.0295669 114.7444204  49.7392232
  78.7204020 113.6223344  50.2964616  77.9937184 113.4879309  49.6881107
  78.3051307 113.9300173  51.1021334  66.5434197 117.3413274  58.0611989
  67.4637206 117.5191873  58.2552035  66.5083780 116.3969319  57.9091688
  64.8438421 111.2145504  36.5366217  63.9369877 110.9178617  36.6128930
  65.1214402 110.9175322  35.6700503  55.7616362 112.5351868  46.9865263
  55.4419146 111.6817176  46.6939637  55.2149790 112.7500446  47.7423231
  59.5396269 115.2514309  50.7034770  59.7582279 116.1831416  50.7222804
  59.9522043 114.8922283  51.4889574  66.4600487 105.7582394  42.6910458
  65.6501215 105.4129479  43.0665704  67.1484904 105.4489938  43.2798070
  68.3891035 104.8360441  44.3134755  68.9422074 105.2555894  44.9724778
  68.6261122 103.9096189  44.3557711  64.4124134 110.8247514  60.0937519
  64.3120861 111.7741871  60.0249610  64.1945676 110.4965753  59.2213589
  63.6137206 108.0732439  36.6778196  64.4756370 108.3987338  36.9374013
  63.7987550 107.2863935  36.1651262  55.6304622 116.1554779  48.9558385
  54.9368093 115.7408732  48.4428339  56.3777613 116.1975316  48.3591804
  71.7669842 106.9460966  43.8213419  71.1868511 107.6045770  43.4391471
  71.5005775 106.1238310  43.4100837  70.2173409 106.3466023  46.0234739
  70.7173187 106.4582558  45.2149058  70.8609017 106.0427076  46.6635548
  64.2755404 114.2544653  58.9102580  63.7922486 115.0545013  59.1166469
  64.3616344 114.2652598  57.9570024  57.5441364 116.0873033  46.8324400
  57.5212052 116.1860720  45.8806283  57.8542001 116.9338184  47.1541566
  60.2028742 118.1449188  50.9471014  61.1571996 118.1133130  50.8800946
  60.0041266 117.6839812  51.7621240  60.7928124 116.7150304  53.5141812
  61.6121013 117.2094383  53.5376649  61.0664932 115.7982272  53.4859379
  70.5494720 109.1061056  42.8769767  69.6620575 109.3910707  42.6589962
  70.9648709 108.9454820  42.0297044  73.9009256 109.1307577  46.5924107
  74.6769647 109.6204030  46.8648723  73.1757391 109.5565631  47.0495976
  76.3381815 109.8435196  47.6498047  76.9326306 109.6030932  46.9391355
  76.4108399 109.1242327  48.2771583  69.6937934 118.8705731  36.9717787
  70.3973784 119.0755733  37.5875443  68.9700583 119.4382493  37.2366871
  70.5235744 114.6215592  43.0920057  70.4670945 115.0784144  42.2527690
  71.0764087 113.8606277  42.9142900  74.3340550 110.4105324  43.9170177
  74.0777484 110.0101960  44.7478385  73.7093418 111.1249118  43.7920316
  78.6452888 113.1501397  46.4241468  78.0852446 113.2194587  47.1973030
  78.0396391 112.9742382  45.7040965  71.6024631 119.3088260  39.0216247
  72.4370235 118.8769459  38.8393722  71.4408974 119.1370274  39.9493142
  71.2570523 115.8120373  40.3872587  71.2019327 115.6464645  39.4461031
  70.6316579 116.5196406  40.5434776  56.0463038 111.0488438  54.2134009
  56.6921902 110.5387392  54.7021234  55.8380189 111.7857119  54.7877434
  68.5716431 118.1169285  59.7126149  69.4407590 118.2909937  59.3512784
  68.0923182 118.9363702  59.5901879  64.5666649 105.3128482  39.9657905
  64.5545319 106.2570322  40.1226176  65.4590071 105.1298628  39.6717366
  62.7402611 125.2366386  51.3915583  63.6429857 125.2689996  51.7082078
  62.5139981 124.3066837  51.4061919  64.4956213 123.9897373  48.0525662
  63.5451844 123.9899234  47.9390034  64.7988699 123.2430107  47.5361696
  68.3818768 101.9071259  44.2203842  67.6151164 101.3529746  44.3660524
  68.7929473 101.9793128  45.0817993  60.3860529 108.1956055  58.3109023
  61.2491991 107.8392860  58.5212348  59.8125940 107.8569950  58.9984427
  80.2308906 129.8257911  49.1171424  80.8687316 129.7064659  48.4134764
  80.1129749 130.7738755  49.1759376  77.0398613 129.7785339  49.0532949
  76.7017124 129.6626404  48.1653484  77.9088381 129.3776504  49.0333955
  77.5218396 130.9320191  55.0119154  77.5107036 130.5372989  54.1399658
  77.6839035 130.1986264  55.6052926  74.7406892 128.5473587  38.3849889
  74.9932413 128.0255108  37.6233352  73.8031451 128.3839732  38.4876573
  79.7850175 127.5509365  46.1924632  80.5713264 127.1328788  45.8415049
  80.0488879 128.4555457  46.3606281  85.1858602 127.4884598  47.0957611
  85.9183774 126.9183815  47.3295440  84.4297958 127.1006199  47.5364116
  76.8034722 129.9111840  44.2920953  76.4392929 129.3842461  45.0033875
  77.6601838 129.5210309  44.1187439  82.7084022 121.2006172  51.5552219
  82.3767347 122.0701583  51.3313434  82.1129636 120.8842456  52.2346250
  76.4440209 124.9401739  39.2882302  76.6114611 125.8081976  39.6552773
  76.2537378 125.1029021  38.3643591  82.6012686 125.9201258  48.6345569
  81.6929563 125.8516667  48.3404330  82.5500281 126.3973203  49.4627395
  76.4229429 127.3959397  40.2728968  76.3029055 127.8416448  41.1114449
  75.7282018 127.7444715  39.7142507  76.6753551 127.3390904  56.5780467
  75.8986885 127.8984824  56.5683331  77.3144114 127.8247687  57.0995337
  84.4674332 124.1217697  50.4123443  83.8248712 124.4150230  49.7663238
  83.9629260 124.0070617  51.2176640  82.1214496 127.8680870  41.1009303
  83.0332352 128.1008257  40.9257000  81.6124143 128.4517914  40.5384381
  76.7586333 127.2278105  52.1104152  77.6047529 127.6517518  52.2538801
  76.6984971 126.5711729  52.8042715  79.9085779 124.8882473  53.7685326
  79.6646711 125.6424534  53.2319601  80.1845709 125.2667821  54.6032573
  79.4650470 124.0438906  49.3499163  78.6034949 124.3420160  49.6415901
  79.4912905 124.2609305  48.4180196  75.2180926 128.7104249  42.5662534
  75.9204969 129.1625293  43.0336461  74.8861554 128.0688068  43.1942427
  73.6661287 127.3016006  56.9413744  73.0359948 127.9832286  57.1749140
  73.5597375 127.1899087  55.9966882  68.9606260 126.9687802  47.8679668
  68.1705314 127.2245330  47.3919778  69.4517507 127.7836140  47.9731708
  70.9121005 127.3332381  44.8263144  70.1152168 127.4451075  45.3446640
  70.6846597 127.6719033  43.9604035  72.9442030 121.6036771  59.3038995
  72.5508976 121.0502970  59.9786639  73.7608170 121.9147350  59.6945512
  75.8609991 123.0194651  56.8959251  76.6019704 123.6201804  56.8163714
  76.0927914 122.2772288  56.3377294  79.8067154 119.0475753  51.1723533
  79.4631423 119.9377395  51.0962643  80.1746117 118.8577411  50.3093118
  79.7717437 129.0384365  39.6795968  79.2564060 129.8088969  39.9184355
  79.4994745 128.3649501  40.3029029  77.3564548 123.8834065  44.7381206
  76.5006144 123.4940916  44.5586845  77.7691500 123.9626026  43.8780992
  78.8863694 121.4180409  49.1372766  78.3828490 121.3810544  48.3240571
  79.1794301 122.3273151  49.1969423  75.1306580 121.5019138  48.1438948
  75.9959577 121.3061947  47.7844837  75.1984089 121.2729490  49.0708305
  79.5603740 126.9111457  41.5055749  79.2553876 127.2257606  42.3565892
  80.5134182 126.9892877  41.5483082  72.7368899 123.7321346  45.5155315
  73.3112651 123.5096528  44.7828508  73.3239882 123.8010041  46.2683916
  81.7948477 129.6195073  46.3219691  82.3080358 130.2525065  46.8241401
  82.4449700 129.0196269  45.9563051  73.0638487 125.7625807  39.5351200
  72.2275799 126.1000494  39.8560475  72.9243256 125.6274787  38.5978337
  75.0391567 120.6062595  44.2430384  74.3855979 120.2911612  43.6186999
  74.9972041 119.9838336  44.9690207  78.2729307 127.0944529  48.5678032
  77.3551869 127.3159476  48.4099720  78.6889451 127.1690839  47.7089739
  79.0564355 128.4935944  43.6980712  79.8036174 129.0057342  43.3887834
  79.3255945 128.1719997  44.5585106  81.5043192 125.5293061  45.6799501
  80.7665949 125.0170447  46.0109744  81.7569966 125.0893442  44.8682778
  81.6054820 118.3069313  46.2741271  81.9113697 117.4466676  45.9867186
  82.3307425 118.8986933  46.0740264  75.8775899 128.6023106  46.7817462
  75.9324509 127.6496942  46.7059938  75.0667101 128.7582545  47.2658760
  73.8168259 127.2200165  44.5407841  73.0036125 127.5194336  44.9473033
  74.3127254 126.8255854  45.2582323  79.4142471 127.6841990  53.3722734
  79.7691859 127.9113463  54.2317200  80.0614602 128.0160367  52.7499990
  73.3082334 124.7918521  50.1569075  73.9481713 124.6507280  49.4592039
  72.4759865 124.5053034  49.7807677  70.3925402 128.2364033  42.3463821
  69.4622990 128.1748489  42.5633783  70.4882873 127.7139986  41.5500462
  70.3110951 124.7618846  44.9342062  70.5717768 125.6764179  44.8251223
  71.1328123 124.2943289  45.0838675  71.7835876 126.1756603  52.1040887
  72.4558929 125.9673965  51.4553536  70.9565662 125.9778689  51.6646119
  77.6861448 122.8018544  54.1206548  77.0389363 123.5008494  54.0271024
  78.4562463 123.2354688  54.4882796  77.8625582 130.6399309  52.1803367
  78.7917642 130.7910469  52.0072335  77.4416612 130.7283330  51.3252014
  81.1478321 131.3887610  37.6127802  80.5307491 130.6634439  37.5160855
  80.6794809 132.1496971  37.2694877  74.8145674 129.1619165  52.3527004
  75.5245292 128.5212358  52.3113622  74.7714982 129.4132060  53.2753184
  73.5274608 126.1484383  54.1722643  72.9911965 125.6975122  54.8244239
  72.9391316 126.2830292  53.4293107  72.9376867 125.6073035  36.7349107
  72.0606333 125.4861836  36.3711353  73.4134620 124.8159113  36.4827995
  69.2613729 125.2840391  51.2575638  69.1771918 124.6766061  50.5226048
  68.4396435 125.7749409  51.2585134  79.4337443 123.7693955  46.6245833
  79.9306142 123.0163917  46.3046903  78.6624424 123.8058271  46.0589042
  76.0172412 125.9111338  46.3517517  75.6470199 125.3582378  47.0398423
  76.5131504 125.3069471  45.7992517  83.9039775 128.3682961  44.7334290
  84.3700227 129.2010953  44.6594593  84.3547275 127.9027943  45.4379549
  81.8756438 120.7363548  48.7725191  80.9619517 120.9667775  48.9407398
  82.3049539 120.8201992  49.6239224  81.6462896 128.9253440  51.2725086
  80.9934346 129.1729347  50.6177538  82.0243276 128.1117578  50.9387563
  77.6950469 129.6673251  57.7591123  77.0191106 129.5667380  58.4293498
  78.5178103 129.5112465  58.2227120  71.4137745 123.3215328  52.5970623
  71.4779072 124.1830159  52.1848021  71.3504866 122.7089330  51.8642982
  70.8890018 125.3938461  56.2443658  71.5162057 125.0115538  56.8581182
  70.0317937 125.1752663  56.6099350  67.6655561 127.2014890  42.1762012
  67.9609002 126.2925568  42.1229066  66.7643596 127.1802629  41.8543015
  71.1949808 125.2770887  48.1589561  70.4736393 125.8906854  48.0197034
  71.9843063 125.8128651  48.0806207  73.9976121 122.6125313  54.4330213
  74.5210523 122.8587610  55.1956522  73.7788454 123.4445348  54.0133350
  69.3943402 124.8828988  42.3001338  69.0656108 124.0026367  42.1176443
  69.7482773 124.8276656  43.1877727  72.5085225 125.1701957  42.6676815
  72.8481298 125.6987879  41.9455424  72.9557346 125.5082364  43.4435382
  75.2028666 123.5539008  52.1179883  74.8625487 122.7546821  52.5200563
  74.4967672 123.8540719  51.5456716  75.8545138 120.6388321  50.5707206
  76.6771207 120.1648799  50.4486097  76.0983202 121.4178804  51.0705893
  74.4953372 123.6676579  40.8670108  75.2161735 124.0457832  40.3633825
  73.8718677 124.3865456  40.9705086  78.6384495 124.3721728  41.8028440
  78.8548110 125.2546366  41.5017268  78.1578562 123.9807941  41.0734082
  73.3783717 127.3307441  48.3799185  73.2328297 127.6447744  49.2723466
  72.9008920 127.9492342  47.8270084  75.2380100 124.3209989  48.4280074
  75.2241668 123.4251083  48.0912372  75.9552528 124.3280653  49.0618361
  77.0906230 124.7547329  50.4733202  76.8324008 125.6764400  50.4717532
  76.5591271 124.3577764  51.1633666  74.6416996 123.2024370  43.6967645
  74.7632907 122.2741016  43.8958532  74.3519038 123.2163055  42.7845960
  77.5108186 120.8879280  46.8334364  77.5329883 120.9518613  45.8786344
  77.9276245 120.0483789  47.0274871  74.1258075 124.7156367  57.9057577
  74.1746231 125.5918490  57.5235347  74.6680589 124.1733760  57.3329220
  82.0214558 128.0920885  55.8150750  82.9224421 127.9527349  55.5234747
  82.0962533 128.2575339  56.7548927  76.3557364 125.4687739  54.6603936
  75.4860673 125.7621305  54.3886524  76.5916844 126.0528184  55.3811199
  79.0596397 121.6867356  52.1769356  79.5778341 122.4228383  51.8515845
  78.7051530 121.9931349  53.0116115  70.6395335 126.5472037  40.2930762
  69.9464580 126.6216392  39.6370798  70.3947087 125.7832381  40.8152279
  79.3108992 118.1067639  47.6970253  79.5910745 117.4390828  48.3230679
  80.0959598 118.2996734  47.1844917  83.1817850 126.5285273  51.4441828
  84.1335273 126.6283370  51.4654052  83.0121300 125.7363541  51.9539912
  81.2032229 123.6140856  51.6301229  80.6082161 123.8945869  50.9347718
  80.9181926 124.1034757  52.4017970  77.4989259 128.6187445  36.6011332
  78.4448363 128.4893654  36.6699750  77.1203503 127.8802107  37.0780760
  85.8100416 126.5402436  50.6042411  85.2939465 125.7560892  50.4172340
  86.6940365 126.2121152  50.7688930  83.4711143 120.2843451  46.5638223
  83.2735964 119.9758540  47.4481555  84.0810849 121.0105090  46.6936153
  75.6832176 126.5437422  36.5366217  74.7763631 126.2470534  36.6128930
  75.9608157 126.2467240  35.6700503  77.2994241 121.0874311  42.6910458
  76.4894970 120.7421396  43.0665704  77.9878658 120.7781855  43.2798070
  79.2284790 120.1652358  44.3134755  79.7815828 120.5847812  44.9724778
  79.4654876 119.2388106  44.3557711  75.2517889 126.1539432  60.0937519
  75.1514616 127.1033789  60.0249610  75.0339431 125.8257671  59.2213589
  74.4530960 123.4024357  36.6778196  75.3150124 123.7279255  36.9374013
  74.6381304 122.6155853  36.1651262  82.6063597 122.2752883  43.8213419
  82.0262266 122.9337687  43.4391471  82.3399529 121.4530228  43.4100837
  81.0567163 121.6757941  46.0234739  81.5566942 121.7874476  45.2149058
  81.7002771 121.3718994  46.6635548  81.3888475 124.4352974  42.8769767
  80.5014330 124.7202624  42.6589962  81.8042464 124.2746737  42.0297044
  84.7403011 124.4599495  46.5924107  85.5163401 124.9495947  46.8648723
  84.0151145 124.8857549  47.0495976  87.1775570 125.1727114  47.6498047
  87.7720060 124.9322850  46.9391355  87.2502153 124.4534245  48.2771583
  81.3629499 129.9507510  43.0920057  81.3064700 130.4076061  42.2527690
  81.9157841 129.1898194  42.9142900  85.1734304 125.7397242  43.9170177
  84.9171239 125.3393877  44.7478385  84.5487172 126.4541036  43.7920316
  82.0964278 131.1412291  40.3872587  82.0413082 130.9756562  39.4461031
  81.4710333 131.8488324  40.5434776  66.8856793 126.3780355  54.2134009
  67.5315656 125.8679309  54.7021234  66.6773944 127.1149037  54.7877434
  75.4060403 120.6420400  39.9657905  75.3939073 121.5862240  40.1226176
  76.2983825 120.4590545  39.6717366  79.2212523 117.2363177  44.2203842
  78.4544919 116.6821663  44.3660524  79.6323228 117.3085045  45.0817993
  71.2254284 123.5247972  58.3109023  72.0885745 123.1684777  58.5212348
  70.6519694 123.1861867  58.9984427  15.1946381  14.8568528  35.8416731
  15.8324791  14.7375275  35.1380071  15.0767223  15.8049372  35.9004683
  12.0036087  14.8095956  35.7778255  11.6654598  14.6937020  34.8898790
  12.8725855  14.4087121  35.7579262  12.4855870  15.9630808  41.7364461
  12.4744511  15.5683606  40.8644965  12.6476509  15.2296880  42.3298232
   5.4087335  18.1582624  34.6059367   6.2008626  17.8173448  34.1905666
   5.6483985  18.2677599  35.5261520   9.2063131  18.7467919  40.6843645
   8.9152997  19.6513550  40.5690311   9.8420115  18.7884447  41.3987715
  10.1319338  16.1244768  37.2745005  10.7282910  15.9000790  36.5601968
  10.1894309  15.3829513  37.8770452  20.1496076  12.5195215  33.8202917
  20.8821248  11.9494432  34.0540747  19.3935432  12.1316815  34.2609423
  14.1653016  18.4329335  37.6793439  13.8653739  19.3354374  37.5709246
  13.8204076  18.1661518  38.5314592  17.5650160  10.9511875  35.3590876
  16.6567037  10.8827283  35.0649637  17.5137756  11.4283820  36.1872701
   9.1473796  25.1973655  30.6464406   9.0697826  26.1481480  30.7252887
   8.5435439  24.8519528  31.3039333  11.6391026  12.3701521  43.3025773
  10.8624360  12.9295441  43.2928638  12.2781589  12.8558304  43.8240643
  19.4311806   9.1528313  37.1368750  18.7886187   9.4460847  36.4908544
  18.9266735   9.0381234  37.9421947   9.8937398  15.1786974  42.8643740
  10.6352082  15.7172018  42.5878564   9.1874383  15.8053263  43.0215292
  15.3692738  17.3216114  41.4615902  15.7776094  16.8798525  40.7170534
  14.6469999  16.7468742  41.7150095  11.7223808  12.2588721  38.8349459
  12.5685003  12.6828135  38.9784108  11.6622445  11.6022346  39.5288022
  15.6921552  17.8817305  35.2168191  15.0630415  18.0463019  34.5144258
  15.3047214  18.2958915  35.9879155  19.5710784  18.8171743  32.5712554
  18.8861822  19.1970644  32.0209588  19.6554633  19.4267070  33.3044502
  14.8723253   9.9193090  40.4930632  14.6284185  10.6735150  39.9564908
  15.1483183  10.2978437  41.3277879  16.8261716  16.4631702  39.1707898
  17.0378611  17.1063462  38.4942279  16.7791464  15.6294018  38.7029828
   8.1373595  17.1663195  35.4198039   8.7074952  17.5950463  34.7815523
   8.7281707  16.8845779  36.1182225  17.9407544  19.3403657  37.3430255
  18.7624987  18.9383845  37.0612937  17.9369947  19.2371892  38.2946371
  11.7064147  18.8887701  39.4990966  11.7708580  19.3508108  40.3349138
  10.9975071  18.2585066  39.6273276  26.0313537  15.6842406  33.6915227
  25.2777245  15.1149804  33.5359231  26.1661078  15.6505070  34.6385861
   6.6836447  21.1897002  32.0220624   6.8603075  22.1114967  31.8341608
   7.4793280  20.8755422  32.4515004  13.0480641  21.1779375  43.4970288
  12.6044495  20.3915753  43.1791193  13.7097855  21.3658525  42.8314179
   7.8067762  22.7075176  38.0230967   8.3575187  22.5792240  37.2507961
   6.9679238  23.0070065  37.6725859  15.1461879  21.4582175  41.5251689
  15.1280355  22.2791056  41.0331959  16.0681799  21.3336250  41.7501831
  11.6034933  18.9726304  42.3675198  12.1363270  18.2114592  42.1374506
  11.0749015  18.6799956  43.1099352  17.9480492  16.2961317  34.9961056
  17.2904167  16.9860578  35.0841185  18.7520891  16.6857749  35.3395042
  16.7585951  14.6505690  33.0464998  17.2717833  15.2835682  33.5486708
  17.4087175  14.0506885  32.6808358  13.2366782  12.1255145  35.2923338
  12.3189343  12.3470092  35.1345026  13.6526925  12.2001456  34.4335046
  17.5247747  19.6311691  31.1744140  17.0710074  18.7902601  31.2309331
  16.8941714  20.2673090  31.5118921  15.9680686  21.4688188  32.1093959
  16.2603661  22.0293245  31.3906324  16.4779307  21.7616749  32.8647118
  10.9314312  22.2468539  33.1987412  10.8890490  22.4729385  32.2695944
  11.8477010  22.0131914  33.3473213  14.3779945  12.7152606  40.0968041
  14.7329333  12.9424080  40.9562507  15.0252077  13.0470983  39.4745296
  20.1077682  15.8371042  30.8017370  19.9695581  16.0272638  29.8738559
  19.7513901  16.5990425  31.2585421  20.1347062  17.9047569  35.8128642
  20.5683569  17.8122858  36.6611696  20.8478643  17.8805070  35.1748658
  13.8674957  21.5049663  37.3461742  13.9211979  22.0740600  38.1139458
  12.9989738  21.6751549  36.9815779  20.9962611  17.9471270  38.3461527
  21.1898502  18.8517081  38.5920802  20.8963230  17.4878689  39.1800112
  16.0577720  18.0978013  43.9202408  15.9063227  17.8688564  43.0032491
  16.0482400  19.0548614  43.9333753  12.8263057  15.6709926  38.9048674
  13.7555117  15.8221085  38.7317641  12.4054087  15.7593946  38.0497321
  11.6251388  19.6960590  36.6747212  11.4862474  19.3279374  37.5473150
  10.8365985  20.2108229  36.5031169  12.2199540  24.7969686  28.0172748
  12.3951296  24.3257730  28.8318371  11.5332328  25.4235453  28.2454009
  13.1756604  19.0742193  34.0636049  12.8406436  19.0342963  34.9593699
  12.6760549  18.4086909  33.5906460   7.1500847  14.4809823  39.5888631
   7.0120645  13.7490062  40.1900170   8.0605771  14.3918723  39.3072818
   9.7783148  14.1929782  39.0772310  10.4882767  13.5522974  39.0358929
   9.7352456  14.4442677  39.9998491  17.7669927  21.1297135  41.9978889
  17.7082473  20.4456355  41.3309472  18.1689445  21.8716125  41.5459515
   6.7860626  27.9459049  34.7912608   7.0257224  28.5777573  35.4691627
   5.9429822  27.5947089  35.0777968  17.7687334  19.0936719  40.2292869
  16.8814113  18.7562641  40.3519268  18.3385885  18.3619751  40.4661635
  11.2988487  23.7538172  37.1954112  11.2258659  24.5593143  37.7073417
  10.8565881  23.9530137  36.3702134  11.0878267  22.9909942  30.7056934
  10.3045789  23.5331622  30.7995158  11.7871012  23.5083921  31.1051175
  22.2504675  14.5044937  34.9909431  22.2394551  15.3869652  34.6203364
  21.3822054  14.1516487  34.7963968  13.7587171  23.6525006  39.3512271
  14.4715143  24.2872470  39.2788172  13.2677200  23.7488872  38.5352273
   8.8099085  21.4019449  40.1717842   9.5108544  22.0355932  40.3247236
   8.3394200  21.7434181  39.4113481  16.6100370  13.9564057  37.9970392
  15.9571821  14.2039964  37.3422845  16.9880750  13.1428195  37.6632869
  13.5707544  23.9923750  32.0998562  13.7529939  23.1745406  32.5626315
  14.3940530  24.2091442  31.6623452  13.9049710  22.9191935  29.3613611
  14.4337476  22.4084389  28.7483773  14.1677929  22.6034465  30.2259144
  12.6587944  14.6983868  44.4836429  11.9828581  14.5977997  45.1538804
  13.4815577  14.5423081  44.9472426   4.4066803  20.9355804  37.1048944
   4.9920239  20.1899492  37.2376849   4.2091641  21.2459761  37.9885608
   7.2605458  23.9707052  32.1211387   6.5915833  24.4553179  31.6375427
   7.1218328  24.2176272  33.0354765  11.4010726  26.0050795  38.7194045
  11.9529034  26.1682417  39.4843130  11.7416920  26.5955233  38.0474070
  16.2521601  20.8312053  44.5742700  16.7961505  21.4442011  44.0797654
  15.6708446  21.3891631  45.0909713  14.5379114  23.9532771  35.7057727
  14.4130253  23.1522510  35.1968673  15.1958205  24.4478964  35.2171697
  16.6014022  21.7541791  37.3337277  15.6544358  21.6347142  37.2615604
  16.9496795  20.8664289  37.4163539  13.6060455  21.5494507  33.5341630
  13.4585418  20.6211214  33.7149200  14.4313949  21.5714598  33.0498705
  17.2094577  22.3723066  34.6206502  18.1341125  22.1665927  34.4830954
  17.0409881  22.1239467  35.5295844  16.9989893  22.8908733  29.9768594
  17.1726771  22.3255156  29.2242446  17.4918785  23.6909628  29.7948084
  22.8529285  15.6545156  31.5958894  23.2960431  14.9052481  31.1978017
  21.9755795  15.6455292  31.2132626  17.9865066  22.2075497  27.0765492
  18.6815971  22.8282190  27.2952807  18.3288216  21.3570849  27.3517870
  19.8856489  19.6575203  28.6052823  20.4107813  19.9962476  27.8802143
  19.7978842  18.7222218  28.4215958  11.5476538  23.5709277  40.7342700
  11.8563664  23.3258423  41.6065399  12.3452020  23.7755915  40.2461570
  11.5697150  25.7247186  32.9648076  11.1302140  25.2323565  33.6580933
  12.3205267  25.1820154  32.7240151   4.0489489  21.9158727  32.9672704
   4.8747509  21.6162499  32.5871348   3.6983541  21.1466350  33.4162493
   9.0171022  21.2685195  35.0370378   8.3951031  20.6055900  34.7372606
   9.6875889  21.2946327  34.3544026  19.5750395  20.2908107  43.9104021
  18.7845939  20.2732246  43.3708520  19.3383750  20.8296400  44.6653058
  19.6948270  17.1400573  41.2236749  19.7446275  16.9750580  42.1652272
  19.5862193  16.2727832  40.8334630  16.9852033  13.1231501  42.5396056
  17.8861895  12.9837966  42.2480054  17.0600007  13.2885956  43.4794234
  21.1966467  19.5597515  41.4678771  20.9051275  19.9227495  42.3042232
  20.5838598  18.8464523  41.2892103  22.3962149  17.1250394  33.9881341
  23.2309041  17.5640198  34.1518902  22.5321278  16.6489048  33.1689587
  19.4453655  14.6830129  39.9358829  19.9207777  14.8757775  39.1277680
  18.5219221  14.7389315  39.6902213  18.1455324  11.5595889  38.1687135
  19.0972747  11.6593987  38.1899359  17.9758775  10.7674158  38.6785219
  16.1669704   8.6451472  38.3546536  15.5719636   8.9256485  37.6593024
  15.8819400   9.1345373  39.1263277  20.6243402  14.7802009  37.2829434
  20.5919722  13.8418010  37.4689118  21.2344026  14.8586046  36.5495259
  20.7737890  11.5713052  37.3287717  20.2576939  10.7871509  37.1417646
  21.6577839  11.2431769  37.4934237  26.4419952  15.8418016  36.4235471
  27.1723340  15.5803304  36.9843174  25.8326897  15.1046738  36.4637539
  24.5235249  13.9825878  37.0209922  23.7968413  13.8481843  36.4126414
  24.1082536  14.2902707  37.8266640  12.3465425  17.7015808  44.7857295
  13.2668435  17.8794407  44.9797342  12.3115008  16.7571853  44.6336995
   5.3427498  15.6116843  37.4280076   5.5613508  16.5433951  37.4468110
   5.7553272  15.2524817  38.2134880  10.0786633  14.6147187  45.6347887
   9.5953715  15.4147547  45.8411776  10.1647572  14.6255132  44.6815331
   6.0059971  18.5051722  37.6716321   6.9603224  18.4735664  37.6046252
   5.8072494  18.0442346  38.4866547   6.5959353  17.0752838  40.2387118
   7.4152242  17.5696917  40.2621956   6.8696161  16.1584806  40.2104686
  22.1413044  10.2037731  34.3743354  22.7357535   9.9633467  33.6636662
  22.2139628   9.4844861  35.0016890   4.3610200  24.0471342  34.6886519
   4.2264668  23.2871742  34.1224517   3.9442262  24.7712241  34.2215308
  24.4484117  13.5103931  33.1486775  23.8883675  13.5797121  33.9218337
  23.8427620  13.3344916  32.4286271   7.5179325  24.9440659  34.9004961
   7.4011710  25.8886091  34.7983652   6.6971772  24.6414220  35.2890761
  14.3747659  18.4771819  46.4371456  15.2438819  18.6512472  46.0758091
  13.8954411  19.2966236  46.3147185   8.5433840  25.5968920  38.1160890
   9.4461086  25.6292531  38.4327385   8.3171210  24.6669371  38.1307226
  10.2987442  24.3499907  34.7770968   9.3483073  24.3501769  34.6635341
  10.6019928  23.6032642  34.2607003  26.0340135  30.1860445  35.8416731
  26.6718545  30.0667193  35.1380071  25.9160978  31.1341289  35.9004683
  22.8429841  30.1387873  35.7778255  22.5048353  30.0228938  34.8898790
  23.7119610  29.7379039  35.7579262  18.7016657  31.9923350  31.7675146
  18.1381522  31.9013287  30.9991434  18.5869052  31.1723254  32.2477639
  23.3249624  31.2922725  41.7364461  23.3138265  30.8975523  40.8644965
  23.4870264  30.5588798  42.3298232  16.2481089  33.4874541  34.6059367
  17.0402381  33.1465366  34.1905666  16.4877739  33.5969517  35.5261520
  24.2816216  35.6594318  27.0789611  23.6304196  36.2448398  26.6923625
  25.0760579  36.1900512  27.1384649  18.2071843  32.7483455  27.4776746
  18.9802719  32.2012442  27.3389621  18.5597242  33.6127704  27.6891207
  20.0456886  34.0759837  40.6843645  19.7546751  34.9805468  40.5690311
  20.6813870  34.1176365  41.3987715  20.9713092  31.4536686  37.2745005
  21.5676665  31.2292708  36.5601968  21.0288064  30.7121431  37.8770452
  20.5438121  28.9076121  25.1095196  20.7963641  28.3857642  24.3478659
  19.6062680  28.7442266  25.2121879  25.5881404  27.9111899  32.9169939
  26.3744493  27.4931322  32.5660356  25.8520108  28.8157991  33.0851587
  25.7591481  33.3484750  27.6158596  25.1237314  33.4219376  28.3279500
  25.4288887  33.9378348  26.9377675  30.9889831  27.8487132  33.8202917
  31.7215003  27.2786349  34.0540747  30.2329186  27.4608733  34.2609423
  20.2634409  30.8104227  27.3119571  20.1470668  30.1349130  27.9800655
  20.3736669  30.3236601  26.4951724  22.6065950  30.2714374  31.0166260
  22.2424158  29.7444995  31.7279181  23.4633066  29.8812843  30.8432745
  28.5115251  21.5608707  38.2797526  28.1798576  22.4304117  38.0558741
  27.9160864  21.2444991  38.9591556  22.2471437  25.3004274  26.0127608
  22.4145840  26.1684510  26.3798079  22.0568606  25.4631555  25.0888898
  25.0046771  33.7621253  37.6793439  24.7047494  34.6646291  37.5709246
  24.6597830  33.4953436  38.5314592  18.4559252  30.2135049  33.7130143
  17.5309749  30.0811263  33.9207835  18.7043665  30.9929269  34.2100085
  28.4043914  26.2803793  35.3590876  27.4960792  26.2119201  35.0649637
  28.3531510  26.7575738  36.1872701  22.2260658  27.7561931  26.9974275
  22.1060283  28.2018982  27.8359755  21.5313247  28.1047249  26.4387813
  15.8168063  29.8568323  34.5473932  15.9460444  30.1102802  35.4613344
  15.1365514  30.4496031  34.2278587  19.9867550  40.5265573  30.6464406
  19.9091580  41.4773398  30.7252887  19.3829194  40.1811445  31.3039333
  22.4784780  27.6993438  43.3025773  21.7018114  28.2587358  43.2928638
  23.1175343  28.1850221  43.8240643  30.2705561  24.4820231  37.1368750
  29.6279941  24.7752764  36.4908544  29.7660489  24.3673151  37.9421947
  27.9245724  28.2283404  27.8254609  28.8363581  28.4610791  27.6502307
  27.4155372  28.8120448  27.2629688  20.7331152  30.5078892  42.8643740
  21.4745837  31.0463936  42.5878564  20.0268138  31.1345180  43.0215292
  26.2086492  32.6508032  41.4615902  26.6169848  32.2090443  40.7170534
  25.4863754  32.0760660  41.7150095  22.5617562  27.5880639  38.8349459
  23.4078757  28.0120052  38.9784108  22.5016200  26.9314263  39.5288022
  26.5315307  33.2109223  35.2168191  25.9024169  33.3754937  34.5144258
  26.1440969  33.6250832  35.9879155  30.4104539  34.1463661  32.5712554
  29.7255577  34.5262562  32.0209588  30.4948388  34.7558987  33.3044502
  25.7117007  25.2485007  40.4930632  25.4677939  26.0027068  39.9564908
  25.9876938  25.6270355  41.3277879  27.6655470  31.7923620  39.1707898
  27.8772365  32.4355380  38.4942279  27.6185218  30.9585936  38.7029828
  25.2681699  24.4041440  36.0744470  24.4066178  24.7022694  36.3661208
  25.2944134  24.6211839  35.1425503  22.0843269  32.9483631  32.4818276
  22.5481614  33.2271334  31.6922898  21.8200067  32.0467075  32.2991366
  18.9767350  32.4955112  35.4198039  19.5468707  32.9242381  34.7815523
  19.5675462  32.2137697  36.1182225  21.0212155  29.0706783  29.2907841
  21.7236198  29.5227827  29.7581767  20.6892783  28.4290602  29.9187734
  19.4692516  27.6618540  43.6659050  18.8391177  28.3434821  43.8994447
  19.3628604  27.5501621  42.7212188  14.7637489  27.3290336  34.5924974
  13.9736543  27.5847864  34.1165085  15.2548736  28.1438674  34.6977015
  28.7801298  34.6695575  37.3430255  29.6018742  34.2675762  37.0612937
  28.7763701  34.5663809  38.2946371  16.7152234  27.6934915  31.5508451
  15.9183397  27.8053609  32.0691947  16.4877826  28.0321567  30.6849342
  22.5457902  34.2179618  39.4990966  22.6102334  34.6800026  40.3349138
  21.8368826  33.5876983  39.6273276  13.0475192  27.5820826  37.0239965
  13.2983230  28.4667836  37.2897541  13.5834740  27.4025428  36.2515057
  36.8707291  31.0134324  33.6915227  36.1171000  30.4441722  33.5359231
  37.0054832  30.9796988  34.6385861  22.2605919  35.8847726  29.3669946
  22.1251594  36.7299262  29.7954794  22.8015732  36.0867003  28.6035880
  18.7473259  21.9639306  46.0284301  18.3540204  21.4105504  46.7031946
  19.5639399  22.2749884  46.4190819  15.7135317  33.4023164  29.9397871
  16.2259837  34.1966414  30.0903436  16.3658030  32.7049454  29.8731473
  17.5230201  36.5188920  32.0220624  17.6996830  37.4406885  31.8341608
  18.3187035  36.2047339  32.4515004  21.6641220  23.3797185  43.6204558
  22.4050933  23.9804338  43.5409020  21.8959143  22.6374823  43.0622600
  16.8082558  28.5653552  41.8982788  16.6936073  27.6638809  42.1989886
  15.9527076  28.8117249  41.5467604  23.8874396  36.5071292  43.4970288
  23.4438250  35.7207671  43.1791193  24.5491609  36.6950443  42.8314179
  18.6461517  38.0367094  38.0230967  19.1968942  37.9084157  37.2507961
  17.8072993  38.3361983  37.6725859  25.9855634  36.7874092  41.5251689
  25.9674109  37.6082973  41.0331959  26.9075554  36.6628167  41.7501831
  22.4428688  34.3018222  42.3675198  22.9757025  33.5406510  42.1374506
  21.9142769  34.0091874  43.1099352  25.6098383  19.4078288  37.8968840
  25.2662652  20.2979929  37.8207950  25.9777345  19.2179945  37.0338425
  13.6784233  31.7311818  30.7157442  14.5159455  32.1408827  30.4991149
  13.8562501  30.7911260  30.6857636  25.5748666  29.3986899  26.4041275
  25.0595289  30.1691503  26.6429662  25.3025974  28.7252035  27.0274336
  23.1595777  24.2436600  31.4626513  22.3037373  23.8543450  31.2832152
  23.5722728  24.3228560  30.6026299  24.6894923  21.7782943  35.8618073
  24.1859719  21.7413078  35.0485878  24.9825530  22.6875686  35.9214729
  20.9337809  21.8621673  34.8684255  21.7990806  21.6664481  34.5090144
  21.0015318  21.6332024  35.7953611  30.5482940  32.1519253  28.3394448
  29.7712382  31.8130413  27.8949610  31.2274421  32.1571877  27.6649413
  25.3634969  27.2713991  28.2301056  25.0585104  27.5860140  29.0811199
  26.3165411  27.3495411  28.2728389  23.8081401  33.4304214  29.8794010
  23.2802762  32.6956974  29.5667247  23.3068903  34.2078891  29.6333978
  28.7874247  31.6253235  34.9961056  28.1297921  32.3152496  35.0841185
  29.5914646  32.0149667  35.3395042  18.5400128  24.0923881  32.2400621
  19.1143880  23.8699062  31.5073814  19.1271111  24.1612575  32.9929223
  27.5979705  29.9797607  33.0464998  28.1111587  30.6127599  33.5486708
  28.2480929  29.3798803  32.6808358  18.8669715  26.1228342  26.2596507
  18.0307028  26.4603028  26.5805781  18.7274485  25.9877321  25.3223644
  20.8422796  20.9665129  30.9675691  20.1887208  20.6514147  30.3432306
  20.8003270  20.3440870  31.6935514  21.9534001  31.2484424  22.8828983
  21.0461063  31.0173678  23.0820132  22.4505033  30.4522044  23.0702964
  24.8602080  39.9581932  25.8025669  24.1863778  40.2613628  26.4110627
  25.2467902  40.7611012  25.4531126  24.0760536  27.4547063  35.2923338
  23.1583098  27.6762010  35.1345026  24.4920680  27.5293373  34.4335046
  24.8595584  28.8538479  30.4226019  25.6067403  29.3659876  30.1133141
  25.1287174  28.5322531  31.2830412  23.1322234  31.3497019  27.4052973
  22.2233453  31.0656052  27.5025443  23.1617318  31.7696098  26.5456280
  28.3641502  34.9603609  31.1744140  27.9103829  34.1194519  31.2309331
  27.7335468  35.5965007  31.5118921  27.3074421  25.8895595  32.4044808
  26.5697178  25.3772981  32.7355051  27.5601195  25.4495976  31.5928085
  26.8074441  36.7980106  32.1093959  27.0997415  37.3585163  31.3906324
  27.3173061  37.0908667  32.8647118  27.4086049  18.6671847  32.9986577
  27.7144925  17.8069210  32.7112492  28.1338653  19.2589467  32.7985571
  13.7010405  29.0702533  31.3868175  13.5034804  28.4771894  30.6619242
  13.1457069  28.7654744  32.1044114  21.6807128  28.9625640  33.5062768
  21.7355738  28.0099476  33.4305245  20.8698330  29.1185079  33.9904067
  22.8298322  32.8905763  24.7441052  22.3917752  32.1741622  24.2846689
  23.5708763  33.1181878  24.1826143  19.6199488  27.5802700  31.2653147
  18.8067354  27.8796870  31.6718339  20.1158482  27.1858388  31.9827629
  21.7708066  37.5760457  33.1987412  21.7284245  37.8021303  32.2695944
  22.6870765  37.3423831  33.3473213  25.2173700  28.0444524  40.0968041
  25.5723088  28.2715997  40.9562507  25.8645831  28.3762901  39.4745296
  30.9471437  31.1662960  30.8017370  30.8089335  31.3564556  29.8738559
  30.5907656  31.9282343  31.2585421  19.1113563  25.1521055  36.8814382
  19.7512942  25.0109814  36.1837345  18.2791093  24.8655569  36.5052984
  30.9740816  33.2339487  35.8128642  31.4077323  33.1414776  36.6611696
  31.6872397  33.2096988  35.1748658  19.8873867  34.4523486  32.9949375
  20.6814465  33.9573806  32.7931950  19.1765559  33.9241349  32.6317080
  24.7068711  36.8341581  37.3461742  24.7605734  37.4032517  38.1139458
  23.8383493  37.0043466  36.9815779  16.1956630  28.5966567  29.0709127
  15.2654218  28.5351023  29.2879089  16.2914102  28.0742520  28.2745769
  16.1142179  25.1221380  31.6587369  16.3748997  26.0366713  31.5496529
  16.9359352  24.6545823  31.8083982  17.5867105  26.5359137  38.8286193
  18.2590158  26.3276500  38.1798842  16.7596891  26.3381223  38.3891426
  31.8356366  33.2763188  38.3461527  32.0292256  34.1808998  38.5920802
  31.7356984  32.8170607  39.1800112  23.4892677  23.1621078  40.8451854
  22.8420592  23.8611028  40.7516331  24.2593692  23.5957222  41.2128103
  26.8971475  33.4269930  43.9202408  26.7456981  33.1980482  43.0032491
  26.8876154  34.3840532  43.9333753  23.6656811  31.0001843  38.9048674
  24.5948871  31.1513003  38.7317641  23.2447841  31.0885864  38.0497321
  22.4645143  35.0252508  36.6747212  22.3256229  34.6571292  37.5473150
  21.6759739  35.5400147  36.5031169  23.0593295  40.1261604  28.0172748
  23.2345051  39.6549647  28.8318371  22.3726083  40.7527370  28.2454009
  24.0150358  34.4034110  34.0636049  23.6800191  34.3634880  34.9593699
  23.5154304  33.7378826  33.5906460  17.9894602  29.8101740  39.5888631
  17.8514400  29.0781979  40.1900170  18.8999525  29.7210640  39.3072818
  26.9509550  31.7490145  24.3373109  26.3338720  31.0236973  24.2406162
  26.4826038  32.5099505  23.9940183  20.6176903  29.5221700  39.0772310
  21.3276521  28.8814892  39.0358929  20.5746211  29.7734595  39.9998491
  28.6063681  36.4589053  41.9978889  28.5476227  35.7748273  41.3309472
  29.0083200  37.2008043  41.5459515  19.3305837  26.5086918  40.8967950
  18.7943194  26.0577656  41.5489546  18.7422545  26.6432826  40.1538414
  17.6254380  43.2750967  34.7912608  17.8650978  43.9069491  35.4691627
  16.7823577  42.9239007  35.0777968  28.6081089  34.4228637  40.2292869
  27.7207867  34.0854559  40.3519268  29.1779640  33.6911668  40.4661635
  10.2610236  30.7552729  33.5535921  10.9481276  30.4414459  32.9656936
  10.1058364  31.6594093  33.2803172  15.0644958  25.6442925  37.9820944
  14.9803147  25.0368595  37.2471354  14.2427664  26.1351944  37.9830441
  22.1382242  39.0830089  37.1954112  22.0652413  39.8885061  37.7073417
  21.6959635  39.2822055  36.3702134  21.9272022  38.3201859  30.7056934
  21.1439543  38.8623540  30.7995158  22.6264767  38.8375839  31.1051175
  25.2368672  24.1296489  33.3491139  25.7337371  23.3766451  33.0292210
  24.4655653  24.1660805  32.7834349  33.0898429  29.8336854  34.9909431
  33.0788305  30.7161570  34.6203364  32.2215809  29.4808405  34.7963968
  24.5980925  38.9816923  39.3512271  25.3108898  39.6164388  39.2788172
  24.1070954  39.0780789  38.5352273  26.3198452  32.8868176  30.9229563
  25.3854731  33.0069638  30.7534267  26.4975121  31.9840643  30.6589573
  21.8203640  26.2713872  33.0762824  21.4501428  25.7184912  33.7643729
  22.3162733  25.6672005  32.5237824  29.7071004  28.7285495  31.4579597
  30.1731456  29.5613487  31.3839899  30.1578504  28.2630477  32.1624855
  19.6492839  36.7311367  40.1717842  20.3502299  37.3647850  40.3247236
  19.1787954  37.0726098  39.4113481  27.7747235  35.0729317  28.4565749
  28.0507079  34.9585911  29.3659623  26.9051734  34.6746801  28.4177922
  27.6787666  21.0966082  35.4970498  26.7650746  21.3270309  35.6652705
  28.1080768  21.1804526  36.3484531  27.4494125  29.2855974  37.9970392
  26.7965575  29.5331882  37.3422845  27.8274505  28.4720112  37.6632869
  24.4101299  39.3215667  32.0998562  24.5923693  38.5037323  32.5626315
  25.2334285  39.5383360  31.6623452  24.7443464  38.2483853  29.3613611
  25.2731231  37.7376307  28.7483773  25.0071684  37.9326383  30.2259144
  23.4981698  30.0275785  44.4836429  22.8222335  29.9269915  45.1538804
  24.3209332  29.8714999  44.9472426  15.2460557  36.2647722  37.1048944
  15.8313994  35.5191410  37.2376849  15.0485396  36.5751679  37.9885608
  18.0999212  39.2998969  32.1211387  17.4309588  39.7845097  31.6375427
  17.9612082  39.5468190  33.0354765   9.8378212  28.8353322  35.8253388
   9.8762311  28.3016913  36.6190506   9.3318505  28.3088528  35.2064365
  22.2404481  41.3342713  38.7194045  22.7922789  41.4974334  39.4843130
  22.5810674  41.9247151  38.0474070  17.2168974  23.6817863  39.3215930
  17.2810301  24.5432693  38.9093328  17.1536094  23.0691864  38.5888288
  16.6921247  25.7540995  42.9688964  17.3193285  25.3718072  43.5826489
  15.8349165  25.5355197  43.3344657  27.0915355  36.1603970  44.5742700
  27.6355259  36.7733929  44.0797654  26.5102200  36.7183549  45.0909713
  13.4686789  27.5617424  28.9007319  13.7640230  26.6528103  28.8474373
  12.5674825  27.5405164  28.5788321  25.3772868  39.2824688  35.7057727
  25.2524008  38.4814428  35.1968673  26.0351959  39.7770882  35.2171697
  16.9981036  25.6373421  34.8834868  16.2767622  26.2509388  34.7442341
  17.7874292  26.1731186  34.8051514  27.4407777  37.0833708  37.3337277
  26.4938112  36.9639060  37.2615604  27.7890550  36.1956206  37.4163539
  19.8007350  22.9727847  41.1575519  20.3241752  23.2190144  41.9201829
  19.5819683  23.8047882  40.7378657  15.1974631  25.2431522  29.0246644
  14.8687337  24.3628901  28.8421750  15.5514002  25.1879191  29.9123033
  24.4454210  36.8786425  33.5341630  24.2979172  35.9503132  33.7149200
  25.2707703  36.9006515  33.0498705  18.3116454  25.5304492  29.3922122
  18.6512527  26.0590413  28.6700730  18.7588575  25.8684898  30.1680688
  28.0488332  37.7014983  34.6206502  28.9734879  37.4957845  34.4830954
  27.8803635  37.4531384  35.5295844  21.0059895  23.9141542  38.8425190
  20.6656715  23.1149355  39.2445870  20.2998901  24.2143253  38.2702023
  21.6576367  20.9990855  37.2952513  22.4802436  20.5251333  37.1731403
  21.9014430  21.7781339  37.7951199  20.2984601  24.0279113  27.5915415
  21.0192964  24.4060366  27.0879131  19.6749905  24.7467990  27.6950393
  24.4415724  24.7324262  28.5273747  24.6579339  25.6148900  28.2262575
  23.9609791  24.3410476  27.7979389  19.1814946  27.6909975  35.1044492
  19.0359526  28.0050279  35.9968773  18.7040149  28.3094876  34.5515390
  21.0411328  24.6812523  35.1525381  21.0272897  23.7853617  34.8157679
  21.7583757  24.6883187  35.7863667  22.8937459  25.1149864  37.1978509
  22.6355237  26.0366934  37.1962839  22.3622500  24.7180298  37.8878973
  27.8383648  38.2200651  29.9768594  28.0120525  37.6547073  29.2242446
  28.3312539  39.0201546  29.7948084  13.6560608  30.2315320  38.0432153
  13.1114076  31.0075128  38.1752427  14.5339958  30.5786124  37.8851274
  20.4448224  23.5626904  30.4212951  20.5664136  22.6343550  30.6203839
  20.1550267  23.5765590  29.5091267  23.3139415  21.2481814  33.5579671
  23.3361112  21.3121147  32.6031651  23.7307474  20.4086323  33.7520177
  33.6923039  30.9837074  31.5958894  34.1354185  30.2344399  31.1978017
  32.8149549  30.9747210  31.2132626  28.8258820  37.5367415  27.0765492
  29.5209725  38.1574108  27.2952807  29.1681971  36.6862766  27.3517870
  14.4426630  29.3585216  40.9362310  13.7008366  29.5067851  41.5226940
  14.1219374  29.6193482  40.0729059  30.7250244  34.9867121  28.6052823
  31.2501568  35.3254393  27.8802143  30.6372596  34.0514136  28.4215958
  22.3870292  38.9001194  40.7342700  22.6957419  38.6550341  41.6065399
  23.1845774  39.1047833  40.2461570  22.4090904  41.0539104  32.9648076
  21.9695895  40.5615483  33.6580933  23.1599021  40.5112072  32.7240151
  14.8883243  37.2450645  32.9672704  15.7141263  36.9454417  32.5871348
  14.5377295  36.4758267  33.4162493  19.8564776  36.5977113  35.0370378
  19.2344786  35.9347818  34.7372606  20.5269643  36.6238245  34.3544026
  13.0891848  35.1636971  33.9261638  12.2523757  34.7359146  33.7445639
  13.0615494  35.3569415  34.8632429  19.9289304  25.0758901  44.6302884
  19.9777459  25.9521024  44.2480653  20.4711818  24.5336294  44.0574527
  30.4144150  35.6200024  43.9104021  29.6239693  35.6024163  43.3708520
  30.1777504  36.1588318  44.6653058  30.5342025  32.4692491  41.2236749
  30.5840030  32.3042498  42.1652272  30.4255948  31.6019750  40.8334630
  19.4178283  35.1481036  28.5128838  19.5666404  35.8316501  27.8595511
  20.2244727  35.1286126  29.0278294  27.8245787  28.4523419  42.5396056
  28.7255650  28.3129884  42.2480054  27.8993762  28.6177874  43.4794234
  22.1588592  25.8290273  41.3849242  21.2891902  26.1223840  41.1131831
  22.3948073  26.4130718  42.1056506  32.0360221  34.8889432  41.4678771
  31.7445030  35.2519413  42.3042232  31.4232353  34.1756441  41.2892103
  33.2355904  32.4542312  33.9881341  34.0702795  32.8932116  34.1518902
  33.3715033  31.9780965  33.1689587  30.2847410  30.0122047  39.9358829
  30.7601531  30.2049693  39.1277680  29.3612975  30.0681233  39.6902213
  17.1730916  31.1746214  29.5189907  16.9276958  30.2708544  29.7170117
  17.3426831  31.1763364  28.5769385  24.8627626  22.0469890  38.9014663
  25.3809570  22.7830917  38.5761151  24.5082759  22.3533884  39.7361422
  16.4426564  26.9074572  27.0176069  15.7495809  26.9818927  26.3616105
  16.1978316  26.1434915  27.5397586  25.1140220  18.4670173  34.4215559
  25.3941974  17.7993362  35.0475986  25.8990827  18.6599269  33.9090223
  22.9173689  37.6429167  25.9840586  22.3447656  38.2619354  25.5311058
  23.4906483  38.1928529  26.5180508  28.9849079  26.8887807  38.1687135
  29.9366502  26.9885905  38.1899359  28.8152529  26.0966075  38.6785219
  27.0063458  23.9743390  38.3546536  26.4113390  24.2548403  37.6593024
  26.7213155  24.4637291  39.1263277  26.1370949  37.9266317  27.1149168
  27.0701622  37.8611879  27.3182044  26.0494161  38.7622584  26.6563701
  28.7658965  37.2432187  24.0753116  28.6872597  36.9092051  24.9688874
  29.5868632  37.7353955  24.0744588  31.4637156  30.1093927  37.2829434
  31.4313477  29.1709927  37.4689118  32.0737780  30.1877963  36.5495259
  23.3020487  28.9789980  23.3256638  24.2479592  28.8496188  23.3945056
  22.9234732  28.2404642  23.8026066  31.6131645  26.9004970  37.3287717
  31.0970694  26.1163427  37.1417646  32.4971593  26.5723687  37.4934237
  29.2742372  20.6445986  33.2883530  29.0767193  20.3361074  34.1726862
  29.8842077  21.3707625  33.4181460  37.2813706  31.1709933  36.4235471
  38.0117095  30.9095222  36.9843174  36.6720652  30.4338655  36.4637539
  35.3629003  29.3117796  37.0209922  34.6362167  29.1773761  36.4126414
  34.9476290  29.6194625  37.8266640  23.1859180  33.0307726  44.7857295
  24.1062189  33.2086325  44.9797342  23.1508763  32.0863771  44.6336995
  12.4041345  28.2246319  33.7110570  12.0844129  27.3711628  33.4184944
  11.8574773  28.4394898  34.4668537  16.1821252  30.9408760  37.4280076
  16.4007262  31.8725868  37.4468110  16.5947026  30.5816735  38.2134880
  23.1025470  21.4476846  29.4155765  22.2926199  21.1023931  29.7911011
  23.7909887  21.1384389  30.0043376  25.0316019  20.5254893  31.0380061
  25.5847057  20.9450346  31.6970085  25.2686105  19.5990641  31.0803017
  21.0549118  26.5141966  46.8182825  20.9545845  27.4636323  46.7494916
  20.8370660  26.1860205  45.9458895  12.2729605  31.8449231  35.6803691
  11.5793076  31.4303184  35.1673646  13.0202596  31.8869767  35.0837110
  28.4094826  22.6355418  30.5458726  27.8293495  23.2940222  30.1636778
  28.1430758  21.8132762  30.1346143  26.8598392  22.0360475  32.7480046
  27.3598170  22.1477010  31.9394365  27.5034000  21.7321528  33.3880854
  20.9180388  29.9439105  45.6347887  20.4347469  30.7439465  45.8411776
  21.0041327  29.9547050  44.6815331  14.1866347  31.7767485  33.5569706
  14.1637036  31.8755172  32.6051589  14.4966984  32.6232635  33.8786873
  16.8453725  33.8343640  37.6716321  17.7996979  33.8027582  37.6046252
  16.6466249  33.3734263  38.4866547  17.4353107  32.4044756  40.2387118
  18.2545996  32.8988834  40.2621956  17.7089915  31.4876724  40.2104686
  27.1919704  24.7955508  29.6015074  26.3045559  25.0805159  29.3835269
  27.6073693  24.6349271  28.7542351  30.5434240  24.8202029  33.3169413
  31.3194630  25.3098481  33.5894030  29.8182374  25.2460083  33.7741283
  32.9806798  25.5329648  34.3743354  33.5751289  25.2925384  33.6636662
  33.0533382  24.8136779  35.0016890  15.2003954  39.3763259  34.6886519
  15.0658422  38.6163660  34.1224517  14.7836016  40.1004159  34.2215308
  26.3362917  34.5600183  23.6963094  27.0398767  34.7650185  24.3120750
  25.6125566  35.1276945  23.9612177  27.1660727  30.3110044  29.8165364
  27.1095929  30.7678595  28.9772997  27.7189070  29.5500729  29.6388207
  30.9765533  26.0999776  30.6415484  30.7202468  25.6996412  31.4723691
  30.3518401  26.8143570  30.5165623  35.2877871  28.8395849  33.1486775
  34.7277429  28.9089038  33.9218337  34.6821374  28.6636834  32.4286271
  18.3573080  40.2732576  34.9004961  18.2405464  41.2178009  34.7983652
  17.5365526  39.9706138  35.2890761  28.2449614  34.9982712  25.7461554
  29.0795218  34.5663910  25.5639029  28.0833957  34.8264726  26.6738448
  27.8995507  31.5014825  27.1117893  27.8444310  31.3359097  26.1706337
  27.2741562  32.2090858  27.2680083  12.6888022  26.7382890  40.9379316
  13.3346885  26.2281844  41.4266541  12.4805173  27.4751571  41.5122741
  25.2141414  33.8063737  46.4371456  26.0832573  33.9804389  46.0758091
  24.7348165  34.6258154  46.3147185  21.2091632  21.0022934  26.6903212
  21.1970302  21.9464774  26.8471483  22.1015054  20.8193080  26.3962673
  19.3827594  40.9260838  38.1160890  20.2854841  40.9584448  38.4327385
  19.1564964  39.9961289  38.1307226  21.1381196  39.6791825  34.7770968
  20.1876827  39.6793686  34.6635341  21.4413682  38.9324559  34.2607003
  25.0243752  17.5965711  30.9449149  24.2576147  17.0424198  31.0905831
  25.4354457  17.6687580  31.8063300  17.0285513  23.8850507  45.0354330
  17.8916974  23.5287312  45.2457654  16.4550923  23.5464402  45.7229734
  36.8733890  45.5152363  35.8416731  37.5112300  45.3959110  35.1380071
  36.7554732  46.4633207  35.9004683  33.6823596  45.4679791  35.7778255
  33.3442107  45.3520856  34.8898790  34.5513364  45.0670956  35.7579262
  29.5410412  47.3215268  31.7675146  28.9775277  47.2305204  30.9991434
  29.4262807  46.5015172  32.2477639  34.1643379  46.6214643  41.7364461
  34.1532020  46.2267441  40.8644965  34.3264018  45.8880715  42.3298232
  27.0874843  48.8166459  34.6059367  27.8796135  48.4757284  34.1905666
  27.3271494  48.9261434  35.5261520  35.1209970  50.9886235  27.0789611
  34.4697950  51.5740316  26.6923625  35.9154333  51.5192430  27.1384649
  29.0465597  48.0775372  27.4776746  29.8196473  47.5304359  27.3389621
  29.3990996  48.9419622  27.6891207  30.8850640  49.4051755  40.6843645
  30.5940506  50.3097386  40.5690311  31.5207624  49.4468282  41.3987715
  31.8106847  46.7828603  37.2745005  32.4070419  46.5584626  36.5601968
  31.8681818  46.0413349  37.8770452  31.3831875  44.2368039  25.1095196
  31.6357396  43.7149560  24.3478659  30.4456434  44.0734184  25.2121879
  36.4275158  43.2403817  32.9169939  37.2138247  42.8223240  32.5660356
  36.6913862  44.1449909  33.0851587  36.5985235  48.6776667  27.6158596
  35.9631068  48.7511294  28.3279500  36.2682642  49.2670266  26.9377675
  41.8283585  43.1779050  33.8202917  42.5608757  42.6078267  34.0540747
  41.0722941  42.7900651  34.2609423  31.1028164  46.1396144  27.3119571
  30.9864422  45.4641048  27.9800655  31.2130424  45.6528518  26.4951724
  33.4459705  45.6006292  31.0166260  33.0817912  45.0736913  31.7279181
  34.3026821  45.2104761  30.8432745  39.3509006  36.8900624  38.2797526
  39.0192330  37.7596035  38.0558741  38.7554619  36.5736908  38.9591556
  33.0865192  40.6296191  26.0127608  33.2539594  41.4976428  26.3798079
  32.8962361  40.7923473  25.0888898  35.8440525  49.0913170  37.6793439
  35.5441248  49.9938209  37.5709246  35.4991585  48.8245353  38.5314592
  29.2953007  45.5426967  33.7130143  28.3703503  45.4103181  33.9207835
  29.5437420  46.3221186  34.2100085  39.2437669  41.6095710  35.3590876
  38.3354546  41.5411119  35.0649637  39.1925265  42.0867655  36.1872701
  33.0654413  43.0853849  26.9974275  32.9454038  43.5310900  27.8359755
  32.3707001  43.4339166  26.4387813  26.6561818  45.1860241  34.5473932
  26.7854199  45.4394720  35.4613344  25.9759269  45.7787949  34.2278587
  30.8261305  55.8557491  30.6464406  30.7485335  56.8065316  30.7252887
  30.2222948  55.5103363  31.3039333  33.3178535  43.0285356  43.3025773
  32.5411869  43.5879276  43.2928638  33.9569098  43.5142139  43.8240643
  41.1099315  39.8112149  37.1368750  40.4673696  40.1044682  36.4908544
  40.6054244  39.6965069  37.9421947  38.7639479  43.5575322  27.8254609
  39.6757335  43.7902709  27.6502307  38.2549126  44.1412366  27.2629688
  31.5724907  45.8370809  42.8643740  32.3139591  46.3755853  42.5878564
  30.8661892  46.4637098  43.0215292  37.0480247  47.9799950  41.4615902
  37.4563603  47.5382360  40.7170534  36.3257508  47.4052577  41.7150095
  33.4011317  42.9172557  38.8349459  34.2472512  43.3411970  38.9784108
  33.3409954  42.2606181  39.5288022  37.3709061  48.5401140  35.2168191
  36.7417924  48.7046855  34.5144258  36.9834723  48.9542750  35.9879155
  41.2498293  49.4755578  32.5712554  40.5649331  49.8554480  32.0209588
  41.3342142  50.0850905  33.3044502  36.5510762  40.5776925  40.4930632
  36.3071694  41.3318985  39.9564908  36.8270692  40.9562273  41.3277879
  38.5049225  47.1215537  39.1707898  38.7166120  47.7647297  38.4942279
  38.4578973  46.2877854  38.7029828  36.1075454  39.7333358  36.0744470
  35.2459933  40.0314612  36.3661208  36.1337888  39.9503757  35.1425503
  32.9237023  48.2775549  32.4818276  33.3875369  48.5563251  31.6922898
  32.6593821  47.3758993  32.2991366  29.8161104  47.8247030  35.4198039
  30.3862461  48.2534298  34.7815523  30.4069216  47.5429615  36.1182225
  31.8605909  44.3998701  29.2907841  32.5629953  44.8519745  29.7581767
  31.5286538  43.7582520  29.9187734  30.3086271  42.9910458  43.6659050
  29.6784931  43.6726738  43.8994447  30.2022359  42.8793539  42.7212188
  25.6031243  42.6582254  34.5924974  24.8130297  42.9139782  34.1165085
  26.0942490  43.4730591  34.6977015  39.6195053  49.9987493  37.3430255
  40.4412496  49.5967680  37.0612937  39.6157456  49.8955727  38.2946371
  27.5545989  43.0226833  31.5508451  26.7577152  43.1345527  32.0691947
  27.3271581  43.3613485  30.6849342  33.3851656  49.5471536  39.4990966
  33.4496089  50.0091943  40.3349138  32.6762580  48.9168901  39.6273276
  23.8868946  42.9112744  37.0239965  24.1376985  43.7959754  37.2897541
  24.4228495  42.7317346  36.2515057  47.7101046  46.3426241  33.6915227
  46.9564754  45.7733639  33.5359231  47.8448587  46.3088906  34.6385861
  33.0999674  51.2139643  29.3669946  32.9645349  52.0591179  29.7954794
  33.6409486  51.4158921  28.6035880  29.5867013  37.2931223  46.0284301
  29.1933959  36.7397422  46.7031946  30.4033154  37.6041802  46.4190819
  26.5529071  48.7315082  29.9397871  27.0653592  49.5258332  30.0903436
  27.2051784  48.0341372  29.8731473  28.3623956  51.8480838  32.0220624
  28.5390584  52.7698803  31.8341608  29.1580789  51.5339257  32.4515004
  32.5034974  38.7089102  43.6204558  33.2444688  39.3096256  43.5409020
  32.7352897  37.9666740  43.0622600  27.6476312  43.8945470  41.8982788
  27.5329828  42.9930727  42.1989886  26.7920830  44.1409166  41.5467604
  34.7268150  51.8363210  43.4970288  34.2832004  51.0499589  43.1791193
  35.3885364  52.0242361  42.8314179  29.4855271  53.3659012  38.0230967
  30.0362696  53.2376075  37.2507961  28.6466747  53.6653901  37.6725859
  36.8249388  52.1166010  41.5251689  36.8067864  52.9374891  41.0331959
  37.7469308  51.9920085  41.7501831  33.2822442  49.6310139  42.3675198
  33.8150779  48.8698428  42.1374506  32.7536523  49.3383791  43.1099352
  36.4492137  34.7370205  37.8968840  36.1056407  35.6271847  37.8207950
  36.8171100  34.5471863  37.0338425  24.5177988  47.0603736  30.7157442
  25.3553210  47.4700744  30.4991149  24.6956256  46.1203178  30.6857636
  36.4142420  44.7278816  26.4041275  35.8989044  45.4983421  26.6429662
  36.1419729  44.0543953  27.0274336  33.9989531  39.5728517  31.4626513
  33.1431127  39.1835368  31.2832152  34.4116483  39.6520478  30.6026299
  35.5288678  37.1074861  35.8618073  35.0253473  37.0704996  35.0485878
  35.8219285  38.0167603  35.9214729  31.7731564  37.1913590  34.8684255
  32.6384560  36.9956399  34.5090144  31.8409073  36.9623942  35.7953611
  41.3876694  47.4811171  28.3394448  40.6106137  47.1422331  27.8949610
  42.0668175  47.4863794  27.6649413  36.2028723  42.6005909  28.2301056
  35.8978859  42.9152058  29.0811199  37.1559165  42.6787328  28.2728389
  34.6475155  48.7596132  29.8794010  34.1196517  48.0248891  29.5667247
  34.1462658  49.5370808  29.6333978  39.6268001  46.9545152  34.9961056
  38.9691676  47.6444414  35.0841185  40.4308400  47.3441584  35.3395042
  29.3793883  39.4215798  32.2400621  29.9537635  39.1990980  31.5073814
  29.9664865  39.4904493  32.9929223  38.4373460  45.3089525  33.0464998
  38.9505342  45.9419517  33.5486708  39.0874684  44.7090721  32.6808358
  29.7063470  41.4520259  26.2596507  28.8700782  41.7894946  26.5805781
  29.5668239  41.3169239  25.3223644  31.6816550  36.2957047  30.9675691
  31.0280963  35.9806064  30.3432306  31.6397025  35.6732788  31.6935514
  32.7927755  46.5776342  22.8828983  31.8854817  46.3465596  23.0820132
  33.2898787  45.7813961  23.0702964  35.6995834  55.2873849  25.8025669
  35.0257533  55.5905546  26.4110627  36.0861656  56.0902930  25.4531126
  34.9154291  42.7838981  35.2923338  33.9976852  43.0053928  35.1345026
  35.3314434  42.8585291  34.4335046  35.6989339  44.1830396  30.4226019
  36.4461157  44.6951794  30.1133141  35.9680928  43.8614449  31.2830412
  33.9715989  46.6788937  27.4052973  33.0627208  46.3947970  27.5025443
  34.0011073  47.0988016  26.5456280  39.2035256  50.2895527  31.1744140
  38.7497583  49.4486436  31.2309331  38.5729223  50.9256925  31.5118921
  38.1468176  41.2187513  32.4044808  37.4090932  40.7064899  32.7355051
  38.3994949  40.7787894  31.5928085  37.6468195  52.1272023  32.1093959
  37.9391170  52.6877080  31.3906324  38.1566816  52.4200584  32.8647118
  38.2479803  33.9963765  32.9986577  38.5538680  33.1361128  32.7112492
  38.9732408  34.5881385  32.7985571  24.5404159  44.3994451  31.3868175
  24.3428559  43.8063812  30.6619242  23.9850823  44.0946661  32.1044114
  32.5200883  44.2917558  33.5062768  32.5749493  43.3391394  33.4305245
  31.7092085  44.4476997  33.9904067  33.6692077  48.2197681  24.7441052
  33.2311506  47.5033540  24.2846689  34.4102517  48.4473796  24.1826143
  30.4593243  42.9094617  31.2653147  29.6461108  43.2088788  31.6718339
  30.9552237  42.5150306  31.9827629  32.6101821  52.9052374  33.1987412
  32.5677999  53.1313221  32.2695944  33.5264519  52.6715749  33.3473213
  36.0567454  43.3736442  40.0968041  36.4116842  43.6007915  40.9562507
  36.7039586  43.7054819  39.4745296  41.7865191  46.4954878  30.8017370
  41.6483090  46.6856474  29.8738559  41.4301410  47.2574261  31.2585421
  29.9507317  40.4812973  36.8814382  30.5906697  40.3401732  36.1837345
  29.1184848  40.1947486  36.5052984  41.8134571  48.5631405  35.8128642
  42.2471078  48.4706694  36.6611696  42.5266152  48.5388905  35.1748658
  30.7267621  49.7815403  32.9949375  31.5208220  49.2865723  32.7931950
  30.0159314  49.2533266  32.6317080  35.5462466  52.1633499  37.3461742
  35.5999488  52.7324435  38.1139458  34.6777247  52.3335384  36.9815779
  27.0350385  43.9258485  29.0709127  26.1047973  43.8642941  29.2879089
  27.1307857  43.4034438  28.2745769  26.9535934  40.4513298  31.6587369
  27.2142751  41.3658631  31.5496529  27.7753106  39.9837740  31.8083982
  28.4260859  41.8651055  38.8286193  29.0983913  41.6568417  38.1798842
  27.5990646  41.6673141  38.3891426  42.6750120  48.6055105  38.3461527
  42.8686011  49.5100916  38.5920802  42.5750739  48.1462524  39.1800112
  34.3286431  38.4912996  40.8451854  33.6814346  39.1902946  40.7516331
  35.0987447  38.9249140  41.2128103  37.7365229  48.7561848  43.9202408
  37.5850736  48.5272400  43.0032491  37.7269909  49.7132450  43.9333753
  34.5050566  46.3293761  38.9048674  35.4342626  46.4804920  38.7317641
  34.0841596  46.4177782  38.0497321  33.3038897  50.3544425  36.6747212
  33.1649983  49.9863210  37.5473150  32.5153494  50.8692065  36.5031169
  33.8987049  55.4553522  28.0172748  34.0738805  54.9841565  28.8318371
  33.2119837  56.0819288  28.2454009  34.8544112  49.7326028  34.0636049
  34.5193945  49.6926798  34.9593699  34.3548058  49.0670744  33.5906460
  28.8288356  45.1393658  39.5888631  28.6908154  44.4073897  40.1900170
  29.7393280  45.0502558  39.3072818  37.7903304  47.0782062  24.3373109
  37.1732475  46.3528891  24.2406162  37.3219793  47.8391423  23.9940183
  31.4570657  44.8513617  39.0772310  32.1670276  44.2106810  39.0358929
  31.4139965  45.1026512  39.9998491  39.4457436  51.7880971  41.9978889
  39.3869982  51.1040191  41.3309472  39.8476954  52.5299961  41.5459515
  30.1699591  41.8378835  40.8967950  29.6336948  41.3869574  41.5489546
  29.5816300  41.9724744  40.1538414  28.4648135  58.6042885  34.7912608
  28.7044733  59.2361409  35.4691627  27.6217331  58.2530925  35.0777968
  29.5801850  41.2967487  23.4594413  28.7031316  41.1756287  23.0956660
  30.0559603  40.5053565  23.2073302  39.4474843  49.7520555  40.2292869
  38.5601622  49.4146476  40.3519268  40.0173394  49.0203586  40.4661635
  21.1003990  46.0844646  33.5535921  21.7875030  45.7706376  32.9656936
  20.9452119  46.9886011  33.2803172  25.9038712  40.9734843  37.9820944
  25.8196901  40.3660512  37.2471354  25.0821419  41.4643861  37.9830441
  32.9775996  54.4122007  37.1954112  32.9046168  55.2176978  37.7073417
  32.5353390  54.6113973  36.3702134  32.7665776  53.6493777  30.7056934
  31.9833298  54.1915457  30.7995158  33.4658521  54.1667757  31.1051175
  36.0762426  39.4588406  33.3491139  36.5731126  38.7058369  33.0292210
  35.3049408  39.4952723  32.7834349  43.9292184  45.1628772  34.9909431
  43.9182060  46.0453487  34.6203364  43.0609563  44.8100323  34.7963968
  35.4374680  54.3108841  39.3512271  36.1502652  54.9456306  39.2788172
  34.9464709  54.4072707  38.5352273  37.1592207  48.2160094  30.9229563
  36.2248486  48.3361556  30.7534267  37.3368875  47.3132560  30.6589573
  32.6597395  41.6005789  33.0762824  32.2895182  41.0476830  33.7643729
  33.1556487  40.9963923  32.5237824  40.5464758  44.0577413  31.4579597
  41.0125210  44.8905405  31.3839899  40.9972259  43.5922395  32.1624855
  30.4886594  52.0603284  40.1717842  31.1896053  52.6939767  40.3247236
  30.0181708  52.4018016  39.4113481  38.6140989  50.4021234  28.4565749
  38.8900833  50.2877829  29.3659623  37.7445488  50.0038719  28.4177922
  38.5181421  36.4258000  35.4970498  37.6044501  36.6562227  35.6652705
  38.9474522  36.5096444  36.3484531  38.2887879  44.6147892  37.9970392
  37.6359330  44.8623799  37.3422845  38.6668259  43.8012030  37.6632869
  35.2495053  54.6507585  32.0998562  35.4317448  53.8329241  32.5626315
  36.0728039  54.8675277  31.6623452  35.5837219  53.5775770  29.3613611
  36.1124985  53.0668225  28.7483773  35.8465438  53.2618300  30.2259144
  34.3375452  45.3567703  44.4836429  33.6616090  45.2561832  45.1538804
  35.1603086  45.2006917  44.9472426  26.0854312  51.5939640  37.1048944
  26.6707748  50.8483327  37.2376849  25.8879150  51.9043596  37.9885608
  28.9392967  54.6290887  32.1211387  28.2703342  55.1137015  31.6375427
  28.8005836  54.8760107  33.0354765  20.6771966  44.1645240  35.8253388
  20.7156066  43.6308830  36.6190506  20.1712259  43.6380445  35.2064365
  33.0798235  56.6634630  38.7194045  33.6316543  56.8266252  39.4843130
  33.4204429  57.2539068  38.0474070  28.0562729  39.0109780  39.3215930
  28.1204055  39.8724611  38.9093328  27.9929849  38.3983782  38.5888288
  27.5315001  41.0832913  42.9688964  28.1587040  40.7009990  43.5826489
  26.6742920  40.8647115  43.3344657  37.9309110  51.4895888  44.5742700
  38.4749014  52.1025846  44.0797654  37.3495955  52.0475466  45.0909713
  24.3080544  42.8909342  28.9007319  24.6033985  41.9820020  28.8474373
  23.4068580  42.8697081  28.5788321  36.2166623  54.6116606  35.7057727
  36.0917762  53.8106346  35.1968673  36.8745714  55.1062799  35.2171697
  27.8374791  40.9665338  34.8834868  27.1161377  41.5801306  34.7442341
  28.6268047  41.5023103  34.8051514  38.2801531  52.4125626  37.3337277
  37.3331867  52.2930977  37.2615604  38.6284304  51.5248124  37.4163539
  30.6401104  38.3019765  41.1575519  31.1635506  38.5482062  41.9201829
  30.4213438  39.1339800  40.7378657  26.0368385  40.5723440  29.0246644
  25.7081092  39.6920818  28.8421750  26.3907756  40.5171108  29.9123033
  35.2847964  52.2078342  33.5341630  35.1372927  51.2795050  33.7149200
  36.1101458  52.2298433  33.0498705  29.1510209  40.8596409  29.3922122
  29.4906281  41.3882331  28.6700730  29.5982329  41.1976815  30.1680688
  38.8882086  53.0306901  34.6206502  39.8128634  52.8249762  34.4830954
  38.7197390  52.7823302  35.5295844  31.8453649  39.2433460  38.8425190
  31.5050470  38.4441273  39.2445870  31.1392656  39.5435171  38.2702023
  32.4970121  36.3282772  37.2952513  33.3196191  35.8543251  37.1731403
  32.7408185  37.1073256  37.7951199  31.1378356  39.3571031  27.5915415
  31.8586718  39.7352284  27.0879131  30.5143660  40.0759908  27.6950393
  35.2809479  40.0616180  28.5273747  35.4973093  40.9440818  28.2262575
  34.8003546  39.6702393  27.7979389  30.0208700  43.0201893  35.1044492
  29.8753281  43.3342196  35.9968773  29.5433904  43.6386793  34.5515390
  31.8805083  40.0104441  35.1525381  31.8666652  39.1145534  34.8157679
  32.5977511  40.0175105  35.7863667  33.7331214  40.4441781  37.1978509
  33.4748991  41.3658852  37.1962839  33.2016254  40.0472216  37.8878973
  38.6777402  53.5492568  29.9768594  38.8514280  52.9838991  29.2242446
  39.1706294  54.3493463  29.7948084  24.4954362  45.5607238  38.0432153
  23.9507830  46.3367045  38.1752427  25.3733712  45.9078042  37.8851274
  31.2841979  38.8918821  30.4212951  31.4057890  37.9635468  30.6203839
  30.9944021  38.9057507  29.5091267  34.1533169  36.5773732  33.5579671
  34.1754866  36.6413065  32.6031651  34.5701228  35.7378240  33.7520177
  44.5316794  46.3128991  31.5958894  44.9747940  45.5636317  31.1978017
  43.6543304  46.3039128  31.2132626  39.6652575  52.8659333  27.0765492
  40.3603480  53.4866026  27.2952807  40.0075725  52.0154684  27.3517870
  25.2820384  44.6877134  40.9362310  24.5402120  44.8359769  41.5226940
  24.9613128  44.9485399  40.0729059  41.5643998  50.3159038  28.6052823
  42.0895322  50.6546311  27.8802143  41.4766351  49.3806054  28.4215958
  33.2264047  54.2293112  40.7342700  33.5351173  53.9842259  41.6065399
  34.0239529  54.4339750  40.2461570  33.2484659  56.3831022  32.9648076
  32.8089649  55.8907400  33.6580933  33.9992776  55.8403989  32.7240151
  25.7276998  52.5742563  32.9672704  26.5535018  52.2746334  32.5871348
  25.3771050  51.8050185  33.4162493  30.6958531  51.9269031  35.0370378
  30.0738540  51.2639736  34.7372606  31.3663398  51.9530163  34.3544026
  23.9285603  50.4928889  33.9261638  23.0917511  50.0651063  33.7445639
  23.9009248  50.6861332  34.8632429  30.7683058  40.4050819  44.6302884
  30.8171214  41.2812942  44.2480653  31.3105573  39.8628212  44.0574527
  41.3735779  47.7984408  41.2236749  41.4233784  47.6334416  42.1652272
  41.2649702  46.9311667  40.8334630  30.2572038  50.4772954  28.5128838
  30.4060158  51.1608418  27.8595511  31.0638481  50.4578044  29.0278294
  38.6639542  43.7815336  42.5396056  39.5649404  43.6421801  42.2480054
  38.7387516  43.9469791  43.4794234  32.9982347  41.1582191  41.3849242
  32.1285656  41.4515757  41.1131831  33.2341827  41.7422636  42.1056506
  42.8753976  50.2181350  41.4678771  42.5838784  50.5811330  42.3042232
  42.2626107  49.5048358  41.2892103  44.0749658  47.7834230  33.9881341
  44.9096550  48.2224034  34.1518902  44.2108787  47.3072883  33.1689587
  41.1241164  45.3413965  39.9358829  41.5995286  45.5341611  39.1277680
  40.2006730  45.3973150  39.6902213  28.0124671  46.5038132  29.5189907
  27.7670713  45.6000462  29.7170117  28.1820585  46.5055282  28.5769385
  35.7021381  37.3761808  38.9014663  36.2203325  38.1122835  38.5761151
  35.3476513  37.6825801  39.7361422  27.2820318  42.2366489  27.0176069
  26.5889563  42.3110844  26.3616105  27.0372070  41.4726833  27.5397586
  35.9533975  33.7962091  34.4215559  36.2335729  33.1285280  35.0475986
  36.7384582  33.9891186  33.9090223  33.7567443  52.9721085  25.9840586
  33.1841410  53.5911272  25.5311058  34.3300237  53.5220446  26.5180508
  39.8242833  42.2179725  38.1687135  40.7760256  42.3177822  38.1899359
  39.6546284  41.4257993  38.6785219  37.8457213  39.3035308  38.3546536
  37.2507145  39.5840321  37.6593024  37.5606909  39.7929209  39.1263277
  36.9764703  53.2558235  27.1149168  37.9095376  53.1903796  27.3182044
  36.8887916  54.0914502  26.6563701  39.6052720  52.5724105  24.0753116
  39.5266351  52.2383969  24.9688874  40.4262387  53.0645873  24.0744588
  42.3030911  45.4385844  37.2829434  42.2707231  44.5001845  37.4689118
  42.9131535  45.5169881  36.5495259  34.1414242  44.3081897  23.3256638
  35.0873347  44.1788105  23.3945056  33.7628487  43.5696559  23.8026066
  42.4525399  42.2296888  37.3287717  41.9364448  41.4455344  37.1417646
  43.3365348  41.9015604  37.4934237  40.1136126  35.9737903  33.2883530
  39.9160948  35.6652991  34.1726862  40.7235832  36.6999542  33.4181460
  48.1207461  46.5001851  36.4235471  48.8510849  46.2387139  36.9843174
  47.5114406  45.7630573  36.4637539  46.2022758  44.6409714  37.0209922
  45.4755922  44.5065679  36.4126414  45.7870045  44.9486542  37.8266640
  34.0252934  48.3599643  44.7857295  34.9455944  48.5378242  44.9797342
  33.9902517  47.4155689  44.6336995  32.3257159  42.2331874  23.2611524
  31.4188614  41.9364986  23.3374237  32.6033140  41.9361692  22.3945810
  23.2435099  43.5538237  33.7110570  22.9237884  42.7003545  33.4184944
  22.6968528  43.7686815  34.4668537  27.0215007  46.2700678  37.4280076
  27.2401017  47.2017786  37.4468110  27.4340781  45.9108652  38.2134880
  33.9419225  36.7768763  29.4155765  33.1319953  36.4315848  29.7911011
  34.6303642  36.4676307  30.0043376  35.8709773  35.8546810  31.0380061
  36.4240812  36.2742264  31.6970085  36.1079859  34.9282558  31.0803017
  31.8942872  41.8433884  46.8182825  31.7939599  42.7928241  46.7494916
  31.6764414  41.5152123  45.9458895  31.0955944  39.0918809  23.4023503
  31.9575108  39.4173707  23.6619320  31.2806288  38.3050305  22.8896569
  23.1123359  47.1741149  35.6803691  22.4186831  46.7595101  35.1673646
  23.8596350  47.2161685  35.0837110  39.2488580  37.9647335  30.5458726
  38.6687249  38.6232139  30.1636778  38.9824513  37.1424680  30.1346143
  37.6992146  37.3652393  32.7480046  38.1991925  37.4768928  31.9394365
  38.3427754  37.0613446  33.3880854  31.7574142  45.2731023  45.6347887
  31.2741224  46.0731383  45.8411776  31.8435081  45.2838968  44.6815331
  25.0260102  47.1059402  33.5569706  25.0030790  47.2047090  32.6051589
  25.3360738  47.9524553  33.8786873  27.6847480  49.1635557  37.6716321
  28.6390733  49.1319500  37.6046252  27.4860003  48.7026181  38.4866547
  28.2746862  47.7336673  40.2387118  29.0939751  48.2280752  40.2621956
  28.5483670  46.8168642  40.2104686  38.0313458  40.1247426  29.6015074
  37.1439313  40.4097076  29.3835269  38.4467447  39.9641189  28.7542351
  41.3827994  40.1493947  33.3169413  42.1588384  40.6390399  33.5894030
  40.6576128  40.5752001  33.7741283  43.8200553  40.8621566  34.3743354
  44.4145044  40.6217302  33.6636662  43.8927137  40.1428697  35.0016890
  26.0397709  54.7055177  34.6886519  25.9052176  53.9455578  34.1224517
  25.6229771  55.4296077  34.2215308  37.1756672  49.8892100  23.6963094
  37.8792522  50.0942103  24.3120750  36.4519320  50.4568862  23.9612177
  38.0054482  45.6401962  29.8165364  37.9489683  46.0970513  28.9772997
  38.5582824  44.8792646  29.6388207  41.8159288  41.4291694  30.6415484
  41.5596222  41.0288329  31.4723691  41.1912156  42.1435487  30.5165623
  46.1271626  44.1687767  33.1486775  45.5671184  44.2380956  33.9218337
  45.5215129  43.9928751  32.4286271  29.1966834  55.6024494  34.9004961
  29.0799219  56.5469926  34.7983652  28.3759281  55.2998055  35.2890761
  39.0843369  50.3274630  25.7461554  39.9188973  49.8955828  25.5639029
  38.9227712  50.1556643  26.6738448  38.7389261  46.8306743  27.1117893
  38.6838065  46.6651014  26.1706337  38.1135316  47.5382776  27.2680083
  23.5281776  42.0674807  40.9379316  24.1740640  41.5573761  41.4266541
  23.3198927  42.8043489  41.5122741  36.0535168  49.1355655  46.4371456
  36.9226328  49.3096307  46.0758091  35.5741920  49.9550072  46.3147185
  32.0485387  36.3314852  26.6903212  32.0364056  37.2756692  26.8471483
  32.9408808  36.1484997  26.3962673  30.2221349  56.2552756  38.1160890
  31.1248595  56.2876366  38.4327385  29.9958719  55.3253207  38.1307226
  31.9774951  55.0083742  34.7770968  31.0270582  55.0085604  34.6635341
  32.2807437  54.2616477  34.2607003  35.8637506  32.9257629  30.9449149
  35.0969902  32.3716115  31.0905831  36.2748211  32.9979497  31.8063300
  27.8679267  39.2142424  45.0354330  28.7310729  38.8579229  45.2457654
  27.2944678  38.8756319  45.7229734  44.5217350  60.7971709  35.7778255
  44.1835862  60.6812774  34.8898790  45.3907119  60.3962874  35.7579262
  40.3804166  62.6507185  31.7675146  39.8169031  62.5597122  30.9991434
  40.2656561  61.8307090  32.2477639  37.9268598  64.1458377  34.6059367
  38.7189890  63.8049201  34.1905666  38.1665248  64.2553352  35.5261520
  45.9603725  66.3178153  27.0789611  45.3091705  66.9032233  26.6923625
  46.7548088  66.8484348  27.1384649  39.8859352  63.4067290  27.4776746
  40.6590228  62.8596277  27.3389621  40.2384751  64.2711539  27.6891207
  42.6500601  62.1120521  37.2745005  43.2464174  61.8876543  36.5601968
  42.7075573  61.3705266  37.8770452  42.2225630  59.5659956  25.1095196
  42.4751150  59.0441477  24.3478659  41.2850189  59.4026102  25.2121879
  47.2668913  58.5695735  32.9169939  48.0532002  58.1515158  32.5660356
  47.5307617  59.4741827  33.0851587  47.4378990  64.0068585  27.6158596
  46.8024823  64.0803211  28.3279500  47.1076396  64.5962184  26.9377675
  41.9421918  61.4688062  27.3119571  41.8258177  60.7932966  27.9800655
  42.0524178  60.9820436  26.4951724  44.2853459  60.9298209  31.0166260
  43.9211667  60.4028830  31.7279181  45.1420575  60.5396678  30.8432745
  50.1902760  52.2192542  38.2797526  49.8586085  53.0887953  38.0558741
  49.5948373  51.9028826  38.9591556  43.9258946  55.9588109  26.0127608
  44.0933349  56.8268345  26.3798079  43.7356115  56.1215391  25.0888898
  40.1346761  60.8718885  33.7130143  39.2097258  60.7395099  33.9207835
  40.3831174  61.6513104  34.2100085  43.9048167  58.4145766  26.9974275
  43.7847792  58.8602817  27.8359755  43.2100756  58.7631084  26.4387813
  37.4955572  60.5152158  34.5473932  37.6247953  60.7686637  35.4613344
  36.8153023  61.1079866  34.2278587  41.6655059  71.1849408  30.6464406
  41.5879089  72.1357233  30.7252887  41.0616703  70.8395281  31.3039333
  49.6033233  58.8867240  27.8254609  50.5151090  59.1194626  27.6502307
  49.0942880  59.4704284  27.2629688  44.2405071  58.2464474  38.8349459
  45.0866266  58.6703888  38.9784108  44.1803709  57.5898099  39.5288022
  46.9469208  55.0625276  36.0744470  46.0853687  55.3606529  36.3661208
  46.9731643  55.2795675  35.1425503  43.7630778  63.6067466  32.4818276
  44.2269123  63.8855169  31.6922898  43.4987576  62.7050911  32.2991366
  40.6554859  63.1538948  35.4198039  41.2256216  63.5826216  34.7815523
  41.2462971  62.8721532  36.1182225  42.6999664  59.7290619  29.2907841
  43.4023707  60.1811662  29.7581767  42.3680292  59.0874437  29.9187734
  36.4424998  57.9874171  34.5924974  35.6524052  58.2431700  34.1165085
  36.9336245  58.8022509  34.6977015  38.3939743  58.3518750  31.5508451
  37.5970906  58.4637445  32.0691947  38.1665335  58.6905403  30.6849342
  44.2245411  64.8763454  39.4990966  44.2889843  65.3383861  40.3349138
  43.5156334  64.2460819  39.6273276  34.7262701  58.2404662  37.0239965
  34.9770739  59.1251672  37.2897541  35.2622249  58.0609263  36.2515057
  43.9393428  66.5431561  29.3669946  43.8039103  67.3883097  29.7954794
  44.4803241  66.7450839  28.6035880  37.3922826  64.0606999  29.9397871
  37.9047346  64.8550249  30.0903436  38.0445538  63.3633290  29.8731473
  39.2017710  67.1772755  32.0220624  39.3784339  68.0990720  31.8341608
  39.9974544  66.8631175  32.4515004  40.3249026  68.6950929  38.0230967
  40.8756451  68.5667993  37.2507961  39.4860502  68.9945818  37.6725859
  47.6643143  67.4457928  41.5251689  47.6461618  68.2666809  41.0331959
  48.5863063  67.3212003  41.7501831  47.2885892  50.0662123  37.8968840
  46.9450161  50.9563765  37.8207950  47.6564854  49.8763781  37.0338425
  35.3571742  62.3895654  30.7157442  36.1946964  62.7992662  30.4991149
  35.5350010  61.4495096  30.6857636  47.2536175  60.0570734  26.4041275
  46.7382798  60.8275339  26.6429662  46.9813483  59.3835870  27.0274336
  44.8383286  54.9020435  31.4626513  43.9824882  54.5127285  31.2832152
  45.2510237  54.9812396  30.6026299  46.3682432  52.4366778  35.8618073
  45.8647228  52.3996913  35.0485878  46.6613039  53.3459521  35.9214729
  42.6125318  52.5205508  34.8684255  43.4778315  52.3248317  34.5090144
  42.6802827  52.2915860  35.7953611  47.0422478  57.9297826  28.2301056
  46.7372613  58.2443975  29.0811199  47.9952920  58.0079246  28.2728389
  45.4868910  64.0888050  29.8794010  44.9590271  63.3540809  29.5667247
  44.9856412  64.8662726  29.6333978  40.2187637  54.7507716  32.2400621
  40.7931389  54.5282897  31.5073814  40.8058620  54.8196410  32.9929223
  40.5457224  56.7812177  26.2596507  39.7094537  57.1186863  26.5805781
  40.4061994  56.6461157  25.3223644  42.5210305  51.6248965  30.9675691
  41.8674717  51.3097982  30.3432306  42.4790779  51.0024705  31.6935514
  43.6321510  61.9068260  22.8828983  42.7248572  61.6757513  23.0820132
  44.1292542  61.1105879  23.0702964  46.5389589  70.6165767  25.8025669
  45.8651287  70.9197464  26.4110627  46.9255411  71.4194847  25.4531126
  45.7548045  58.1130898  35.2923338  44.8370607  58.3345845  35.1345026
  46.1708189  58.1877209  34.4335046  46.5383093  59.5122314  30.4226019
  47.2854912  60.0243711  30.1133141  46.8074683  59.1906367  31.2830412
  44.8109743  62.0080855  27.4052973  43.9020962  61.7239888  27.5025443
  44.8404827  62.4279933  26.5456280  48.4861950  67.4563941  32.1093959
  48.7784924  68.0168998  31.3906324  48.9960570  67.7492502  32.8647118
  49.0873557  49.3255682  32.9986577  49.3932434  48.4653046  32.7112492
  49.8126162  49.9173302  32.7985571  35.3797914  59.7286369  31.3868175
  35.1822313  59.1355730  30.6619242  34.8244578  59.4238579  32.1044114
  43.3594637  59.6209475  33.5062768  43.4143247  58.6683312  33.4305245
  42.5485839  59.7768914  33.9904067  44.5085831  63.5489598  24.7441052
  44.0705261  62.8325457  24.2846689  45.2496272  63.7765713  24.1826143
  41.2986997  58.2386535  31.2653147  40.4854863  58.5380706  31.6718339
  41.7945991  57.8442224  31.9827629  43.4495575  68.2344292  33.1987412
  43.4071754  68.4605138  32.2695944  44.3658274  68.0007667  33.3473213
  40.7901072  55.8104891  36.8814382  41.4300451  55.6693650  36.1837345
  39.9578602  55.5239404  36.5052984  41.5661376  65.1107321  32.9949375
  42.3601974  64.6157641  32.7931950  40.8553068  64.5825184  32.6317080
  46.3856220  67.4925417  37.3461742  46.4393243  68.0616353  38.1139458
  45.5171002  67.6627302  36.9815779  37.8744139  59.2550403  29.0709127
  36.9441727  59.1934858  29.2879089  37.9701611  58.7326355  28.2745769
  37.7929688  55.7805216  31.6587369  38.0536506  56.6950549  31.5496529
  38.6146861  55.3129658  31.8083982  39.2654614  57.1942973  38.8286193
  39.9377667  56.9860335  38.1798842  38.4384400  56.9965059  38.3891426
  44.1432652  65.6836343  36.6747212  44.0043738  65.3155127  37.5473150
  43.3547248  66.1983982  36.5031169  44.7380804  70.7845439  28.0172748
  44.9132559  70.3133483  28.8318371  44.0513592  71.4111206  28.2454009
  45.6937867  65.0617946  34.0636049  45.3587700  65.0218716  34.9593699
  45.1941813  64.3962662  33.5906460  39.6682111  60.4685576  39.5888631
  39.5301909  59.7365815  40.1900170  40.5787034  60.3794476  39.3072818
  48.6297059  62.4073980  24.3373109  48.0126229  61.6820808  24.2406162
  48.1613547  63.1683340  23.9940183  42.2964412  60.1805535  39.0772310
  43.0064030  59.5398727  39.0358929  42.2533720  60.4318430  39.9998491
  50.2851190  67.1172888  41.9978889  50.2263736  66.4332109  41.3309472
  50.6870709  67.8591878  41.5459515  39.3041889  73.9334802  34.7912608
  39.5438487  74.5653326  35.4691627  38.4611086  73.5822842  35.0777968
  40.4195605  56.6259404  23.4594413  39.5425071  56.5048205  23.0956660
  40.8953358  55.8345483  23.2073302  31.9397745  61.4136564  33.5535921
  32.6268785  61.0998294  32.9656936  31.7845873  62.3177929  33.2803172
  36.7432467  56.3026761  37.9820944  36.6590656  55.6952430  37.2471354
  35.9215173  56.7935779  37.9830441  43.8169751  69.7413925  37.1954112
  43.7439922  70.5468896  37.7073417  43.3747144  69.9405890  36.3702134
  43.6059531  68.9785695  30.7056934  42.8227052  69.5207375  30.7995158
  44.3052276  69.4959674  31.1051175  46.9156181  54.7880324  33.3491139
  47.4124880  54.0350286  33.0292210  46.1443162  54.8244641  32.7834349
  46.2768434  69.6400759  39.3512271  46.9896407  70.2748224  39.2788172
  45.7858463  69.7364625  38.5352273  43.4991149  56.9297707  33.0762824
  43.1288937  56.3768748  33.7643729  43.9950242  56.3255841  32.5237824
  41.3280348  67.3895202  40.1717842  42.0289807  68.0231685  40.3247236
  40.8575463  67.7309934  39.4113481  49.4534744  65.7313152  28.4565749
  49.7294588  65.6169747  29.3659623  48.5839243  65.3330637  28.4177922
  49.3575175  51.7549918  35.4970498  48.4438255  51.9854144  35.6652705
  49.7868277  51.8388362  36.3484531  46.0888808  69.9799503  32.0998562
  46.2711202  69.1621159  32.5626315  46.9121794  70.1967195  31.6623452
  46.4230973  68.9067688  29.3613611  46.9518740  68.3960142  28.7483773
  46.6859193  68.5910218  30.2259144  36.9248066  66.9231557  37.1048944
  37.5101503  66.1775245  37.2376849  36.7272905  67.2335514  37.9885608
  39.7786721  69.9582805  32.1211387  39.1097097  70.4428932  31.6375427
  39.6399591  70.2052025  33.0354765  31.5165721  59.4937157  35.8253388
  31.5549820  58.9600748  36.6190506  31.0106014  58.9672363  35.2064365
  43.9191990  71.9926548  38.7194045  44.4710298  72.1558170  39.4843130
  44.2598183  72.5830986  38.0474070  38.8956483  54.3401698  39.3215930
  38.9597810  55.2016529  38.9093328  38.8323603  53.7275700  38.5888288
  48.7702864  66.8187806  44.5742700  49.3142768  67.4317764  44.0797654
  48.1889709  67.3767384  45.0909713  35.1474298  58.2201260  28.9007319
  35.4427739  57.3111938  28.8474373  34.2462334  58.1988999  28.5788321
  47.0560377  69.9408524  35.7057727  46.9311517  69.1398263  35.1968673
  47.7139468  70.4354717  35.2171697  38.6768545  56.2957256  34.8834868
  37.9555131  56.9093224  34.7442341  39.4661801  56.8315021  34.8051514
  41.4794859  53.6311683  41.1575519  42.0029261  53.8773979  41.9201829
  41.2607192  54.4631717  40.7378657  36.8762140  55.9015357  29.0246644
  36.5474846  55.0212736  28.8421750  37.2301511  55.8463026  29.9123033
  46.1241719  67.5370260  33.5341630  45.9766681  66.6086967  33.7149200
  46.9495212  67.5590351  33.0498705  39.9903963  56.1888327  29.3922122
  40.3300036  56.7174248  28.6700730  40.4376084  56.5268733  30.1680688
  49.7275841  68.3598819  34.6206502  50.6522388  68.1541680  34.4830954
  49.5591144  68.1115220  35.5295844  42.6847404  54.5725378  38.8425190
  42.3444224  53.7733191  39.2445870  41.9786410  54.8727089  38.2702023
  43.3363876  51.6574690  37.2952513  44.1589945  51.1835168  37.1731403
  43.5801939  52.4365174  37.7951199  41.9772110  54.6862949  27.5915415
  42.6980473  55.0644201  27.0879131  41.3537414  55.4051825  27.6950393
  46.1203233  55.3908098  28.5273747  46.3366848  56.2732735  28.2262575
  45.6397300  54.9994311  27.7979389  40.8602455  58.3493811  35.1044492
  40.7147035  58.6634114  35.9968773  40.3827658  58.9678711  34.5515390
  42.7198837  55.3396359  35.1525381  42.7060406  54.4437452  34.8157679
  43.4371266  55.3467023  35.7863667  44.5724968  55.7733699  37.1978509
  44.3142746  56.6950770  37.1962839  44.0410008  55.3764134  37.8878973
  49.5171157  68.8784486  29.9768594  49.6908034  68.3130909  29.2242446
  50.0100048  69.6785381  29.7948084  35.3348117  60.8899155  38.0432153
  34.7901585  61.6658963  38.1752427  36.2127467  61.2369960  37.8851274
  42.1235733  54.2210739  30.4212951  42.2451645  53.2927385  30.6203839
  41.8337776  54.2349425  29.5091267  44.9926924  51.9065650  33.5579671
  45.0148621  51.9704983  32.6031651  45.4094983  51.0670158  33.7520177
  50.5046329  68.1951251  27.0765492  51.1997234  68.8157943  27.2952807
  50.8469480  67.3446602  27.3517870  36.1214139  60.0169051  40.9362310
  35.3795875  60.1651687  41.5226940  35.8006883  60.2777317  40.0729059
  52.4037752  65.6450956  28.6052823  52.9289077  65.9838229  27.8802143
  52.3160105  64.7097971  28.4215958  44.0657801  69.5585030  40.7342700
  44.3744928  69.3134176  41.6065399  44.8633283  69.7631668  40.2461570
  44.0878413  71.7122939  32.9648076  43.6483404  71.2199318  33.6580933
  44.8386530  71.1695907  32.7240151  36.5670752  67.9034480  32.9672704
  37.3928772  67.6038252  32.5871348  36.2164804  67.1342103  33.4162493
  41.5352285  67.2560948  35.0370378  40.9132295  66.5931653  34.7372606
  42.2057152  67.2822080  34.3544026  34.7679357  65.8220807  33.9261638
  33.9311266  65.3942981  33.7445639  34.7403003  66.0153250  34.8632429
  52.0931659  66.2783860  43.9104021  51.3027202  66.2607999  43.3708520
  51.8565013  66.8172153  44.6653058  41.0965792  65.8064872  28.5128838
  41.2453913  66.4900336  27.8595511  41.9032236  65.7869962  29.0278294
  38.8518425  61.8330049  29.5189907  38.6064467  60.9292379  29.7170117
  39.0214340  61.8347200  28.5769385  46.5415135  52.7053726  38.9014663
  47.0597079  53.4414753  38.5761151  46.1870268  53.0117719  39.7361422
  38.1214073  57.5658407  27.0176069  37.4283318  57.6402762  26.3616105
  37.8765825  56.8018751  27.5397586  46.7927729  49.1254008  34.4215559
  47.0729483  48.4577197  35.0475986  47.5778336  49.3183104  33.9090223
  44.5961198  68.3013002  25.9840586  44.0235165  68.9203189  25.5311058
  45.1693991  68.8512364  26.5180508  48.6850967  54.6327226  38.3546536
  48.0900899  54.9132238  37.6593024  48.4000664  55.1221126  39.1263277
  47.8158458  68.5850152  27.1149168  48.7489131  68.5195714  27.3182044
  47.7281670  69.4206419  26.6563701  50.4446474  67.9016023  24.0753116
  50.3660106  67.5675886  24.9688874  51.2656141  68.3937791  24.0744588
  44.9807996  59.6373815  23.3256638  45.9267101  59.5080023  23.3945056
  44.6022241  58.8988477  23.8026066  50.9529881  51.3029821  33.2883530
  50.7554702  50.9944909  34.1726862  51.5629586  52.0291460  33.4181460
  43.1650913  57.5623791  23.2611524  42.2582369  57.2656904  23.3374237
  43.4426894  57.2653609  22.3945810  34.0828854  58.8830155  33.7110570
  33.7631638  58.0295463  33.4184944  33.5362282  59.0978733  34.4668537
  37.8608761  61.5992596  37.4280076  38.0794771  62.5309704  37.4468110
  38.2734535  61.2400570  38.2134880  44.7812979  52.1060681  29.4155765
  43.9713708  51.7607766  29.7911011  45.4697396  51.7968225  30.0043376
  46.7103527  51.1838728  31.0380061  47.2634566  51.6034181  31.6970085
  46.9473614  50.2574476  31.0803017  41.9349698  54.4210727  23.4023503
  42.7968862  54.7465625  23.6619320  42.1200042  53.6342222  22.8896569
  33.9517114  62.5033066  35.6803691  33.2580585  62.0887019  35.1673646
  34.6990105  62.5453603  35.0837110  50.0882335  53.2939253  30.5458726
  49.5081004  53.9524057  30.1636778  49.8218267  52.4716598  30.1346143
  48.5385901  52.6944311  32.7480046  49.0385679  52.8060845  31.9394365
  49.1821509  52.3905364  33.3880854  35.8653856  62.4351320  33.5569706
  35.8424544  62.5339007  32.6051589  36.1754493  63.2816471  33.8786873
  38.5241234  64.4927475  37.6716321  39.4784488  64.4611417  37.6046252
  38.3253758  64.0318099  38.4866547  39.1140616  63.0628591  40.2387118
  39.9333505  63.5572670  40.2621956  39.3877424  62.1460559  40.2104686
  48.8707213  55.4539343  29.6015074  47.9833068  55.7388994  29.3835269
  49.2861202  55.2933107  28.7542351  52.2221749  55.4785864  33.3169413
  52.9982139  55.9682317  33.5894030  51.4969883  55.9043919  33.7741283
  36.8791463  70.0347095  34.6886519  36.7445931  69.2747495  34.1224517
  36.4623525  70.7587994  34.2215308  48.0150426  65.2184018  23.6963094
  48.7186276  65.4234021  24.3120750  47.2913075  65.7860780  23.9612177
  40.0360589  70.9316412  34.9004961  39.9192973  71.8761844  34.7983652
  39.2153035  70.6289973  35.2890761  49.9237123  65.6566547  25.7461554
  50.7582727  65.2247746  25.5639029  49.7621466  65.4848561  26.6738448
  49.5783016  62.1598661  27.1117893  49.5231819  61.9942932  26.1706337
  48.9529071  62.8674693  27.2680083  34.3675531  57.3966725  40.9379316
  35.0134394  56.8865679  41.4266541  34.1592682  58.1335407  41.5122741
  42.8879141  51.6606770  26.6903212  42.8757811  52.6048610  26.8471483
  43.7802563  51.4776915  26.3962673  41.0615103  71.5844673  38.1160890
  41.9642350  71.6168284  38.4327385  40.8352473  70.6545124  38.1307226
  42.8168705  70.3375660  34.7770968  41.8664336  70.3377522  34.6635341
  43.1201191  69.5908395  34.2607003  46.7031261  48.2549546  30.9449149
  45.9363656  47.7008033  31.0905831  47.1141966  48.3271415  31.8063300
  58.5521399  76.1736198  35.8416731  59.1899809  76.0542946  35.1380071
  58.4342241  77.1217042  35.9004683  55.3611105  76.1263627  35.7778255
  55.0229616  76.0104691  34.8898790  56.2300873  75.7254792  35.7579262
  51.2197921  77.9799103  31.7675146  50.6562786  77.8889040  30.9991434
  51.1050316  77.1599007  32.2477639  55.8430888  77.2798478  41.7364461
  55.8319529  76.8851276  40.8644965  56.0051527  76.5464551  42.3298232
  48.7662352  79.4750295  34.6059367  49.5583644  79.1341119  34.1905666
  49.0059003  79.5845270  35.5261520  56.7997479  81.6470071  27.0789611
  56.1485459  82.2324151  26.6923625  57.5941842  82.1776266  27.1384649
  50.7253106  78.7359208  27.4776746  51.4983982  78.1888195  27.3389621
  51.0778505  79.6003457  27.6891207  52.5638149  80.0635590  40.6843645
  52.2728015  80.9681221  40.5690311  53.1995133  80.1052118  41.3987715
  53.4894356  77.4412439  37.2745005  54.0857928  77.2168461  36.5601968
  53.5469327  76.6997184  37.8770452  53.0619384  74.8951874  25.1095196
  53.3144905  74.3733395  24.3478659  52.1243943  74.7318019  25.2121879
  58.1062667  73.8987652  32.9169939  58.8925756  73.4807075  32.5660356
  58.3701371  74.8033744  33.0851587  58.2772744  79.3360503  27.6158596
  57.6418577  79.4095129  28.3279500  57.9470151  79.9254101  26.9377675
  52.7815673  76.7979980  27.3119571  52.6651931  76.1224883  27.9800655
  52.8917933  76.3112354  26.4951724  55.1247214  76.2590127  31.0166260
  54.7605421  75.7320748  31.7279181  55.9814330  75.8688596  30.8432745
  54.7652701  71.2880027  26.0127608  54.9327103  72.1560263  26.3798079
  54.5749870  71.4507308  25.0888898  57.5228034  79.7497006  37.6793439
  57.2228757  80.6522044  37.5709246  57.1779094  79.4829189  38.5314592
  50.9740516  76.2010802  33.7130143  50.0491012  76.0687016  33.9207835
  51.2224929  76.9805022  34.2100085  54.7441922  73.7437684  26.9974275
  54.6241547  74.1894735  27.8359755  54.0494510  74.0923002  26.4387813
  48.3349327  75.8444076  34.5473932  48.4641708  76.0978555  35.4613344
  47.6546778  76.4371784  34.2278587  52.5048814  86.5141326  30.6464406
  52.4272844  87.4649151  30.7252887  51.9010457  86.1687198  31.3039333
  54.9966044  73.6869191  43.3025773  54.2199378  74.2463111  43.2928638
  55.6356607  74.1725974  43.8240643  60.4426988  74.2159157  27.8254609
  61.3544844  74.4486544  27.6502307  59.9336635  74.7996202  27.2629688
  53.2512416  76.4954645  42.8643740  53.9927100  77.0339689  42.5878564
  52.5449401  77.1220933  43.0215292  58.7267756  78.6383785  41.4615902
  59.1351112  78.1966196  40.7170534  58.0045017  78.0636413  41.7150095
  55.0798826  73.5756392  38.8349459  55.9260021  73.9995805  38.9784108
  55.0197463  72.9190016  39.5288022  59.0496570  79.1984976  35.2168191
  58.4205433  79.3630690  34.5144258  58.6622232  79.6126585  35.9879155
  62.9285802  80.1339414  32.5712554  62.2436840  80.5138315  32.0209588
  63.0129651  80.7434740  33.3044502  58.2298271  71.2360760  40.4930632
  57.9859203  71.9902821  39.9564908  58.5058201  71.6146108  41.3277879
  60.1836734  77.7799373  39.1707898  60.3953629  78.4231133  38.4942279
  60.1366482  76.9461689  38.7029828  57.7862963  70.3917193  36.0744470
  56.9247442  70.6898447  36.3661208  57.8125397  70.6087592  35.1425503
  54.6024532  78.9359384  32.4818276  55.0662878  79.2147087  31.6922898
  54.3381330  78.0342828  32.2991366  51.4948613  78.4830865  35.4198039
  52.0649970  78.9118134  34.7815523  52.0856725  78.2013450  36.1182225
  53.5393418  75.0582536  29.2907841  54.2417461  75.5103580  29.7581767
  53.2074047  74.4166355  29.9187734  51.9873780  73.6494293  43.6659050
  51.3572440  74.3310574  43.8994447  51.8809868  73.5377374  42.7212188
  47.2818752  73.3166089  34.5924974  46.4917806  73.5723617  34.1165085
  47.7729999  74.1314427  34.6977015  61.2982562  80.6571328  37.3430255
  62.1200005  80.2551515  37.0612937  61.2944965  80.5539562  38.2946371
  49.2333497  73.6810668  31.5508451  48.4364661  73.7929362  32.0691947
  49.0059090  74.0197320  30.6849342  55.0639165  80.2055371  39.4990966
  55.1283598  80.6675779  40.3349138  54.3550089  79.5752736  39.6273276
  45.5656455  73.5696579  37.0239965  45.8164494  74.4543589  37.2897541
  46.1016003  73.3901181  36.2515057  69.3888555  77.0010077  33.6915227
  68.6352263  76.4317475  33.5359231  69.5236096  76.9672741  34.6385861
  54.7787183  81.8723479  29.3669946  54.6432858  82.7175015  29.7954794
  55.3196995  82.0742756  28.6035880  51.2654522  67.9515059  46.0284301
  50.8721468  67.3981257  46.7031946  52.0820663  68.2625637  46.4190819
  48.2316580  79.3898917  29.9397871  48.7441101  80.1842167  30.0903436
  48.8839293  78.6925207  29.8731473  50.0411465  82.5064673  32.0220624
  50.2178093  83.4282638  31.8341608  50.8368298  82.1923092  32.4515004
  54.1822483  69.3672938  43.6204558  54.9232197  69.9680091  43.5409020
  54.4140406  68.6250576  43.0622600  49.3263821  74.5529305  41.8982788
  49.2117337  73.6514562  42.1989886  48.4708339  74.7993002  41.5467604
  56.4055659  82.4947045  43.4970288  55.9619513  81.7083424  43.1791193
  57.0672873  82.6826196  42.8314179  51.1642780  84.0242847  38.0230967
  51.7150205  83.8959910  37.2507961  50.3254256  84.3237736  37.6725859
  58.5036897  82.7749845  41.5251689  58.4855373  83.5958726  41.0331959
  59.4256817  82.6503921  41.7501831  54.9609951  80.2893975  42.3675198
  55.4938288  79.5282263  42.1374506  54.4324032  79.9967627  43.1099352
  46.1965497  77.7187571  30.7157442  47.0340719  78.1284580  30.4991149
  46.3743765  76.7787013  30.6857636  58.0929929  75.3862652  26.4041275
  57.5776552  76.1567256  26.6429662  57.8207237  74.7127788  27.0274336
  55.6777040  70.2312353  31.4626513  54.8218636  69.8419203  31.2832152
  56.0903992  70.3104313  30.6026299  57.2076187  67.7658696  35.8618073
  56.7040982  67.7288831  35.0485878  57.5006794  68.6751439  35.9214729
  53.4519073  67.8497426  34.8684255  54.3172069  67.6540234  34.5090144
  53.5196582  67.6207777  35.7953611  63.0664203  78.1395006  28.3394448
  62.2893646  77.8006166  27.8949610  63.7455684  78.1447630  27.6649413
  57.8816232  73.2589744  28.2301056  57.5766368  73.5735893  29.0811199
  58.8346674  73.3371164  28.2728389  56.3262664  79.4179967  29.8794010
  55.7984026  78.6832727  29.5667247  55.8250167  80.1954644  29.6333978
  61.3055510  77.6128988  34.9961056  60.6479185  78.3028249  35.0841185
  62.1095909  78.0025420  35.3395042  51.0581392  70.0799634  32.2400621
  51.6325144  69.8574815  31.5073814  51.6452374  70.1488328  32.9929223
  60.1160969  75.9673360  33.0464998  60.6292851  76.6003352  33.5486708
  60.7662193  75.3674556  32.6808358  51.3850979  72.1104095  26.2596507
  50.5488291  72.4478781  26.5805781  51.2455748  71.9753074  25.3223644
  53.3604059  66.9540882  30.9675691  52.7068472  66.6389900  30.3432306
  53.3184534  66.3316623  31.6935514  54.4715264  77.2360178  22.8828983
  53.5642326  77.0049431  23.0820132  54.9686296  76.4397797  23.0702964
  57.3783343  85.9457685  25.8025669  56.7045042  86.2489381  26.4110627
  57.7649165  86.7486765  25.4531126  56.5941800  73.4422816  35.2923338
  55.6764361  73.6637763  35.1345026  57.0101943  73.5169126  34.4335046
  57.3776848  74.8414232  30.4226019  58.1248666  75.3535629  30.1133141
  57.6468437  74.5198284  31.2830412  55.6503498  77.3372772  27.4052973
  54.7414717  77.0531805  27.5025443  55.6798581  77.7571851  26.5456280
  60.8822765  80.9479362  31.1744140  60.4285092  80.1070272  31.2309331
  60.2516732  81.5840760  31.5118921  59.3255704  82.7855859  32.1093959
  59.6178679  83.3460916  31.3906324  59.8354325  83.0784420  32.8647118
  46.2191668  75.0578287  31.3868175  46.0216068  74.4647647  30.6619242
  45.6638332  74.7530497  32.1044114  54.1988392  74.9501393  33.5062768
  54.2537002  73.9975229  33.4305245  53.3879594  75.1060832  33.9904067
  55.3479585  78.8781516  24.7441052  54.9099015  78.1617375  24.2846689
  56.0890026  79.1057631  24.1826143  52.1380752  73.5678453  31.2653147
  51.3248617  73.8672623  31.6718339  52.6339746  73.1734141  31.9827629
  54.2889330  83.5636210  33.1987412  54.2465508  83.7897056  32.2695944
  55.2052028  83.3299584  33.3473213  57.7354963  74.0320277  40.0968041
  58.0904351  74.2591750  40.9562507  58.3827095  74.3638654  39.4745296
  63.4652700  77.1538713  30.8017370  63.3270599  77.3440309  29.8738559
  63.1088919  77.9158096  31.2585421  51.6294826  71.1396808  36.8814382
  52.2694206  70.9985567  36.1837345  50.7972357  70.8531322  36.5052984
  63.4922080  79.2215240  35.8128642  63.9258587  79.1290529  36.6611696
  64.2053661  79.1972741  35.1748658  52.4055130  80.4399239  32.9949375
  53.1995729  79.9449559  32.7931950  51.6946823  79.9117102  32.6317080
  57.2249975  82.8217334  37.3461742  57.2786997  83.3908271  38.1139458
  56.3564756  82.9919219  36.9815779  48.7137894  74.5842320  29.0709127
  47.7835482  74.5226776  29.2879089  48.8095366  74.0618273  28.2745769
  48.6323443  71.1097133  31.6587369  48.8930260  72.0242466  31.5496529
  49.4540615  70.6421576  31.8083982  50.1048368  72.5234890  38.8286193
  50.7771422  72.3152253  38.1798842  49.2778155  72.3256976  38.3891426
  64.3537629  79.2638941  38.3461527  64.5473520  80.1684751  38.5920802
  64.2538248  78.8046360  39.1800112  56.0073940  69.1496831  40.8451854
  55.3601855  69.8486781  40.7516331  56.7774956  69.5832975  41.2128103
  59.4152738  79.4145683  43.9202408  59.2638245  79.1856235  43.0032491
  59.4057418  80.3716285  43.9333753  56.1838075  76.9877596  38.9048674
  57.1130135  77.1388756  38.7317641  55.7629105  77.0761617  38.0497321
  54.9826406  81.0128261  36.6747212  54.8437492  80.6447045  37.5473150
  54.1941003  81.5275900  36.5031169  55.5774558  86.1137357  28.0172748
  55.7526314  85.6425400  28.8318371  54.8907346  86.7403123  28.2454009
  56.5331621  80.3909863  34.0636049  56.1981454  80.3510633  34.9593699
  56.0335567  79.7254579  33.5906460  50.5075865  75.7977493  39.5888631
  50.3695663  75.0657732  40.1900170  51.4180789  75.7086393  39.3072818
  59.4690813  77.7365898  24.3373109  58.8519984  77.0112726  24.2406162
  59.0007302  78.4975258  23.9940183  53.1358166  75.5097453  39.0772310
  53.8457785  74.8690645  39.0358929  53.0927474  75.7610348  39.9998491
  61.1244945  82.4464806  41.9978889  61.0657491  81.7624026  41.3309472
  61.5264463  83.1883796  41.5459515  51.8487100  72.4962671  40.8967950
  51.3124457  72.0453409  41.5489546  51.2603809  72.6308579  40.1538414
  50.1435644  89.2626720  34.7912608  50.3832242  89.8945244  35.4691627
  49.3004840  88.9114760  35.0777968  51.2589359  71.9551322  23.4594413
  50.3818825  71.8340123  23.0956660  51.7347112  71.1637400  23.2073302
  61.1262352  80.4104390  40.2292869  60.2389131  80.0730312  40.3519268
  61.6960903  79.6787421  40.4661635  42.7791499  76.7428482  33.5535921
  43.4662539  76.4290212  32.9656936  42.6239628  77.6469846  33.2803172
  47.5826221  71.6318678  37.9820944  47.4984410  71.0244348  37.2471354
  46.7608928  72.1227697  37.9830441  54.6563505  85.0705842  37.1954112
  54.5833677  85.8760814  37.7073417  54.2140899  85.2697808  36.3702134
  54.4453285  84.3077612  30.7056934  53.6620807  84.8499293  30.7995158
  55.1446030  84.8251592  31.1051175  65.6079693  75.8212607  34.9909431
  65.5969569  76.7037323  34.6203364  64.7397072  75.4684158  34.7963968
  57.1162189  84.9692676  39.3512271  57.8290161  85.6040141  39.2788172
  56.6252218  85.0656542  38.5352273  58.8379716  78.8743929  30.9229563
  57.9035995  78.9945392  30.7534267  59.0156384  77.9716396  30.6589573
  54.3384904  72.2589625  33.0762824  53.9682691  71.7060665  33.7643729
  54.8343996  71.6547758  32.5237824  62.2252267  74.7161248  31.4579597
  62.6912719  75.5489240  31.3839899  62.6759768  74.2506230  32.1624855
  52.1674102  82.7187120  40.1717842  52.8683562  83.3523603  40.3247236
  51.6969217  83.0601851  39.4113481  60.2928498  81.0605070  28.4565749
  60.5688342  80.9461664  29.3659623  59.4232997  80.6622554  28.4177922
  59.9675388  75.2731727  37.9970392  59.3146839  75.5207635  37.3422845
  60.3455768  74.4595865  37.6632869  56.9282562  85.3091420  32.0998562
  57.1104957  84.4913076  32.5626315  57.7515548  85.5259113  31.6623452
  57.2624728  84.2359606  29.3613611  57.7912494  83.7252060  28.7483773
  57.5252947  83.9202136  30.2259144  56.0162961  76.0151538  44.4836429
  55.3403598  75.9145668  45.1538804  56.8390595  75.8590752  44.9472426
  47.7641821  82.2523475  37.1048944  48.3495257  81.5067163  37.2376849
  47.5666659  82.5627432  37.9885608  50.6180476  85.2874722  32.1211387
  49.9490851  85.7720850  31.6375427  50.4793345  85.5343943  33.0354765
  42.3559475  74.8229075  35.8253388  42.3943575  74.2892666  36.6190506
  41.8499768  74.2964281  35.2064365  54.7585744  87.3218466  38.7194045
  55.3104052  87.4850087  39.4843130  55.0991938  87.9122904  38.0474070
  49.7350238  69.6693616  39.3215930  49.7991564  70.5308446  38.9093328
  49.6717358  69.0567617  38.5888288  49.2102510  71.7416748  42.9688964
  49.8374549  71.3593825  43.5826489  48.3530429  71.5230950  43.3344657
  59.6096619  82.1479723  44.5742700  60.1536523  82.7609682  44.0797654
  59.0283464  82.7059302  45.0909713  45.9868053  73.5493177  28.9007319
  46.2821494  72.6403856  28.8474373  45.0856089  73.5280917  28.5788321
  57.8954132  85.2700441  35.7057727  57.7705271  84.4690181  35.1968673
  58.5533223  85.7646635  35.2171697  49.5162300  71.6249174  34.8834868
  48.7948886  72.2385142  34.7442341  50.3055556  72.1606939  34.8051514
  59.9589040  83.0709461  37.3337277  59.0119376  82.9514813  37.2615604
  60.3071813  82.1831959  37.4163539  52.3188613  68.9603600  41.1575519
  52.8423015  69.2065897  41.9201829  52.1000947  69.7923635  40.7378657
  47.7155894  71.2307275  29.0246644  47.3868601  70.3504654  28.8421750
  48.0695265  71.1754944  29.9123033  56.9635473  82.8662178  33.5341630
  56.8160436  81.9378885  33.7149200  57.7888967  82.8882268  33.0498705
  50.8297718  71.5180245  29.3922122  51.1693790  72.0466166  28.6700730
  51.2769838  71.8560651  30.1680688  60.5669595  83.6890736  34.6206502
  61.4916143  83.4833598  34.4830954  60.3984899  83.4407138  35.5295844
  53.5241158  69.9017295  38.8425190  53.1837979  69.1025108  39.2445870
  52.8180165  70.2019006  38.2702023  54.1757630  66.9866608  37.2952513
  54.9983700  66.5127086  37.1731403  54.4195694  67.7657092  37.7951199
  52.8165865  70.0154866  27.5915415  53.5374227  70.3936119  27.0879131
  52.1931169  70.7343743  27.6950393  56.9596988  70.7200015  28.5273747
  57.1760602  71.6024653  28.2262575  56.4791055  70.3286229  27.7979389
  51.6996209  73.6785728  35.1044492  51.5540790  73.9926032  35.9968773
  51.2221413  74.2970629  34.5515390  53.5592592  70.6688276  35.1525381
  53.5454161  69.7729370  34.8157679  54.2765020  70.6758940  35.7863667
  55.4118723  71.1025617  37.1978509  55.1536500  72.0242687  37.1962839
  54.8803763  70.7056051  37.8878973  60.3564911  84.2076404  29.9768594
  60.5301789  83.6422826  29.2242446  60.8493803  85.0077299  29.7948084
  46.1741871  76.2191073  38.0432153  45.6295339  76.9950881  38.1752427
  47.0521221  76.5661877  37.8851274  52.9629488  69.5502657  30.4212951
  53.0845399  68.6219303  30.6203839  52.6731530  69.5641343  29.5091267
  55.8320678  67.2357567  33.5579671  55.8542375  67.2996900  32.6031651
  56.2488737  66.3962076  33.7520177  66.2104303  76.9712827  31.5958894
  66.6535449  76.2220152  31.1978017  65.3330813  76.9622963  31.2132626
  61.3440084  83.5243168  27.0765492  62.0390988  84.1449861  27.2952807
  61.6863234  82.6738519  27.3517870  46.9607893  75.3460969  40.9362310
  46.2189629  75.4943605  41.5226940  46.6400637  75.6069235  40.0729059
  63.2431507  80.9742874  28.6052823  63.7682831  81.3130146  27.8802143
  63.1553860  80.0389889  28.4215958  54.9051556  84.8876947  40.7342700
  55.2138682  84.6426094  41.6065399  55.7027038  85.0923586  40.2461570
  54.9272168  87.0414857  32.9648076  54.4877158  86.5491236  33.6580933
  55.6780285  86.4987825  32.7240151  47.4064507  83.2326398  32.9672704
  48.2322527  82.9330170  32.5871348  47.0558559  82.4634020  33.4162493
  52.3746040  82.5852866  35.0370378  51.7526049  81.9223571  34.7372606
  53.0450907  82.6113998  34.3544026  45.6073112  81.1512724  33.9261638
  44.7705020  80.7234899  33.7445639  45.5796757  81.3445168  34.8632429
  52.4470567  71.0634654  44.6302884  52.4958723  71.9396777  44.2480653
  52.9893082  70.5212047  44.0574527  62.9325413  81.6075777  43.9104021
  62.1420957  81.5899916  43.3708520  62.6958768  82.1464071  44.6653058
  63.0523288  78.4568244  41.2236749  63.1021293  78.2918251  42.1652272
  62.9437211  77.5895503  40.8334630  51.9359547  81.1356789  28.5128838
  52.0847667  81.8192254  27.8595511  52.7425990  81.1161879  29.0278294
  60.3427050  74.4399172  42.5396056  61.2436913  74.3005637  42.2480054
  60.4175025  74.6053627  43.4794234  54.6769856  71.8166027  41.3849242
  53.8073165  72.1099593  41.1131831  54.9129336  72.4006472  42.1056506
  64.5541485  80.8765185  41.4678771  64.2626293  81.2395166  42.3042232
  63.9413616  80.1632194  41.2892103  65.7537167  78.4418065  33.9881341
  66.5884059  78.8807869  34.1518902  65.8896296  77.9656718  33.1689587
  62.8028673  75.9997800  39.9358829  63.2782795  76.1925446  39.1277680
  61.8794239  76.0556986  39.6902213  49.6912180  77.1621967  29.5189907
  49.4458222  76.2584297  29.7170117  49.8608094  77.1639118  28.5769385
  48.9607827  72.8950325  27.0176069  48.2677072  72.9694680  26.3616105
  48.7159579  72.1310668  27.5397586  55.4354952  83.6304920  25.9840586
  54.8628919  84.2495107  25.5311058  56.0087746  84.1804282  26.5180508
  58.6552212  83.9142070  27.1149168  59.5882885  83.8487632  27.3182044
  58.5675425  84.7498337  26.6563701  61.2840229  83.2307940  24.0753116
  61.2053860  82.8967804  24.9688874  62.1049896  83.7229708  24.0744588
  63.9818420  76.0969680  37.2829434  63.9494740  75.1585680  37.4689118
  64.5919044  76.1753716  36.5495259  55.8201751  74.9665733  23.3256638
  56.7660856  74.8371941  23.3945056  55.4415996  74.2280395  23.8026066
  69.7994970  77.1585687  36.4235471  70.5298358  76.8970975  36.9843174
  69.1901915  76.4214408  36.4637539  55.7040443  79.0183479  44.7857295
  56.6243453  79.1962078  44.9797342  55.6690026  78.0739524  44.6336995
  54.0044668  72.8915709  23.2611524  53.0976123  72.5948822  23.3374237
  54.2820649  72.5945527  22.3945810  44.9222608  74.2122072  33.7110570
  44.6025393  73.3587381  33.4184944  44.3756037  74.4270651  34.4668537
  48.7002516  76.9284513  37.4280076  48.9188526  77.8601621  37.4468110
  49.1128290  76.5692488  38.2134880  55.6206734  67.4352599  29.4155765
  54.8107462  67.0899684  29.7911011  56.3091151  67.1260142  30.0043376
  53.5730381  72.5017719  46.8182825  53.4727108  73.4512076  46.7494916
  53.3551923  72.1735958  45.9458895  52.7743453  69.7502644  23.4023503
  53.6362617  70.0757543  23.6619320  52.9593797  68.9634140  22.8896569
  44.7910868  77.8324984  35.6803691  44.0974340  77.4178937  35.1673646
  45.5383859  77.8745520  35.0837110  53.4361651  75.9314858  45.6347887
  52.9528733  76.7315218  45.8411776  53.5222590  75.9422803  44.6815331
  46.7047611  77.7643238  33.5569706  46.6818299  77.8630925  32.6051589
  47.0148247  78.6108389  33.8786873  49.3634989  79.8219393  37.6716321
  50.3178242  79.7903335  37.6046252  49.1647512  79.3610016  38.4866547
  49.9534371  78.3920509  40.2387118  50.7727260  78.8864587  40.2621956
  50.2271179  77.4752477  40.2104686  47.7185218  85.3639012  34.6886519
  47.5839685  84.6039413  34.1224517  47.3017280  86.0879912  34.2215308
  58.8544181  80.5475936  23.6963094  59.5580031  80.7525938  24.3120750
  58.1306829  81.1152698  23.9612177  59.6841991  76.2985797  29.8165364
  59.6277192  76.7554348  28.9772997  60.2370333  75.5376482  29.6388207
  50.8754343  86.2608329  34.9004961  50.7586728  87.2053762  34.7983652
  50.0546790  85.9581891  35.2890761  60.7630878  80.9858465  25.7461554
  61.5976482  80.5539663  25.5639029  60.6015221  80.8140479  26.6738448
  60.4176770  77.4890578  27.1117893  60.3625574  77.3234850  26.1706337
  59.7922825  78.1966611  27.2680083  45.2069285  72.7258643  40.9379316
  45.8528149  72.2157597  41.4266541  44.9986436  73.4627324  41.5122741
  57.7322677  79.7939490  46.4371456  58.6013837  79.9680142  46.0758091
  57.2529429  80.6133907  46.3147185  53.7272896  66.9898687  26.6903212
  53.7151565  67.9340527  26.8471483  54.6196317  66.8068833  26.3962673
  51.9008858  86.9136591  38.1160890  52.8036104  86.9460201  38.4327385
  51.6746228  85.9837042  38.1307226  53.6562460  85.6667578  34.7770968
  52.7058091  85.6669439  34.6635341  53.9594946  84.9200312  34.2607003
  49.5466776  69.8726260  45.0354330  50.4098238  69.5163065  45.2457654
  48.9732187  69.5340155  45.7229734  69.3915153  91.5028116  35.8416731
  70.0293563  91.3834863  35.1380071  69.2735996  92.4508960  35.9004683
  66.2004859  91.4555544  35.7778255  65.8623371  91.3396609  34.8898790
  67.0694628  91.0546709  35.7579262  62.0591675  93.3091021  31.7675146
  61.4956540  93.2180958  30.9991434  61.9444070  92.4890925  32.2477639
  66.6824642  92.6090396  41.7364461  66.6713283  92.2143194  40.8644965
  66.8445282  91.8756469  42.3298232  59.6056107  94.8042212  34.6059367
  60.3977399  94.4633037  34.1905666  59.8452757  94.9137187  35.5261520
  67.6391234  96.9761988  27.0789611  66.9879213  97.5616069  26.6923625
  68.4335597  97.5068183  27.1384649  61.5646861  94.0651125  27.4776746
  62.3377737  93.5180113  27.3389621  61.9172260  94.9295375  27.6891207
  63.4031903  95.3927508  40.6843645  63.1121769  96.2973139  40.5690311
  64.0388888  95.4344035  41.3987715  64.3288110  92.7704356  37.2745005
  64.9251683  92.5460379  36.5601968  64.3863082  92.0289102  37.8770452
  63.9013139  90.2243792  25.1095196  64.1538659  89.7025313  24.3478659
  62.9637698  90.0609937  25.2121879  68.9456422  89.2279570  32.9169939
  69.7319511  88.8098993  32.5660356  69.2095126  90.1325662  33.0851587
  69.1166499  94.6652420  27.6158596  68.4812332  94.7387047  28.3279500
  68.7863905  95.2546019  26.9377675  74.3464849  89.1654803  33.8202917
  75.0790021  88.5954020  34.0540747  73.5904204  88.7776404  34.2609423
  63.6209427  92.1271898  27.3119571  63.5045686  91.4516801  27.9800655
  63.7311687  91.6404271  26.4951724  65.9640968  91.5882045  31.0166260
  65.5999176  91.0612666  31.7279181  66.8208084  91.1980514  30.8432745
  71.8690269  82.8776377  38.2797526  71.5373594  83.7471788  38.0558741
  71.2735882  82.5612661  38.9591556  65.6046455  86.6171944  26.0127608
  65.7720858  87.4852181  26.3798079  65.4143624  86.7799226  25.0888898
  68.3621789  95.0788923  37.6793439  68.0622512  95.9813962  37.5709246
  68.0172848  94.8121106  38.5314592  61.8134270  91.5302720  33.7130143
  60.8884766  91.3978934  33.9207835  62.0618683  92.3096939  34.2100085
  71.7618932  87.5971463  35.3590876  70.8535810  87.5286872  35.0649637
  71.7106528  88.0743408  36.1872701  65.5835676  89.0729602  26.9974275
  65.4635301  89.5186653  27.8359755  64.8888265  89.4214919  26.4387813
  59.1743081  91.1735994  34.5473932  59.3035462  91.4270473  35.4613344
  58.4940532  91.7663702  34.2278587  63.3442568 101.8433244  30.6464406
  63.2666598 102.7941069  30.7252887  62.7404212 101.4979116  31.3039333
  65.8359798  89.0161109  43.3025773  65.0593132  89.5755029  43.2928638
  66.4750361  89.5017892  43.8240643  73.6280579  85.7987902  37.1368750
  72.9854959  86.0920435  36.4908544  73.1235507  85.6840822  37.9421947
  71.2820742  89.5451075  27.8254609  72.1938599  89.7778462  27.6502307
  70.7730389  90.1288119  27.2629688  64.0906170  91.8246562  42.8643740
  64.8320855  92.3631606  42.5878564  63.3843156  92.4512851  43.0215292
  69.5661510  93.9675703  41.4615902  69.9744866  93.5258113  40.7170534
  68.8438772  93.3928330  41.7150095  65.9192580  88.9048310  38.8349459
  66.7653775  89.3287723  38.9784108  65.8591218  88.2481934  39.5288022
  69.8890325  94.5276893  35.2168191  69.2599187  94.6922608  34.5144258
  69.5015987  94.9418503  35.9879155  73.7679557  95.4631331  32.5712554
  73.0830595  95.8430233  32.0209588  73.8523406  96.0726658  33.3044502
  69.0692025  86.5652678  40.4930632  68.8252957  87.3194738  39.9564908
  69.3451956  86.9438026  41.3277879  71.0230488  93.1091290  39.1707898
  71.2347383  93.7523050  38.4942279  70.9760236  92.2753607  38.7029828
  68.6256717  85.7209111  36.0744470  67.7641196  86.0190365  36.3661208
  68.6519152  85.9379510  35.1425503  65.4418287  94.2651302  32.4818276
  65.9056632  94.5439005  31.6922898  65.1775085  93.3634746  32.2991366
  62.3342368  93.8122783  35.4198039  62.9043725  94.2410051  34.7815523
  62.9250479  93.5305368  36.1182225  64.3787173  90.3874454  29.2907841
  65.0811216  90.8395498  29.7581767  64.0467801  89.7458273  29.9187734
  62.8267534  88.9786211  43.6659050  62.1966195  89.6602491  43.8994447
  62.7203622  88.8669292  42.7212188  58.1212507  88.6458007  34.5924974
  57.3311561  88.9015535  34.1165085  58.6123754  89.4606344  34.6977015
  72.1376316  95.9863246  37.3430255  72.9593760  95.5843433  37.0612937
  72.1338719  95.8831480  38.2946371  60.0727252  89.0102586  31.5508451
  59.2758415  89.1221280  32.0691947  59.8452844  89.3489238  30.6849342
  65.9032920  95.5347289  39.4990966  65.9677352  95.9967696  40.3349138
  65.1943843  94.9044654  39.6273276  56.4050210  88.8988497  37.0239965
  56.6558248  89.7835507  37.2897541  56.9409758  88.7193099  36.2515057
  80.2282309  92.3301994  33.6915227  79.4746018  91.7609392  33.5359231
  80.3629850  92.2964659  34.6385861  65.6180937  97.2015397  29.3669946
  65.4826612  98.0466932  29.7954794  66.1590750  97.4034674  28.6035880
  62.1048277  83.2806976  46.0284301  61.7115222  82.7273175  46.7031946
  62.9214417  83.5917555  46.4190819  59.0710335  94.7190835  29.9397871
  59.5834855  95.5134085  30.0903436  59.7233047  94.0217125  29.8731473
  60.8805219  97.8356591  32.0220624  61.0571848  98.7574556  31.8341608
  61.6762053  97.5215010  32.4515004  65.0216238  84.6964855  43.6204558
  65.7625951  85.2972009  43.5409020  65.2534161  83.9542493  43.0622600
  60.1657576  89.8821223  41.8982788  60.0511091  88.9806480  42.1989886
  59.3102094  90.1284919  41.5467604  67.2449414  97.8238963  43.4970288
  66.8013268  97.0375342  43.1791193  67.9066627  98.0118114  42.8314179
  62.0036535  99.3534765  38.0230967  62.5543960  99.2251828  37.2507961
  61.1648011  99.6529654  37.6725859  69.3430652  98.1041763  41.5251689
  69.3249127  98.9250644  41.0331959  70.2650572  97.9795838  41.7501831
  65.8003706  95.6185892  42.3675198  66.3332043  94.8574181  42.1374506
  65.2717787  95.3259544  43.1099352  68.9673401  80.7245958  37.8968840
  68.6237670  81.6147600  37.8207950  69.3352363  80.5347616  37.0338425
  57.0359251  93.0479489  30.7157442  57.8734473  93.4576497  30.4991149
  57.2137519  92.1078931  30.6857636  68.9323684  90.7154570  26.4041275
  68.4170307  91.4859174  26.6429662  68.6600992  90.0419706  27.0274336
  66.5170795  85.5604270  31.4626513  65.6612391  85.1711121  31.2832152
  66.9297746  85.6396231  30.6026299  68.0469941  83.0950614  35.8618073
  67.5434737  83.0580749  35.0485878  68.3400548  84.0043356  35.9214729
  64.2912827  83.1789343  34.8684255  65.1565824  82.9832152  34.5090144
  64.3590336  82.9499695  35.7953611  73.9057958  93.4686924  28.3394448
  73.1287400  93.1298084  27.8949610  74.5849439  93.4739547  27.6649413
  68.7209987  88.5881662  28.2301056  68.4160122  88.9027811  29.0811199
  69.6740429  88.6663081  28.2728389  67.1656419  94.7471885  29.8794010
  66.6377780  94.0124645  29.5667247  66.6643921  95.5246561  29.6333978
  72.1449265  92.9420905  34.9961056  71.4872939  93.6320167  35.0841185
  72.9489664  93.3317337  35.3395042  61.8975146  85.4091551  32.2400621
  62.4718898  85.1866733  31.5073814  62.4846129  85.4780246  32.9929223
  70.9554723  91.2965278  33.0464998  71.4686605  91.9295270  33.5486708
  71.6055947  90.6966474  32.6808358  62.2244733  87.4396012  26.2596507
  61.3882046  87.7770699  26.5805781  62.0849503  87.3044992  25.3223644
  64.1997814  82.2832800  30.9675691  63.5462226  81.9681817  30.3432306
  64.1578288  81.6608541  31.6935514  65.3109019  92.5652095  22.8828983
  64.4036080  92.3341349  23.0820132  65.8080051  91.7689714  23.0702964
  68.2177098 101.2749602  25.8025669  67.5438796 101.5781299  26.4110627
  68.6042920 102.0778683  25.4531126  67.4335554  88.7714734  35.2923338
  66.5158116  88.9929681  35.1345026  67.8495698  88.8461044  34.4335046
  68.2170602  90.1706149  30.4226019  68.9642421  90.6827547  30.1133141
  68.4862192  89.8490202  31.2830412  66.4897252  92.6664690  27.4052973
  65.5808471  92.3823723  27.5025443  66.5192336  93.0863769  26.5456280
  71.7216520  96.2771280  31.1744140  71.2678847  95.4362189  31.2309331
  71.0910486  96.9132678  31.5118921  70.6649439  87.2063266  32.4044808
  69.9272196  86.6940652  32.7355051  70.9176213  86.7663647  31.5928085
  70.1649459  98.1147776  32.1093959  70.4572433  98.6752833  31.3906324
  70.6748079  98.4076337  32.8647118  70.7661066  79.9839518  32.9986577
  71.0719943  79.1236881  32.7112492  71.4913671  80.5757138  32.7985571
  57.0585423  90.3870204  31.3868175  56.8609822  89.7939565  30.6619242
  56.5032087  90.0822414  32.1044114  65.0382146  90.2793311  33.5062768
  65.0930756  89.3267147  33.4305245  64.2273348  90.4352750  33.9904067
  66.1873340  94.2073434  24.7441052  65.7492770  93.4909293  24.2846689
  66.9283781  94.4349549  24.1826143  62.9774506  88.8970370  31.2653147
  62.1642372  89.1964541  31.6718339  63.4733500  88.5026059  31.9827629
  65.1283084  98.8928127  33.1987412  65.0859263  99.1188974  32.2695944
  66.0445783  98.6591502  33.3473213  68.5748718  89.3612195  40.0968041
  68.9298106  89.5883668  40.9562507  69.2220849  89.6930572  39.4745296
  74.3046455  92.4830631  30.8017370  74.1664353  92.6732227  29.8738559
  73.9482674  93.2450014  31.2585421  62.4688581  86.4688726  36.8814382
  63.1087960  86.3277485  36.1837345  61.6366111  86.1823239  36.5052984
  74.3315834  94.5507158  35.8128642  74.7652341  94.4582447  36.6611696
  75.0447415  94.5264658  35.1748658  63.2448885  95.7691156  32.9949375
  64.0389483  95.2741476  32.7931950  62.5340577  95.2409019  32.6317080
  68.0643729  98.1509252  37.3461742  68.1180752  98.7200188  38.1139458
  67.1958511  98.3211137  36.9815779  59.5531648  89.9134238  29.0709127
  58.6229236  89.8518694  29.2879089  59.6489120  89.3910191  28.2745769
  59.4717197  86.4389051  31.6587369  59.7324015  87.3534384  31.5496529
  60.2934370  85.9713493  31.8083982  60.9442123  87.8526808  38.8286193
  61.6165176  87.6444170  38.1798842  60.1171909  87.6548894  38.3891426
  75.1931384  94.5930858  38.3461527  75.3867274  95.4976669  38.5920802
  75.0932002  94.1338278  39.1800112  66.8467695  84.4788749  40.8451854
  66.1995610  85.1778699  40.7516331  67.6168710  84.9124893  41.2128103
  70.2546493  94.7437601  43.9202408  70.1031999  94.5148153  43.0032491
  70.2451172  95.7008203  43.9333753  67.0231829  92.3169514  38.9048674
  67.9523889  92.4680674  38.7317641  66.6022859  92.4053535  38.0497321
  65.8220161  96.3420178  36.6747212  65.6831246  95.9738963  37.5473150
  65.0334757  96.8567818  36.5031169  66.4168313 101.4429275  28.0172748
  66.5920068 100.9717318  28.8318371  65.7301101 102.0695041  28.2454009
  67.3725376  95.7201781  34.0636049  67.0375209  95.6802551  34.9593699
  66.8729322  95.0546497  33.5906460  61.3469620  91.1269411  39.5888631
  61.2089418  90.3949650  40.1900170  62.2574543  91.0378311  39.3072818
  70.3084568  93.0657815  24.3373109  69.6913738  92.3404644  24.2406162
  69.8401056  93.8267176  23.9940183  63.9751921  90.8389370  39.0772310
  64.6851539  90.1982563  39.0358929  63.9321229  91.0902265  39.9998491
  71.9638699  97.7756724  41.9978889  71.9051245  97.0915944  41.3309472
  72.3658218  98.5175714  41.5459515  62.6880855  87.8254588  40.8967950
  62.1518212  87.3745327  41.5489546  62.0997563  87.9600497  40.1538414
  60.9829398 104.5918638  34.7912608  61.2225996 105.2237162  35.4691627
  60.1398595 104.2406678  35.0777968  62.0983114  87.2843240  23.4594413
  61.2212580  87.1632040  23.0956660  62.5740867  86.4929318  23.2073302
  71.9656107  95.7396308  40.2292869  71.0782885  95.4022229  40.3519268
  72.5354658  95.0079339  40.4661635  53.6185254  92.0720399  33.5535921
  54.3056293  91.7582129  32.9656936  53.4633382  92.9761764  33.2803172
  58.4219976  86.9610596  37.9820944  58.3378165  86.3536266  37.2471354
  57.6002682  87.4519614  37.9830441  65.4957260 100.3997760  37.1954112
  65.4227431 101.2052732  37.7073417  65.0534653 100.5989726  36.3702134
  65.2847040  99.6369530  30.7056934  64.5014561 100.1791210  30.7995158
  65.9839785 100.1543510  31.1051175  68.5943690  85.4464159  33.3491139
  69.0912389  84.6934122  33.0292210  67.8230671  85.4828476  32.7834349
  76.4473447  91.1504525  34.9909431  76.4363323  92.0329240  34.6203364
  75.5790826  90.7976076  34.7963968  67.9555943 100.2984594  39.3512271
  68.6683916 100.9332059  39.2788172  67.4645972 100.3948460  38.5352273
  69.6773470  94.2035847  30.9229563  68.7429749  94.3237309  30.7534267
  69.8550139  93.3008313  30.6589573  65.1778658  87.5881542  33.0762824
  64.8076446  87.0352583  33.7643729  65.6737751  86.9839676  32.5237824
  73.0646022  90.0453166  31.4579597  73.5306474  90.8781158  31.3839899
  73.5153522  89.5798148  32.1624855  63.0067857  98.0479038  40.1717842
  63.7077316  98.6815520  40.3247236  62.5362972  98.3893769  39.4113481
  71.1322253  96.3896987  28.4565749  71.4082097  96.2753582  29.3659623
  70.2626752  95.9914472  28.4177922  71.0362684  82.4133753  35.4970498
  70.1225764  82.6437980  35.6652705  71.4655786  82.4972197  36.3484531
  70.8069143  90.6023645  37.9970392  70.1540593  90.8499552  37.3422845
  71.1849523  89.7887783  37.6632869  67.7676317 100.6383338  32.0998562
  67.9498711  99.8204994  32.5626315  68.5909303 100.8551030  31.6623452
  68.1018482  99.5651523  29.3613611  68.6306249  99.0543978  28.7483773
  68.3646702  99.2494053  30.2259144  66.8556716  91.3443456  44.4836429
  66.1797353  91.2437585  45.1538804  67.6784350  91.1882670  44.9472426
  58.6035575  97.5815393  37.1048944  59.1889012  96.8359080  37.2376849
  58.4060413  97.8919349  37.9885608  61.4574230 100.6166640  32.1211387
  60.7884606 101.1012768  31.6375427  61.3187100 100.8635860  33.0354765
  53.1953230  90.1520993  35.8253388  53.2337329  89.6184583  36.6190506
  52.6893523  89.6256198  35.2064365  65.5979499 102.6510383  38.7194045
  66.1497807 102.8142005  39.4843130  65.9385692 103.2414821  38.0474070
  60.5743992  84.9985533  39.3215930  60.6385319  85.8600364  38.9093328
  60.5111112  84.3859535  38.5888288  60.0496265  87.0708666  42.9688964
  60.6768303  86.6885743  43.5826489  59.1924183  86.8522868  43.3344657
  70.4490373  97.4771641  44.5742700  70.9930277  98.0901599  44.0797654
  69.8677218  98.0351219  45.0909713  56.8261807  88.8785095  28.9007319
  57.1215248  87.9695773  28.8474373  55.9249843  88.8572834  28.5788321
  68.7347886 100.5992359  35.7057727  68.6099026  99.7982099  35.1968673
  69.3926977 101.0938552  35.2171697  60.3556054  86.9541091  34.8834868
  59.6342640  87.5677059  34.7442341  61.1449310  87.4898856  34.8051514
  70.7982795  98.4001379  37.3337277  69.8513130  98.2806730  37.2615604
  71.1465568  97.5123877  37.4163539  63.1582368  84.2895518  41.1575519
  63.6816770  84.5357815  41.9201829  62.9394701  85.1215553  40.7378657
  58.5549649  86.5599193  29.0246644  58.2262355  85.6796571  28.8421750
  58.9089020  86.5046861  29.9123033  67.8029228  98.1954095  33.5341630
  67.6554190  97.2670803  33.7149200  68.6282721  98.2174186  33.0498705
  61.6691472  86.8472162  29.3922122  62.0087545  87.3758084  28.6700730
  62.1163593  87.1852568  30.1680688  71.4063350  99.0182654  34.6206502
  72.3309897  98.8125515  34.4830954  71.2378653  98.7699055  35.5295844
  64.3634913  85.2309213  38.8425190  64.0231733  84.4317026  39.2445870
  63.6573919  85.5310924  38.2702023  65.0151385  82.3158526  37.2952513
  65.8377454  81.8419004  37.1731403  65.2589448  83.0949009  37.7951199
  63.6559619  85.3446784  27.5915415  64.3767982  85.7228037  27.0879131
  63.0324923  86.0635661  27.6950393  67.7990742  86.0491933  28.5273747
  68.0154357  86.9316571  28.2262575  67.3184809  85.6578146  27.7979389
  62.5389964  89.0077646  35.1044492  62.3934544  89.3217949  35.9968773
  62.0615167  89.6262546  34.5515390  64.3986346  85.9980194  35.1525381
  64.3847915  85.1021287  34.8157679  65.1158774  86.0050858  35.7863667
  66.2512477  86.4317534  37.1978509  65.9930255  87.3534605  37.1962839
  65.7197517  86.0347969  37.8878973  71.1958666  99.5368321  29.9768594
  71.3695543  98.9714744  29.2242446  71.6887557 100.3369216  29.7948084
  57.0135626  91.5482991  38.0432153  56.4689094  92.3242799  38.1752427
  57.8914976  91.8953795  37.8851274  63.8023242  84.8794574  30.4212951
  63.9239154  83.9511221  30.6203839  63.5125285  84.8933260  29.5091267
  66.6714433  82.5649485  33.5579671  66.6936130  82.6288818  32.6031651
  67.0882492  81.7253994  33.7520177  77.0498057  92.3004744  31.5958894
  77.4929203  91.5512070  31.1978017  76.1724567  92.2914881  31.2132626
  72.1833838  98.8535086  27.0765492  72.8784743  99.4741779  27.2952807
  72.5256988  98.0030437  27.3517870  57.8001648  90.6752887  40.9362310
  57.0583384  90.8235522  41.5226940  57.4794392  90.9361152  40.0729059
  74.0825261  96.3034791  28.6052823  74.6076586  96.6422064  27.8802143
  73.9947614  95.3681807  28.4215958  65.7445310 100.2168865  40.7342700
  66.0532437  99.9718012  41.6065399  66.5420792 100.4215504  40.2461570
  65.7665922 102.3706775  32.9648076  65.3270913 101.8783153  33.6580933
  66.5174039 101.8279742  32.7240151  58.2458261  98.5618316  32.9672704
  59.0716281  98.2622087  32.5871348  57.8952313  97.7925938  33.4162493
  63.2139794  97.9144784  35.0370378  62.5919804  97.2515489  34.7372606
  63.8844661  97.9405916  34.3544026  56.4466866  96.4804642  33.9261638
  55.6098775  96.0526816  33.7445639  56.4190512  96.6737085  34.8632429
  63.2864322  86.3926572  44.6302884  63.3352477  87.2688695  44.2480653
  63.8286836  85.8503965  44.0574527  73.7719168  96.9367695  43.9104021
  72.9814711  96.9191834  43.3708520  73.5352522  97.4755989  44.6653058
  73.8917043  93.7860161  41.2236749  73.9415048  93.6210169  42.1652272
  73.7830966  92.9187420  40.8334630  62.7753301  96.4648707  28.5128838
  62.9241422  97.1484172  27.8595511  63.5819745  96.4453797  29.0278294
  71.1820805  89.7691089  42.5396056  72.0830668  89.6297554  42.2480054
  71.2568779  89.9345544  43.4794234  65.5163610  87.1457944  41.3849242
  64.6466920  87.4391510  41.1131831  65.7523091  87.7298389  42.1056506
  75.3935239  96.2057103  41.4678771  75.1020048  96.5687083  42.3042232
  74.7807371  95.4924111  41.2892103  76.5930922  93.7709983  33.9881341
  77.4277813  94.2099787  34.1518902  76.7290051  93.2948636  33.1689587
  73.6422428  91.3289718  39.9358829  74.1176549  91.5217364  39.1277680
  72.7187993  91.3848903  39.6902213  60.5305934  92.4913885  29.5189907
  60.2851976  91.5876215  29.7170117  60.7001849  92.4931035  28.5769385
  68.2202644  83.3637561  38.9014663  68.7384588  84.0998588  38.5761151
  67.8657777  83.6701554  39.7361422  59.8001582  88.2242242  27.0176069
  59.1070827  88.2986597  26.3616105  59.5553334  87.4602586  27.5397586
  68.4715238  79.7837844  34.4215559  68.7516992  79.1161033  35.0475986
  69.2565845  79.9766939  33.9090223  66.2748707  98.9596838  25.9840586
  65.7022674  99.5787025  25.5311058  66.8481500  99.5096199  26.5180508
  72.3424097  88.2055478  38.1687135  73.2941520  88.3053575  38.1899359
  72.1727547  87.4133746  38.6785219  70.3638476  85.2911061  38.3546536
  69.7688408  85.5716074  37.6593024  70.0788173  85.7804962  39.1263277
  69.4945967  99.2433988  27.1149168  70.4276640  99.1779549  27.3182044
  69.4069179 100.0790255  26.6563701  72.1233983  98.5599858  24.0753116
  72.0447615  98.2259722  24.9688874  72.9443650  99.0521626  24.0744588
  74.8212174  91.4261597  37.2829434  74.7888495  90.4877598  37.4689118
  75.4312798  91.5045634  36.5495259  66.6595505  90.2957650  23.3256638
  67.6054610  90.1663858  23.3945056  66.2809750  89.5572312  23.8026066
  74.9706663  88.2172641  37.3287717  74.4545712  87.4331097  37.1417646
  75.8546611  87.8891357  37.4934237  72.6317390  81.9613656  33.2883530
  72.4342211  81.6528745  34.1726862  73.2417095  82.6875295  33.4181460
  80.6388724  92.4877604  36.4235471  81.3692113  92.2262892  36.9843174
  80.0295670  91.7506326  36.4637539  78.7204021  90.6285467  37.0209922
  77.9937185  90.4941432  36.4126414  78.3051308  90.9362295  37.8266640
  66.5434198  94.3475396  44.7857295  67.4637207  94.5253995  44.9797342
  66.5083781  93.4031442  44.6336995  64.8438422  88.2207627  23.2611524
  63.9369878  87.9240739  23.3374237  65.1214403  87.9237445  22.3945810
  55.7616363  89.5413990  33.7110570  55.4419147  88.6879298  33.4184944
  55.2149791  89.7562568  34.4668537  59.5396270  92.2576431  37.4280076
  59.7582280  93.1893539  37.4468110  59.9522044  91.8984406  38.2134880
  66.4600488  82.7644516  29.4155765  65.6501216  82.4191601  29.7911011
  67.1484905  82.4552060  30.0043376  68.3891036  81.8422563  31.0380061
  68.9422075  82.2618017  31.6970085  68.6261123  80.9158311  31.0803017
  64.4124136  87.8309637  46.8182825  64.3120863  88.7803994  46.7494916
  64.1945678  87.5027876  45.9458895  63.6137207  85.0794562  23.4023503
  64.4756371  85.4049460  23.6619320  63.7987551  84.2926058  22.8896569
  55.6304623  93.1616902  35.6803691  54.9368094  92.7470854  35.1673646
  56.3777614  93.2037438  35.0837110  71.7669844  83.9523088  30.5458726
  71.1868513  84.6107892  30.1636778  71.5005776  83.1300433  30.1346143
  70.2173410  83.3528146  32.7480046  70.7173188  83.4644681  31.9394365
  70.8609018  83.0489199  33.3880854  64.2755406  91.2606776  45.6347887
  63.7922487  92.0607136  45.8411776  64.3616345  91.2714721  44.6815331
  57.5441365  93.0935155  33.5569706  57.5212053  93.1922843  32.6051589
  57.8542002  93.9400306  33.8786873  60.2028743  95.1511310  37.6716321
  61.1571997  95.1195253  37.6046252  60.0041267  94.6901934  38.4866547
  60.7928125  93.7212426  40.2387118  61.6121014  94.2156505  40.2621956
  61.0664933  92.8044395  40.2104686  70.5494722  86.1123179  29.6015074
  69.6620577  86.3972829  29.3835269  70.9648711  85.9516942  28.7542351
  73.9009258  86.1369700  33.3169413  74.6769648  86.6266152  33.5894030
  73.1757392  86.5627754  33.7741283  76.3381816  86.8497319  34.3743354
  76.9326307  86.6093055  33.6636662  76.4108400  86.1304450  35.0016890
  58.5578972 100.6930930  34.6886519  58.4233440  99.9331331  34.1224517
  58.1411034 101.4171830  34.2215308  69.6937935  95.8767853  23.6963094
  70.3973785  96.0817856  24.3120750  68.9700584  96.4444615  23.9612177
  70.5235745  91.6277715  29.8165364  70.4670947  92.0846266  28.9772997
  71.0764088  90.8668399  29.6388207  74.3340551  87.4167447  30.6415484
  74.0777485  87.0164082  31.4723691  73.7093419  88.1311241  30.5165623
  78.6452889  90.1563520  33.1486775  78.0852447  90.2256709  33.9218337
  78.0396392  89.9804504  32.4286271  61.7148098 101.5900247  34.9004961
  61.5980482 102.5345679  34.7983652  60.8940544 101.2873808  35.2890761
  71.6024632  96.3150383  25.7461554  72.4370236  95.8831581  25.5639029
  71.4408975  96.1432396  26.6738448  71.2570525  92.8182496  27.1117893
  71.2019328  92.6526767  26.1706337  70.6316580  93.5258529  27.2680083
  56.0463040  88.0550560  40.9379316  56.6921903  87.5449514  41.4266541
  55.8380191  88.7919242  41.5122741  68.5716432  95.1231408  46.4371456
  69.4407591  95.2972060  46.0758091  68.0923183  95.9425825  46.3147185
  64.5666650  82.3190605  26.6903212  64.5545320  83.2632445  26.8471483
  65.4590072  82.1360750  26.3962673  62.7402612 102.2428509  38.1160890
  63.6429859 102.2752119  38.4327385  62.5139982 101.3128960  38.1307226
  64.4956214 100.9959495  34.7770968  63.5451845 100.9961357  34.6635341
  64.7988700 100.2492230  34.2607003  68.3818770  78.9133382  30.9449149
  67.6151165  78.3591868  31.0905831  68.7929475  78.9855250  31.8063300
  60.3860531  85.2018177  45.0354330  61.2491992  84.8454982  45.2457654
  59.8125941  84.8632072  45.7229734  80.2308908 106.8320034  35.8416731
  80.8687317 106.7126781  35.1380071  80.1129750 107.7800878  35.9004683
  77.0398614 106.7847462  35.7778255  76.7017125 106.6688527  34.8898790
  77.9088382 106.3838627  35.7579262  72.8985430 108.6382938  31.7675146
  72.3350295 108.5472875  30.9991434  72.7837825 107.8182843  32.2477639
  77.5218397 107.9382314  41.7364461  77.5107038 107.5435112  40.8644965
  77.6839036 107.2048386  42.3298232  70.4449861 110.1334130  34.6059367
  71.2371153 109.7924955  34.1905666  70.6846512 110.2429105  35.5261520
  78.4784988 112.3053906  27.0789611  77.8272968 112.8907986  26.6923625
  79.2729351 112.8360101  27.1384649  72.4040615 109.3943043  27.4776746
  73.1771491 108.8472030  27.3389621  72.7566014 110.2587292  27.6891207
  74.2425658 110.7219425  40.6843645  73.9515524 111.6265056  40.5690311
  74.8782642 110.7635953  41.3987715  75.1681865 108.0996274  37.2745005
  75.7645437 107.8752296  36.5601968  75.2256836 107.3581019  37.8770452
  74.7406893 105.5535709  25.1095196  74.9932414 105.0317231  24.3478659
  73.8031452 105.3901855  25.2121879  79.7850176 104.5571488  32.9169939
  80.5713265 104.1390911  32.5660356  80.0488880 105.4617580  33.0851587
  79.9560253 109.9944338  27.6158596  79.3206086 110.0678964  28.3279500
  79.6257660 110.5837937  26.9377675  85.1858603 104.4946721  33.8202917
  85.9183775 103.9245938  34.0540747  84.4297959 104.1068321  34.2609423
  74.4603182 107.4563815  27.3119571  74.3439440 106.7808719  27.9800655
  74.5705442 106.9696189  26.4951724  76.8034723 106.9173962  31.0166260
  76.4392930 106.3904583  31.7279181  77.6601839 106.5272431  30.8432745
  82.7084023  98.2068295  38.2797526  82.3767348  99.0763706  38.0558741
  82.1129637  97.8904579  38.9591556  76.4440210 101.9463862  26.0127608
  76.6114612 102.8144098  26.3798079  76.2537379 102.1091144  25.0888898
  79.2015543 110.4080841  37.6793439  78.9016266 111.3105880  37.5709246
  78.8566603 110.1413024  38.5314592  72.6528025 106.8594638  33.7130143
  71.7278521 106.7270852  33.9207835  72.9012438 107.6388857  34.2100085
  82.6012687 102.9263381  35.3590876  81.6929564 102.8578790  35.0649637
  82.5500283 103.4035326  36.1872701  76.4229431 104.4021519  26.9974275
  76.3029056 104.8478570  27.8359755  75.7282019 104.7506837  26.4387813
  70.0136836 106.5027911  34.5473932  70.1429217 106.7562390  35.4613344
  69.3334287 107.0955619  34.2278587  74.1836323 117.1725161  30.6464406
  74.1060353 118.1232986  30.7252887  73.5797966 116.8271034  31.3039333
  76.6753553 104.3453027  43.3025773  75.8986887 104.9046947  43.2928638
  77.3144116 104.8309810  43.8240643  84.4674333 101.1279819  37.1368750
  83.8248713 101.4212353  36.4908544  83.9629262 101.0132740  37.9421947
  82.1214497 104.8742993  27.8254609  83.0332353 105.1070379  27.6502307
  81.6124144 105.4580037  27.2629688  74.9299925 107.1538480  42.8643740
  75.6714609 107.6923524  42.5878564  74.2236910 107.7804769  43.0215292
  80.4055265 109.2967620  41.4615902  80.8138621 108.8550031  40.7170534
  79.6832526 108.7220248  41.7150095  76.7586335 104.2340227  38.8349459
  77.6047530 104.6579641  38.9784108  76.6984972 103.5773852  39.5288022
  80.7284079 109.8568811  35.2168191  80.0992942 110.0214525  34.5144258
  80.3409741 110.2710421  35.9879155  84.6073311 110.7923249  32.5712554
  83.9224349 111.1722150  32.0209588  84.6917160 111.4018576  33.3044502
  79.9085780 101.8944596  40.4930632  79.6646712 102.6486656  39.9564908
  80.1845710 102.2729943  41.3277879  81.8624243 108.4383208  39.1707898
  82.0741138 109.0814968  38.4942279  81.8153991 107.6045525  38.7029828
  79.4650472 101.0501029  36.0744470  78.6034951 101.3482282  36.3661208
  79.4912906 101.2671428  35.1425503  76.2812041 109.5943219  32.4818276
  76.7450387 109.8730922  31.6922898  76.0168839 108.6926664  32.2991366
  73.1736122 109.1414701  35.4198039  73.7437479 109.5701969  34.7815523
  73.7644234 108.8597285  36.1182225  75.2180927 105.7166372  29.2907841
  75.9204970 106.1687415  29.7581767  74.8861556 105.0750190  29.9187734
  73.6661289 104.3078128  43.6659050  73.0359949 104.9894409  43.8994447
  73.5597377 104.1961210  42.7212188  68.9606261 103.9749924  34.5924974
  68.1705315 104.2307453  34.1165085  69.4517508 104.7898262  34.6977015
  82.9770071 111.3155163  37.3430255  83.7987514 110.9135351  37.0612937
  82.9732474 111.2123398  38.2946371  70.9121006 104.3394503  31.5508451
  70.1152170 104.4513198  32.0691947  70.6846599 104.6781156  30.6849342
  76.7426674 110.8639207  39.4990966  76.8071107 111.3259614  40.3349138
  76.0337598 110.2336572  39.6273276  67.2443964 104.2280415  37.0239965
  67.4952002 105.1127425  37.2897541  67.7803512 104.0485016  36.2515057
  91.0676064 107.6593912  33.6915227  90.3139772 107.0901310  33.5359231
  91.2023605 107.6256576  34.6385861  76.4574692 112.5307314  29.3669946
  76.3220367 113.3758850  29.7954794  76.9984504 112.7326592  28.6035880
  72.9442031  98.6098894  46.0284301  72.5508977  98.0565093  46.7031946
  73.7608172  98.9209473  46.4190819  69.9104089 110.0482752  29.9397871
  70.4228610 110.8426002  30.0903436  70.5626802 109.3509043  29.8731473
  71.7198974 113.1648509  32.0220624  71.8965602 114.0866473  31.8341608
  72.5155807 112.8506928  32.4515004  75.8609992 100.0256773  43.6204558
  76.6019706 100.6263926  43.5409020  76.0927915  99.2834411  43.0622600
  71.0051330 105.2113140  41.8982788  70.8904846 104.3098398  42.1989886
  70.1495848 105.4576837  41.5467604  78.0843168 113.1530881  43.4970288
  77.6407022 112.3667259  43.1791193  78.7460382 113.3410031  42.8314179
  72.8430289 114.6826682  38.0230967  73.3937714 114.5543746  37.2507961
  72.0041765 114.9821571  37.6725859  80.1824406 113.4333681  41.5251689
  80.1642882 114.2542562  41.0331959  81.1044326 113.3087756  41.7501831
  76.6397460 110.9477810  42.3675198  77.1725797 110.1866098  42.1374506
  76.1111541 110.6551462  43.1099352  79.8067155  96.0537876  37.8968840
  79.4631425  96.9439518  37.8207950  80.1746118  95.8639534  37.0338425
  67.8753006 108.3771407  30.7157442  68.7128228 108.7868415  30.4991149
  68.0531274 107.4370849  30.6857636  79.7717438 106.0446487  26.4041275
  79.2564061 106.8151092  26.6429662  79.4994746 105.3711623  27.0274336
  77.3564549 100.8896188  31.4626513  76.5006145 100.5003038  31.2832152
  77.7691501 100.9688149  30.6026299  78.8863696  98.4242531  35.8618073
  78.3828491  98.3872666  35.0485878  79.1794303  99.3335274  35.9214729
  75.1306582  98.5081261  34.8684255  75.9959578  98.3124070  34.5090144
  75.1984090  98.2791613  35.7953611  84.7451712 108.7978842  28.3394448
  83.9681155 108.4590001  27.8949610  85.4243193 108.8031465  27.6649413
  79.5603741 103.9173579  28.2301056  79.2553877 104.2319728  29.0811199
  80.5134183 103.9954999  28.2728389  78.0050173 110.0763803  29.8794010
  77.4771535 109.3416562  29.5667247  77.5037676 110.8538479  29.6333978
  82.9843019 108.2712823  34.9961056  82.3266694 108.9612084  35.0841185
  83.7883418 108.6609255  35.3395042  72.7368901 100.7383469  32.2400621
  73.3112653 100.5158650  31.5073814  73.3239883 100.8072163  32.9929223
  81.7948478 106.6257196  33.0464998  82.3080360 107.2587188  33.5486708
  82.4449702 106.0258391  32.6808358  73.0638488 102.7687930  26.2596507
  72.2275800 103.1062616  26.5805781  72.9243257 102.6336910  25.3223644
  75.0391568  97.6124718  30.9675691  74.3855981  97.2973735  30.3432306
  74.9972043  96.9900458  31.6935514  76.1502773 107.8944013  22.8828983
  75.2429835 107.6633266  23.0820132  76.6473805 107.0981632  23.0702964
  78.2729309 104.1006651  35.2923338  77.3551870 104.3221598  35.1345026
  78.6889452 104.1752962  34.4335046  79.0564356 105.4998067  30.4226019
  79.8036175 106.0119464  30.1133141  79.3255946 105.1782120  31.2830412
  77.3291007 107.9956608  27.4052973  76.4202226 107.7115641  27.5025443
  77.3586090 108.4155686  26.5456280  82.5610274 111.6063197  31.1744140
  82.1072601 110.7654107  31.2309331  81.9304241 112.2424596  31.5118921
  81.5043194 102.5355183  32.4044808  80.7665950 102.0232569  32.7355051
  81.7569967 102.0955565  31.5928085  81.0043213 113.4439694  32.1093959
  81.2966188 114.0044751  31.3906324  81.5141834 113.7368255  32.8647118
  81.6054821  95.3131435  32.9986577  81.9113698  94.4528799  32.7112492
  82.3307426  95.9049055  32.7985571  67.8979177 105.7162122  31.3868175
  67.7003577 105.1231483  30.6619242  67.3425841 105.4114332  32.1044114
  75.8775901 105.6085228  33.5062768  75.9324510 104.6559065  33.4305245
  75.0667103 105.7644667  33.9904067  77.0267094 109.5365351  24.7441052
  76.5886524 108.8201210  24.2846689  77.7677535 109.7641466  24.1826143
  73.8168261 104.2262288  31.2653147  73.0036126 104.5256459  31.6718339
  74.3127255 103.8317977  31.9827629  75.9676839 114.2220045  33.1987412
  75.9253017 114.4480891  32.2695944  76.8839537 113.9883420  33.3473213
  79.4142472 104.6904113  40.0968041  79.7691860 104.9175586  40.9562507
  80.0614604 105.0222489  39.4745296  85.1440209 107.8122548  30.8017370
  85.0058108 108.0024144  29.8738559  84.7876428 108.5741931  31.2585421
  73.3082335 101.7980644  36.8814382  73.9481715 101.6569403  36.1837345
  72.4759866 101.5115157  36.5052984  85.1709589 109.8799075  35.8128642
  85.6046096 109.7874365  36.6611696  85.8841170 109.8556576  35.1748658
  74.0842639 111.0983074  32.9949375  74.8783238 110.6033394  32.7931950
  73.3734332 110.5700937  32.6317080  78.9037484 113.4801170  37.3461742
  78.9574506 114.0492106  38.1139458  78.0352265 113.6503055  36.9815779
  70.3925403 105.2426156  29.0709127  69.4622991 105.1810611  29.2879089
  70.4882875 104.7202109  28.2745769  70.3110952 101.7680969  31.6587369
  70.5717769 102.6826302  31.5496529  71.1328124 101.3005411  31.8083982
  71.7835877 103.1818726  38.8286193  72.4558931 102.9736088  38.1798842
  70.9565664 102.9840812  38.3891426  86.0325138 109.9222776  38.3461527
  86.2261029 110.8268587  38.5920802  85.9325757 109.4630195  39.1800112
  77.6861449  99.8080667  40.8451854  77.0389364 100.5070616  40.7516331
  78.4562465 100.2416811  41.2128103  81.0940247 110.0729519  43.9202408
  80.9425754 109.8440071  43.0032491  81.0844927 111.0300120  43.9333753
  77.8625584 107.6461432  38.9048674  78.7917644 107.7972591  38.7317641
  77.4416614 107.7345452  38.0497321  76.6613915 111.6712096  36.6747212
  76.5225001 111.3030880  37.5473150  75.8728512 112.1859735  36.5031169
  77.2562067 116.7721192  28.0172748  77.4313823 116.3009236  28.8318371
  76.5694855 117.3986959  28.2454009  78.2119130 111.0493699  34.0636049
  77.8768963 111.0094469  34.9593699  77.7123076 110.3838415  33.5906460
  72.1863374 106.4561329  39.5888631  72.0483172 105.7241568  40.1900170
  73.0968298 106.3670229  39.3072818  81.1478322 108.3949733  24.3373109
  80.5307493 107.6696561  24.2406162  80.6794811 109.1559093  23.9940183
  74.8145675 106.1681288  39.0772310  75.5245294 105.5274480  39.0358929
  74.7714983 106.4194183  39.9998491  82.8032454 113.1048641  41.9978889
  82.7445000 112.4207862  41.3309472  83.2051972 113.8467631  41.5459515
  73.5274609 103.1546506  40.8967950  72.9911966 102.7037244  41.5489546
  72.9391317 103.2892415  40.1538414  71.8223153 119.9210555  34.7912608
  72.0619751 120.5529079  35.4691627  70.9792349 119.5698595  35.0777968
  72.9376868 102.6135157  23.4594413  72.0606334 102.4923958  23.0956660
  73.4134621 101.8221236  23.2073302  82.8049861 111.0688225  40.2292869
  81.9176640 110.7314147  40.3519268  83.3748412 110.3371257  40.4661635
  64.4579008 107.4012317  33.5535921  65.1450048 107.0874047  32.9656936
  64.3027137 108.3053682  33.2803172  69.2613730 102.2902514  37.9820944
  69.1771919 101.6828183  37.2471354  68.4396437 102.7811532  37.9830441
  76.3351014 115.7289678  37.1954112  76.2621186 116.5344649  37.7073417
  75.8928408 115.9281644  36.3702134  76.1240794 114.9661448  30.7056934
  75.3408316 115.5083128  30.7995158  76.8233539 115.4835427  31.1051175
  79.4337444 100.7756077  33.3491139  79.9306144 100.0226039  33.0292210
  78.6624426 100.8120394  32.7834349  87.2867202 106.4796443  34.9909431
  87.2757078 107.3621158  34.6203364  86.4184581 106.1267994  34.7963968
  78.7949698 115.6276512  39.3512271  79.5077670 116.2623977  39.2788172
  78.3039727 115.7240378  38.5352273  80.5167225 109.5327764  30.9229563
  79.5823504 109.6529227  30.7534267  80.6943893 108.6300231  30.6589573
  76.0172413 102.9173460  33.0762824  75.6470200 102.3644501  33.7643729
  76.5131505 102.3131594  32.5237824  83.9039776 105.3745084  31.4579597
  84.3700228 106.2073075  31.3839899  84.3547277 104.9090065  32.1624855
  73.8461611 113.3770955  40.1717842  74.5471071 114.0107438  40.3247236
  73.3756726 113.7185687  39.4113481  81.9716007 111.7188905  28.4565749
  82.2475851 111.6045500  29.3659623  81.1020506 111.3206390  28.4177922
  81.8756439  97.7425671  35.4970498  80.9619519  97.9729898  35.6652705
  82.3049540  97.8264115  36.3484531  81.6462897 105.9315563  37.9970392
  80.9934348 106.1791470  37.3422845  82.0243277 105.1179701  37.6632869
  78.6070071 115.9675256  32.0998562  78.7892466 115.1496912  32.5626315
  79.4303057 116.1842948  31.6623452  78.9412237 114.8943441  29.3613611
  79.4700003 114.3835896  28.7483773  79.2040456 114.5785971  30.2259144
  77.6950470 106.6735374  44.4836429  77.0191107 106.5729503  45.1538804
  78.5178104 106.5174587  44.9472426  69.4429330 112.9107310  37.1048944
  70.0282766 112.1650998  37.2376849  69.2454168 113.2211267  37.9885608
  72.2967985 115.9458558  32.1211387  71.6278360 116.4304685  31.6375427
  72.1580854 116.1927778  33.0354765  64.0346984 105.4812910  35.8253388
  64.0731084 104.9476501  36.6190506  63.5287277 104.9548116  35.2064365
  76.4373253 117.9802301  38.7194045  76.9891561 118.1433923  39.4843130
  76.7779447 118.5706739  38.0474070  71.4137747 100.3277451  39.3215930
  71.4779073 101.1892282  38.9093328  71.3504867  99.7151453  38.5888288
  70.8890019 102.4000583  42.9688964  71.5162058 102.0177661  43.5826489
  70.0317938 102.1814785  43.3344657  81.2884128 112.8063559  44.5742700
  81.8324032 113.4193517  44.0797654  80.7070973 113.3643137  45.0909713
  67.6655562 104.2077013  28.9007319  67.9609003 103.2987691  28.8474373
  66.7643598 104.1864752  28.5788321  79.5741641 115.9284277  35.7057727
  79.4492780 115.1274017  35.1968673  80.2320732 116.4230470  35.2171697
  71.1949809 102.2833009  34.8834868  70.4736395 102.8968977  34.7442341
  71.9843065 102.8190774  34.8051514  81.6376549 113.7293297  37.3337277
  80.6906885 113.6098648  37.2615604  81.9859322 112.8415795  37.4163539
  73.9976122  99.6187436  41.1575519  74.5210524  99.8649732  41.9201829
  73.7788456 100.4507470  40.7378657  69.3943403 101.8891110  29.0246644
  69.0656110 101.0088489  28.8421750  69.7482774 101.8338779  29.9123033
  78.6422982 113.5246013  33.5341630  78.4947945 112.5962720  33.7149200
  79.4676476 113.5466104  33.0498705  72.5085227 102.1764080  29.3922122
  72.8481299 102.7050001  28.6700730  72.9557347 102.5144486  30.1680688
  82.2457104 114.3474572  34.6206502  83.1703652 114.1417433  34.4830954
  82.0772408 114.0990973  35.5295844  75.2028667 100.5601131  38.8425190
  74.8625488  99.7608944  39.2445870  74.4967674 100.8602842  38.2702023
  75.8545139  97.6450443  37.2952513  76.6771209  97.1710921  37.1731403
  76.0983203  98.4240927  37.7951199  74.4953374 100.6738702  27.5915415
  75.2161736 101.0519954  27.0879131  73.8718678 101.3927578  27.6950393
  78.6384497 101.3783851  28.5273747  78.8548111 102.2608488  28.2262575
  78.1578564 100.9870064  27.7979389  73.3783718 104.3369564  35.1044492
  73.2328299 104.6509867  35.9968773  72.9008922 104.9554464  34.5515390
  75.2380101 101.3272112  35.1525381  75.2241670 100.4313205  34.8157679
  75.9552529 101.3342776  35.7863667  77.0906232 101.7609452  37.1978509
  76.8324009 102.6826523  37.1962839  76.5591272 101.3639887  37.8878973
  82.0352420 114.8660239  29.9768594  82.2089298 114.3006662  29.2242446
  82.5281312 115.6661134  29.7948084  67.8529380 106.8774908  38.0432153
  67.3082848 107.6534716  38.1752427  68.7308730 107.2245713  37.8851274
  74.6416997 100.2086492  30.4212951  74.7632908  99.2803138  30.6203839
  74.3519039 100.2225178  29.5091267  77.5108187  97.8941403  33.5579671
  77.5329884  97.9580736  32.6031651  77.9276246  97.0545911  33.7520177
  87.8891812 107.6296662  31.5958894  88.3322958 106.8803987  31.1978017
  87.0118322 107.6206798  31.2132626  83.0227593 114.1827004  27.0765492
  83.7178497 114.8033696  27.2952807  83.3650743 113.3322355  27.3517870
  68.6395402 106.0044805  40.9362310  67.8977138 106.1527440  41.5226940
  68.3188146 106.2653070  40.0729059  84.9219016 111.6326709  28.6052823
  85.4470340 111.9713982  27.8802143  84.8341369 110.6973724  28.4215958
  76.5839065 115.5460783  40.7342700  76.8926191 115.3009929  41.6065399
  77.3814547 115.7507421  40.2461570  76.6059677 117.6998692  32.9648076
  76.1664667 117.2075071  33.6580933  77.3567794 117.1571660  32.7240151
  69.0852016 113.8910233  32.9672704  69.9110036 113.5914005  32.5871348
  68.7346068 113.1217856  33.4162493  74.0533549 113.2436701  35.0370378
  73.4313558 112.5807406  34.7372606  74.7238416 113.2697833  34.3544026
  67.2860621 111.8096560  33.9261638  66.4492529 111.3818734  33.7445639
  67.2584266 112.0029003  34.8632429  74.1258076 101.7218489  44.6302884
  74.1746232 102.5980612  44.2480653  74.6680591 101.1795883  44.0574527
  84.6112922 112.2659613  43.9104021  83.8208466 112.2483752  43.3708520
  84.3746277 112.8047906  44.6653058  84.7310797 109.1152079  41.2236749
  84.7808802 108.9502087  42.1652272  84.6224720 108.2479338  40.8334630
  73.6147056 111.7940625  28.5128838  73.7635176 112.4776089  27.8595511
  74.4213499 111.7745715  29.0278294  82.0214559 105.0983007  42.5396056
  82.9224422 104.9589472  42.2480054  82.0962534 105.2637462  43.4794234
  76.3557365 102.4749862  41.3849242  75.4860674 102.7683428  41.1131831
  76.5916845 103.0590307  42.1056506  86.2328994 111.5349021  41.4678771
  85.9413802 111.8979001  42.3042232  85.6201125 110.8216029  41.2892103
  87.4324676 109.1001900  33.9881341  88.2671568 109.5391704  34.1518902
  87.5683805 108.6240554  33.1689587  84.4816182 106.6581635  39.9358829
  84.9570304 106.8509282  39.1277680  83.5581748 106.7140821  39.6902213
  71.3699689 107.8205802  29.5189907  71.1245731 106.9168132  29.7170117
  71.5395603 107.8222953  28.5769385  79.0596399  98.6929479  38.9014663
  79.5778342  99.4290506  38.5761151  78.7051531  98.9993472  39.7361422
  70.6395336 103.5534160  27.0176069  69.9464581 103.6278515  26.3616105
  70.3947088 102.7894504  27.5397586  79.3108993  95.1129761  34.4215559
  79.5910747  94.4452950  35.0475986  80.0959600  95.3058857  33.9090223
  77.1142461 114.2888755  25.9840586  76.5416428 114.9078942  25.5311058
  77.6875255 114.8388117  26.5180508  83.1817851 103.5347395  38.1687135
  84.1335274 103.6345493  38.1899359  83.0121302 102.7425664  38.6785219
  81.2032231 100.6202979  38.3546536  80.6082163 100.9007991  37.6593024
  80.9181927 101.1096879  39.1263277  80.3339721 114.5725905  27.1149168
  81.2670394 114.5071467  27.3182044  80.2462934 115.4082172  26.6563701
  85.6605929 106.7553515  37.2829434  85.6282249 105.8169516  37.4689118
  86.2706553 106.8337552  36.5495259  77.4989260 105.6249568  23.3256638
  78.4448365 105.4955776  23.3945056  77.1203505 104.8864230  23.8026066
  85.8100417 103.5464558  37.3287717  85.2939466 102.7623015  37.1417646
  86.6940366 103.2183275  37.4934237  83.4711144  97.2905574  33.2883530
  83.2735965  96.9820662  34.1726862  84.0810850  98.0167213  33.4181460
  91.4782479 107.8169522  36.4235471  92.2085867 107.5554810  36.9843174
  90.8689424 107.0798244  36.4637539  89.5597776 105.9577384  37.0209922
  88.8330939 105.8233349  36.4126414  89.1445063 106.2654213  37.8266640
  77.3827952 109.6767314  44.7857295  78.3030962 109.8545913  44.9797342
  77.3477535 108.7323359  44.6336995  75.6832177 103.5499544  23.2611524
  74.7763632 103.2532657  23.3374237  75.9608158 103.2529362  22.3945810
  66.6010117 104.8705908  33.7110570  66.2812902 104.0171216  33.4184944
  66.0543546 105.0854486  34.4668537  70.3790025 107.5868349  37.4280076
  70.5976035 108.5185457  37.4468110  70.7915799 107.2276323  38.2134880
  77.2994243  98.0936434  29.4155765  76.4894971  97.7483519  29.7911011
  77.9878660  97.7843978  30.0043376  79.2284791  97.1714481  31.0380061
  79.7815830  97.5909934  31.6970085  79.4654877  96.2450229  31.0803017
  75.2517890 103.1601555  46.8182825  75.1514617 104.1095911  46.7494916
  75.0339432 102.8319793  45.9458895  74.4530962 100.4086480  23.4023503
  75.3150126 100.7341378  23.6619320  74.6381306  99.6217975  22.8896569
  66.4698377 108.4908819  35.6803691  65.7761849 108.0762772  35.1673646
  67.2171368 108.5329356  35.0837110  82.6063598  99.2815006  30.5458726
  82.0262267  99.9399810  30.1636778  82.3399531  98.4592351  30.1346143
  81.0567164  98.6820064  32.7480046  81.5566943  98.7936598  31.9394365
  81.7002772  98.3781117  33.3880854  75.1149160 106.5898693  45.6347887
  74.6316242 107.3899053  45.8411776  75.2010099 106.6006638  44.6815331
  68.3835120 108.4227073  33.5569706  68.3605808 108.5214760  32.6051589
  68.6935756 109.2692224  33.8786873  71.0422498 110.4803228  37.6716321
  71.9965751 110.4487170  37.6046252  70.8435021 110.0193852  38.4866547
  71.6321880 109.0504344  40.2387118  72.4514769 109.5448423  40.2621956
  71.9058688 108.1336312  40.2104686  81.3888476 101.4415096  29.6015074
  80.5014331 101.7264747  29.3835269  81.8042465 101.2808860  28.7542351
  84.7403012 101.4661617  33.3169413  85.5163402 101.9558070  33.5894030
  84.0151146 101.8919672  33.7741283  87.1775571 102.1789237  34.3743354
  87.7720062 101.9384973  33.6636662  87.2502155 101.4596367  35.0016890
  69.3972727 116.0222848  34.6886519  69.2627194 115.2623248  34.1224517
  68.9804789 116.7463747  34.2215308  81.3629500 106.9569632  29.8165364
  81.3064701 107.4138184  28.9772997  81.9157842 106.1960317  29.6388207
  85.1734306 102.7459364  30.6415484  84.9171240 102.3456000  31.4723691
  84.5487174 103.4603158  30.5165623  89.4846644 105.4855437  33.1486775
  88.9246202 105.5548627  33.9218337  88.8790147 105.3096422  32.4286271
  72.5541852 116.9192165  34.9004961  72.4374237 117.8637597  34.7983652
  71.7334299 116.6165726  35.2890761  82.4418387 111.6442300  25.7461554
  83.2763991 111.2123499  25.5639029  82.2802730 111.4724314  26.6738448
  82.0964279 108.1474414  27.1117893  82.0413083 107.9818685  26.1706337
  81.4710334 108.8550447  27.2680083  66.8856794 103.3842478  40.9379316
  67.5315658 102.8741432  41.4266541  66.6773945 104.1211160  41.5122741
  79.4110186 110.4523325  46.4371456  80.2801346 110.6263978  46.0758091
  78.9316938 111.2717742  46.3147185  75.4060405  97.6482523  26.6903212
  75.3939074  98.5924363  26.8471483  76.2983826  97.4652668  26.3962673
  73.5796367 117.5720426  38.1160890  74.4823613 117.6044037  38.4327385
  73.3533737 116.6420877  38.1307226  75.3349969 116.3251413  34.7770968
  74.3845600 116.3253275  34.6635341  75.6382455 115.5784148  34.2607003
  79.2212524  94.2425299  30.9449149  78.4544920  93.6883786  31.0905831
  79.6323229  94.3147168  31.8063300  71.2254285 100.5310095  45.0354330
  72.0885747 100.1746900  45.2457654  70.6519696 100.1923990  45.7229734
  91.0702662 122.1611951  35.8416731  91.7081072 122.0418699  35.1380071
  90.9523505 123.1092795  35.9004683  87.8792368 122.1139380  35.7778255
  87.5410880 121.9980444  34.8898790  88.7482136 121.7130545  35.7579262
  88.3612151 123.2674231  41.7364461  88.3500792 122.8727030  40.8644965
  88.5232791 122.5340304  42.3298232  81.2843616 125.4626048  34.6059367
  82.0764908 125.1216872  34.1905666  81.5240266 125.5721023  35.5261520
  85.0819412 126.0511343  40.6843645  84.7909278 126.9556974  40.5690311
  85.7176397 126.0927871  41.3987715  86.0075619 123.4288192  37.2745005
  86.6039192 123.2044214  36.5601968  86.0650591 122.6872937  37.8770452
  93.5477778 113.5360213  38.2797526  93.2161103 114.4055624  38.0558741
  92.9523391 113.2196497  38.9591556  83.4921779 122.1886555  33.7130143
  82.5672275 122.0562770  33.9207835  83.7406192 122.9680775  34.2100085
  93.4406441 118.2555299  35.3590876  92.5323319 118.1870707  35.0649637
  93.3894037 118.7327244  36.1872701  80.8530590 121.8319829  34.5473932
  80.9822971 122.0854308  35.4613344  80.1728041 122.4247537  34.2278587
  87.5147307 119.6744944  43.3025773  86.7380641 120.2338864  43.2928638
  88.1537870 120.1601727  43.8240643  95.3068088 116.4571737  37.1368750
  94.6642468 116.7504270  36.4908544  94.8023016 116.3424657  37.9421947
  85.7693679 122.4830398  42.8643740  86.5108364 123.0215442  42.5878564
  85.0630665 123.1096686  43.0215292  91.2449019 124.6259538  41.4615902
  91.6532375 124.1841949  40.7170534  90.5226281 124.0512166  41.7150095
  87.5980089 119.5632145  38.8349459  88.4441284 119.9871558  38.9784108
  87.5378727 118.9065769  39.5288022  90.7479534 117.2236513  40.4930632
  90.5040466 117.9778574  39.9564908  91.0239465 117.6021861  41.3277879
  90.3044226 116.3792946  36.0744470  89.4428705 116.6774200  36.3661208
  90.3306661 116.5963345  35.1425503  84.0129877 124.4706618  35.4198039
  84.5831234 124.8993887  34.7815523  84.6037988 124.1889203  36.1182225
  84.5055043 119.6370046  43.6659050  83.8753704 120.3186327  43.8994447
  84.3991131 119.5253127  42.7212188  79.8000016 119.3041842  34.5924974
  79.0099070 119.5599370  34.1165085  80.2911263 120.1190180  34.6977015
  81.7514761 119.6686421  31.5508451  80.9545924 119.7805115  32.0691947
  81.5240353 120.0073073  30.6849342  87.5820429 126.1931124  39.4990966
  87.6464861 126.6551532  40.3349138  86.8731352 125.5628489  39.6273276
  78.0837719 119.5572332  37.0239965  78.3345757 120.4419342  37.2897541
  78.6197267 119.3776934  36.2515057  83.7835786 113.9390812  46.0284301
  83.3902731 113.3857010  46.7031946  84.6001926 114.2501390  46.4190819
  86.7003747 115.3548691  43.6204558  87.4413460 115.9555844  43.5409020
  86.9321670 114.6126329  43.0622600  81.8445085 120.5405058  41.8982788
  81.7298600 119.6390315  42.1989886  80.9889603 120.7868755  41.5467604
  83.6824044 130.0118600  38.0230967  84.2331469 129.8835663  37.2507961
  82.8435520 130.3113489  37.6725859  87.4791215 126.2769728  42.3675198
  88.0119552 125.5158016  42.1374506  86.9505296 125.9843380  43.1099352
  90.6460910 111.3829794  37.8968840  90.3025179 112.2731435  37.8207950
  91.0139872 111.1931451  37.0338425  88.1958304 116.2188106  31.4626513
  87.3399900 115.8294956  31.2832152  88.6085255 116.2980066  30.6026299
  89.7257450 113.7534449  35.8618073  89.2222246 113.7164584  35.0485878
  90.0188057 114.6627192  35.9214729  85.9700336 113.8373179  34.8684255
  86.8353333 113.6415987  34.5090144  86.0377845 113.6083530  35.7953611
  83.5762655 116.0675387  32.2400621  84.1506407 115.8450568  31.5073814
  84.1633638 116.1364081  32.9929223  85.8785323 112.9416635  30.9675691
  85.2249735 112.6265653  30.3432306  85.8365797 112.3192376  31.6935514
  89.1123063 119.4298569  35.2923338  88.1945625 119.6513516  35.1345026
  89.5283207 119.5044879  34.4335046  92.4448575 110.6423353  32.9986577
  92.7507452 109.7820716  32.7112492  93.1701180 111.2340973  32.7985571
  78.7372932 121.0454040  31.3868175  78.5397331 120.4523400  30.6619242
  78.1819596 120.7406250  32.1044114  86.7169655 120.9377146  33.5062768
  86.7718265 119.9850982  33.4305245  85.9060857 121.0936585  33.9904067
  84.6562015 119.5554206  31.2653147  83.8429881 119.8548376  31.6718339
  85.1521009 119.1609895  31.9827629  90.2536227 120.0196030  40.0968041
  90.6085615 120.2467503  40.9562507  90.9008358 120.3514407  39.4745296
  84.1476090 117.1272561  36.8814382  84.7875469 116.9861320  36.1837345
  83.3153620 116.8407075  36.5052984  81.1504706 117.0972886  31.6587369
  81.4111524 118.0118220  31.5496529  81.9721879 116.6297329  31.8083982
  82.6229632 118.5110643  38.8286193  83.2952685 118.3028006  38.1798842
  81.7959418 118.3132729  38.3891426  88.5255204 115.1372584  40.8451854
  87.8783119 115.8362534  40.7516331  89.2956219 115.5708728  41.2128103
  88.7019338 122.9753349  38.9048674  89.6311398 123.1264509  38.7317641
  88.2810368 123.0637370  38.0497321  87.5007670 127.0004014  36.6747212
  87.3618755 126.6322798  37.5473150  86.7122266 127.5151653  36.5031169
  83.0257129 121.7853246  39.5888631  82.8876927 121.0533485  40.1900170
  83.9362052 121.6962147  39.3072818  85.6539430 121.4973206  39.0772310
  86.3639048 120.8566398  39.0358929  85.6108738 121.7486101  39.9998491
  84.3668364 118.4838424  40.8967950  83.8305721 118.0329162  41.5489546
  83.7785072 118.6184332  40.1538414  75.2972763 122.7304235  33.5535921
  75.9843802 122.4165965  32.9656936  75.1420891 123.6345599  33.2803172
  80.1007485 117.6194431  37.9820944  80.0165674 117.0120101  37.2471354
  79.2790191 118.1103450  37.9830441  90.2731199 116.1047995  33.3491139
  90.7699898 115.3517957  33.0292210  89.5018180 116.1412312  32.7834349
  86.8566167 118.2465378  33.0762824  86.4863955 117.6936418  33.7643729
  87.3525260 117.6423511  32.5237824  84.6855366 128.7062873  40.1717842
  85.3864825 129.3399356  40.3247236  84.2150481 129.0477604  39.4113481
  92.7150193 113.0717588  35.4970498  91.8013273 113.3021815  35.6652705
  93.1443295 113.1556032  36.3484531  92.4856652 121.2607480  37.9970392
  91.8328102 121.5083388  37.3422845  92.8637032 120.4471618  37.6632869
  88.5344225 122.0027291  44.4836429  87.8584862 121.9021421  45.1538804
  89.3571859 121.8466505  44.9472426  80.2823084 128.2399228  37.1048944
  80.8676521 127.4942916  37.2376849  80.0847922 128.5503185  37.9885608
  74.8740739 120.8104828  35.8253388  74.9124838 120.2768419  36.6190506
  74.3681032 120.2840034  35.2064365  82.2531501 115.6569369  39.3215930
  82.3172828 116.5184200  38.9093328  82.1898621 115.0443370  38.5888288
  81.7283774 117.7292501  42.9688964  82.3555812 117.3469578  43.5826489
  80.8711692 117.5106703  43.3344657  78.5049316 119.5368930  28.9007319
  78.8002757 118.6279609  28.8474373  77.6037352 119.5156670  28.5788321
  82.0343563 117.6124927  34.8834868  81.3130149 118.2260895  34.7442341
  82.8236819 118.1482692  34.8051514  84.8369877 114.9479353  41.1575519
  85.3604279 115.1941650  41.9201829  84.6182210 115.7799388  40.7378657
  80.2337158 117.2183028  29.0246644  79.9049864 116.3380407  28.8421750
  80.5876529 117.1630697  29.9123033  86.0422422 115.8893048  38.8425190
  85.7019242 115.0900862  39.2445870  85.3361428 116.1894759  38.2702023
  86.6938894 112.9742361  37.2952513  87.5164963 112.5002839  37.1731403
  86.9376957 113.7532845  37.7951199  84.2177472 119.6661482  35.1044492
  84.0722053 119.9801785  35.9968773  83.7402676 120.2846382  34.5515390
  86.0773855 116.6564030  35.1525381  86.0635424 115.7605123  34.8157679
  86.7946283 116.6634693  35.7863667  87.9299986 117.0901370  37.1978509
  87.6717764 118.0118440  37.1962839  87.3985026 116.6931804  37.8878973
  78.6923135 122.2066826  38.0432153  78.1476603 122.9826634  38.1752427
  79.5702485 122.5537630  37.8851274  85.4810751 115.5378410  30.4212951
  85.6026662 114.6095056  30.6203839  85.1912794 115.5517096  29.5091267
  88.3501942 113.2233320  33.5579671  88.3723639 113.2872653  32.6031651
  88.7670001 112.3837829  33.7520177  79.4789157 121.3336722  40.9362310
  78.7370893 121.4819358  41.5226940  79.1581901 121.5944988  40.0729059
  78.1254375 127.1388477  33.9261638  77.2886284 126.7110652  33.7445639
  78.0978021 127.3320921  34.8632429  84.9651831 117.0510407  44.6302884
  85.0139986 117.9272530  44.2480653  85.5074345 116.5087800  44.0574527
  92.8608314 120.4274925  42.5396056  93.7618177 120.2881390  42.2480054
  92.9356288 120.5929380  43.4794234  87.1951119 117.8041780  41.3849242
  86.3254429 118.0975346  41.1131831  87.4310600 118.3882225  42.1056506
  89.8990153 114.0221396  38.9014663  90.4172097 114.7582423  38.5761151
  89.5445286 114.3285390  39.7361422  90.1502747 110.4421679  34.4215559
  90.4304501 109.7744868  35.0475986  90.9353354 110.6350775  33.9090223
  94.0211606 118.8639313  38.1687135  94.9729029 118.9637411  38.1899359
  93.8515056 118.0717582  38.6785219  92.0425985 115.9494896  38.3546536
  91.4475917 116.2299909  37.6593024  91.7575682 116.4388797  39.1263277
  96.6494172 118.8756476  37.3287717  96.1333221 118.0914933  37.1417646
  97.5334120 118.5475193  37.4934237  94.3104899 112.6197492  33.2883530
  94.1129720 112.3112580  34.1726862  94.9204604 113.3459131  33.4181460
  88.2221707 125.0059232  44.7857295  89.1424716 125.1837831  44.9797342
  88.1871290 124.0615277  44.6336995  77.4403872 120.1997825  33.7110570
  77.1206656 119.3463134  33.4184944  76.8937300 120.4146404  34.4668537
  81.2183779 122.9160266  37.4280076  81.4369789 123.8477374  37.4468110
  81.6309553 122.5568241  38.2134880  88.1387997 113.4228352  29.4155765
  87.3288725 113.0775437  29.7911011  88.8272414 113.1135896  30.0043376
  90.0678545 112.5006399  31.0380061  90.6209584 112.9201852  31.6970085
  90.3048632 111.5742147  31.0803017  86.0911645 118.4893472  46.8182825
  85.9908372 119.4387829  46.7494916  85.8733187 118.1611711  45.9458895
  77.3092132 123.8200737  35.6803691  76.6155603 123.4054690  35.1673646
  78.0565123 123.8621273  35.0837110  91.8960919 114.0111981  32.7480046
  92.3960697 114.1228516  31.9394365  92.5396527 113.7073034  33.3880854
  85.9542915 121.9190611  45.6347887  85.4709996 122.7190971  45.8411776
  86.0403854 121.9298556  44.6815331  79.2228874 123.7518991  33.5569706
  79.1999562 123.8506678  32.6051589  79.5329511 124.5984142  33.8786873
  81.8816252 125.8095146  37.6716321  82.8359506 125.7779088  37.6046252
  81.6828776 125.3485769  38.4866547  82.4715634 124.3796262  40.2387118
  83.2908523 124.8740340  40.2621956  82.7452442 123.4628230  40.2104686
  77.7250549 118.7134396  40.9379316  78.3709412 118.2033350  41.4266541
  77.5167700 119.4503077  41.5122741  90.0606279 109.5717217  30.9449149
  89.2938674 109.0175704  31.0905831  90.4716983 109.6439086  31.8063300
  82.0648040 115.8602013  45.0354330  82.9279501 115.5038818  45.2457654
  81.4913450 115.5215908  45.7229734  28.6063683  13.4651176  28.7224196
  28.5476229  12.7810396  28.0554779  29.0083201  14.2070166  28.2704822
  27.0915356  13.1666093  31.2988006  27.6355260  13.7796051  30.8042961
  26.5102201  13.7245671  31.8155019  30.4144151  12.6262147  30.6349328
  29.6239695  12.6086286  30.0953827  30.1777505  13.1650441  31.3898364
  32.0360223  11.8951555  28.1924078  31.7445031  12.2581535  29.0287539
  31.4232354  11.1818563  28.0137410  25.2141415  10.8125860  33.1616763
  26.0832575  10.9866512  32.8003398  24.7348167  11.6320277  33.0392492
  36.8733891  22.5214486  22.5662037  37.5112301  22.4021233  21.8625377
  36.7554734  23.4695330  22.6249990  33.6823597  22.4741914  22.5023562
  33.3442109  22.3582978  21.6144097  34.5513365  22.0733079  22.4824568
  34.1643380  23.6276765  28.4609768  34.1532021  23.2329564  27.5890271
  34.3264020  22.8942838  29.0543539  27.0874845  25.8228582  21.3304673
  27.8796137  25.4819406  20.9150973  27.3271495  25.9323557  22.2506827
  30.8850641  26.4113877  27.4088952  30.5940507  27.3159508  27.2935618
  31.5207626  26.4530405  28.1233021  31.8106848  23.7890726  23.9990311
  32.4070420  23.5646748  23.2847274  31.8681820  23.0475471  24.6015759
  41.8283586  20.1841173  20.5448224  42.5608758  19.6140389  20.7786053
  41.0722942  19.7962773  20.9854730  39.3509007  13.8962747  25.0042833
  39.0192332  14.7658158  24.7804048  38.7554620  13.5799031  25.6836863
  35.8440526  26.0975293  24.4038745  35.5441249  27.0000332  24.2954553
  35.4991586  25.8307476  25.2559898  39.2437670  18.6157833  22.0836183
  38.3354547  18.5473241  21.7894944  39.1925266  19.0929778  22.9118008
  30.8261306  32.8619613  17.3709713  30.7485336  33.8127438  17.4498194
  30.2222950  32.5165486  18.0284639  33.3178536  20.0347479  30.0271080
  32.5411870  20.5941399  30.0173945  33.9569099  20.5204262  30.5485950
  41.1099317  16.8174271  23.8614057  40.4673697  17.1106805  23.2153851
  40.6054245  16.7027192  24.6667253  31.5724908  22.8432932  29.5889047
  32.3139593  23.3817976  29.3123870  30.8661894  23.4699221  29.7460599
  37.0480248  24.9862072  28.1861208  37.4563604  24.5444483  27.4415841
  36.3257509  24.4114700  28.4395401  33.4011318  19.9234679  25.5594765
  34.2472513  20.3474093  25.7029414  33.3409956  19.2668303  26.2533328
  37.3709062  25.5463263  21.9413497  36.7417925  25.7108977  21.2389565
  36.9834725  25.9604873  22.7124461  41.2498294  26.4817701  19.2957861
  40.5649333  26.8616602  18.7454894  41.3342144  27.0913028  20.0289809
  36.5510763  17.5839048  27.2175939  36.3071695  18.3381108  26.6810215
  36.8270694  17.9624395  28.0523186  38.5049226  24.1277660  25.8953205
  38.7166121  24.7709420  25.2187586  38.4578974  23.2939976  25.4275135
  29.8161105  24.8309153  22.1443346  30.3862462  25.2596421  21.5060830
  30.4069217  24.5491737  22.8427531  30.3086272  19.9972580  30.3904357
  29.6784933  20.6788861  30.6239754  30.2022360  19.8855662  29.4457495
  39.6195054  27.0049615  24.0675562  40.4412498  26.6029803  23.7858244
  39.6157457  26.9017849  25.0191678  33.3851657  26.5533659  26.2236272
  33.4496090  27.0154066  27.0594444  32.6762581  25.9231024  26.3518582
  47.7101047  23.3488364  20.4160533  46.9564755  22.7795762  20.2604538
  47.8448588  23.3151028  21.3631168  29.5867015  14.2993346  32.7529608
  29.1933960  13.7459544  33.4277252  30.4033155  14.6103924  33.1436125
  28.3623957  28.8542960  18.7465931  28.5390585  29.7760925  18.5586915
  29.1580791  28.5401380  19.1760311  32.5034976  15.7151225  30.3449864
  33.2444689  16.3158378  30.2654327  32.7352898  14.9728863  29.7867907
  27.6476314  20.9007592  28.6228094  27.5329829  19.9992850  28.9235193
  26.7920831  21.1471289  28.2712911  34.7268151  28.8425333  30.2215595
  34.2832006  28.0561711  29.9036499  35.3885365  29.0304483  29.5559486
  29.4855273  30.3721134  24.7476273  30.0362698  30.2438198  23.9753267
  28.6466749  30.6716023  24.3971166  36.8249389  29.1228133  28.2496996
  36.8067865  29.9437014  27.7577265  37.7469310  28.9982208  28.4747137
  33.2822444  26.6372262  29.0920504  33.8150780  25.8760550  28.8619812
  32.7536525  26.3445914  29.8344659  39.6268002  23.9607275  21.7206363
  38.9691677  24.6506536  21.8086491  40.4308402  24.3503707  22.0640349
  38.4373461  22.3151648  19.7710304  38.9505343  22.9481640  20.2732014
  39.0874685  21.7152843  19.4053665  34.9154292  19.7901103  22.0168645
  33.9976853  20.0116050  21.8590333  35.3314436  19.8647414  21.1580352
  39.2035257  27.2957649  17.8989447  38.7497584  26.4548559  17.9554638
  38.5729224  27.9319047  18.2364227  37.6468197  29.1334146  18.8339265
  37.9391171  29.6939203  18.1151631  38.1566817  29.4262707  19.5892424
  32.6101822  29.9114497  19.9232718  32.5678001  30.1375343  18.9941250
  33.5264521  29.6777871  20.0718520  36.0567456  20.3798564  26.8213348
  36.4116843  20.6070038  27.6807813  36.7039587  20.7116941  26.1990603
  41.7865193  23.5017000  17.5262677  41.6483091  23.6918596  16.5983866
  41.4301411  24.2636383  17.9830728  41.8134572  25.5693527  22.5373948
  42.2471079  25.4768816  23.3857002  42.5266153  25.5451028  21.8993964
  35.5462467  29.1695621  24.0707049  35.5999489  29.7386558  24.8384765
  34.6777248  29.3397506  23.7061086  28.4260860  18.8713178  25.5531500
  29.0983914  18.6630540  24.9044149  27.5990647  18.6735264  25.1136732
  42.6750122  25.6117228  25.0706834  42.8686012  26.5163038  25.3166109
  42.5750740  25.1524647  25.9045419  34.3286432  15.4975119  27.5697161
  33.6814347  16.1965068  27.4761637  35.0987448  15.9311262  27.9373409
  37.7365230  25.7623971  30.6447714  37.5850737  25.5334522  29.7277798
  37.7269910  26.7194572  30.6579059  34.5050567  23.3355883  25.6293981
  35.4342627  23.4867043  25.4562948  34.0841597  23.4239904  24.7742627
  33.3038899  27.3606548  23.3992518  33.1649984  26.9925332  24.2718456
  32.5153495  27.8754187  23.2276476  33.8987051  32.4615644  14.7418055
  34.0738806  31.9903688  15.5563677  33.2119839  33.0881411  14.9699316
  34.8544114  26.7388151  20.7881356  34.5193946  26.6988921  21.6839006
  34.3548059  26.0732867  20.3151766  28.8288358  22.1455781  26.3133937
  28.6908156  21.4136019  26.9145476  29.7393281  22.0564681  26.0318125
  31.4570658  21.8575740  25.8017617  32.1670277  21.2168932  25.7604235
  31.4139967  22.1088635  26.7243798  39.4457437  28.7943093  28.7224196
  39.3869983  28.1102313  28.0554779  39.8476955  29.5362083  28.2704822
  30.1699592  18.8440958  27.6213256  29.6336949  18.3931696  28.2734853
  29.5816301  18.9786867  26.8783721  28.4648136  35.6105007  21.5157915
  28.7044734  36.2423531  22.1936934  27.6217332  35.2593047  21.8023274
  39.4474844  26.7582677  26.9538176  38.5601623  26.4208599  27.0764575
  40.0173395  26.0265708  27.1906941  32.9775998  31.4184130  23.9199419
  32.9046169  32.2239101  24.4318724  32.5353391  31.6176095  23.0947440
  32.7665777  30.6555900  17.4302241  31.9833299  31.1977580  17.5240465
  33.4658523  31.1729879  17.8296482  43.9292185  22.1690895  21.7154737
  43.9182061  23.0515610  21.3448671  43.0609564  21.8162445  21.5209274
  35.4374681  31.3170964  26.0757578  36.1502653  31.9518428  26.0033479
  34.9464710  31.4134830  25.2597579  30.4886595  29.0665407  26.8963148
  31.1896054  29.7001890  27.0492543  30.0181710  29.4080139  26.1358788
  38.2887881  21.6210015  24.7215699  37.6359331  21.8685922  24.0668152
  38.6668261  20.8074153  24.3878176  35.2495055  31.6569708  18.8243869
  35.4317449  30.8391364  19.2871621  36.0728041  31.8737400  18.3868759
  35.5837220  30.5837893  16.0858918  36.1124987  30.0730347  15.4729080
  35.8465440  30.2680423  16.9504451  34.3375454  22.3629826  31.2081736
  33.6616091  22.2623955  31.8784111  35.1603088  22.2069039  31.6717733
  26.0854313  28.6001762  23.8294251  26.6707750  27.8545450  23.9622155
  25.8879151  28.9105719  24.7130915  28.9392968  31.6353010  18.8456694
  28.2703343  32.1199137  18.3620734  28.8005838  31.8822230  19.7600072
  33.0798237  33.6696753  25.4439352  33.6316545  33.8328375  26.2088437
  33.4204430  34.2601191  24.7719377  27.5315002  18.0895035  29.6934271
  28.1587041  17.7072113  30.3071795  26.6742921  17.8709237  30.0589963
  37.9309111  28.4958011  31.2988006  38.4749015  29.1087969  30.8042961
  37.3495956  29.0537589  31.8155019  36.2166624  31.6178729  22.4303034
  36.0917763  30.8168468  21.9213980  36.8745715  32.1124922  21.9417004
  38.2801532  29.4187749  24.0582584  37.3331868  29.2993100  23.9860911
  38.6284305  28.5310247  24.1408846  30.6401106  15.3081888  27.8820826
  31.1635507  15.5544184  28.6447135  30.4213439  16.1401922  27.4623963
  35.2847966  29.2140465  20.2586936  35.1372928  28.2857172  20.4394506
  36.1101459  29.2360556  19.7744012  38.8882087  30.0369024  21.3451809
  39.8128635  29.8311885  21.2076260  38.7197391  29.7885425  22.2541151
  31.8453651  16.2495583  25.5670497  31.5050471  15.4503396  25.9691176
  31.1392657  16.5497294  24.9947330  33.7331215  17.4503904  23.9223815
  33.4748993  18.3720975  23.9208146  33.2016255  17.0534338  24.6124279
  38.6777404  30.5554691  16.7013901  38.8514281  29.9901114  15.9487753
  39.1706295  31.3555586  16.5193391  24.4954363  22.5669360  24.7677459
  23.9507832  23.3429168  24.8997734  25.3733713  22.9140165  24.6096581
  44.5316795  23.3191114  18.3204200  44.9747941  22.5698439  17.9223324
  43.6543305  23.3101250  17.9377932  39.6652576  29.8721455  13.8010799
  40.3603481  30.4928148  14.0198113  40.0075726  29.0216807  14.0763177
  25.2820385  21.6939256  27.6607616  24.5402121  21.8421892  28.2472247
  24.9613130  21.9547522  26.7974366  41.5643999  27.3221161  15.3298130
  42.0895323  27.6608434  14.6047450  41.4766352  26.3868176  15.1461264
  33.2264048  31.2355235  27.4588006  33.5351174  30.9904381  28.3310706
  34.0239530  31.4401873  26.9706876  33.2484660  33.3893144  19.6893383
  32.8089650  32.8969523  20.3826240  33.9992777  32.8466112  19.4485458
  25.7276999  29.5804685  19.6918011  26.5535019  29.2808457  19.3116654
  25.3771051  28.8112308  20.1407800  30.6958532  28.9331153  21.7615684
  30.0738541  28.2701858  21.4617912  31.3663399  28.9592285  21.0789332
  30.7683060  17.4112941  31.3548191  30.8171215  18.2875064  30.9725960
  31.3105574  16.8690334  30.7819834  41.2537905  27.9554065  30.6349328
  40.4633449  27.9378203  30.0953827  41.0171260  28.4942358  31.3898364
  41.3735780  24.8046531  27.9482056  41.4233785  24.6396538  28.8897579
  41.2649704  23.9373790  27.5579937  38.6639543  20.7877459  29.2641363
  39.5649406  20.6483924  28.9725361  38.7387517  20.9531914  30.2039540
  32.9982348  18.1644314  28.1094549  32.1285657  18.4577880  27.8377138
  33.2341828  18.7484759  28.8301813  42.8753977  27.2243472  28.1924078
  42.5838786  27.5873453  29.0287539  42.2626108  26.5110481  28.0137410
  44.0749660  24.7896352  20.7126648  44.9096551  25.2286156  20.8764208
  44.2108788  24.3135005  19.8934894  41.1241165  22.3476087  26.6604136
  41.5995287  22.5403733  25.8522987  40.2006731  22.4035273  26.4147519
  35.7021382  14.3823931  25.6259970  36.2203326  15.1184958  25.3006458
  35.3476515  14.6887924  26.4606729  39.8242834  19.2241847  24.8932441
  40.7760257  19.3239945  24.9144665  39.6546285  18.4320116  25.4030526
  37.8457214  16.3097430  25.0791842  37.2507146  16.5902443  24.3838331
  37.5606911  16.7991331  25.8508583  42.3030912  22.4447967  24.0074741
  42.2707232  21.5063968  24.1934425  42.9131536  22.5232004  23.2740566
  42.4525401  19.2359010  24.0533024  41.9364449  18.4517467  23.8662953
  43.3365349  18.9077727  24.2179544  48.1207462  23.5063974  23.1480778
  48.8510851  23.2449262  23.7088481  47.5114408  22.7692696  23.1882846
  46.2022759  21.6471836  23.7455229  45.4755923  21.5127801  23.1371720
  45.7870046  21.9548665  24.5511947  34.0252936  25.3661766  31.5102602
  34.9455945  25.5440365  31.7042648  33.9902519  24.4217811  31.3582301
  27.0215008  23.2762801  24.1525383  27.2401018  24.2079908  24.1713417
  27.4340782  22.9170775  24.9380187  31.8942873  18.8496006  33.5428132
  31.7939600  19.7990363  33.4740223  31.6764416  18.5214245  32.6704202
  31.7574144  22.2793145  32.3593194  31.2741225  23.0793505  32.5657083
  31.8435083  22.2901090  31.4060638  27.6847481  26.1697680  24.3961627
  28.6390735  26.1381622  24.3291559  27.4860005  25.7088304  25.2111853
  28.2746863  24.7398796  26.9632425  29.0939752  25.2342875  26.9867262
  28.5483671  23.8230764  26.9349993  43.8200554  17.8683689  21.0988660
  44.4145045  17.6279424  20.3881969  43.8927138  17.1490819  21.7262197
  26.0397710  31.7117299  21.4131825  25.9052178  30.9517700  20.8469823
  25.6229772  32.4358199  20.9460614  46.1271627  21.1749889  19.8732082
  45.5671185  21.2443079  20.6463644  45.5215130  20.9990874  19.1531578
  29.1966836  32.6086616  21.6250268  29.0799220  33.5532049  21.5228958
  28.3759282  32.3060178  22.0136067  23.5281777  19.0736930  27.6624622
  24.1740641  18.5635884  28.1511847  23.3198929  19.8105612  28.2368047
  36.0535170  26.1417777  33.1616763  36.9226329  26.3158430  32.8003398
  35.5741921  26.9612194  33.0392492  30.2221350  33.2614878  24.8406196
  31.1248597  33.2938489  25.1572691  29.9958720  32.3315329  24.8552532
  31.9774952  32.0145865  21.5016275  31.0270583  32.0147727  21.3880647
  32.2807438  31.2678599  20.9852310  27.8679268  16.2204547  31.7599636
  28.7310730  15.8641352  31.9702961  27.2944679  15.8818442  32.4475041
  47.7127645  37.8506403  22.5662037  48.3506055  37.7313151  21.8625377
  47.5948488  38.7987247  22.6249990  44.5217352  37.8033831  22.5023562
  44.1835863  37.6874896  21.6144097  45.3907120  37.4024997  22.4824568
  40.3804167  39.6569308  18.4920453  39.8169032  39.5659245  17.7236741
  40.2656562  38.8369212  18.9722946  45.0037135  38.9568683  28.4609768
  44.9925775  38.5621481  27.5890271  45.1657774  38.2234756  29.0543539
  37.9268599  41.1520499  21.3304673  38.7189891  40.8111324  20.9150973
  38.1665249  41.2615474  22.2506827  45.9603726  43.3240276  13.8034918
  45.3091706  43.9094356  13.4168932  46.7548089  43.8546470  13.8629955
  39.8859353  40.4129413  14.2022052  40.6590229  39.8658400  14.0634928
  40.2384752  41.2773662  14.4136514  41.7244396  41.7405795  27.4088952
  41.4334262  42.6451426  27.2935618  42.3601380  41.7822323  28.1233021
  42.6500603  39.1182643  23.9990311  43.2464175  38.8938666  23.2847274
  42.7075574  38.3767389  24.6015759  42.2225631  36.5722079  11.8340502
  42.4751152  36.0503600  11.0723965  41.2850190  36.4088224  11.9367186
  47.2668914  35.5757857  19.6415245  48.0532003  35.1577280  19.2905662
  47.5307618  36.4803949  19.8096894  47.4378991  41.0130707  14.3403902
  46.8024824  41.0865334  15.0524807  47.1076398  41.6024306  13.6622981
  52.6677341  35.5133090  20.5448224  53.4002513  34.9432307  20.7786053
  51.9116697  35.1254691  20.9854730  41.9421920  38.4750185  14.0364877
  41.8258178  37.7995088  14.7045961  42.0524180  37.9882559  13.2197030
  44.2853461  37.9360332  17.7411566  43.9211668  37.4090953  18.4524488
  45.1420577  37.5458801  17.5678052  50.1902761  29.2254664  25.0042833
  49.8586086  30.0950075  24.7804048  49.5948375  28.9090948  25.6836863
  43.9258948  32.9650232  12.7372915  44.0933350  33.8330468  13.1043386
  43.7356117  33.1277513  11.8134204  46.6834281  41.4267210  24.4038745
  46.3835004  42.3292249  24.2954553  46.3385340  41.1599394  25.2559898
  40.1346762  37.8781007  20.4375450  39.2097259  37.7457221  20.6453141
  40.3831176  38.6575227  20.9345392  50.0831425  33.9449751  22.0836183
  49.1748302  33.8765159  21.7894944  50.0319020  34.4221696  22.9118008
  43.9048169  35.4207889  13.7219582  43.7847794  35.8664940  14.5605062
  43.2100757  35.7693207  13.1633120  37.4955573  37.5214281  21.2719239
  37.6247955  37.7748760  22.1858650  36.8153025  38.1141989  20.9523894
  41.6655061  48.1911531  17.3709713  41.5879090  49.1419356  17.4498194
  41.0616704  47.8457403  18.0284639  44.1572290  35.3639396  30.0271080
  43.3805624  35.9233316  30.0173945  44.7962853  35.8496179  30.5485950
  51.9493071  32.1466189  23.8614057  51.3067451  32.4398722  23.2153851
  51.4448000  32.0319109  24.6667253  49.6033235  35.8929362  14.5499916
  50.5151091  36.1256749  14.3747613  49.0942882  36.4766406  13.9874994
  42.4118663  38.1724850  29.5889047  43.1533347  38.7109894  29.3123870
  41.7055648  38.7991138  29.7460599  47.8874002  40.3153990  28.1861208
  48.2957358  39.8736401  27.4415841  47.1651264  39.7406618  28.4395401
  44.2405072  35.2526597  25.5594765  45.0866268  35.6766010  25.7029414
  44.1803710  34.5960221  26.2533328  48.2102817  40.8755181  21.9413497
  47.5811679  41.0400895  21.2389565  47.8228479  41.2896790  22.7124461
  52.0892049  41.8109619  19.2957861  51.4043087  42.1908520  18.7454894
  52.1735898  42.4204945  20.0289809  47.3904518  32.9130965  27.2175939
  47.1465450  33.6673026  26.6810215  47.6664448  33.2916313  28.0523186
  49.3442980  39.4569578  25.8953205  49.5559876  40.1001337  25.2187586
  49.2972729  38.6231894  25.4275135  46.9469209  32.0687398  22.7989777
  46.0853688  32.3668652  23.0906514  46.9731644  32.2857797  21.8670809
  43.7630779  40.6129589  19.2063582  44.2269124  40.8917292  18.4168205
  43.4987577  39.7113033  19.0236673  40.6554860  40.1601070  22.1443346
  41.2256217  40.5888339  21.5060830  41.2462972  39.8783655  22.8427531
  42.6999665  36.7352741  16.0153147  43.4023708  37.1873785  16.4827074
  42.3680293  36.0936560  16.6433041  41.1480026  35.3264498  30.3904357
  40.5178687  36.0080779  30.6239754  41.0416114  35.2147579  29.4457495
  36.4424999  34.9936294  21.3170281  35.6524053  35.2493822  20.8410392
  36.9336246  35.8084632  21.4222322  50.4588808  42.3341533  24.0675562
  51.2806252  41.9321720  23.7858244  50.4551211  42.2309767  25.0191678
  38.3939744  35.3580873  18.2753758  37.5970908  35.4699567  18.7937253
  38.1665336  35.6967525  17.4094648  44.2245412  41.8825576  26.2236272
  44.2889844  42.3445984  27.0594444  43.5156336  41.2522941  26.3518582
  34.7262702  35.2466784  23.7485272  34.9770740  36.1313794  24.0142848
  35.2622250  35.0671386  22.9760364  58.5494801  38.6780281  20.4160533
  57.7958510  38.1087680  20.2604538  58.6842343  38.6442946  21.3631168
  43.9393430  43.5493684  16.0915253  43.8039104  44.3945219  16.5200101
  44.4803242  43.7512961  15.3281187  40.4260769  29.6285264  32.7529608
  40.0327715  29.0751462  33.4277252  41.2426909  29.9395842  33.1436125
  37.3922827  41.0669122  16.6643178  37.9047347  41.8612372  16.8148742
  38.0445540  40.3695412  16.5976779  39.2017712  44.1834878  18.7465931
  39.3784340  45.1052843  18.5586915  39.9974545  43.8693297  19.1760311
  43.3428730  31.0443143  30.3449864  44.0838444  31.6450296  30.2654327
  43.5746653  30.3020781  29.7867907  38.4870068  36.2299510  28.6228094
  38.3723583  35.3284767  28.9235193  37.6314586  36.4763207  28.2712911
  45.5661906  44.1717250  30.2215595  45.1225760  43.3853629  29.9036499
  46.2279119  44.3596401  29.5559486  40.3249027  45.7013052  24.7476273
  40.8756452  45.5730115  23.9753267  39.4860503  46.0007941  24.3971166
  47.6643144  44.4520050  28.2496996  47.6461619  45.2728931  27.7577265
  48.5863064  44.3274125  28.4747137  44.1216198  41.9664180  29.0920504
  44.6544535  41.2052468  28.8619812  43.5930279  41.6737832  29.8344659
  47.2885893  27.0724246  24.6214146  46.9450162  27.9625887  24.5453257
  47.6564856  26.8825903  23.7583731  35.3571744  39.3957776  17.4402748
  36.1946966  39.8054784  17.2236456  35.5350011  38.4557218  17.4102942
  47.2536176  37.0632857  13.1286581  46.7382799  37.8337461  13.3674969
  46.9813484  36.3897993  13.7519643  44.8383287  31.9082558  18.1871820
  43.9824883  31.5189408  18.0077458  45.2510239  31.9874518  17.3271605
  46.3682433  29.4428901  22.5863379  45.8647229  29.4059036  21.7731185
  46.6613040  30.3521644  22.6460036  42.6125319  29.5267631  21.5929561
  43.4778316  29.3310439  21.2335451  42.6802828  29.2977982  22.5198918
  52.2270450  39.8165211  15.0639755  51.4499893  39.4776371  14.6194917
  52.9061931  39.8217835  14.3894720  47.0422479  34.9359949  14.9546362
  46.7372615  35.2506098  15.8056506  47.9952921  35.0141369  14.9973695
  45.4868911  41.0950172  16.6039316  44.9590272  40.3602932  16.2912554
  44.9856414  41.8724849  16.3579285  50.4661757  39.2899193  21.7206363
  49.8085431  39.9798454  21.8086491  51.2702156  39.6795625  22.0640349
  40.2187638  31.7569838  18.9645928  40.7931390  31.5345020  18.2319121
  40.8058621  31.8258533  19.7174529  49.2767216  37.6443565  19.7710304
  49.7899097  38.2773557  20.2732014  49.9268440  37.0444761  19.4053665
  40.5457226  33.7874299  12.9841813  39.7094538  34.1248986  13.3051088
  40.4061995  33.6523279  12.0468950  42.5210306  28.6311087  17.6920997
  41.8674719  28.3160105  17.0677612  42.4790780  28.0086828  18.4180820
  43.6321511  38.9130382   9.6074289  42.7248573  38.6819636   9.8065438
  44.1292543  38.1168002   9.7948271  46.5389590  47.6227890  12.5270976
  45.8651289  47.9259586  13.1355933  46.9255412  48.4256970  12.1776433
  45.7548047  35.1193021  22.0168645  44.8370608  35.3407968  21.8590333
  46.1708190  35.1939331  21.1580352  46.5383094  36.5184437  17.1471325
  47.2854913  37.0305834  16.8378447  46.8074684  36.1968489  18.0075719
  44.8109744  39.0142977  14.1298280  43.9020964  38.7302010  14.2270749
  44.8404828  39.4342056  13.2701586  50.0429012  42.6249567  17.8989447
  49.5891339  41.7840477  17.9554638  49.4122979  43.2610965  18.2364227
  48.9861931  33.5541553  19.1290115  48.2484688  33.0418939  19.4600357
  49.2388705  33.1141934  18.3173391  48.4861951  44.4626063  18.8339265
  48.7784925  45.0231121  18.1151631  48.9960572  44.7554624  19.5892424
  49.0873559  26.3317805  19.7231884  49.3932436  25.4715168  19.4357799
  49.8126164  26.9235425  19.5230878  35.3797915  36.7348491  18.1113482
  35.1822315  36.1417852  17.3864548  34.8244579  36.4300702  18.8289421
  43.3594638  36.6271598  20.2308075  43.4143248  35.6745434  20.1550551
  42.5485841  36.7831037  20.7149373  44.5085832  40.5551721  11.4686358
  44.0705262  39.8387580  11.0091995  45.2496273  40.7827836  10.9071450
  41.2986998  35.2448658  17.9898454  40.4854864  35.5442828  18.3963646
  41.7945993  34.8504346  18.7072936  43.4495576  45.2406415  19.9232718
  43.4071755  45.4667261  18.9941250  44.3658275  45.0069789  20.0718520
  46.8961210  35.7090482  26.8213348  47.2510598  35.9361955  27.6807813
  47.5433341  36.0408859  26.1990603  52.6258947  38.8308918  17.5262677
  52.4876846  39.0210514  16.5983866  52.2695166  39.5928301  17.9830728
  40.7901073  32.8167013  23.6059689  41.4300453  32.6755772  22.9082652
  39.9578604  32.5301527  23.2298291  52.6528327  40.8985445  22.5373948
  53.0864833  40.8060734  23.3857002  53.3659907  40.8742945  21.8993964
  41.5661377  42.1169444  19.7194681  42.3601976  41.6219764  19.5177256
  40.8553069  41.5887307  19.3562387  46.3856222  44.4987539  24.0707049
  46.4393244  45.0678475  24.8384765  45.5171003  44.6689424  23.7061086
  37.8744141  36.2612525  15.7954434  36.9441729  36.1996981  16.0124396
  37.9701613  35.7388478  14.9991075  37.7929690  32.7867338  18.3832676
  38.0536507  33.7012671  18.2741836  38.6146862  32.3191781  18.5329288
  39.2654615  34.2005095  25.5531500  39.9377668  33.9922457  24.9044149
  38.4384401  34.0027181  25.1136732  53.5143876  40.9409146  25.0706834
  53.7079766  41.8454956  25.3166109  53.4144494  40.4816565  25.9045419
  45.1680187  30.8267036  27.5697161  44.5208102  31.5256986  27.4761637
  45.9381202  31.2603180  27.9373409  48.5758985  41.0915888  30.6447714
  48.4244491  40.8626440  29.7277798  48.5663664  42.0486490  30.6579059
  45.3444321  38.6647801  25.6293981  46.2736381  38.8158961  25.4562948
  44.9235351  38.7531822  24.7742627  44.1432653  42.6898466  23.3992518
  44.0043739  42.3217250  24.2718456  43.3547249  43.2046105  23.2276476
  44.7380805  47.7907562  14.7418055  44.9132561  47.3195605  15.5563677
  44.0513593  48.4173328  14.9699316  45.6937868  42.0680068  20.7881356
  45.3587701  42.0280838  21.6839006  45.1941814  41.4024784  20.3151766
  39.6682112  37.4747698  26.3133937  39.5301910  36.7427937  26.9145476
  40.5787036  37.3856598  26.0318125  48.6297060  39.4136103  11.0618416
  48.0126231  38.6882931  10.9651468  48.1613548  40.1745463  10.7185490
  42.2964413  37.1867658  25.8017617  43.0064031  36.5460850  25.7604235
  42.2533721  37.4380552  26.7243798  50.2851192  44.1235011  28.7224196
  50.2263738  43.4394231  28.0554779  50.6870710  44.8654001  28.2704822
  41.0093347  34.1732876  27.6213256  40.4730704  33.7223614  28.2734853
  40.4210055  34.3078784  26.8783721  39.3041890  50.9396925  21.5157915
  39.5438489  51.5715449  22.1936934  38.4611087  50.5884965  21.8023274
  50.2868599  42.0874595  26.9538176  49.3995378  41.7500517  27.0764575
  50.8567150  41.3557626  27.1906941  31.9397746  38.4198687  20.2781227
  32.6268786  38.1060417  19.6902242  31.7845875  39.3240051  20.0048479
  36.7432468  33.3088883  24.7066251  36.6590657  32.7014553  23.9716661
  35.9215174  33.7997902  24.7075747  43.8169752  46.7476047  23.9199419
  43.7439924  47.5531019  24.4318724  43.3747145  46.9468013  23.0947440
  43.6059532  45.9847817  17.4302241  42.8227054  46.5269497  17.5240465
  44.3052277  46.5021797  17.8296482  46.9156182  31.7942447  20.0736446
  47.4124881  31.0412409  19.7537516  46.1443163  31.8306763  19.5079655
  54.7685939  37.4982812  21.7154737  54.7575816  38.3807528  21.3448671
  53.9003319  37.1454363  21.5209274  46.2768436  46.6462881  26.0757578
  46.9896408  47.2810346  26.0033479  45.7858464  46.7426747  25.2597579
  47.9985963  40.5514134  17.6474869  47.0642241  40.6715596  17.4779574
  48.1762631  39.6486601  17.3834879  43.4991151  33.9359830  19.8008130
  43.1288938  33.3830870  20.4889036  43.9950243  33.3317963  19.2483131
  51.3858514  36.3931453  18.1824903  51.8518966  37.2259445  18.1085206
  51.8366014  35.9276435  18.8870162  41.3280349  44.3957325  26.8963148
  42.0289809  45.0293808  27.0492543  40.8575464  44.7372056  26.1358788
  49.4534745  42.7375275  15.1811055  49.7294589  42.6231869  16.0904930
  48.5839244  42.3392759  15.1423229  49.3575177  28.7612040  22.2215805
  48.4438257  28.9916267  22.3898012  49.7868278  28.8450484  23.0729837
  49.1281635  36.9501932  24.7215699  48.4753085  37.1977840  24.0668152
  49.5062015  36.1366070  24.3878176  46.0888809  46.9861625  18.8243869
  46.2711204  46.1683281  19.2871621  46.9121795  47.2029318  18.3868759
  46.4230975  45.9129811  16.0858918  46.9518741  45.4022265  15.4729080
  46.6859194  45.5972341  16.9504451  45.1769208  37.6921743  31.2081736
  44.5009845  37.5915873  31.8784111  45.9996842  37.5360957  31.6717733
  36.9248067  43.9293680  23.8294251  37.5101504  43.1837368  23.9622155
  36.7272906  44.2397637  24.7130915  39.7786723  46.9644927  18.8456694
  39.1097098  47.4491055  18.3620734  39.6399592  47.2114148  19.7600072
  31.5165722  36.4999280  22.5498694  31.5549822  35.9662871  23.3435812
  31.0106015  35.9734486  21.9309671  43.9191991  48.9988671  25.4439352
  44.4710299  49.1620292  26.2088437  44.2598185  49.5893109  24.7719377
  38.8956484  31.3463821  26.0461237  38.9597811  32.2078651  25.6338634
  38.8323605  30.7337822  25.3133595  38.3708757  33.4186953  29.6934271
  38.9980796  33.0364030  30.3071795  37.5136676  33.2001155  30.0589963
  48.7702865  43.8249928  31.2988006  49.3142769  44.4379886  30.8042961
  48.1889710  44.3829507  31.8155019  35.1474300  35.2263382  15.6252626
  35.4427741  34.3174061  15.5719679  34.2462335  35.2051122  15.3033628
  47.0560378  46.9470646  22.4303034  46.9311518  46.1460386  21.9213980
  47.7139470  47.4416840  21.9417004  38.6768547  33.3019379  21.6080174
  37.9555132  33.9155346  21.4687648  39.4661802  33.8377144  21.5296820
  49.1195287  44.7479666  24.0582584  48.1725622  44.6285018  23.9860911
  49.4678060  43.8602164  24.1408846  41.4794860  30.6373805  27.8820826
  42.0029262  30.8836102  28.6447135  41.2607193  31.4693840  27.4623963
  36.8762141  32.9077480  15.7491951  36.5474847  32.0274859  15.5667057
  37.2301512  32.8525149  16.6368340  46.1241720  44.5432383  20.2586936
  45.9766683  43.6149090  20.4394506  46.9495214  44.5652473  19.7744012
  39.9903964  33.1950450  16.1167429  40.3300037  33.7236371  15.3946037
  40.4376085  33.5330856  16.8925995  49.7275842  45.3660941  21.3451809
  50.6522389  45.1603803  21.2076260  49.5591145  45.1177342  22.2541151
  42.6847405  31.5787500  25.5670497  42.3444226  30.7795313  25.9691176
  41.9786411  31.8789211  24.9947330  43.3363877  28.6636813  24.0197820
  44.1589946  28.1897291  23.8976710  43.5801941  29.4427297  24.5196506
  41.9772112  31.6925071  14.3160721  42.6980474  32.0706324  13.8124438
  41.3537416  32.4113948  14.4195699  46.1203234  32.3970220  15.2519054
  46.3366849  33.2794858  14.9507882  45.6397302  32.0056434  14.5224696
  40.8602456  35.3555933  21.8289798  40.7147036  35.6696236  22.7214080
  40.3827659  35.9740834  21.2760697  42.7198839  32.3458481  21.8770688
  42.7060407  31.4499575  21.5402986  43.4371267  32.3529145  22.5108974
  44.5724969  32.7795822  23.9223815  44.3142747  33.7012892  23.9208146
  44.0410010  32.3826256  24.6124279  49.5171158  45.8846609  16.7013901
  49.6908036  45.3193031  15.9487753  50.0100049  46.6847504  16.5193391
  35.3348118  37.8961278  24.7677459  34.7901586  38.6721086  24.8997734
  36.2127468  38.2432082  24.6096581  42.1235735  31.2272862  17.1458258
  42.2451646  30.2989508  17.3449145  41.8337777  31.2411548  16.2336573
  44.9926925  28.9127772  20.2824978  45.0148622  28.9767105  19.3276957
  45.4094984  28.0732281  20.4765484  55.3710549  38.6483032  18.3204200
  55.8141695  37.8990357  17.9223324  54.4937060  38.6393168  17.9377932
  50.5046331  45.2013373  13.8010799  51.1997235  45.8220066  14.0198113
  50.8469481  44.3508724  14.0763177  36.1214140  37.0231174  27.6607616
  35.3795876  37.1713809  28.2472247  35.8006884  37.2839440  26.7974366
  52.4037754  42.6513079  15.3298130  52.9289078  42.9900351  14.6047450
  52.3160106  41.7160094  15.1461264  44.0657802  46.5647152  27.4588006
  44.3744929  46.3196299  28.3310706  44.8633284  46.7693791  26.9706876
  44.0878414  48.7185062  19.6893383  43.6483405  48.2261441  20.3826240
  44.8386531  48.1758030  19.4485458  36.5670753  44.9096603  19.6918011
  37.3928773  44.6100375  19.3116654  36.2164805  44.1404225  20.1407800
  41.5352287  44.2623071  21.7615684  40.9132296  43.5993776  21.4617912
  42.2057154  44.2884203  21.0789332  34.7679359  42.8282929  20.6506944
  33.9311267  42.4005104  20.4690946  34.7403004  43.0215373  21.5877736
  41.6076814  32.7404859  31.3548191  41.6564970  33.6166982  30.9725960
  42.1499328  32.1982252  30.7819834  52.0931660  43.2845982  30.6349328
  51.3027204  43.2670121  30.0953827  51.8565014  43.8234276  31.3898364
  52.2129535  40.1338449  27.9482056  52.2627540  39.9688456  28.8897579
  52.1043458  39.2665708  27.5579937  41.0965794  42.8126994  15.2374145
  41.2453914  43.4962459  14.5840818  41.9032237  42.7932084  15.7523601
  49.5033297  36.1169377  29.2641363  50.4043160  35.9775842  28.9725361
  49.5781272  36.2823832  30.2039540  43.8376103  33.4936231  28.1094549
  42.9679412  33.7869797  27.8377138  44.0735583  34.0776676  28.8301813
  53.7147732  42.5535390  28.1924078  53.4232540  42.9165371  29.0287539
  53.1019863  41.8402398  28.0137410  54.9143414  40.1188270  20.7126648
  55.7490305  40.5578074  20.8764208  55.0502543  39.6426923  19.8934894
  51.9634920  37.6768005  26.6604136  52.4389042  37.8695651  25.8522987
  51.0400485  37.7327191  26.4147519  38.8518427  38.8392172  16.2435214
  38.6064468  37.9354502  16.4415424  39.0214341  38.8409322  15.3014692
  46.5415136  29.7115848  25.6259970  47.0597080  30.4476875  25.3006458
  46.1870269  30.0179842  26.4606729  38.1214074  34.5720530  13.7421375
  37.4283319  34.6464885  13.0861411  37.8765826  33.8080873  14.2642892
  46.7927731  26.1316131  21.1460866  47.0729484  25.4639320  21.7721293
  47.5778338  26.3245227  20.6335530  44.5961199  45.3075125  12.7085892
  44.0235166  45.9265312  12.2556364  45.1693993  45.8574486  13.2425814
  50.6636589  34.5533765  24.8932441  51.6154012  34.6531863  24.9144665
  50.4940039  33.7612033  25.4030526  48.6850968  31.6389348  25.0791842
  48.0900901  31.9194361  24.3838331  48.4000665  32.1283249  25.8508583
  47.8158459  45.5912275  13.8394475  48.7489132  45.5257837  14.0427350
  47.7281672  46.4268542  13.3809007  50.4446476  44.9078145  10.7998422
  50.3660107  44.5738009  11.6934180  51.2656142  45.3999913  10.7989895
  53.1424667  37.7739885  24.0074741  53.1100987  36.8355885  24.1934425
  53.7525290  37.8523921  23.2740566  44.9807998  36.6435938  10.0501945
  45.9267102  36.5142146  10.1190363  44.6022243  35.9050599  10.5271373
  53.2919155  34.5650928  24.0533024  52.7758204  33.7809385  23.8662953
  54.1759104  34.2369645  24.2179544  50.9529882  28.3091944  20.0128837
  50.7554703  28.0007032  20.8972169  51.5629588  29.0353582  20.1426767
  58.9601217  38.8355891  23.1480778  59.6904605  38.5741180  23.7088481
  58.3508162  38.0984613  23.1882846  57.0416514  36.9763754  23.7455229
  56.3149677  36.8419719  23.1371720  56.6263801  37.2840583  24.5511947
  44.8646690  40.6953684  31.5102602  45.7849700  40.8732283  31.7042648
  44.8296273  39.7509729  31.3582301  34.0828855  35.8892277  20.4355877
  33.7631639  35.0357586  20.1430251  33.5362283  36.1040856  21.1913844
  37.8608763  38.6054718  24.1525383  38.0794772  39.5371826  24.1713417
  38.2734536  38.2462693  24.9380187  44.7812980  29.1122804  16.1401071
  43.9713709  28.7669889  16.5156318  45.4697397  28.8030347  16.7288683
  46.7103529  28.1900850  17.7625368  47.2634567  28.6096304  18.4215391
  46.9473615  27.2636599  17.8048324  42.7336628  34.1787924  33.5428132
  42.6333355  35.1282281  33.4740223  42.5158170  33.8506163  32.6704202
  33.9517115  39.5095189  22.4048998  33.2580587  39.0949142  21.8918953
  34.6990106  39.5515725  21.8082417  50.0882336  30.3001376  17.2704032
  49.5081005  30.9586180  16.8882085  49.8218269  29.4778720  16.8591450
  48.5385902  29.7006433  19.4725353  49.0385681  29.8122968  18.6639672
  49.1821510  29.3967486  20.1126161  42.5967898  37.6085063  32.3593194
  42.1134980  38.4085423  32.5657083  42.6828837  37.6193008  31.4060638
  35.8653858  39.4413443  20.2815013  35.8424546  39.5401130  19.3296896
  36.1754494  40.2878593  20.6032179  38.5241236  41.4989598  24.3961627
  39.4784489  41.4673540  24.3291559  38.3253759  41.0380221  25.2111853
  39.1140618  40.0690714  26.9632425  39.9333507  40.5634792  26.9867262
  39.3877425  39.1522682  26.9349993  48.8707214  32.4601466  16.3260381
  47.9833069  32.7451117  16.1080575  49.2861203  32.2995229  15.4787658
  52.2221750  32.4847987  20.0414720  52.9982140  32.9744439  20.3139337
  51.4969884  32.9106041  20.4986589  54.6594309  33.1975606  21.0988660
  55.2538799  32.9571342  20.3881969  54.7320892  32.4782737  21.7262197
  36.8791464  47.0409217  21.4131825  36.7445932  46.2809618  20.8469823
  36.4623527  47.7650117  20.9460614  48.0150427  42.2246141  10.4208401
  48.7186277  42.4296143  11.0366056  47.2913076  42.7922903  10.6857484
  48.8448238  37.9756002  16.5410671  48.7883439  38.4324553  15.7018303
  49.3976580  37.2146687  16.3633514  52.6553044  33.7645734  17.3660790
  52.3989978  33.3642369  18.1968998  52.0305912  34.4789528  17.2410929
  56.9665381  36.5041807  19.8732082  56.4064939  36.5734996  20.6463644
  56.3608885  36.3282792  19.1531578  40.0360590  47.9378534  21.6250268
  39.9192974  48.8823967  21.5228958  39.2153036  47.6352096  22.0136067
  49.9237125  42.6628670  12.4706861  50.7582729  42.2309868  12.2884335
  49.7621468  42.4910684  13.3983755  49.5783017  39.1660783  13.8363200
  49.5231821  39.0005055  12.8951644  48.9529072  39.8736816  13.9925390
  34.3675532  34.4028848  27.6624622  35.0134395  33.8927802  28.1511847
  34.1592683  35.1397529  28.2368047  46.8928924  41.4709695  33.1616763
  47.7620084  41.6450347  32.8003398  46.4135676  42.2904112  33.0392492
  42.8879142  28.6668892  13.4148518  42.8757812  29.6110732  13.5716789
  43.7802564  28.4839038  13.1207980  41.0615104  48.5906796  24.8406196
  41.9642351  48.6230406  25.1572691  40.8352474  47.6607247  24.8552532
  42.8168706  47.3437783  21.5016275  41.8664337  47.3439644  21.3880647
  43.1201192  46.5970517  20.9852310  46.7031262  25.2611669  17.6694455
  45.9363658  24.7070156  17.8151138  47.1141967  25.3333538  18.5308607
  38.7073023  31.5496465  31.7599636  39.5704484  31.1933269  31.9702961
  38.1338434  31.2110359  32.4475041  58.5521400  53.1798321  22.5662037
  59.1899810  53.0605068  21.8625377  58.4342243  54.1279165  22.6249990
  55.3611106  53.1325749  22.5023562  55.0229618  53.0166814  21.6144097
  56.2300874  52.7316914  22.4824568  51.2197922  54.9861226  18.4920453
  50.6562787  54.8951162  17.7236741  51.1050317  54.1661130  18.9722946
  48.7662354  56.4812417  21.3304673  49.5583646  56.1403242  20.9150973
  49.0059004  56.5907392  22.2506827  56.7997481  58.6532193  13.8034918
  56.1485460  59.2386274  13.4168932  57.5941843  59.1838388  13.8629955
  50.7253108  55.7421330  14.2022052  51.4983984  55.1950317  14.0634928
  51.0778507  56.6065580  14.4136514  53.4894357  54.4474561  23.9990311
  54.0857929  54.2230584  23.2847274  53.5469329  53.7059307  24.6015759
  53.0619385  51.9013996  11.8340502  53.3144906  51.3795518  11.0723965
  52.1243945  51.7380142  11.9367186  58.1062668  50.9049775  19.6415245
  58.8925758  50.4869198  19.2905662  58.3701373  51.8095867  19.8096894
  58.2772746  56.3422625  14.3403902  57.6418579  56.4157252  15.0524807
  57.9470152  56.9316224  13.6622981  63.5071095  50.8425008  20.5448224
  64.2396267  50.2724225  20.7786053  62.7510451  50.4546608  20.9854730
  52.7815674  53.8042102  14.0364877  52.6651932  53.1287006  14.7045961
  52.8917934  53.3174476  13.2197030  55.1247215  53.2652250  17.7411566
  54.7605422  52.7382871  18.4524488  55.9814331  52.8750719  17.5678052
  61.0296516  44.5546582  25.0042833  60.6979841  45.4241993  24.7804048
  60.4342129  44.2382866  25.6836863  54.7652702  48.2942149  12.7372915
  54.9327104  49.1622386  13.1043386  54.5749871  48.4569431  11.8134204
  57.5228035  56.7559128  24.4038745  57.2228758  57.6584167  24.2954553
  57.1779095  56.4891311  25.2559898  50.9740517  53.2072925  20.4375450
  50.0491013  53.0749139  20.6453141  51.2224930  53.9867144  20.9345392
  60.9225179  49.2741668  22.0836183  60.0142056  49.2057077  21.7894944
  60.8712775  49.7513613  22.9118008  54.7441923  50.7499807  13.7219582
  54.6241548  51.1956857  14.5605062  54.0494511  51.0985124  13.1633120
  48.3349328  52.8506199  21.2719239  48.4641709  53.1040677  22.1858650
  47.6546779  53.4433907  20.9523894  52.5048815  63.5203448  17.3709713
  52.4272845  64.4711274  17.4498194  51.9010459  63.1749321  18.0284639
  54.9966045  50.6931314  30.0271080  54.2199379  51.2525234  30.0173945
  55.6356608  51.1788097  30.5485950  62.7886826  47.4758107  23.8614057
  62.1461206  47.7690640  23.2153851  62.2841754  47.3611027  24.6667253
  60.4426989  51.2221280  14.5499916  61.3544845  51.4548667  14.3747613
  59.9336636  51.8058324  13.9874994  53.2512417  53.5016767  29.5889047
  53.9927102  54.0401811  29.3123870  52.5449403  54.1283056  29.7460599
  55.0798827  50.5818515  25.5594765  55.9260022  51.0057928  25.7029414
  55.0197465  49.9252139  26.2533328  59.0496571  56.2047098  21.9413497
  58.4205434  56.3692812  21.2389565  58.6622234  56.6188708  22.7124461
  62.9285803  57.1401536  19.2957861  62.2436842  57.5200438  18.7454894
  63.0129653  57.7496863  20.0289809  58.2298272  48.2422883  27.2175939
  57.9859204  48.9964943  26.6810215  58.5058203  48.6208230  28.0523186
  57.7862964  47.3979316  22.7989777  56.9247443  47.6960569  23.0906514
  57.8125399  47.6149715  21.8670809  54.6024533  55.9421506  19.2063582
  55.0662879  56.2209209  18.4168205  54.3381331  55.0404951  19.0236673
  51.4948614  55.4892988  22.1443346  52.0649971  55.9180256  21.5060830
  52.0856726  55.2075573  22.8427531  53.5393419  52.0644659  16.0153147
  54.2417463  52.5165702  16.4827074  53.2074048  51.4228478  16.6433041
  51.9873781  50.6556415  30.3904357  51.3572442  51.3372696  30.6239754
  51.8809869  50.5439497  29.4457495  47.2818753  50.3228211  21.3170281
  46.4917807  50.5785740  20.8410392  47.7730001  51.1376549  21.4222322
  61.2982563  57.6633451  24.0675562  62.1200007  57.2613638  23.7858244
  61.2944966  57.5601685  25.0191678  49.2333499  50.6872791  18.2753758
  48.4364662  50.7991485  18.7937253  49.0059091  51.0259443  17.4094648
  45.5656456  50.5758702  23.7485272  45.8164495  51.4605712  24.0142848
  46.1016005  50.3963303  22.9760364  69.3888556  54.0072199  20.4160533
  68.6352264  53.4379597  20.2604538  69.5236097  53.9734864  21.3631168
  54.7787184  58.8785601  16.0915253  54.6432859  59.7237137  16.5200101
  55.3196997  59.0804879  15.3281187  51.2654524  44.9577181  32.7529608
  50.8721469  44.4043380  33.4277252  52.0820664  45.2687760  33.1436125
  48.2316581  56.3961039  16.6643178  48.7441102  57.1904290  16.8148742
  48.8839294  55.6987330  16.5976779  50.0411466  59.5126796  18.7465931
  50.2178094  60.4344760  18.5586915  50.8368300  59.1985215  19.1760311
  54.1822485  46.3735060  30.3449864  54.9232198  46.9742214  30.2654327
  54.4140407  45.6312698  29.7867907  49.3263823  51.5591428  28.6228094
  49.2117338  50.6576685  28.9235193  48.4708340  51.8055124  28.2712911
  51.1642782  61.0304970  24.7476273  51.7150207  60.9022033  23.9753267
  50.3254257  61.3299859  24.3971166  58.1279648  42.4016163  24.6214146
  57.7843917  43.2917805  24.5453257  58.4958610  42.2117821  23.7583731
  46.1965498  54.7249694  17.4402748  47.0340720  55.1346702  17.2236456
  46.3743766  53.7849136  17.4102942  58.0929930  52.3924774  13.1286581
  57.5776554  53.1629379  13.3674969  57.8207239  51.7189911  13.7519643
  55.6777041  47.2374475  18.1871820  54.8218638  46.8481326  18.0077458
  56.0903993  47.3166436  17.3271605  57.2076188  44.7720818  22.5863379
  56.7040984  44.7350954  21.7731185  57.5006795  45.6813561  22.6460036
  53.4519074  44.8559548  21.5929561  54.3172071  44.6602357  21.2335451
  53.5196583  44.6269900  22.5198918  63.0664204  55.1457129  15.0639755
  62.2893647  54.8068289  14.6194917  63.7455685  55.1509752  14.3894720
  57.8816233  50.2651867  14.9546362  57.5766369  50.5798016  15.8056506
  58.8346676  50.3433286  14.9973695  56.3262665  56.4242090  16.6039316
  55.7984027  55.6894849  16.2912554  55.8250168  57.2016766  16.3579285
  61.3055511  54.6191110  21.7206363  60.6479186  55.3090372  21.8086491
  62.1095911  55.0087542  22.0640349  51.0581393  47.0861756  18.9645928
  51.6325145  46.8636938  18.2319121  51.6452375  47.1550451  19.7174529
  60.1160970  52.9735483  19.7710304  60.6292852  53.6065475  20.2732014
  60.7662194  52.3736679  19.4053665  51.3850980  49.1166217  12.9841813
  50.5488292  49.4540904  13.3051088  51.2455750  48.9815197  12.0468950
  53.3604061  43.9603005  17.6920997  52.7068473  43.6452022  17.0677612
  53.3184535  43.3378745  18.4180820  54.4715266  54.2422300   9.6074289
  53.5642327  54.0111554   9.8065438  54.9686297  53.4459919   9.7948271
  57.3783344  62.9519807  12.5270976  56.7045043  63.2551504  13.1355933
  57.7649166  63.7548888  12.1776433  56.5941801  50.4484939  22.0168645
  55.6764362  50.6699886  21.8590333  57.0101945  50.5231249  21.1580352
  57.3776849  51.8476354  17.1471325  58.1248668  52.3597751  16.8378447
  57.6468438  51.5260407  18.0075719  55.6503499  54.3434895  14.1298280
  54.7414718  54.0593928  14.2270749  55.6798583  54.7633974  13.2701586
  60.8822766  57.9541484  17.8989447  60.4285093  57.1132394  17.9554638
  60.2516733  58.5902883  18.2364227  59.8255686  48.8833471  19.1290115
  59.0878443  48.3710857  19.4600357  60.0782459  48.4433852  18.3173391
  59.3255706  59.7917981  18.8339265  59.6178680  60.3523038  18.1151631
  59.8354326  60.0846542  19.5892424  59.9267313  41.6609723  19.7231884
  60.2326190  40.8007086  19.4357799  60.6519918  42.2527343  19.5230878
  46.2191669  52.0640409  18.1113482  46.0216069  51.4709770  17.3864548
  45.6638333  51.7592619  18.8289421  54.1988393  51.9563516  20.2308075
  54.2537003  51.0037352  20.1550551  53.3879595  52.1122955  20.7149373
  55.3479587  55.8843639  11.4686358  54.9099017  55.1679498  11.0091995
  56.0890028  56.1119753  10.9071450  52.1380753  50.5740575  17.9898454
  51.3248618  50.8734746  18.3963646  52.6339747  50.1796264  18.7072936
  54.2889331  60.5698332  19.9232718  54.2465510  60.7959179  18.9941250
  55.2052030  60.3361707  20.0718520  57.7354965  51.0382400  26.8213348
  58.0904352  51.2653873  27.6807813  58.3827096  51.3700777  26.1990603
  63.4652702  54.1600836  17.5262677  63.3270600  54.3502432  16.5983866
  63.1088920  54.9220219  17.9830728  51.6294828  48.1458931  23.6059689
  52.2694207  48.0047690  22.9082652  50.7972358  47.8593444  23.2298291
  63.4922081  56.2277363  22.5373948  63.9258588  56.1352652  23.3857002
  64.2053662  56.2034863  21.8993964  52.4055132  57.4461361  19.7194681
  53.1995730  56.9511681  19.5177256  51.6946824  56.9179224  19.3562387
  57.2249976  59.8279457  24.0707049  57.2786998  60.3970393  24.8384765
  56.3564757  59.9981342  23.7061086  48.7137895  51.5904443  15.7954434
  47.7835483  51.5288898  16.0124396  48.8095367  51.0680396  14.9991075
  48.6323444  48.1159256  18.3832676  48.8930261  49.0304589  18.2741836
  49.4540616  47.6483698  18.5329288  50.1048369  49.5297013  25.5531500
  50.7771423  49.3214375  24.9044149  49.2778156  49.3319099  25.1136732
  56.0073941  46.1558954  27.5697161  55.3601856  46.8548904  27.4761637
  56.7774957  46.5895098  27.9373409  56.1838076  53.9939719  25.6293981
  57.1130136  54.1450878  25.4562948  55.7629106  54.0823740  24.7742627
  54.9826408  58.0190383  23.3992518  54.8437493  57.6509168  24.2718456
  54.1941004  58.5338023  23.2276476  55.5774560  63.1199480  14.7418055
  55.7526315  62.6487523  15.5563677  54.8907348  63.7465246  14.9699316
  56.5331623  57.3971986  20.7881356  56.1981455  57.3572756  21.6839006
  56.0335568  56.7316702  20.3151766  50.5075867  52.8039616  26.3133937
  50.3695665  52.0719855  26.9145476  51.4180790  52.7148516  26.0318125
  59.4690814  54.7428020  11.0618416  58.8519985  54.0174848  10.9651468
  59.0007303  55.5037381  10.7185490  53.1358167  52.5159575  25.8017617
  53.8457786  51.8752767  25.7604235  53.0927476  52.7672470  26.7243798
  51.8487101  49.5024793  27.6213256  51.3124458  49.0515532  28.2734853
  51.2603810  49.6370702  26.8783721  50.1435645  66.2688842  21.5157915
  50.3832243  66.9007367  22.1936934  49.3004841  65.9176883  21.8023274
  51.2589360  48.9613445  10.1839720  50.3818827  48.8402245   9.8201967
  51.7347113  48.1699523   9.9318609  42.7791500  53.7490604  20.2781227
  43.4662540  53.4352334  19.6902242  42.6239629  54.6531969  20.0048479
  47.5826223  48.6380801  24.7066251  47.4984411  48.0306470  23.9716661
  46.7608929  49.1289819  24.7075747  54.6563507  62.0767965  23.9199419
  54.5833678  62.8822936  24.4318724  54.2140900  62.2759931  23.0947440
  54.4453286  61.3139735  17.4302241  53.6620808  61.8561415  17.5240465
  55.1446031  61.8313715  17.8296482  57.7549936  47.1234364  20.0736446
  58.2518636  46.3704327  19.7537516  56.9836918  47.1598681  19.5079655
  65.6079694  52.8274730  21.7154737  65.5969570  53.7099445  21.3448671
  64.7397073  52.4746281  21.5209274  57.1162190  61.9754799  26.0757578
  57.8290162  62.6102264  26.0033479  56.6252219  62.0718665  25.2597579
  58.8379717  55.8806052  17.6474869  57.9035996  56.0007514  17.4779574
  59.0156386  54.9778518  17.3834879  54.3384905  49.2651747  19.8008130
  53.9682693  48.7122788  20.4889036  54.8343998  48.6609881  19.2483131
  62.2252268  51.7223371  18.1824903  62.6912721  52.5551363  18.1085206
  62.6759769  51.2568352  18.8870162  52.1674104  59.7249242  26.8963148
  52.8683563  60.3585725  27.0492543  51.6969219  60.0663974  26.1358788
  60.2928500  58.0667192  15.1811055  60.5688343  57.9523787  16.0904930
  59.4232998  57.6684677  15.1423229  60.1968931  44.0903958  22.2215805
  59.2832011  44.3208185  22.3898012  60.6262033  44.1742402  23.0729837
  59.9675390  52.2793850  24.7215699  59.3146840  52.5269757  24.0668152
  60.3455770  51.4657988  24.3878176  56.9282564  62.3153543  18.8243869
  57.1104958  61.4975199  19.2871621  57.7515550  62.5321235  18.3868759
  57.2624729  61.2421728  16.0858918  57.7912496  60.7314183  15.4729080
  57.5252949  60.9264258  16.9504451  47.7641822  59.2585597  23.8294251
  48.3495259  58.5129285  23.9622155  47.5666660  59.5689554  24.7130915
  50.6180477  62.2936845  18.8456694  49.9490852  62.7782972  18.3620734
  50.4793347  62.5406065  19.7600072  42.3559477  51.8291198  22.5498694
  42.3943576  51.2954788  23.3435812  41.8499769  51.3026403  21.9309671
  54.7585746  64.3280588  25.4439352  55.3104054  64.4912210  26.2088437
  55.0991939  64.9185026  24.7719377  49.7350239  46.6755738  26.0461237
  49.7991565  47.5370569  25.6338634  49.6717359  46.0629740  25.3133595
  49.2102511  48.7478871  29.6934271  49.8374550  48.3655948  30.3071795
  48.3530430  48.5293073  30.0589963  45.9868054  50.5555300  15.6252626
  46.2821495  49.6465978  15.5719679  45.0856090  50.5343039  15.3033628
  57.8954133  62.2762564  22.4303034  57.7705272  61.4752304  21.9213980
  58.5533224  62.7708757  21.9417004  49.5162301  48.6311296  21.6080174
  48.7948887  49.2447264  21.4687648  50.3055557  49.1669061  21.5296820
  59.9589041  60.0771584  24.0582584  59.0119377  59.9576935  23.9860911
  60.3071814  59.1894082  24.1408846  52.3188615  45.9665723  27.8820826
  52.8423016  46.2128019  28.6447135  52.1000948  46.7985758  27.4623963
  47.7155896  48.2369397  15.7491951  47.3868602  47.3566776  15.5667057
  48.0695266  48.1817066  16.6368340  56.9635475  59.8724300  20.2586936
  56.8160437  58.9441008  20.4394506  57.7888968  59.8944391  19.7744012
  50.8297719  48.5242367  16.1167429  51.1693791  49.0528289  15.3946037
  51.2769839  48.8622773  16.8925995  60.5669596  60.6952859  21.3451809
  61.4916144  60.4895720  21.2076260  60.3984900  60.4469260  22.2541151
  53.5241160  46.9079418  25.5670497  53.1837980  46.1087231  25.9691176
  52.8180166  47.2081129  24.9947330  54.1757632  43.9928730  24.0197820
  54.9983701  43.5189209  23.8976710  54.4195695  44.7719214  24.5196506
  52.8165866  47.0216989  14.3160721  53.5374228  47.3998242  13.8124438
  52.1931170  47.7405866  14.4195699  56.9596989  47.7262138  15.2519054
  57.1760603  48.6086776  14.9507882  56.4791056  47.3348351  14.5224696
  51.6996210  50.6847851  21.8289798  51.5540791  50.9988154  22.7214080
  51.2221414  51.3032751  21.2760697  53.5592593  47.6750399  21.8770688
  53.5454162  46.7791492  21.5402986  54.2765021  47.6821063  22.5108974
  55.4118724  48.1087739  23.9223815  55.1536502  49.0304810  23.9208146
  54.8803764  47.7118174  24.6124279  60.3564913  61.2138526  16.7013901
  60.5301790  60.6484949  15.9487753  60.8493804  62.0139421  16.5193391
  46.1741872  53.2253195  24.7677459  45.6295341  54.0013003  24.8997734
  47.0521222  53.5724000  24.6096581  52.9629489  46.5564779  17.1458258
  53.0845400  45.6281426  17.3449145  52.6731531  46.5703465  16.2336573
  55.8320679  44.2419690  20.2824978  55.8542376  44.3059023  19.3276957
  56.2488738  43.4024198  20.4765484  66.2104304  53.9774949  18.3204200
  66.6535450  53.2282275  17.9223324  65.3330814  53.9685086  17.9377932
  61.3440085  60.5305291  13.8010799  62.0390990  61.1511983  14.0198113
  61.6863235  59.6800642  14.0763177  46.9607894  52.3523092  27.6607616
  46.2189630  52.5005727  28.2472247  46.6400639  52.6131357  26.7974366
  63.2431508  57.9804996  15.3298130  63.7682832  58.3192269  14.6047450
  63.1553861  57.0452012  15.1461264  54.9272169  64.0476980  19.6893383
  54.4877159  63.5553358  20.3826240  55.6780286  63.5049947  19.4485458
  47.4064508  60.2388520  19.6918011  48.2322528  59.9392292  19.3116654
  47.0558560  59.4696143  20.1407800  52.3746041  59.5914989  21.7615684
  51.7526050  58.9285694  21.4617912  53.0450908  59.6176121  21.0789332
  45.6073113  58.1574847  20.6506944  44.7705021  57.7297021  20.4690946
  45.5796758  58.3507290  21.5877736  52.4470569  48.0696777  31.3548191
  52.4958724  48.9458900  30.9725960  52.9893083  47.5274170  30.7819834
  51.9359548  58.1418912  15.2374145  52.0847668  58.8254376  14.5840818
  52.7425991  58.1224002  15.7523601  54.6769857  48.8228149  28.1094549
  53.8073166  49.1161715  27.8377138  54.9129337  49.4068594  28.8301813
  65.7537168  55.4480188  20.7126648  66.5884060  55.8869992  20.8764208
  65.8896297  54.9718841  19.8934894  49.6912181  54.1684090  16.2435214
  49.4458223  53.2646420  16.4415424  49.8608096  54.1701240  15.3014692
  57.3808891  45.0407766  25.6259970  57.8990835  45.7768793  25.3006458
  57.0264024  45.3471759  26.4606729  48.9607829  49.9012447  13.7421375
  48.2677073  49.9756802  13.0861411  48.7159580  49.1372791  14.2642892
  57.6321485  41.4608049  21.1460866  57.9123239  40.7931238  21.7721293
  58.4172092  41.6537144  20.6335530  55.4354954  60.6367042  12.7085892
  54.8628921  61.2557230  12.2556364  56.0087747  61.1866404  13.2425814
  61.5030343  49.8825683  24.8932441  62.4547766  49.9823780  24.9144665
  61.3333794  49.0903951  25.4030526  59.5244723  46.9681266  25.0791842
  58.9294655  47.2486279  24.3838331  59.2394420  47.4575167  25.8508583
  58.6552213  60.9204193  13.8394475  59.5882887  60.8549754  14.0427350
  58.5675426  61.7560459  13.3809007  61.2840230  60.2370063  10.7998422
  61.2053862  59.9029927  11.6934180  62.1049897  60.7291831  10.7989895
  63.9818421  53.1031802  24.0074741  63.9494741  52.1647803  24.1934425
  64.5919045  53.1815839  23.2740566  55.8201752  51.9727855  10.0501945
  56.7660857  51.8434063  10.1190363  55.4415997  51.2342517  10.5271373
  64.1312910  49.8942846  24.0533024  63.6151958  49.1101302  23.8662953
  65.0152858  49.5661562  24.2179544  61.7923637  43.6383861  20.0128837
  61.5948458  43.3298949  20.8972169  62.4023342  44.3645500  20.1426767
  54.0044669  49.8977832   9.9856830  53.0976125  49.6010944  10.0619544
  54.2820650  49.6007650   9.1191116  44.9222610  51.2184195  20.4355877
  44.6025394  50.3649503  20.1430251  44.3756038  51.4332773  21.1913844
  48.7002517  53.9346636  24.1525383  48.9188527  54.8663744  24.1713417
  49.1128291  53.5754610  24.9380187  55.6206735  44.4414721  16.1401071
  54.8107463  44.0961806  16.5156318  56.3091152  44.1322265  16.7288683
  57.5497283  43.5192768  17.7625368  58.1028322  43.9388222  18.4215391
  57.7867370  42.5928516  17.8048324  53.5730382  49.5079842  33.5428132
  53.4727109  50.4574199  33.4740223  53.3551925  49.1798081  32.6704202
  52.7743454  46.7564767  10.1268809  53.6362618  47.0819665  10.3864627
  52.9593798  45.9696263   9.6141875  44.7910870  54.8387107  22.4048998
  44.0974341  54.4241059  21.8918953  45.5383861  54.8807643  21.8082417
  60.9276090  45.6293293  17.2704032  60.3474759  46.2878097  16.8882085
  60.6612023  44.8070638  16.8591450  59.3779657  45.0298351  19.4725353
  59.8779435  45.1414886  18.6639672  60.0215265  44.7259404  20.1126161
  53.4361653  52.9376981  32.3593194  52.9528734  53.7377341  32.5657083
  53.5222592  52.9484925  31.4060638  46.7047612  54.7705360  20.2815013
  46.6818300  54.8693048  19.3296896  47.0148249  55.6170511  20.6032179
  49.3634990  56.8281515  24.3961627  50.3178244  56.7965458  24.3291559
  49.1647514  56.3672139  25.2111853  49.9534372  55.3982631  26.9632425
  50.7727261  55.8926710  26.9867262  50.2271180  54.4814600  26.9349993
  59.7100968  47.7893384  16.3260381  58.8226823  48.0743034  16.1080575
  60.1254957  47.6287147  15.4787658  63.0615504  47.8139905  20.0414720
  63.8375895  48.3036357  20.3139337  62.3363639  48.2397959  20.4986589
  65.4988063  48.5267524  21.0988660  66.0932554  48.2863260  20.3881969
  65.5714647  47.8074654  21.7262197  47.7185219  62.3701135  21.4131825
  47.5839687  61.6101536  20.8469823  47.3017281  63.0942035  20.9460614
  58.8544182  57.5538058  10.4208401  59.5580032  57.7588061  11.0366056
  58.1306831  58.1214820  10.6857484  59.6841992  53.3047920  16.5410671
  59.6277193  53.7616471  15.7018303  60.2370335  52.5438604  16.3633514
  63.4946798  49.0937651  17.3660790  63.2383732  48.6934287  18.1968998
  62.8699666  49.8081445  17.2410929  67.8059136  51.8333725  19.8732082
  67.2458694  51.9026914  20.6463644  67.2002639  51.6574709  19.1531578
  50.8754345  63.2670452  21.6250268  50.7586729  64.2115884  21.5228958
  50.0546791  62.9644013  22.0136067  60.7630879  57.9920588  12.4706861
  61.5976483  57.5601786  12.2884335  60.6015222  57.8202601  13.3983755
  60.4176771  54.4952701  13.8363200  60.3625575  54.3296972  12.8951644
  59.7922827  55.2028734  13.9925390  45.2069286  49.7320765  27.6624622
  45.8528150  49.2219719  28.1511847  44.9986437  50.4689447  28.2368047
  53.7272897  43.9960810  13.4148518  53.7151567  44.9402650  13.5716789
  54.6196319  43.8130955  13.1207980  51.9008859  63.9198714  24.8406196
  52.8036106  63.9522324  25.1572691  51.6746229  62.9899165  24.8552532
  53.6562461  62.6729700  21.5016275  52.7058092  62.6731562  21.3880647
  53.9594947  61.9262435  20.9852310  57.5425016  40.5903587  17.6694455
  56.7757412  40.0362073  17.8151138  57.9535721  40.6625455  18.5308607
  49.5466777  46.8788382  31.7599636  50.4098239  46.5225187  31.9702961
  48.9732188  46.5402277  32.4475041  69.3915154  68.5090239  22.5662037
  70.0293564  68.3896986  21.8625377  69.2735997  69.4571083  22.6249990
  66.2004861  68.4617667  22.5023562  65.8623372  68.3458731  21.6144097
  67.0694629  68.0608832  22.4824568  62.0591676  70.3153143  18.4920453
  61.4956541  70.2243080  17.7236741  61.9444071  69.4953048  18.9722946
  59.6056108  71.8104335  21.3304673  60.3977400  71.4695159  20.9150973
  59.8452758  71.9199310  22.2506827  67.6391235  73.9824111  13.8034918
  66.9879215  74.5678191  13.4168932  68.4335598  74.5130306  13.8629955
  61.5646862  71.0713248  14.2022052  62.3377738  70.5242235  14.0634928
  61.9172261  71.9357497  14.4136514  64.3288112  69.7766479  23.9990311
  64.9251684  69.5522501  23.2847274  64.3863083  69.0351224  24.6015759
  63.9013140  67.2305914  11.8340502  64.1538661  66.7087435  11.0723965
  62.9637699  67.0672060  11.9367186  68.9456423  66.2341693  19.6415245
  69.7319512  65.8161116  19.2905662  69.2095127  67.1387785  19.8096894
  69.1166500  71.6714543  14.3403902  68.4812333  71.7449169  15.0524807
  68.7863907  72.2608142  13.6622981  74.3464850  66.1716926  20.5448224
  75.0790022  65.6016143  20.7786053  73.5904206  65.7838526  20.9854730
  63.6209429  69.1334020  14.0364877  63.5045687  68.4578923  14.7045961
  63.7311689  68.6466394  13.2197030  65.9640970  68.5944167  17.7411566
  65.5999177  68.0674788  18.4524488  66.8208086  68.2042636  17.5678052
  65.6046457  63.6234067  12.7372915  65.7720859  64.4914303  13.1043386
  65.4143626  63.7861349  11.8134204  68.3621790  72.0851046  24.4038745
  68.0622513  72.9876085  24.2954553  68.0172849  71.8183229  25.2559898
  71.7618934  64.6033586  22.0836183  70.8535811  64.5348994  21.7894944
  71.7106529  65.0805531  22.9118008  65.5835677  66.0791724  13.7219582
  65.4635303  66.5248775  14.5605062  64.8888266  66.4277042  13.1633120
  63.3442570  78.8495366  17.3709713  63.2666599  79.8003191  17.4498194
  62.7404213  78.5041239  18.0284639  73.6280580  62.8050024  23.8614057
  72.9854960  63.0982558  23.2153851  73.1235509  62.6902945  24.6667253
  71.2820744  66.5513198  14.5499916  72.1938600  66.7840584  14.3747613
  70.7730391  67.1350242  13.9874994  69.8890326  71.5339016  21.9413497
  69.2599188  71.6984730  21.2389565  69.5015988  71.9480626  22.7124461
  73.7679558  72.4693454  19.2957861  73.0830596  72.8492355  18.7454894
  73.8523407  73.0788781  20.0289809  71.0230489  70.1153413  25.8953205
  71.2347385  70.7585173  25.2187586  70.9760238  69.2815729  25.4275135
  68.6256718  62.7271234  22.7989777  67.7641197  63.0252487  23.0906514
  68.6519153  62.9441632  21.8670809  65.4418288  71.2713424  19.2063582
  65.9056633  71.5501127  18.4168205  65.1775086  70.3696869  19.0236673
  64.3787174  67.3936577  16.0153147  65.0811217  67.8457620  16.4827074
  64.0467802  66.7520395  16.6433041  58.1212508  65.6520129  21.3170281
  57.3311562  65.9077658  20.8410392  58.6123755  66.4668467  21.4222322
  72.1376317  72.9925368  24.0675562  72.9593761  72.5905556  23.7858244
  72.1338720  72.8893603  25.0191678  60.0727253  66.0164708  18.2753758
  59.2758417  66.1283403  18.7937253  59.8452845  66.3551361  17.4094648
  56.4050211  65.9050620  23.7485272  56.6558249  66.7897630  24.0142848
  56.9409759  65.7255221  22.9760364  80.2282310  69.3364117  20.4160533
  79.4746019  68.7671515  20.2604538  80.3629852  69.3026781  21.3631168
  65.6180939  74.2077519  16.0915253  65.4826613  75.0529055  16.5200101
  66.1590751  74.4096797  15.3281187  59.0710336  71.7252957  16.6643178
  59.5834856  72.5196207  16.8148742  59.7233049  71.0279248  16.5976779
  60.8805221  74.8418713  18.7465931  61.0571849  75.7636678  18.5586915
  61.6762054  74.5277133  19.1760311  62.0036536  76.3596887  24.7476273
  62.5543961  76.2313951  23.9753267  61.1648012  76.6591776  24.3971166
  69.3430653  75.1103886  28.2496996  69.3249128  75.9312767  27.7577265
  70.2650573  74.9857961  28.4747137  57.0359253  70.0541611  17.4402748
  57.8734475  70.4638620  17.2236456  57.2137520  69.1141054  17.4102942
  68.9323685  67.7216692  13.1286581  68.4170308  68.4921297  13.3674969
  68.6600993  67.0481828  13.7519643  66.5170796  62.5666393  18.1871820
  65.6612392  62.1773243  18.0077458  66.9297748  62.6458354  17.3271605
  64.2912828  60.1851466  21.5929561  65.1565825  59.9894275  21.2335451
  64.3590337  59.9561818  22.5198918  73.9057959  70.4749047  15.0639755
  73.1287402  70.1360206  14.6194917  74.5849440  70.4801670  14.3894720
  68.7209988  65.5943784  14.9546362  68.4160124  65.9089933  15.8056506
  69.6740430  65.6725204  14.9973695  67.1656420  71.7534008  16.6039316
  66.6377781  71.0186767  16.2912554  66.6643923  72.5308684  16.3579285
  72.1449266  69.9483028  21.7206363  71.4872940  70.6382289  21.8086491
  72.9489665  70.3379460  22.0640349  61.8975147  62.4153674  18.9645928
  62.4718899  62.1928855  18.2319121  62.4846130  62.4842368  19.7174529
  70.9554725  68.3027401  19.7710304  71.4686606  68.9357393  20.2732014
  71.6055949  67.7028596  19.4053665  62.2244735  64.4458135  12.9841813
  61.3882047  64.7832821  13.3051088  62.0849504  64.3107115  12.0468950
  64.1997815  59.2894923  17.6920997  63.5462227  58.9743940  17.0677612
  64.1578289  58.6670663  18.4180820  65.3109020  69.5714218   9.6074289
  64.4036082  69.3403471   9.8065438  65.8080052  68.7751837   9.7948271
  68.2177099  78.2811725  12.5270976  67.5438798  78.5843422  13.1355933
  68.6042921  79.0840805  12.1776433  67.4335555  65.7776856  22.0168645
  66.5158117  65.9991803  21.8590333  67.8495699  65.8523167  21.1580352
  68.2170603  67.1768272  17.1471325  68.9642422  67.6889669  16.8378447
  68.4862193  66.8552325  18.0075719  66.4897253  69.6726813  14.1298280
  65.5808473  69.3885845  14.2270749  66.5192337  70.0925891  13.2701586
  71.7216521  73.2833402  17.8989447  71.2678848  72.4424312  17.9554638
  71.0910488  73.9194801  18.2364227  70.6649440  64.2125388  19.1290115
  69.9272197  63.7002774  19.4600357  70.9176214  63.7725770  18.3173391
  70.1649460  75.1209899  18.8339265  70.4572434  75.6814956  18.1151631
  70.6748081  75.4138460  19.5892424  70.7661068  56.9901640  19.7231884
  71.0719945  56.1299004  19.4357799  71.4913673  57.5819260  19.5230878
  57.0585424  67.3932327  18.1113482  56.8609824  66.8001687  17.3864548
  56.5032088  67.0884537  18.8289421  65.0382147  67.2855433  20.2308075
  65.0930757  66.3329270  20.1550551  64.2273350  67.4414872  20.7149373
  66.1873341  71.2135556  11.4686358  65.7492771  70.4971415  11.0091995
  66.9283782  71.4411671  10.9071450  62.9774507  65.9032493  17.9898454
  62.1642373  66.2026664  18.3963646  63.4733502  65.5088182  18.7072936
  65.1283085  75.8990250  19.9232718  65.0859264  76.1251096  18.9941250
  66.0445784  75.6653625  20.0718520  74.3046456  69.4892753  17.5262677
  74.1664355  69.6794349  16.5983866  73.9482675  70.2512136  17.9830728
  62.4688582  63.4750849  23.6059689  63.1087961  63.3339608  22.9082652
  61.6366113  63.1885362  23.2298291  74.3315836  71.5569280  22.5373948
  74.7652342  71.4644569  23.3857002  75.0447416  71.5326781  21.8993964
  63.2448886  72.7753279  19.7194681  64.0389485  72.2803599  19.5177256
  62.5340578  72.2471142  19.3562387  68.0643731  75.1571374  24.0707049
  68.1180753  75.7262311  24.8384765  67.1958512  75.3273260  23.7061086
  59.5531650  66.9196361  15.7954434  58.6229238  66.8580816  16.0124396
  59.6489122  66.3972313  14.9991075  59.4717199  63.4451174  18.3832676
  59.7324016  64.3596507  18.2741836  60.2934371  62.9775616  18.5329288
  75.1931385  71.5992981  25.0706834  75.3867275  72.5038792  25.3166109
  75.0932003  71.1400400  25.9045419  67.0231830  69.3231637  25.6293981
  67.9523890  69.4742796  25.4562948  66.6022860  69.4115657  24.7742627
  65.8220162  73.3482301  23.3992518  65.6831248  72.9801085  24.2718456
  65.0334758  73.8629940  23.2276476  66.4168314  78.4491397  14.7418055
  66.5920070  77.9779441  15.5563677  65.7301102  79.0757164  14.9699316
  67.3725377  72.7263904  20.7881356  67.0375210  72.6864674  21.6839006
  66.8729323  72.0608620  20.3151766  70.3084569  70.0719938  11.0618416
  69.6913739  69.3466766  10.9651468  69.8401057  70.8329298  10.7185490
  71.9638701  74.7818846  28.7224196  71.9051247  74.0978066  28.0554779
  72.3658219  75.5237836  28.2704822  60.9829399  81.5980760  21.5157915
  61.2225998  82.2299284  22.1936934  60.1398596  81.2468800  21.8023274
  62.0983115  64.2905362  10.1839720  61.2212581  64.1694163   9.8201967
  62.5740868  63.4991441   9.9318609  71.9656108  72.7458430  26.9538176
  71.0782887  72.4084352  27.0764575  72.5354659  72.0141461  27.1906941
  53.6185255  69.0782522  20.2781227  54.3056295  68.7644252  19.6902242
  53.4633384  69.9823887  20.0048479  65.4957261  77.4059883  23.9199419
  65.4227433  78.2114854  24.4318724  65.0534654  77.6051848  23.0947440
  65.2847041  76.6431653  17.4302241  64.5014563  77.1853333  17.5240465
  65.9839786  77.1605632  17.8296482  68.5943691  62.4526282  20.0736446
  69.0912390  61.6996244  19.7537516  67.8230672  62.4890599  19.5079655
  76.4473448  68.1566648  21.7154737  76.4363325  69.0391363  21.3448671
  75.5790828  67.8038198  21.5209274  67.9555945  77.3046717  26.0757578
  68.6683917  77.9394181  26.0033479  67.4645973  77.4010583  25.2597579
  69.6773472  71.2097969  17.6474869  68.7429750  71.3299432  17.4779574
  69.8550140  70.3070436  17.3834879  65.1778660  64.5943665  19.8008130
  64.8076447  64.0414705  20.4889036  65.6737752  63.9901799  19.2483131
  73.0646023  67.0515289  18.1824903  73.5306475  67.8843280  18.1085206
  73.5153523  66.5860270  18.8870162  63.0067858  75.0541160  26.8963148
  63.7077318  75.6877643  27.0492543  62.5362973  75.3955892  26.1358788
  71.1322254  73.3959110  15.1811055  71.4082098  73.2815704  16.0904930
  70.2626753  72.9976595  15.1423229  71.0362686  59.4195876  22.2215805
  70.1225765  59.6500102  22.3898012  71.4655787  59.5034320  23.0729837
  70.8069144  67.6085768  24.7215699  70.1540594  67.8561675  24.0668152
  71.1849524  66.7949906  24.3878176  67.7676318  77.6445461  18.8243869
  67.9498713  76.8267117  19.2871621  68.5909304  77.8613153  18.3868759
  68.1018484  76.5713646  16.0858918  68.6306250  76.0606100  15.4729080
  68.3646703  76.2556176  16.9504451  58.6035576  74.5877515  23.8294251
  59.1889013  73.8421203  23.9622155  58.4060415  74.8981472  24.7130915
  61.4574232  77.6228763  18.8456694  60.7884607  78.1074890  18.3620734
  61.3187101  77.8697983  19.7600072  53.1953231  67.1583115  22.5498694
  53.2337331  66.6246706  23.3435812  52.6893524  66.6318321  21.9309671
  65.5979500  79.6572506  25.4439352  66.1497808  79.8204128  26.2088437
  65.9385694  80.2476944  24.7719377  56.8261809  65.8847218  15.6252626
  57.1215250  64.9757896  15.5719679  55.9249844  65.8634957  15.3033628
  68.7347887  77.6054482  22.4303034  68.6099027  76.8044221  21.9213980
  69.3926978  78.1000675  21.9417004  60.3556056  63.9603214  21.6080174
  59.6342641  64.5739182  21.4687648  61.1449311  64.4960979  21.5296820
  70.7982796  75.4063502  24.0582584  69.8513131  75.2868853  23.9860911
  71.1465569  74.5186000  24.1408846  58.5549650  63.5661315  15.7491951
  58.2262356  62.6858694  15.5667057  58.9089021  63.5108984  16.6368340
  67.8029229  75.2016218  20.2586936  67.6554191  74.2732925  20.4394506
  68.6282723  75.2236309  19.7744012  61.6691473  63.8534285  16.1167429
  62.0087546  64.3820206  15.3946037  62.1163594  64.1914691  16.8925995
  71.4063351  76.0244777  21.3451809  72.3309898  75.8187638  21.2076260
  71.2378654  75.7761178  22.2541151  63.6559620  62.3508907  14.3160721
  64.3767983  62.7290159  13.8124438  63.0324925  63.0697783  14.4195699
  67.7990743  63.0554056  15.2519054  68.0154358  63.9378693  14.9507882
  67.3184811  62.6640269  14.5224696  64.3986348  63.0042317  21.8770688
  64.3847916  62.1083410  21.5402986  65.1158776  63.0112980  22.5108974
  71.1958667  76.5430444  16.7013901  71.3695545  75.9776867  15.9487753
  71.6887558  77.3431339  16.5193391  63.8023244  61.8856697  17.1458258
  63.9239155  60.9573343  17.3449145  63.5125286  61.8995383  16.2336573
  66.6714434  59.5711607  20.2824978  66.6936131  59.6350941  19.3276957
  67.0882493  58.7316116  20.4765484  77.0498058  69.3066867  18.3204200
  77.4929204  68.5574192  17.9223324  76.1724569  69.2977003  17.9377932
  72.1833840  75.8597208  13.8010799  72.8784744  76.4803901  14.0198113
  72.5256990  75.0092560  14.0763177  74.0825263  73.3096914  15.3298130
  74.6076587  73.6484187  14.6047450  73.9947615  72.3743929  15.1461264
  65.7445311  77.2230988  27.4588006  66.0532438  76.9780134  28.3310706
  66.5420793  77.4277626  26.9706876  65.7665923  79.3768897  19.6893383
  65.3270914  78.8845276  20.3826240  66.5174040  78.8341865  19.4485458
  58.2458262  75.5680438  19.6918011  59.0716282  75.2684210  19.3116654
  57.8952314  74.7988061  20.1407800  63.2139796  74.9206906  21.7615684
  62.5919805  74.2577611  21.4617912  63.8844663  74.9468038  21.0789332
  56.4466868  73.4866765  20.6506944  55.6098776  73.0588939  20.4690946
  56.4190513  73.6799208  21.5877736  73.8917044  70.7922284  27.9482056
  73.9415049  70.6272291  28.8897579  73.7830967  69.9249543  27.5579937
  62.7753303  73.4710830  15.2374145  62.9241423  74.1546294  14.5840818
  63.5819746  73.4515920  15.7523601  75.3935241  73.2119226  28.1924078
  75.1020049  73.5749206  29.0287539  74.7807372  72.4986234  28.0137410
  76.5930923  70.7772105  20.7126648  77.4277814  71.2161909  20.8764208
  76.7290052  70.3010759  19.8934894  73.6422429  68.3351840  26.6604136
  74.1176551  68.5279486  25.8522987  72.7187994  68.3911026  26.4147519
  60.5305936  69.4976007  16.2435214  60.2851977  68.5938337  16.4415424
  60.7001850  69.4993158  15.3014692  59.8001583  65.2304365  13.7421375
  59.1070828  65.3048720  13.0861411  59.5553335  64.4664709  14.2642892
  68.4715240  56.7899966  21.1460866  68.7516993  56.1223155  21.7721293
  69.2565846  56.9829062  20.6335530  66.2748708  75.9658960  12.7085892
  65.7022675  76.5849147  12.2556364  66.8481502  76.5158322  13.2425814
  72.3424098  65.2117600  24.8932441  73.2941521  65.3115698  24.9144665
  72.1727548  64.4195869  25.4030526  69.4945968  76.2496110  13.8394475
  70.4276641  76.1841672  14.0427350  69.4069181  77.0852377  13.3809007
  72.1233985  75.5661981  10.7998422  72.0447616  75.2321844  11.6934180
  72.9443651  76.0583749  10.7989895  74.8212176  68.4323720  24.0074741
  74.7888496  67.4939721  24.1934425  75.4312799  68.5107757  23.2740566
  66.6595507  67.3019773  10.0501945  67.6054611  67.1725981  10.1190363
  66.2809752  66.5634435  10.5271373  74.9706664  65.2234763  24.0533024
  74.4545713  64.4393220  23.8662953  75.8546613  64.8953480  24.2179544
  72.6317391  58.9675779  20.0128837  72.4342212  58.6590867  20.8972169
  73.2417097  59.6937418  20.1426767  80.6388726  69.4939727  23.1480778
  81.3692114  69.2325015  23.7088481  80.0295671  68.7568449  23.1882846
  78.7204023  67.6347589  23.7455229  77.9937186  67.5003554  23.1371720
  78.3051310  67.9424418  24.5511947  64.8438424  65.2269749   9.9856830
  63.9369879  64.9302862  10.0619544  65.1214405  64.9299567   9.1191116
  55.7616364  66.5476113  20.4355877  55.4419148  65.6941421  20.1430251
  55.2149792  66.7624691  21.1913844  66.4600489  59.7706639  16.1401071
  65.6501218  59.4253724  16.5156318  67.1484906  59.4614183  16.7288683
  68.3891038  58.8484686  17.7625368  68.9422076  59.2680139  18.4215391
  68.6261124  57.9220434  17.8048324  63.6137208  62.0856685  10.1268809
  64.4756372  62.4111583  10.3864627  63.7987552  61.2988180   9.6141875
  55.6304624  70.1679024  22.4048998  54.9368096  69.7532977  21.8918953
  56.3777615  70.2099561  21.8082417  71.7669845  60.9585211  17.2704032
  71.1868514  61.6170015  16.8882085  71.5005777  60.1362556  16.8591450
  70.2173411  60.3590269  19.4725353  70.7173190  60.4706803  18.6639672
  70.8609019  60.0551322  20.1126161  57.5441367  70.0997278  20.2815013
  57.5212055  70.1984965  19.3296896  57.8542003  70.9462429  20.6032179
  60.2028744  72.1573433  24.3961627  61.1571998  72.1257375  24.3291559
  60.0041268  71.6964057  25.2111853  70.5494723  63.1185301  16.3260381
  69.6620578  63.4034952  16.1080575  70.9648712  62.9579065  15.4787658
  73.9009259  63.1431822  20.0414720  74.6769649  63.6328275  20.3139337
  73.1757393  63.5689877  20.4986589  76.3381818  63.8559442  21.0988660
  76.9326308  63.6155178  20.3881969  76.4108401  63.1366572  21.7262197
  58.5578973  77.6993053  21.4131825  58.4233441  76.9393453  20.8469823
  58.1411036  78.4233952  20.9460614  69.6937936  72.8829976  10.4208401
  70.3973786  73.0879979  11.0366056  68.9700585  73.4506738  10.6857484
  70.5235747  68.6339837  16.5410671  70.4670948  69.0908389  15.7018303
  71.0764089  67.8730522  16.3633514  74.3340552  64.4229569  17.3660790
  74.0777487  64.0226205  18.1968998  73.7093421  65.1373363  17.2410929
  78.6452890  67.1625642  19.8732082  78.0852448  67.2318832  20.6463644
  78.0396394  66.9866627  19.1531578  61.7148099  78.5962370  21.6250268
  61.5980483  79.5407802  21.5228958  60.8940545  78.2935931  22.0136067
  71.6024634  73.3212505  12.4706861  72.4370238  72.8893704  12.2884335
  71.4408977  73.1494519  13.3983755  71.2570526  69.8244619  13.8363200
  71.2019330  69.6588890  12.8951644  70.6316581  70.5320651  13.9925390
  64.5666651  59.3252728  13.4148518  64.5545321  60.2694567  13.5716789
  65.4590073  59.1422873  13.1207980  62.7402613  79.2490631  24.8406196
  63.6429860  79.2814242  25.1572691  62.5139983  78.3191082  24.8552532
  64.4956215  78.0021618  21.5016275  63.5451846  78.0023480  21.3880647
  64.7988701  77.2554353  20.9852310  68.3818771  55.9195504  17.6694455
  67.6151167  55.3653991  17.8151138  68.7929476  55.9917373  18.5308607
  80.2308909  83.8382156  22.5662037  80.8687319  83.7188904  21.8625377
  80.1129752  84.7863000  22.6249990  77.0398615  83.7909584  22.5023562
  76.7017127  83.6750649  21.6144097  77.9088383  83.3900750  22.4824568
  72.8985431  85.6445061  18.4920453  72.3350296  85.5534998  17.7236741
  72.7837826  84.8244965  18.9722946  77.5218398  84.9444436  28.4609768
  77.5107039  84.5497234  27.5890271  77.6839038  84.2110509  29.0543539
  70.4449863  87.1396252  21.3304673  71.2371155  86.7987077  20.9150973
  70.6846513  87.2491228  22.2506827  78.4784989  89.3116029  13.8034918
  77.8272969  89.8970109  13.4168932  79.2729352  89.8422223  13.8629955
  72.4040617  86.4005166  14.2022052  73.1771493  85.8534153  14.0634928
  72.7566016  87.2649415  14.4136514  74.2425659  87.7281548  27.4088952
  73.9515525  88.6327179  27.2935618  74.8782644  87.7698076  28.1233021
  75.1681866  85.1058397  23.9990311  75.7645438  84.8814419  23.2847274
  75.2256838  84.3643142  24.6015759  74.7406894  82.5597832  11.8340502
  74.9932415  82.0379353  11.0723965  73.8031454  82.3963977  11.9367186
  79.7850177  81.5633610  19.6415245  80.5713267  81.1453033  19.2905662
  80.0488882  82.4679702  19.8096894  79.9560255  87.0006461  14.3403902
  79.3206088  87.0741087  15.0524807  79.6257661  87.5900059  13.6622981
  85.1858604  81.5008843  20.5448224  85.9183776  80.9308060  20.7786053
  84.4297960  81.1130444  20.9854730  74.4603183  84.4625938  14.0364877
  74.3439441  83.7870841  14.7045961  74.5705443  83.9758312  13.2197030
  76.8034724  83.9236085  17.7411566  76.4392931  83.3966706  18.4524488
  77.6601840  83.5334554  17.5678052  82.7084025  75.2130418  25.0042833
  82.3767350  76.0825828  24.7804048  82.1129638  74.8966702  25.6836863
  76.4440211  78.9525985  12.7372915  76.6114613  79.8206221  13.1043386
  76.2537380  79.1153266  11.8134204  79.2015544  87.4142963  24.4038745
  78.9016267  88.3168002  24.2954553  78.8566604  87.1475147  25.2559898
  72.6528026  83.8656760  20.4375450  71.7278522  83.7332974  20.6453141
  72.9012439  84.6450980  20.9345392  82.6012688  79.9325504  22.0836183
  81.6929565  79.8640912  21.7894944  82.5500284  80.4097449  22.9118008
  76.4229432  81.4083642  13.7219582  76.3029057  81.8540693  14.5605062
  75.7282020  81.7568960  13.1633120  70.0136837  83.5090034  21.2719239
  70.1429218  83.7624513  22.1858650  69.3334288  84.1017742  20.9523894
  74.1836324  94.1787284  17.3709713  74.1060354  95.1295109  17.4498194
  73.5797968  93.8333156  18.0284639  76.6753554  81.3515149  30.0271080
  75.8986888  81.9109069  30.0173945  77.3144117  81.8371932  30.5485950
  84.4674334  78.1341942  23.8614057  83.8248715  78.4274475  23.2153851
  83.9629263  78.0194862  24.6667253  82.1214498  81.8805115  14.5499916
  83.0332354  82.1132502  14.3747613  81.6124145  82.4642159  13.9874994
  74.9299926  84.1600603  29.5889047  75.6714611  84.6985647  29.3123870
  74.2236912  84.7866891  29.7460599  80.4055266  86.3029743  28.1861208
  80.8138622  85.8612154  27.4415841  79.6832527  85.7282371  28.4395401
  76.7586336  81.2402350  25.5594765  77.6047531  81.6641763  25.7029414
  76.6984974  80.5835974  26.2533328  80.7284080  86.8630934  21.9413497
  80.0992943  87.0276648  21.2389565  80.3409743  87.2772543  22.7124461
  84.6073312  87.7985372  19.2957861  83.9224350  88.1784273  18.7454894
  84.6917162  88.4080698  20.0289809  79.9085781  78.9006718  27.2175939
  79.6646713  79.6548779  26.6810215  80.1845712  79.2792066  28.0523186
  81.8624244  85.4445331  25.8953205  82.0741139  86.0877090  25.2187586
  81.8153992  84.6107647  25.4275135  79.4650473  78.0563151  22.7989777
  78.6034952  78.3544405  23.0906514  79.4912908  78.2733550  21.8670809
  76.2812042  86.6005342  19.2063582  76.7450388  86.8793045  18.4168205
  76.0168840  85.6988786  19.0236673  73.1736123  86.1476823  22.1443346
  73.7437480  86.5764092  21.5060830  73.7644235  85.8659408  22.8427531
  75.2180928  82.7228494  16.0153147  75.9204972  83.1749538  16.4827074
  74.8861557  82.0812313  16.6433041  73.6661290  81.3140251  30.3904357
  73.0359950  81.9956532  30.6239754  73.5597378  81.2023332  29.4457495
  68.9606262  80.9812047  21.3170281  68.1705316  81.2369575  20.8410392
  69.4517510  81.7960385  21.4222322  82.9770072  88.3217286  24.0675562
  83.7987516  87.9197473  23.7858244  82.9732475  88.2185520  25.0191678
  70.9121008  81.3456626  18.2753758  70.1152171  81.4575320  18.7937253
  70.6846600  81.6843278  17.4094648  76.7426675  87.8701329  26.2236272
  76.8071108  88.3321737  27.0594444  76.0337599  87.2398694  26.3518582
  67.2443965  81.2342537  23.7485272  67.4952004  82.1189547  24.0142848
  67.7803514  81.0547139  22.9760364  91.0676065  84.6656034  20.4160533
  90.3139773  84.0963433  20.2604538  91.2023606  84.6318699  21.3631168
  76.4574693  89.5369437  16.0915253  76.3220368  90.3820973  16.5200101
  76.9984506  89.7388714  15.3281187  69.9104090  87.0544875  16.6643178
  70.4228611  87.8488125  16.8148742  70.5626803  86.3571165  16.5976779
  71.7198975  90.1710631  18.7465931  71.8965603  91.0928596  18.5586915
  72.5155809  89.8569050  19.1760311  71.0051332  82.2175263  28.6228094
  70.8904847  81.3160520  28.9235193  70.1495849  82.4638960  28.2712911
  78.0843169  90.1593003  30.2215595  77.6407024  89.3729382  29.9036499
  78.7460383  90.3472154  29.5559486  72.8430291  91.6888805  24.7476273
  73.3937716  91.5605868  23.9753267  72.0041766  91.9883694  24.3971166
  80.1824407  90.4395803  28.2496996  80.1642883  91.2604684  27.7577265
  81.1044327  90.3149878  28.4747137  76.6397462  87.9539933  29.0920504
  77.1725798  87.1928221  28.8619812  76.1111543  87.6613585  29.8344659
  79.8067157  73.0599999  24.6214146  79.4631426  73.9501640  24.5453257
  80.1746119  72.8701656  23.7583731  67.8753007  85.3833529  17.4402748
  68.7128229  85.7930537  17.2236456  68.0531275  84.4432971  17.4102942
  79.7717439  83.0508610  13.1286581  79.2564063  83.8213214  13.3674969
  79.4994748  82.3773746  13.7519643  77.3564550  77.8958311  18.1871820
  76.5006147  77.5065161  18.0077458  77.7691502  77.9750271  17.3271605
  78.8863697  75.4304654  22.5863379  78.3828493  75.3934789  21.7731185
  79.1794304  76.3397397  22.6460036  75.1306583  75.5143384  21.5929561
  75.9959580  75.3186192  21.2335451  75.1984092  75.2853735  22.5198918
  84.7451713  85.8040964  15.0639755  83.9681156  85.4652124  14.6194917
  85.4243194  85.8093588  14.3894720  79.5603742  80.9235702  14.9546362
  79.2553878  81.2381851  15.8056506  80.5134185  81.0017122  14.9973695
  78.0050174  87.0825925  16.6039316  77.4771536  86.3478685  16.2912554
  77.5037677  87.8600602  16.3579285  82.9843020  85.2774946  21.7206363
  82.3266695  85.9674207  21.8086491  83.7883420  85.6671378  22.0640349
  72.7368902  77.7445591  18.9645928  73.3112654  77.5220773  18.2319121
  73.3239884  77.8134286  19.7174529  81.7948479  83.6319318  19.7710304
  82.3080361  84.2649310  20.2732014  82.4449703  83.0320514  19.4053665
  73.0638489  79.7750053  12.9841813  72.2275801  80.1124739  13.3051088
  72.9243259  79.6399032  12.0468950  75.0391570  74.6186840  17.6920997
  74.3855982  74.3035858  17.0677612  74.9972044  73.9962581  18.4180820
  76.1502774  84.9006135   9.6074289  75.2429836  84.6695389   9.8065438
  76.6473806  84.1043755   9.7948271  78.2729310  81.1068774  22.0168645
  77.3551871  81.3283721  21.8590333  78.6889454  81.1815084  21.1580352
  79.0564358  82.5060190  17.1471325  79.8036177  83.0181587  16.8378447
  79.3255947  82.1844242  18.0075719  77.3291008  85.0018730  14.1298280
  76.4202227  84.7177763  14.2270749  77.3586092  85.4217809  13.2701586
  82.5610275  88.6125320  17.8989447  82.1072602  87.7716230  17.9554638
  81.9304242  89.2486718  18.2364227  81.5043195  79.5417306  19.1290115
  80.7665952  79.0294692  19.4600357  81.7569968  79.1017687  18.3173391
  81.0043215  90.4501817  18.8339265  81.2966189  91.0106874  18.1151631
  81.5141835  90.7430378  19.5892424  81.6054822  72.3193558  19.7231884
  81.9113699  71.4590921  19.4357799  82.3307427  72.9111178  19.5230878
  67.8979178  82.7224244  18.1113482  67.7003578  82.1293605  17.3864548
  67.3425842  82.4176455  18.8289421  75.8775902  82.6147351  20.2308075
  75.9324512  81.6621187  20.1550551  75.0667104  82.7706790  20.7149373
  77.0267096  86.5427474  11.4686358  76.5886526  85.8263333  11.0091995
  77.7677537  86.7703589  10.9071450  73.8168262  81.2324411  17.9898454
  73.0036127  81.5318581  18.3963646  74.3127256  80.8380099  18.7072936
  75.9676840  91.2282168  19.9232718  75.9253019  91.4543014  18.9941250
  76.8839539  90.9945542  20.0718520  79.4142474  81.6966235  26.8213348
  79.7691861  81.9237708  27.6807813  80.0614605  82.0284612  26.1990603
  85.1440211  84.8184671  17.5262677  85.0058109  85.0086267  16.5983866
  84.7876429  85.5804054  17.9830728  73.3082337  78.8042766  23.6059689
  73.9481716  78.6631525  22.9082652  72.4759867  78.5177280  23.2298291
  85.1709590  86.8861198  22.5373948  85.6046097  86.7936487  23.3857002
  85.8841171  86.8618699  21.8993964  74.0842641  88.1045197  19.7194681
  74.8783239  87.6095517  19.5177256  73.3734333  87.5763060  19.3562387
  78.9037485  90.4863292  24.0707049  78.9574507  91.0554228  24.8384765
  78.0352266  90.6565177  23.7061086  70.3925404  82.2488278  15.7954434
  69.4622992  82.1872734  16.0124396  70.4882876  81.7264231  14.9991075
  70.3110953  78.7743091  18.3832676  70.5717770  79.6888424  18.2741836
  71.1328125  78.3067534  18.5329288  71.7835878  80.1880848  25.5531500
  72.4558932  79.9798210  24.9044149  70.9565665  79.9902934  25.1136732
  86.0325140  86.9284899  25.0706834  86.2261030  87.8330709  25.3166109
  85.9325758  86.4692318  25.9045419  77.6861450  76.8142789  27.5697161
  77.0389365  77.5132739  27.4761637  78.4562466  77.2478933  27.9373409
  81.0940248  87.0791641  30.6447714  80.9425755  86.8502193  29.7277798
  81.0844928  88.0362243  30.6579059  77.8625585  84.6523554  25.6293981
  78.7917645  84.8034714  25.4562948  77.4416615  84.7407575  24.7742627
  76.6613917  88.6774219  23.3992518  76.5225002  88.3093003  24.2718456
  75.8728513  89.1921858  23.2276476  77.2562069  93.7783315  14.7418055
  77.4313824  93.3071358  15.5563677  76.5694857  94.4049081  14.9699316
  78.2119132  88.0555821  20.7881356  77.8768964  88.0156591  21.6839006
  77.7123077  87.3900537  20.3151766  72.1863376  83.4623451  26.3133937
  72.0483174  82.7303690  26.9145476  73.0968299  83.3732351  26.0318125
  81.1478323  85.4011856  11.0618416  80.5307494  84.6758684  10.9651468
  80.6794812  86.1621216  10.7185490  74.8145676  83.1743411  25.8017617
  75.5245295  82.5336603  25.7604235  74.7714984  83.4256306  26.7243798
  82.8032455  90.1110764  28.7224196  82.7445001  89.4269984  28.0554779
  83.2051973  90.8529754  28.2704822  73.5274610  80.1608629  27.6213256
  72.9911967  79.7099367  28.2734853  72.9391319  80.2954537  26.8783721
  71.8223154  96.9272678  21.5157915  72.0619752  97.5591202  22.1936934
  70.9792350  96.5760718  21.8023274  72.9376869  79.6197280  10.1839720
  72.0606336  79.4986081   9.8201967  73.4134622  78.8283358   9.9318609
  82.8049862  88.0750348  26.9538176  81.9176641  87.7376270  27.0764575
  83.3748413  87.3433379  27.1906941  64.4579009  84.4074440  20.2781227
  65.1450049  84.0936170  19.6902242  64.3027138  85.3115804  20.0048479
  69.2613732  79.2964636  24.7066251  69.1771920  78.6890306  23.9716661
  68.4396438  79.7873655  24.7075747  76.3351016  92.7351800  23.9199419
  76.2621187  93.5406772  24.4318724  75.8928409  92.9343766  23.0947440
  76.1240795  91.9723570  17.4302241  75.3408317  92.5145250  17.5240465
  76.8233540  92.4897550  17.8296482  79.4337445  77.7818200  20.0736446
  79.9306145  77.0288162  19.7537516  78.6624427  77.8182516  19.5079655
  87.2867203  83.4858565  21.7154737  87.2757079  84.3683281  21.3448671
  86.4184582  83.1330116  21.5209274  78.7949699  92.6338634  26.0757578
  79.5077671  93.2686099  26.0033479  78.3039728  92.7302500  25.2597579
  80.5167226  86.5389887  17.6474869  79.5823505  86.6591349  17.4779574
  80.6943895  85.6362354  17.3834879  76.0172414  79.9235583  19.8008130
  75.6470202  79.3706623  20.4889036  76.5131507  79.3193716  19.2483131
  83.9039777  82.3807206  18.1824903  84.3700230  83.2135198  18.1085206
  84.3547278  81.9152188  18.8870162  73.8461613  90.3833078  26.8963148
  74.5471072  91.0169561  27.0492543  73.3756728  90.7247809  26.1358788
  81.9716009  88.7251028  15.1811055  82.2475852  88.6107622  16.0904930
  81.1020507  88.3268512  15.1423229  81.8756440  74.7487793  22.2215805
  80.9619520  74.9792020  22.3898012  82.3049542  74.8326237  23.0729837
  81.6462899  82.9377685  24.7215699  80.9934349  83.1853593  24.0668152
  82.0243279  82.1241823  24.3878176  78.6070073  92.9737378  18.8243869
  78.7892467  92.1559034  19.2871621  79.4303059  93.1905071  18.3868759
  78.9412238  91.9005564  16.0858918  79.4700004  91.3898018  15.4729080
  79.2040458  91.5848094  16.9504451  77.6950472  83.6797496  31.2081736
  77.0191109  83.5791626  31.8784111  78.5178106  83.5236710  31.6717733
  69.4429331  89.9169433  23.8294251  70.0282768  89.1713121  23.9622155
  69.2454169  90.2273390  24.7130915  72.2967986  92.9520680  18.8456694
  71.6278361  93.4366808  18.3620734  72.1580856  93.1989901  19.7600072
  64.0346986  82.4875033  22.5498694  64.0731085  81.9538624  23.3435812
  63.5287278  81.9610239  21.9309671  76.4373255  94.9864424  25.4439352
  76.9891563  95.1496045  26.2088437  76.7779448  95.5768862  24.7719377
  71.4137748  77.3339574  26.0461237  71.4779074  78.1954404  25.6338634
  71.3504868  76.7213575  25.3133595  70.8890020  79.4062706  29.6934271
  71.5162059  79.0239783  30.3071795  70.0317939  79.1876908  30.0589963
  81.2884129  89.8125681  31.2988006  81.8324033  90.4255640  30.8042961
  80.7070974  90.3705260  31.8155019  67.6655563  81.2139135  15.6252626
  67.9609004  80.3049814  15.5719679  66.7643599  81.1926875  15.3033628
  79.5741642  92.9346399  22.4303034  79.4492781  92.1336139  21.9213980
  80.2320733  93.4292593  21.9417004  71.1949810  79.2895132  21.6080174
  70.4736396  79.9031099  21.4687648  71.9843066  79.8252897  21.5296820
  81.6376550  90.7355419  24.0582584  80.6906886  90.6160771  23.9860911
  81.9859323  89.8477917  24.1408846  73.9976124  76.6249558  27.8820826
  74.5210525  76.8711855  28.6447135  73.7788457  77.4569593  27.4623963
  69.3943405  78.8953233  15.7491951  69.0656111  78.0150612  15.5667057
  69.7482775  78.8400902  16.6368340  78.6422984  90.5308136  20.2586936
  78.4947946  89.6024843  20.4394506  79.4676477  90.5528226  19.7744012
  72.5085228  79.1826203  16.1167429  72.8481300  79.7112124  15.3946037
  72.9557348  79.5206609  16.8925995  82.2457105  91.3536694  21.3451809
  83.1703653  91.1479556  21.2076260  82.0772409  91.1053095  22.2541151
  75.2028669  77.5663253  25.5670497  74.8625489  76.7671066  25.9691176
  74.4967675  77.8664964  24.9947330  75.8545140  74.6512566  24.0197820
  76.6771210  74.1773044  23.8976710  76.0983204  75.4303050  24.5196506
  74.4953375  77.6800824  14.3160721  75.2161737  78.0582077  13.8124438
  73.8718679  78.3989701  14.4195699  78.6384498  78.3845973  15.2519054
  78.8548112  79.2670611  14.9507882  78.1578565  77.9932187  14.5224696
  73.3783719  81.3431686  21.8289798  73.2328300  81.6571990  22.7214080
  72.9008923  81.9616587  21.2760697  75.2380102  78.3334234  21.8770688
  75.2241671  77.4375328  21.5402986  75.9552530  78.3404898  22.5108974
  77.0906233  78.7671575  23.9223815  76.8324011  79.6888645  23.9208146
  76.5591273  78.3702009  24.6124279  82.0352422  91.8722362  16.7013901
  82.2089299  91.3068784  15.9487753  82.5281313  92.6723257  16.5193391
  67.8529381  83.8837031  24.7677459  67.3082849  84.6596839  24.8997734
  68.7308731  84.2307835  24.6096581  74.6416998  77.2148615  17.1458258
  74.7632909  76.2865261  17.3449145  74.3519040  77.2287301  16.2336573
  77.5108188  74.9003525  20.2824978  77.5329885  74.9642858  19.3276957
  77.9276247  74.0608034  20.4765484  87.8891813  84.6358785  18.3204200
  88.3322959  83.8866110  17.9223324  87.0118323  84.6268921  17.9377932
  83.0227594  91.1889126  13.8010799  83.7178499  91.8095819  14.0198113
  83.3650744  90.3384477  14.0763177  68.6395403  83.0106927  27.6607616
  67.8977139  83.1589562  28.2472247  68.3188148  83.2715193  26.7974366
  84.9219017  88.6388832  15.3298130  85.4470341  88.9776104  14.6047450
  84.8341370  87.7035847  15.1461264  76.5839066  92.5522905  27.4588006
  76.8926192  92.3072052  28.3310706  77.3814548  92.7569544  26.9706876
  76.6059678  94.7060815  19.6893383  76.1664668  94.2137194  20.3826240
  77.3567795  94.1633783  19.4485458  69.0852017  90.8972356  19.6918011
  69.9110037  90.5976128  19.3116654  68.7346069  90.1279978  20.1407800
  74.0533550  90.2498824  21.7615684  73.4313559  89.5869529  21.4617912
  74.7238417  90.2759956  21.0789332  67.2860622  88.8158682  20.6506944
  66.4492530  88.3880857  20.4690946  67.2584267  89.0091126  21.5877736
  84.6112923  89.2721735  30.6349328  83.8208467  89.2545874  30.0953827
  84.3746278  89.8110029  31.3898364  84.7310798  86.1214202  27.9482056
  84.7808803  85.9564209  28.8897579  84.6224722  85.2541461  27.5579937
  73.6147057  88.8002747  15.2374145  73.7635177  89.4838212  14.5840818
  74.4213500  88.7807837  15.7523601  82.0214561  82.1045130  29.2641363
  82.9224423  81.9651595  28.9725361  82.0962535  82.2699585  30.2039540
  76.3557366  79.4811984  28.1094549  75.4860675  79.7745551  27.8377138
  76.5916846  80.0652429  28.8301813  86.2328995  88.5411143  28.1924078
  85.9413803  88.9041124  29.0287539  85.6201126  87.8278151  28.0137410
  87.4324677  86.1064023  20.7126648  88.2671569  86.5453827  20.8764208
  87.5683806  85.6302676  19.8934894  84.4816183  83.6643758  26.6604136
  84.9570305  83.8571404  25.8522987  83.5581749  83.7202944  26.4147519
  71.3699690  84.8267925  16.2435214  71.1245732  83.9230255  16.4415424
  71.5395605  84.8285075  15.3014692  79.0596400  75.6991601  25.6259970
  79.5778344  76.4352628  25.3006458  78.7051533  76.0055595  26.4606729
  70.6395338  80.5596283  13.7421375  69.9464582  80.6340638  13.0861411
  70.3947089  79.7956626  14.2642892  79.3108994  72.1191884  21.1460866
  79.5910748  71.4515073  21.7721293  80.0959601  72.3120980  20.6335530
  77.1142463  91.2950878  12.7085892  76.5416430  91.9141065  12.2556364
  77.6875256  91.8450240  13.2425814  83.1817852  80.5409518  24.8932441
  84.1335275  80.6407616  24.9144665  83.0121303  79.7487786  25.4030526
  81.2032232  77.6265101  25.0791842  80.6082164  77.9070114  24.3838331
  80.9181929  78.1159002  25.8508583  80.3339722  91.5788028  13.8394475
  81.2670395  91.5133590  14.0427350  80.2462935  92.4144295  13.3809007
  85.6605930  83.7615638  24.0074741  85.6282250  82.8231638  24.1934425
  86.2706554  83.8399674  23.2740566  77.4989261  82.6311691  10.0501945
  78.4448366  82.5017899  10.1190363  77.1203506  81.8926352  10.5271373
  85.8100419  80.5526681  24.0533024  85.2939467  79.7685138  23.8662953
  86.6940367  80.2245398  24.2179544  83.4711146  74.2967697  20.0128837
  83.2735967  73.9882785  20.8972169  84.0810851  75.0229336  20.1426767
  91.4782480  84.8231644  23.1480778  92.2085869  84.5616933  23.7088481
  90.8689426  84.0860366  23.1882846  89.5597777  82.9639507  23.7455229
  88.8330941  82.8295472  23.1371720  89.1445064  83.2716336  24.5511947
  77.3827954  86.6829437  31.5102602  78.3030963  86.8608036  31.7042648
  77.3477537  85.7385482  31.3582301  75.6832178  80.5561667   9.9856830
  74.7763634  80.2594780  10.0619544  75.9608159  80.2591485   9.1191116
  66.6010119  81.8768030  20.4355877  66.2812903  81.0233339  20.1430251
  66.0543547  82.0916609  21.1913844  70.3790026  84.5930471  24.1525383
  70.5976036  85.5247579  24.1713417  70.7915800  84.2338446  24.9380187
  77.2994244  75.0998557  16.1401071  76.4894972  74.7545642  16.5156318
  77.9878661  74.7906100  16.7288683  79.2284792  74.1776604  17.7625368
  79.7815831  74.5972057  18.4215391  79.4654879  73.2512352  17.8048324
  74.4530963  77.4148602  10.1268809  75.3150127  77.7403501  10.3864627
  74.6381307  76.6280098   9.6141875  66.4698379  85.4970942  22.4048998
  65.7761850  85.0824895  21.8918953  67.2171370  85.5391478  21.8082417
  82.6063599  76.2877129  17.2704032  82.0262268  76.9461933  16.8882085
  82.3399532  75.4654473  16.8591450  81.0567166  75.6882186  19.4725353
  81.5566944  75.7998721  18.6639672  81.7002774  75.3843239  20.1126161
  75.1149161  83.5960816  32.3593194  74.6316243  84.3961176  32.5657083
  75.2010101  83.6068761  31.4060638  68.3835121  85.4289196  20.2815013
  68.3605809  85.5276883  19.3296896  68.6935758  86.2754346  20.6032179
  71.0422499  87.4865351  24.3961627  71.9965753  87.4549293  24.3291559
  70.8435023  87.0255974  25.2111853  71.6321881  86.0566467  26.9632425
  72.4514770  86.5510545  26.9867262  71.9058689  85.1398435  26.9349993
  81.3888477  78.4477219  16.3260381  80.5014332  78.7326870  16.1080575
  81.8042466  78.2870982  15.4787658  84.7403013  78.4723740  20.0414720
  85.5163404  78.9620192  20.3139337  84.0151148  78.8981794  20.4986589
  87.1775572  79.1851359  21.0988660  87.7720063  78.9447095  20.3881969
  87.2502156  78.4658490  21.7262197  69.3972728  93.0284970  21.4131825
  69.2627196  92.2685371  20.8469823  68.9804790  93.7525870  20.9460614
  81.3629501  83.9631755  16.5410671  81.3064702  84.4200306  15.7018303
  81.9157844  83.2022440  16.3633514  85.1734307  79.7521487  17.3660790
  84.9171241  79.3518123  18.1968998  84.5487175  80.4665281  17.2410929
  89.4846645  82.4917560  19.8732082  88.9246203  82.5610749  20.6463644
  88.8790148  82.3158545  19.1531578  72.5541854  93.9254287  21.6250268
  72.4374238  94.8699720  21.5228958  71.7334300  93.6227849  22.0136067
  82.4418388  88.6504423  12.4706861  83.2763992  88.2185621  12.2884335
  82.2802731  88.4786437  13.3983755  82.0964280  85.1536536  13.8363200
  82.0413084  84.9880808  12.8951644  81.4710336  85.8612569  13.9925390
  66.8856795  80.3904601  27.6624622  67.5315659  79.8803555  28.1511847
  66.6773946  81.1273282  28.2368047  79.4110188  87.4585448  33.1616763
  80.2801347  87.6326100  32.8003398  78.9316939  88.2779865  33.0392492
  75.4060406  74.6544645  13.4148518  75.3939076  75.5986485  13.5716789
  76.2983828  74.4714791  13.1207980  73.5796368  94.5782549  24.8406196
  74.4823614  94.6106159  25.1572691  73.3533738  93.6483000  24.8552532
  75.3349970  93.3313536  21.5016275  74.3845601  93.3315397  21.3880647
  75.6382456  92.5846270  20.9852310  79.2212525  71.2487422  17.6694455
  78.4544921  70.6945909  17.8151138  79.6323230  71.3209291  18.5308607
  91.0702663  99.1674074  22.5662037  91.7081073  99.0480821  21.8625377
  90.9523506 100.1154918  22.6249990  87.8792370  99.1201502  22.5023562
  87.5410881  99.0042567  21.6144097  88.7482138  98.7192667  22.4824568
  88.3612153 100.2736354  28.4609768  88.3500793  99.8789152  27.5890271
  88.5232792  99.5402426  29.0543539  81.2843617 102.4688170  21.3304673
  82.0764909 102.1278995  20.9150973  81.5240267 102.5783145  22.2506827
  85.0819414 103.0573466  27.4088952  84.7909280 103.9619096  27.2935618
  85.7176398 103.0989993  28.1233021  86.0075621 100.4350314  23.9990311
  86.6039193 100.2106337  23.2847274  86.0650592  99.6935060  24.6015759
  93.5477779  90.5422335  25.0042833  93.2161104  91.4117746  24.7804048
  92.9523393  90.2258619  25.6836863  90.0409299 102.7434881  24.4038745
  89.7410022 103.6459920  24.2954553  89.6960358 102.4767064  25.2559898
  83.4921780  99.1948678  20.4375450  82.5672277  99.0624892  20.6453141
  83.7406193  99.9742897  20.9345392  93.4406443  95.2617421  22.0836183
  92.5323320  95.1932830  21.7894944  93.3894038  95.7389366  22.9118008
  80.8530591  98.8381952  21.2719239  80.9822972  99.0916430  22.1858650
  80.1728043  99.4309660  20.9523894  87.5147308  96.6807067  30.0271080
  86.7380642  97.2400987  30.0173945  88.1537871  97.1663850  30.5485950
  95.3068089  93.4633860  23.8614057  94.6642469  93.7566393  23.2153851
  94.8023017  93.3486780  24.6667253  85.7693681  99.4892520  29.5889047
  86.5108365 100.0277564  29.3123870  85.0630666 100.1158809  29.7460599
  91.2449020 101.6321661  28.1861208  91.6532376 101.1904071  27.4415841
  90.5226282 101.0574288  28.4395401  87.5980090  96.5694268  25.5594765
  88.4441286  96.9933681  25.7029414  87.5378728  95.9127892  26.2533328
  90.7479536  94.2298636  27.2175939  90.5040468  94.9840696  26.6810215
  91.0239466  94.6083984  28.0523186  92.7017998 100.7737248  25.8953205
  92.9134894 101.4169008  25.2187586  92.6547747  99.9399565  25.4275135
  90.3044227  93.3855069  22.7989777  89.4428706  93.6836322  23.0906514
  90.3306662  93.6025468  21.8670809  84.0129878 101.4768741  22.1443346
  84.5831235 101.9056009  21.5060830  84.6037990 101.1951326  22.8427531
  84.5055044  96.6432168  30.3904357  83.8753705  97.3248449  30.6239754
  84.3991132  96.5315250  29.4457495  79.8000017  96.3103965  21.3170281
  79.0099071  96.5661493  20.8410392  80.2911264  97.1252302  21.4222322
  81.7514762  96.6748544  18.2753758  80.9545925  96.7867238  18.7937253
  81.5240354  97.0135196  17.4094648  87.5820430 103.1993247  26.2236272
  87.6464862 103.6613654  27.0594444  86.8731354 102.5690612  26.3518582
  78.0837720  96.5634455  23.7485272  78.3345758  97.4481465  24.0142848
  78.6197268  96.3839056  22.9760364  83.7835787  90.9452934  32.7529608
  83.3902733  90.3919133  33.4277252  84.6001927  91.2563513  33.1436125
  86.7003748  92.3610813  30.3449864  87.4413461  92.9617967  30.2654327
  86.9321671  91.6188451  29.7867907  81.8445086  97.5467181  28.6228094
  81.7298601  96.6452438  28.9235193  80.9889604  97.7930877  28.2712911
  88.9236924 105.4884921  30.2215595  88.4800778 104.7021300  29.9036499
  89.5854137 105.6764071  29.5559486  83.6824045 107.0180723  24.7476273
  84.2331470 106.8897786  23.9753267  82.8435521 107.3175612  24.3971166
  91.0218162 105.7687721  28.2496996  91.0036637 106.5896602  27.7577265
  91.9438082 105.6441796  28.4747137  87.4791216 103.2831850  29.0920504
  88.0119553 102.5220139  28.8619812  86.9505297 102.9905502  29.8344659
  90.6460911  88.3891916  24.6214146  90.3025180  89.2793558  24.5453257
  91.0139874  88.1993574  23.7583731  88.1958305  93.2250228  18.1871820
  87.3399901  92.8357079  18.0077458  88.6085257  93.3042189  17.3271605
  89.7257451  90.7596572  22.5863379  89.2222247  90.7226707  21.7731185
  90.0188058  91.6689314  22.6460036  85.9700337  90.8435301  21.5929561
  86.8353334  90.6478110  21.2335451  86.0377846  90.6145653  22.5198918
  83.5762656  93.0737509  18.9645928  84.1506408  92.8512691  18.2319121
  84.1633639  93.1426204  19.7174529  85.8785324  89.9478758  17.6920997
  85.2249736  89.6327775  17.0677612  85.8365798  89.3254499  18.4180820
  89.1123064  96.4360692  22.0168645  88.1945626  96.6575639  21.8590333
  89.5283208  96.5107002  21.1580352  92.4448577  87.6485476  19.7231884
  92.7507454  86.7882839  19.4357799  93.1701182  88.2403096  19.5230878
  78.7372933  98.0516162  18.1113482  78.5397333  97.4585523  17.3864548
  78.1819597  97.7468372  18.8289421  86.7169656  97.9439269  20.2308075
  86.7718266  96.9913105  20.1550551  85.9060858  98.0998708  20.7149373
  84.6562016  96.5616328  17.9898454  83.8429882  96.8610499  18.3963646
  85.1521011  96.1672017  18.7072936  90.2536228  97.0258153  26.8213348
  90.6085616  97.2529626  27.6807813  90.9008359  97.3576530  26.1990603
  84.1476091  94.1334684  23.6059689  84.7875470  93.9923443  22.9082652
  83.3153622  93.8469197  23.2298291  81.1504708  94.1035009  18.3832676
  81.4111525  95.0180342  18.2741836  81.9721880  93.6359451  18.5329288
  82.6229633  95.5172766  25.5531500  83.2952686  95.3090128  24.9044149
  81.7959419  95.3194852  25.1136732  88.5255205  92.1434707  27.5697161
  87.8783120  92.8424657  27.4761637  89.2956220  92.5770851  27.9373409
  91.9334003 102.4083559  30.6447714  91.7819509 102.1794111  29.7277798
  91.9238682 103.3654161  30.6579059  88.7019339  99.9815472  25.6293981
  89.6311399 100.1326631  25.4562948  88.2810369 100.0699493  24.7742627
  87.5007671 104.0066136  23.3992518  87.3618757 103.6384921  24.2718456
  86.7122267 104.5213776  23.2276476  83.0257130  98.7915369  26.3133937
  82.8876928  98.0595608  26.9145476  83.9362054  98.7024269  26.0318125
  85.6539431  98.5035328  25.8017617  86.3639049  97.8628521  25.7604235
  85.6108739  98.7548223  26.7243798  93.6426209 105.4402682  28.7224196
  93.5838756 104.7561902  28.0554779  94.0445728 106.1821672  28.2704822
  84.3668365  95.4900546  27.6213256  83.8305722  95.0391285  28.2734853
  83.7785073  95.6246455  26.8783721  93.6443617 103.4042266  26.9538176
  92.7570396 103.0668187  27.0764575  94.2142168 102.6725297  27.1906941
  75.2972764  99.7366357  20.2781227  75.9843804  99.4228087  19.6902242
  75.1420893 100.6407722  20.0048479  80.1007486  94.6256554  24.7066251
  80.0165675  94.0182223  23.9716661  79.2790192  95.1165572  24.7075747
  90.2731200  93.1110117  20.0736446  90.7699899  92.3580080  19.7537516
  89.5018181  93.1474434  19.5079655  86.8566169  95.2527500  19.8008130
  86.4863956  94.6998541  20.4889036  87.3525261  94.6485634  19.2483131
  84.6855367 105.7124995  26.8963148  85.3864827 106.3461478  27.0492543
  84.2150482 106.0539727  26.1358788  92.7150195  90.0779711  22.2215805
  91.8013274  90.3083938  22.3898012  93.1443296  90.1618155  23.0729837
  92.4856653  98.2669603  24.7215699  91.8328103  98.5145510  24.0668152
  92.8637033  97.4533741  24.3878176  88.5344226  99.0089414  31.2081736
  87.8584863  98.9083543  31.8784111  89.3571860  98.8528628  31.6717733
  80.2823085 105.2461350  23.8294251  80.8676522 104.5005038  23.9622155
  80.0847924 105.5565307  24.7130915  74.8740740  97.8166951  22.5498694
  74.9124840  97.2830541  23.3435812  74.3681033  97.2902156  21.9309671
  82.2531502  92.6631491  26.0461237  82.3172829  93.5246322  25.6338634
  82.1898623  92.0505493  25.3133595  81.7283775  94.7354624  29.6934271
  82.3555814  94.3531701  30.3071795  80.8711694  94.5168826  30.0589963
  92.1277883 105.1417599  31.2988006  92.6717787 105.7547557  30.8042961
  91.5464728 105.6997177  31.8155019  78.5049318  96.5431053  15.6252626
  78.8002759  95.6341731  15.5719679  77.6037353  96.5218792  15.3033628
  82.0343565  94.6187049  21.6080174  81.3130150  95.2323017  21.4687648
  82.8236820  95.1544814  21.5296820  84.8369878  91.9541476  27.8820826
  85.3604280  92.2003772  28.6447135  84.6182211  92.7861511  27.4623963
  80.2337159  94.2245151  15.7491951  79.9049865  93.3442529  15.5667057
  80.5876530  94.1692819  16.6368340  86.0422423  92.8955171  25.5670497
  85.7019244  92.0962984  25.9691176  85.3361429  93.1956882  24.9947330
  86.6938895  89.9804483  24.0197820  87.5164964  89.5064962  23.8976710
  86.9376959  90.7594967  24.5196506  84.2177474  96.6723604  21.8289798
  84.0722054  96.9863907  22.7214080  83.7402677  97.2908504  21.2760697
  86.0773857  93.6626152  21.8770688  86.0635425  92.7667245  21.5402986
  86.7946285  93.6696816  22.5108974  87.9299987  94.0963492  23.9223815
  87.6717765  95.0180563  23.9208146  87.3985028  93.6993927  24.6124279
  78.6923136  99.2128948  24.7677459  78.1476604  99.9888756  24.8997734
  79.5702486  99.5599753  24.6096581  85.4810753  92.5440532  17.1458258
  85.6026664  91.6157179  17.3449145  85.1912795  92.5579218  16.2336573
  88.3501943  90.2295443  20.2824978  88.3723640  90.2934776  19.3276957
  88.7670002  89.3899951  20.4765484  79.4789158  98.3398845  27.6607616
  78.7370894  98.4881480  28.2472247  79.1581902  98.6007110  26.7974366
  87.4232820 107.8814823  27.4588006  87.7319947 107.6363970  28.3310706
  88.2208302 108.0861461  26.9706876  78.1254376 104.1450600  20.6506944
  77.2886285 103.7172774  20.4690946  78.0978022 104.3383043  21.5877736
  84.9651832  94.0572530  31.3548191  85.0139988  94.9334653  30.9725960
  85.5074346  93.5149923  30.7819834  95.4506678 104.6013653  30.6349328
  94.6602221 104.5837792  30.0953827  95.2140032 105.1401947  31.3898364
  95.5704553 101.4506119  27.9482056  95.6202558 101.2856127  28.8897579
  95.4618476 100.5833378  27.5579937  92.8608315  97.4337047  29.2641363
  93.7618178  97.2943512  28.9725361  92.9356290  97.5991502  30.2039540
  87.1951121  94.8103902  28.1094549  86.3254430  95.1037468  27.8377138
  87.4310601  95.3944347  28.8301813  97.0722750 103.8703061  28.1924078
  96.7807558 104.2333041  29.0287539  96.4594881 103.1570069  28.0137410
  95.3209938  98.9935676  26.6604136  95.7964059  99.1863322  25.8522987
  94.3975503  99.0494861  26.4147519  89.8990154  91.0283519  25.6259970
  90.4172098  91.7644546  25.3006458  89.5445287  91.3347512  26.4606729
  90.1502749  87.4483802  21.1460866  90.4304502  86.7806991  21.7721293
  90.9353355  87.6412897  20.6335530  94.0211607  95.8701436  24.8932441
  94.9729030  95.9699533  24.9144665  93.8515057  95.0779704  25.4030526
  92.0425986  92.9557019  25.0791842  91.4475918  93.2362032  24.3838331
  91.7575683  93.4450920  25.8508583  96.6494173  95.8818599  24.0533024
  96.1333222  95.0977055  23.8662953  97.5334122  95.5537315  24.2179544
  94.3104900  89.6259614  20.0128837  94.1129721  89.3174702  20.8972169
  94.9204606  90.3521253  20.1426767  88.2221708 102.0121354  31.5102602
  89.1424718 102.1899953  31.7042648  88.1871291 101.0677400  31.3582301
  77.4403873  97.2059948  20.4355877  77.1206657  96.3525256  20.1430251
  76.8937301  97.4208526  21.1913844  81.2183781  99.9222389  24.1525383
  81.4369790 100.8539497  24.1713417  81.6309554  99.5630363  24.9380187
  88.1387998  90.4290474  16.1401071  87.3288727  90.0837559  16.5156318
  88.8272415  90.1198018  16.7288683  90.0678547  89.5068521  17.7625368
  90.6209585  89.9263975  18.4215391  90.3048633  88.5804269  17.8048324
  86.0911646  95.4955595  33.5428132  85.9908373  96.4449952  33.4740223
  85.8733188  95.1673834  32.6704202  77.3092133 100.8262860  22.4048998
  76.6155604 100.4116812  21.8918953  78.0565124 100.8683396  21.8082417
  91.8960920  91.0174104  19.4725353  92.3960699  91.1290639  18.6639672
  92.5396528  90.7135157  20.1126161  85.9542916  98.9252734  32.3593194
  85.4709998  99.7253094  32.5657083  86.0403855  98.9360679  31.4060638
  79.2228876 100.7581113  20.2815013  79.1999564 100.8568801  19.3296896
  79.5329512 101.6046264  20.6032179  81.8816253 102.8157268  24.3961627
  82.8359507 102.7841211  24.3291559  81.6828777 102.3547892  25.2111853
  82.4715636 101.3858384  26.9632425  83.2908525 101.8802463  26.9867262
  82.7452443 100.4690353  26.9349993  77.7250550  95.7196518  27.6624622
  78.3709413  95.2095472  28.1511847  77.5167701  96.4565200  28.2368047
  90.2503942 102.7877366  33.1616763  91.1195102 102.9618018  32.8003398
  89.7710694 103.6071783  33.0392492  84.4190122 109.9074467  24.8406196
  85.3217369 109.9398077  25.1572691  84.1927492 108.9774918  24.8552532
  90.0606280  86.5779340  17.6694455  89.2938676  86.0237826  17.8151138
  90.4716985  86.6501208  18.5308607  82.0648041  92.8664135  31.7599636
  82.9279502  92.5100940  31.9702961  81.4913451  92.5278030  32.4475041
  94.6229542 106.2744852  32.7529608  94.2296487 105.7211051  33.4277252
  95.4395682 106.5855430  33.1436125  97.5397503 107.6902731  30.3449864
  98.2807216 108.2909884  30.2654327  97.7715425 106.9480369  29.7867907
  92.5677529 110.0646541  29.6934271  93.1949568 109.6823619  30.3071795
  91.7105448 109.8460743  30.0589963  95.8045587 109.3864447  31.3548191
  95.8533742 110.2626570  30.9725960  96.3468101 108.8441840  30.7819834
  96.9305400 110.8247512  33.5428132  96.8302127 111.7741869  33.4740223
  96.7126942 110.4965751  32.6704202  88.5644304 111.0488436  27.6624622
  89.2103168 110.5387390  28.1511847  88.3561455 111.7857118  28.2368047
  92.9041795 108.1956053  31.7599636  93.7673257 107.8392858  31.9702961
  92.3307206 107.8569948  32.4475041  50.2851193  21.1297134  15.4469503
  50.2263739  20.4456354  14.7800086  50.6870711  21.8716124  14.9950129
  48.7702867  20.8312051  18.0233313  49.3142771  21.4442009  17.5288268
  48.1889712  21.3891629  18.5400326  52.0931661  20.2908105  17.3594634
  51.3027205  20.2732244  16.8199134  51.8565016  20.8296399  18.1143671
  53.7147733  19.5597513  14.9169384  53.4232541  19.9227493  15.7532845
  53.1019864  18.8464521  14.7382716  46.8928925  18.4771818  19.8862069
  47.7620085  18.6512470  19.5248704  46.4135677  19.2966234  19.7637799
  58.5521401  30.1860444   9.2907344  59.1899811  30.0667191   8.5870684
  58.4342244  31.1341288   9.3495296  55.3611107  30.1387872   9.2268869
  55.0229619  30.0228936   8.3389404  56.2300876  29.7379037   9.2069875
  55.8430890  31.2922723  15.1855074  55.8319531  30.8975522  14.3135578
  56.0051530  30.5588796  15.7788846  48.7662355  33.4874540   8.0549980
  49.5583647  33.1465364   7.6396279  49.0059005  33.5969515   8.9752133
  52.5638151  34.0759835  14.1334258  52.2728017  34.9805466  14.0180925
  53.1995136  34.1176363  14.8478328  53.4894358  31.4536684  10.7235618
  54.0857931  31.2292706  10.0092581  53.5469330  30.7121429  11.3261066
  63.5071097  27.8487131   7.2693531  64.2396269  27.2786347   7.5031360
  62.7510452  27.4608731   7.7100036  61.0296517  21.5608705  11.7288139
  60.6979842  22.4304116  11.5049354  60.4342130  21.2444989  12.4082170
  57.5228037  33.7621251  11.1284052  57.2228760  34.6646290  11.0199859
  57.1779096  33.4953434  11.9805205  60.9225180  26.2803791   8.8081489
  60.0142058  26.2119199   8.5140250  60.8712776  26.7575736   9.6363315
  52.5048816  40.5265571   4.0955020  52.4272846  41.4773396   4.1743500
  51.9010460  40.1811444   4.7529946  54.9966046  27.6993437  16.7516387
  54.2199380  28.2587357  16.7419251  55.6356609  28.1850219  17.2731257
  62.7886827  24.4820229  10.5859363  62.1461207  24.7752762   9.9399158
  62.2841755  24.3673150  11.3912560  53.2512418  30.5078890  16.3134354
  53.9927103  31.0463934  16.0369177  52.5449404  31.1345179  16.4705905
  58.7267758  32.6508030  14.9106515  59.1351114  32.2090441  14.1661147
  58.0045020  32.0760658  15.1640708  55.0798828  27.5880637  12.2840072
  55.9260023  28.0120051  12.4274721  55.0197466  26.9314261  12.9778635
  59.0496573  33.2109221   8.6658804  58.4205435  33.3754935   7.9634872
  58.6622235  33.6250831   9.4369768  62.9285805  34.1463659   6.0203168
  62.2436843  34.5262560   5.4700201  63.0129654  34.7558985   6.7535115
  58.2298273  25.2485005  13.9421246  57.9859205  26.0027066  13.4055521
  58.5058204  25.6270353  14.7768493  60.1836736  31.7923618  12.6198511
  60.3953631  32.4355378  11.9432892  60.1366484  30.9585934  12.1520441
  51.4948616  32.4955111   8.8688652  52.0649973  32.9242379   8.2306137
  52.0856728  32.2137695   9.5672838  51.9873782  27.6618538  17.1149664
  51.3572443  28.3434819  17.3485060  51.8809870  27.5501620  16.1702802
  61.2982564  34.6695573  10.7920869  62.1200008  34.2675761  10.5103550
  61.2944967  34.5663807  11.7436984  55.0639168  34.2179617  12.9481579
  55.1283600  34.6800024  13.7839751  54.3550092  33.5876981  13.0763889
  69.3888557  31.0134322   7.1405840  68.6352266  30.4441720   6.9849844
  69.5236098  30.9796986   8.0876475  51.2654525  21.9639304  19.4774915
  50.8721470  21.4105502  20.1522559  52.0820665  22.2749882  19.8681432
  50.0411467  36.5188918   5.4711238  50.2178096  37.4406883   5.2832222
  50.8368301  36.2047338   5.9005617  54.1822486  23.3797183  17.0695171
  54.9232199  23.9804336  16.9899634  54.4140409  22.6374821  16.5113214
  49.3263824  28.5653550  15.3473401  49.2117339  27.6638807  15.6480500
  48.4708342  28.8117247  14.9958217  56.4055662  36.5071291  16.9460901
  55.9619516  35.7207669  16.6281806  57.0672875  36.6950441  16.2804792
  51.1642783  38.0367092  11.4721580  51.7150208  37.9084156  10.6998574
  50.3254259  38.3361981  11.1216473  58.5036900  36.7874090  14.9742303
  58.4855375  37.6082972  14.4822572  59.4256820  36.6628166  15.1992444
  54.9609954  34.3018220  15.8165811  55.4938291  33.5406508  15.5865119
  54.4324035  34.0091872  16.5589966  61.3055513  31.6253233   8.4451669
  60.6479187  32.3152494   8.5331798  62.1095912  32.0149665   8.7885656
  60.1160971  29.9797606   6.4955611  60.6292853  30.6127597   6.9977321
  60.7662195  29.3798801   6.1298971  56.5941802  27.4547061   8.7413952
  55.6764364  27.6762008   8.5835640  57.0101946  27.5293372   7.8825659
  60.8822768  34.9603607   4.6234754  60.4285095  34.1194517   4.6799944
  60.2516734  35.5965005   4.9609534  59.3255707  36.7980104   5.5584572
  59.6178681  37.3585161   4.8396938  59.8354327  37.0908665   6.3137731
  54.2889332  37.5760455   6.6478025  54.2465511  37.8021301   5.7186557
  55.2052031  37.3423829   6.7963826  57.7354966  28.0444522  13.5458654
  58.0904354  28.2715996  14.4053120  58.3827097  28.3762899  12.9235910
  63.4652703  31.1662958   4.2507983  63.3270601  31.3564554   3.3229173
  63.1088922  31.9282341   4.7076034  63.4922082  33.2339485   9.2619255
  63.9258589  33.1414774  10.1102309  64.2053663  33.2096986   8.6239271
  57.2249977  36.8341579  10.7952355  57.2787000  37.4032516  11.5630071
  56.3564759  37.0043464  10.4306393  50.1048371  26.5359136  12.2776807
  50.7771424  26.3276498  11.6289456  49.2778157  26.3381222  11.8382039
  64.3537632  33.2763186  11.7952140  64.5473522  34.1808996  12.0411415
  64.2538250  32.8170605  12.6290725  56.0073943  23.1621077  14.2942468
  55.3601858  23.8611026  14.2006944  56.7774958  23.5957220  14.6618716
  59.4152741  33.4269929  17.3693021  59.2638247  33.1980480  16.4523105
  59.4057420  34.3840530  17.3824366  56.1838077  31.0001841  12.3539287
  57.1130137  31.1513001  12.1808255  55.7629107  31.0885862  11.4987934
  54.9826409  35.0252506  10.1237825  54.8437495  34.6571290  10.9963763
  54.1941005  35.5400145   9.9521783  55.5774561  40.1261602   1.4663361
  55.7526316  39.6549646   2.2808984  54.8907349  40.7527369   1.6944622
  56.5331624  34.4034109   7.5126663  56.1981457  34.3634879   8.4084313
  56.0335570  33.7378824   7.0397073  50.5075868  29.8101739  13.0379244
  50.3695666  29.0781977  13.6390783  51.4180791  29.7210639  12.7563432
  53.1358169  29.5221698  12.5262924  53.8457787  28.8814890  12.4849542
  53.0927477  29.7734593  13.4489104  61.1244947  36.4589051  15.4469503
  61.0657493  35.7748271  14.7800086  61.5264466  37.2008041  14.9950129
  51.8487103  26.5086916  14.3458563  51.3124460  26.0577654  14.9980159
  51.2603811  26.6432825  13.6029027  50.1435646  43.2750965   8.2403222
  50.3832244  43.9069489   8.9182240  49.3004843  42.9239005   8.5268581
  61.1262355  34.4228635  13.6783482  60.2389133  34.0854557  13.8009881
  61.6960906  33.6911666  13.9152248  54.6563508  39.0830088  10.6444726
  54.5833679  39.8885059  11.1564030  54.2140901  39.2822053   9.8192747
  54.4453288  38.3201858   4.1547547  53.6620809  38.8623538   4.2485772
  55.1446033  38.8375837   4.5541788  65.6079695  29.8336853   8.4400044
  65.5969571  30.7161568   8.0693977  64.7397075  29.4808403   8.2454581
  57.1162191  38.9816922  12.8002884  57.8290164  39.6164386  12.7278786
  56.6252220  39.0780788  11.9842886  52.1674105  36.7311365  13.6208455
  52.8683564  37.3647848  13.7737849  51.6969220  37.0726097  12.8604094
  59.9675391  29.2855972  11.4461005  59.3146841  29.5331880  10.7913458
  60.3455771  28.4720111  11.1123483  56.9282565  39.3215666   5.5489176
  57.1104959  38.5037322   6.0116928  57.7515551  39.5383358   5.1114066
  57.2624730  38.2483851   2.8104224  57.7912497  37.7376305   2.1974386
  57.5252950  37.9326381   3.6749757  56.0162964  30.0275784  17.9327043
  55.3403601  29.9269913  18.6029418  56.8390598  29.8714997  18.3963040
  47.7641823  36.2647720  10.5539558  48.3495260  35.5191408  10.6867462
  47.5666662  36.5751677  11.4376222  50.6180478  39.2998967   5.5702000
  49.9490854  39.7845095   5.0866040  50.4793348  39.5468188   6.4845379
  54.7585747  41.3342711  12.1684659  55.3104055  41.4974332  12.9333744
  55.0991940  41.9247149  11.4964683  49.2102513  25.7540993  16.4179577
  49.8374551  25.3718071  17.0317102  48.3530431  25.5355195  16.7835270
  59.6096621  36.1603968  18.0233313  60.1536525  36.7733927  17.5288268
  59.0283466  36.7183547  18.5400326  57.8954134  39.2824687   9.1548341
  57.7705274  38.4814426   8.6459286  58.5533225  39.7770880   8.6662311
  59.9589043  37.0833707  10.7827891  59.0119378  36.9639058  10.7106217
  60.3071816  36.1956205  10.8654152  52.3188616  22.9727846  14.6066133
  52.8423018  23.2190142  15.3692442  52.1000949  23.8047880  14.1869270
  56.9635476  36.8786423   6.9832243  56.8160438  35.9503130   7.1639813
  57.7888969  36.9006514   6.4989318  60.5669598  37.7014982   8.0697116
  61.4916145  37.4957843   7.9321567  60.3984901  37.4531383   8.9786457
  53.5241161  23.9141541  12.2915803  53.1837981  23.1149354  12.6936483
  52.8180167  24.2143251  11.7192636  55.4118725  25.1149862  10.6469122
  55.1536503  26.0366933  10.6453452  54.8803765  24.7180296  11.3369586
  60.3564914  38.2200649   3.4259207  60.5301791  37.6547071   2.6733060
  60.8493805  39.0201544   3.2438697  46.1741874  30.2315318  11.4922766
  45.6295342  31.0075126  11.6243040  47.0521224  30.5786123  11.3341887
  66.2104305  30.9837072   5.0449507  66.6535451  30.2344397   4.6468630
  65.3330815  30.9747208   4.6623239  61.3440086  37.5367413   0.5256105
  62.0390991  38.1574106   0.7443420  61.6863237  36.6862765   0.8008483
  46.9607896  29.3585214  14.3852923  46.2189632  29.5067850  14.9717553
  46.6400640  29.6193480  13.5219672  63.2431509  34.9867119   2.0543436
  63.7682834  35.3254392   1.3292756  63.1553862  34.0514134   1.8706571
  54.9051558  38.9001193  14.1833313  55.2138685  38.6550339  15.0556012
  55.7027040  39.1047831  13.6952183  54.9272170  41.0539102   6.4138689
  54.4877161  40.5615481   7.1071546  55.6780287  40.5112070   6.1730765
  47.4064509  37.2450643   6.4163318  48.2322529  36.9454415   6.0361961
  47.0558561  36.4758265   6.8653106  52.3746042  36.5977111   8.4860991
  51.7526052  35.9347816   8.1863219  53.0450909  36.6238243   7.8034639
  52.4470570  25.0758899  18.0793497  52.4958725  25.9521022  17.6971267
  52.9893084  24.5336292  17.5065140  62.9325416  35.6200023  17.3594634
  62.1420959  35.6024161  16.8199134  62.6958770  36.1588316  18.1143671
  63.0523291  32.4692489  14.6727363  63.1021296  32.3042496  15.6142886
  62.9437214  31.6019748  14.2825244  60.3427053  28.4523417  15.9886669
  61.2436916  28.3129882  15.6970667  60.4175028  28.6177872  16.9284847
  54.6769858  25.8290272  14.8339856  53.8073168  26.1223838  14.5622444
  54.9129339  26.4130717  15.5547119  64.5541487  34.8889430  14.9169384
  64.2626296  35.2519411  15.7532845  63.9413619  34.1756439  14.7382716
  65.7537170  32.4542310   7.4371955  66.5884061  32.8932114   7.6009515
  65.8896299  31.9780963   6.6180200  62.8028676  30.0122045  13.3849442
  63.2782797  30.2049691  12.5768294  61.8794241  30.0681231  13.1392826
  57.3808892  22.0469889  12.3505276  57.8990836  22.7830916  12.0251765
  57.0264025  22.3533882  13.1852035  61.5030345  26.8887805  11.6177748
  62.4547768  26.9885903  11.6389972  61.3333795  26.0966074  12.1275832
  59.5244724  23.9743388  11.8037149  58.9294656  24.2548401  11.1083637
  59.2394421  24.4637289  12.5753890  63.9818422  30.1093925  10.7320048
  63.9494743  29.1709926  10.9179731  64.5919046  30.1877962   9.9985872
  64.1312911  26.9004968  10.7778331  63.6151960  26.1163425  10.5908260
  65.0152859  26.5723685  10.9424850  69.7994972  31.1709932   9.8726084
  70.5298361  30.9095220  10.4333788  69.1901918  30.4338654   9.9128152
  67.8810269  29.3117794  10.4700536  67.1543433  29.1773759   9.8617027
  67.4657556  29.6194623  11.2757254  55.7040446  33.0307724  18.2347909
  56.6243455  33.2086323  18.4287955  55.6690029  32.0863769  18.0827608
  48.7002518  30.9408759  10.8770690  48.9188528  31.8725866  10.8958724
  49.1128292  30.5816733  11.6625494  53.5730384  26.5141964  20.2673439
  53.4727111  27.4636321  20.1985530  53.3551926  26.1860203  19.3949509
  53.4361654  29.9439103  19.0838500  52.9528735  30.7439463  19.2902389
  53.5222593  29.9547048  18.1305944  49.3634991  33.8343638  11.1206934
  50.3178245  33.8027580  11.0536866  49.1647515  33.3734262  11.9357160
  49.9534373  32.4044754  13.6877732  50.7727262  32.8988833  13.7112569
  50.2271181  31.4876722  13.6595299  65.4988064  25.5329646   7.8233967
  66.0932555  25.2925382   7.1127275  65.5714648  24.8136777   8.4507503
  47.7185220  39.3763257   8.1377132  47.5839688  38.6163658   7.5715130
  47.3017282  40.1004157   7.6705921  67.8059137  28.8395847   6.5977388
  67.2458695  28.9089037   7.3708950  67.2002640  28.6636832   5.8776885
  50.8754346  40.2732574   8.3495575  50.7586730  41.2178007   8.2474265
  50.0546792  39.9706136   8.7381374  45.2069288  26.7382888  14.3869929
  45.8528151  26.2281842  14.8757154  44.9986439  27.4751569  14.9613354
  57.7322680  33.8063735  19.8862069  58.6013839  33.9804388  19.5248704
  57.2529431  34.6258152  19.7637799  51.9008860  40.9260836  11.5651503
  52.8036107  40.9584447  11.8817998  51.6746230  39.9961287  11.5797839
  53.6562462  39.6791823   8.2261582  52.7058093  39.6793684   8.1125954
  53.9594948  38.9324557   7.7097616  49.5466779  23.8850505  18.4844943
  50.4098240  23.5287310  18.6948268  48.9732189  23.5464400  19.1720347
  69.3915156  45.5152361   9.2907344  70.0293566  45.3959109   8.5870684
  69.2735998  46.4633205   9.3495296  66.2004862  45.4679789   9.2268869
  65.8623373  45.3520854   8.3389404  67.0694630  45.0670954   9.2069875
  62.0591678  47.3215266   5.2165760  61.4956543  47.2305203   4.4482047
  61.9444073  46.5015170   5.6968252  66.6824645  46.6214641  15.1855074
  66.6713286  46.2267439  14.3135578  66.8445284  45.8880714  15.7788846
  59.6056109  48.8166457   8.0549980  60.3977401  48.4757282   7.6396279
  59.8452760  48.9261432   8.9752133  67.6391236  50.9886233   0.5280225
  66.9879216  51.5740314   0.1414238  68.4335599  51.5192428   0.5875262
  61.5646863  48.0775371   0.9267359  62.3377739  47.5304358   0.7880235
  61.9172262  48.9419620   1.1381820  63.4031906  49.4051753  14.1334258
  63.1121772  50.3097384  14.0180925  64.0388890  49.4468281  14.8478328
  64.3288113  46.7828601  10.7235618  64.9251685  46.5584624  10.0092581
  64.3863084  46.0413347  11.3261066  63.9013141  44.2368037  -1.4414191
  64.1538662  43.7149558  -2.2030728  62.9637700  44.0734182  -1.3387508
  68.9456424  43.2403815   6.3660552  69.7319513  42.8223238   6.0150969
  69.2095128  44.1449907   6.5342200  69.1166501  48.6776665   1.0649209
  68.4812334  48.7511292   1.7770114  68.7863908  49.2670264   0.3868288
  74.3464851  43.1779048   7.2693531  75.0790023  42.6078265   7.5031360
  73.5904207  42.7900649   7.7100036  63.6209430  46.1396143   0.7610184
  63.5045688  45.4641046   1.4291268  63.7311690  45.6528517  -0.0557663
  65.9640971  45.6006290   4.4656873  65.5999178  45.0736911   5.1769795
  66.8208087  45.2104759   4.2923358  71.8690272  36.8900622  11.7288139
  71.5373596  37.7596033  11.5049354  71.2735885  36.5736906  12.4082170
  65.6046458  40.6296189  -0.5381778  65.7720860  41.4976426  -0.1711307
  65.4143627  40.7923471  -1.4620489  68.3621791  49.0913168  11.1284052
  68.0622514  49.9938207  11.0199859  68.0172851  48.8245352  11.9805205
  61.8134273  45.5426965   7.1620756  60.8884769  45.4103179   7.3698448
  62.0618686  46.3221184   7.6590699  71.7618935  41.6095709   8.8081489
  70.8535812  41.5411117   8.5140250  71.7106531  42.0867654   9.6363315
  65.5835679  43.0853847   0.4464888  65.4635304  43.5310898   1.2850369
  64.8888267  43.4339165  -0.1121573  59.1743084  45.1860239   7.9964545
  59.3035465  45.4394718   8.9103957  58.4940535  45.7787947   7.6769200
  63.3442571  55.8557489   4.0955020  63.2666601  56.8065314   4.1743500
  62.7404214  55.5103361   4.7529946  65.8359801  43.0285354  16.7516387
  65.0593135  43.5879274  16.7419251  66.4750364  43.5142137  17.2731257
  73.6280581  39.8112147  10.5859363  72.9854961  40.1044680   9.9399158
  73.1235510  39.6965067  11.3912560  71.2820745  43.5575320   1.2745222
  72.1938601  43.7902707   1.0992920  70.7730392  44.1412364   0.7120301
  64.0906173  45.8370808  16.3134354  64.8320857  46.3755852  16.0369177
  63.3843158  46.4637096  16.4705905  69.5661513  47.9799948  14.9106515
  69.9744869  47.5382359  14.1661147  68.8438774  47.4052576  15.1640708
  65.9192583  42.9172555  12.2840072  66.7653778  43.3411968  12.4274721
  65.8591220  42.2606179  12.9778635  69.8890327  48.5401139   8.6658804
  69.2599190  48.7046853   7.9634872  69.5015989  48.9542748   9.4369768
  73.7679559  49.4755576   6.0203168  73.0830597  49.8554478   5.4700201
  73.8523408  50.0850903   6.7535115  69.0692028  40.5776923  13.9421246
  68.8252960  41.3318984  13.4055521  69.3451958  40.9562271  14.7768493
  71.0230491  47.1215536  12.6198511  71.2347386  47.7647295  11.9432892
  70.9760239  46.2877852  12.1520441  68.6256720  39.7333356   9.5235083
  67.7641199  40.0314610   9.8151821  68.6519154  39.9503755   8.5916116
  65.4418289  48.2775547   5.9308889  65.9056635  48.5563250   5.1413511
  65.1775087  47.3758991   5.7481980  62.3342370  47.8247028   8.8688652
  62.9043727  48.2534297   8.2306137  62.9250482  47.5429613   9.5672838
  64.3787175  44.3998699   2.7398454  65.0811218  44.8519743   3.2072380
  64.0467804  43.7582518   3.3678347  62.8267537  42.9910456  17.1149664
  62.1966197  43.6726737  17.3485060  62.7203625  42.8793537  16.1702802
  58.1212509  42.6582252   8.0415588  57.3311563  42.9139780   7.5655698
  58.6123756  43.4730590   8.1467628  72.1376319  49.9987491  10.7920869
  72.9593762  49.5967678  10.5103550  72.1338722  49.8955725  11.7436984
  60.0727254  43.0226831   4.9999064  59.2758418  43.1345525   5.5182560
  59.8452847  43.3613483   4.1339955  65.9032922  49.5471534  12.9481579
  65.9677355  50.0091941  13.7839751  65.1943846  48.9168899  13.0763889
  56.4050212  42.9112742  10.4730578  56.6558251  43.7959752  10.7388154
  56.9409760  42.7317344   9.7005670  80.2282312  46.3426239   7.1405840
  79.4746020  45.7733637   6.9849844  80.3629853  46.3088904   8.0876475
  65.6180940  51.2139642   2.8160559  65.4826615  52.0591177   3.2445407
  66.1590752  51.4158919   2.0526493  62.1048279  37.2931222  19.4774915
  61.7115225  36.7397420  20.1522559  62.9214420  37.6041800  19.8681432
  59.0710337  48.7315080   3.3888484  59.5834858  49.5258330   3.5394049
  59.7233050  48.0341370   3.3222086  60.8805222  51.8480836   5.4711238
  61.0571850  52.7698801   5.2832222  61.6762055  51.5339255   5.9005617
  65.0216240  38.7089101  17.0695171  65.7625954  39.3096254  16.9899634
  65.2534163  37.9666738  16.5113214  60.1657578  43.8945468  15.3473401
  60.0511094  42.9930725  15.6480500  59.3102096  44.1409165  14.9958217
  67.2449416  51.8363208  16.9460901  66.8013270  51.0499587  16.6281806
  67.9066630  52.0242359  16.2804792  62.0036537  53.3659010  11.4721580
  62.5543962  53.2376073  10.6998574  61.1648013  53.6653899  11.1216473
  69.3430654  52.1166008  14.9742303  69.3249130  52.9374889  14.4822572
  70.2650574  51.9920083  15.1992444  65.8003708  49.6310138  15.8165811
  66.3332045  48.8698426  15.5865119  65.2717789  49.3383789  16.5589966
  68.9673403  34.7370204  11.3459453  68.6237673  35.6271845  11.2698563
  69.3352366  34.5471861  10.4829038  57.0359254  47.0603734   4.1648055
  57.8734476  47.4700742   3.9481763  57.2137522  46.1203176   4.1348249
  68.9323686  44.7278815  -0.1468112  68.4170309  45.4983419   0.0920275
  68.6600995  44.0543951   0.4764949  66.5170797  39.5728515   4.9117126
  65.6612393  39.1835366   4.7322765  66.9297749  39.6520476   4.0516912
  68.0469944  37.1074859   9.3108686  67.5434739  37.0704994   8.4976491
  68.3400551  38.0167601   9.3705343  64.2912830  37.1913588   8.3174868
  65.1565826  36.9956397   7.9580757  64.3590339  36.9623940   9.2444225
  73.9057960  47.4811169   1.7885061  73.1287403  47.1422329   1.3440223
  74.5849441  47.4863793   1.1140026  68.7209989  42.6005907   1.6791669
  68.4160125  42.9152056   2.5301812  69.6740431  42.6787327   1.7219002
  67.1656421  48.7596130   3.3284623  66.6377783  48.0248890   3.0157861
  66.6643924  49.5370806   3.0824591  72.1449267  46.9545151   8.4451669
  71.4872942  47.6444412   8.5331798  72.9489666  47.3441583   8.7885656
  61.8975149  39.4215796   5.6891235  62.4718901  39.1990978   4.9564428
  62.4846131  39.4904491   6.4419836  70.9554726  45.3089523   6.4955611
  71.4686608  45.9419515   6.9977321  71.6055950  44.7090719   6.1298971
  62.2244736  41.4520257  -0.2912880  61.3882048  41.7894944   0.0296395
  62.0849505  41.3169237  -1.2285743  64.1997816  36.2957045   4.4166304
  63.5462229  35.9806062   3.7922919  64.1578291  35.6732786   5.1426127
  65.3109021  46.5776340  -3.6680404  64.4036083  46.3465594  -3.4689255
  65.8080053  45.7813960  -3.4806422  68.2177100  55.2873848  -0.7483718
  67.5438799  55.5905544  -0.1398760  68.6042922  56.0902928  -1.0978261
  67.4335557  42.7838979   8.7413952  66.5158118  43.0053926   8.5835640
  67.8495700  42.8585289   7.8825659  68.2170605  44.1830395   3.8716632
  68.9642423  44.6951792   3.5623754  68.4862194  43.8614447   4.7321025
  66.4897255  46.6788935   0.8543586  65.5808474  46.3947968   0.9516056
  66.5192339  47.0988014  -0.0053107  71.7216522  50.2895525   4.6234754
  71.2678849  49.4486435   4.6799944  71.0910489  50.9256923   4.9609534
  70.6649442  41.2187511   5.8535421  69.9272198  40.7064897   6.1845664
  70.9176215  40.7787892   5.0418698  70.1649461  52.1272021   5.5584572
  70.4572436  52.6877079   4.8396938  70.6748082  52.4200582   6.3137731
  70.7661069  33.9963763   6.4477190  71.0719946  33.1361126   6.1603106
  71.4913674  34.5881383   6.2476184  57.0585425  44.3994449   4.8358788
  56.8609825  43.8063810   4.1109855  56.5032089  44.0946660   5.5534727
  65.0382149  44.2917556   6.9553382  65.0930759  43.3391392   6.8795858
  64.2273351  44.4476995   7.4394680  66.1873342  48.2197679  -1.8068335
  65.7492772  47.5033538  -2.2662698  66.9283783  48.4473794  -2.3683244
  62.9774509  42.9094616   4.7143760  62.1642374  43.2088786   5.1208953
  63.4733503  42.5150304   5.4318243  65.1283087  52.9052373   6.6478025
  65.0859265  53.1313219   5.7186557  66.0445785  52.6715747   6.7963826
  68.5748720  43.3736440  13.5458654  68.9298108  43.6007913  14.4053120
  69.2220852  43.7054817  12.9235910  74.3046457  46.4954876   4.2507983
  74.1664356  46.6856472   3.3229173  73.9482676  47.2574259   4.7076034
  62.4688583  40.4812971  10.3304995  63.1087963  40.3401730   9.6327959
  61.6366114  40.1947485   9.9543597  74.3315837  48.5631403   9.2619255
  74.7652344  48.4706692  10.1102309  75.0447418  48.5388903   8.6239271
  63.2448887  49.7815402   6.4439988  64.0389486  49.2865722   6.2422563
  62.5340580  49.2533265   6.0807693  68.0643732  52.1633497  10.7952355
  68.1180754  52.7324433  11.5630071  67.1958513  52.3335382  10.4306393
  59.5531651  43.9258483   2.5199741  58.6229239  43.8642939   2.7369703
  59.6489123  43.4034436   1.7236382  59.4717200  40.4513296   5.1077982
  59.7324017  41.3658629   4.9987143  60.2934372  39.9837739   5.2574595
  60.9442125  41.8651053  12.2776807  61.6165179  41.6568415  11.6289456
  60.1171912  41.6673139  11.8382039  75.1931386  48.6055104  11.7952140
  75.3867277  49.5100914  12.0411415  75.0932005  48.1462523  12.6290725
  66.8467697  38.4912994  14.2942468  66.1995612  39.1902944  14.2006944
  67.6168713  38.9249138  14.6618716  70.2546495  48.7561846  17.3693021
  70.1032002  48.5272398  16.4523105  70.2451175  49.7132448  17.3824366
  67.0231832  46.3293759  12.3539287  67.9523892  46.4804919  12.1808255
  66.6022862  46.4177780  11.4987934  65.8220163  50.3544424  10.1237825
  65.6831249  49.9863208  10.9963763  65.0334760  50.8692063   9.9521783
  66.4168315  55.4553520   1.4663361  66.5920071  54.9841563   2.2808984
  65.7301103  56.0819286   1.6944622  67.3725378  49.7326026   7.5126663
  67.0375211  49.6926796   8.4084313  66.8729324  49.0670742   7.0397073
  61.3469622  45.1393656  13.0379244  61.2089420  44.4073895  13.6390783
  62.2574546  45.0502556  12.7563432  70.3084570  47.0782061  -2.2136278
  69.6913741  46.3528889  -2.3103225  69.8401059  47.8391421  -2.5569203
  63.9751923  44.8513616  12.5262924  64.6851542  44.2106808  12.4849542
  63.9321231  45.1026510  13.4489104  71.9638702  51.7880969  15.4469503
  71.9051248  51.1040189  14.7800086  72.3658220  52.5299959  14.9950129
  62.6880857  41.8378833  14.3458563  62.1518214  41.3869572  14.9980159
  62.0997566  41.9724742  13.6029027  60.9829401  58.6042883   8.2403222
  61.2225999  59.2361407   8.9182240  60.1398597  58.2530923   8.5268581
  71.9656109  49.7520553  13.6783482  71.0782888  49.4146475  13.8009881
  72.5354660  49.0203584  13.9152248  53.6185256  46.0844645   7.0026534
  54.3056296  45.7706375   6.4147549  53.4633385  46.9886009   6.7293785
  58.4219978  40.9734841  11.4311557  58.3378167  40.3660511  10.6961967
  57.6002685  41.4643859  11.4321054  65.4957262  54.4122005  10.6444726
  65.4227434  55.2176977  11.1564030  65.0534656  54.6113971   9.8192747
  65.2847042  53.6493775   4.1547547  64.5014564  54.1915455   4.2485772
  65.9839787  54.1667755   4.5541788  68.5943692  39.4588405   6.7981753
  69.0912392  38.7058367   6.4782823  67.8230674  39.4952721   6.2324962
  76.4473450  45.1628770   8.4400044  76.4363326  46.0453486   8.0693977
  75.5790829  44.8100321   8.2454581  67.9555946  54.3108839  12.8002884
  68.6683918  54.9456304  12.7278786  67.4645975  54.4072705  11.9842886
  69.6773473  48.2160092   4.3720176  68.7429752  48.3361554   4.2024880
  69.8550141  47.3132559   4.1080186  65.1778661  41.6005788   6.5253437
  64.8076448  41.0476828   7.2134343  65.6737753  40.9963921   5.9728437
  73.0646024  44.0577411   4.9070210  73.5306476  44.8905403   4.8330513
  73.5153525  43.5922393   5.6115469  63.0067859  52.0603283  13.6208455
  63.7077319  52.6939766  13.7737849  62.5362974  52.4018014  12.8604094
  71.1322255  50.4021232   1.9056362  71.4082099  50.2877827   2.8150236
  70.2626754  50.0038717   1.8668535  71.0362687  36.4257998   8.9461111
  70.1225767  36.6562225   9.1143318  71.4655788  36.5096442   9.7975144
  70.8069145  44.6147890  11.4461005  70.1540596  44.8623798  10.7913458
  71.1849525  43.8012028  11.1123483  67.7676319  54.6507583   5.5489176
  67.9498714  53.8329239   6.0116928  68.5909305  54.8675276   5.1114066
  68.1018485  53.5775768   2.8104224  68.6306251  53.0668223   2.1974386
  68.3646704  53.2618299   3.6749757  66.8556718  45.3567701  17.9327043
  66.1797355  45.2561831  18.6029418  67.6784352  45.2006915  18.3963040
  58.6035578  51.5939638  10.5539558  59.1889014  50.8483326  10.6867462
  58.4060416  51.9043594  11.4376222  61.4574233  54.6290885   5.5702000
  60.7884608  55.1137013   5.0866040  61.3187102  54.8760106   6.4845379
  53.1953232  44.1645238   9.2744001  53.2337332  43.6308829  10.0681119
  52.6893525  43.6380443   8.6554978  65.5979501  56.6634629  12.1684659
  66.1497809  56.8266250  12.9333744  65.9385695  57.2539066  11.4964683
  60.5743995  39.0109778  12.7706543  60.6385321  39.8724609  12.3583941
  60.5111115  38.3983780  12.0378902  60.0496267  41.0832911  16.4179577
  60.6768306  40.7009988  17.0317102  59.1924186  40.8647113  16.7835270
  70.4490376  51.4895886  18.0233313  70.9930280  52.1025844  17.5288268
  69.8677221  52.0475465  18.5400326  56.8261810  42.8909340   2.3497932
  57.1215251  41.9820019   2.2964986  55.9249846  42.8697080   2.0278935
  68.7347889  54.6116604   9.1548341  68.6099028  53.8106344   8.6459286
  69.3926980  55.1062798   8.6662311  60.3556057  40.9665337   8.3325481
  59.6342643  41.5801304   8.1932954  61.1449313  41.5023102   8.2542127
  70.7982797  52.4125624  10.7827891  69.8513133  52.2930975  10.7106217
  71.1465570  51.5248122  10.8654152  63.1582370  38.3019763  14.6066133
  63.6816772  38.5482060  15.3692442  62.9394704  39.1339798  14.1869270
  58.5549651  40.5723438   2.4737257  58.2262358  39.6920817   2.2912363
  58.9089022  40.5171106   3.3613647  67.8029230  52.2078340   6.9832243
  67.6554193  51.2795048   7.1639813  68.6282724  52.2298431   6.4989318
  61.6691475  40.8596408   2.8412735  62.0087547  41.3882329   2.1191343
  62.1163595  41.1976814   3.6171302  71.4063352  53.0306899   8.0697116
  72.3309900  52.8249761   7.9321567  71.2378656  52.7823300   8.9786457
  64.3634915  39.2433458  12.2915803  64.0231736  38.4441271  12.6936483
  63.6573922  39.5435169  11.7192636  65.0151387  36.3282771  10.7443126
  65.8377457  35.8543249  10.6222017  65.2589451  37.1073254  11.2441813
  63.6559622  39.3571029   1.0406028  64.3767984  39.7352282   0.5369745
  63.0324926  40.0759906   1.1441006  67.7990745  40.0616178   1.9764360
  68.0154359  40.9440816   1.6753188  67.3184812  39.6702392   1.2470002
  62.5389966  43.0201891   8.5535105  62.3934547  43.3342194   9.4459386
  62.0615170  43.6386792   8.0006003  64.3986349  40.0104439   8.6015994
  64.3847918  39.1145533   8.2648292  65.1158777  40.0175103   9.2354280
  66.2512480  40.4441780  10.6469122  65.9930257  41.3658850  10.6453452
  65.7197520  40.0472214  11.3369586  71.1958668  53.5492567   3.4259207
  71.3695546  52.9838989   2.6733060  71.6887560  54.3493462   3.2438697
  57.0135628  45.5607236  11.4922766  56.4689096  46.3367044  11.6243040
  57.8914978  45.9078040  11.3341887  63.8023245  38.8918820   3.8703565
  63.9239156  37.9635466   4.0694452  63.5125287  38.9057506   2.9581880
  66.6714435  36.5773730   7.0070284  66.6936132  36.6413063   6.0522264
  67.0882494  35.7378239   7.2010791  77.0498060  46.3128990   5.0449507
  77.4929206  45.5636315   4.6468630  76.1724570  46.3039126   4.6623239
  72.1833841  52.8659331   0.5256105  72.8784745  53.4866024   0.7443420
  72.5256991  52.0154682   0.8008483  57.8001650  44.6877132  14.3852923
  57.0583386  44.8359767  14.9717553  57.4794394  44.9485398  13.5219672
  74.0825264  50.3159037   2.0543436  74.6076588  50.6546309   1.3292756
  73.9947617  49.3806052   1.8706571  65.7445313  54.2293110  14.1833313
  66.0532439  53.9842257  15.0556012  66.5420795  54.4339749  13.6952183
  65.7665925  56.3831020   6.4138689  65.3270915  55.8907399   7.1071546
  66.5174042  55.8403988   6.1730765  58.2458264  52.5742561   6.4163318
  59.0716284  52.2746333   6.0361961  57.8952316  51.8050183   6.8653106
  63.2139797  51.9269029   8.4860991  62.5919806  51.2639734   8.1863219
  63.8844664  51.9530161   7.8034639  56.4466869  50.4928887   7.3752251
  55.6098777  50.0651062   7.1936252  56.4190514  50.6861331   8.3123042
  63.2864324  40.4050817  18.0793497  63.3352480  41.2812940  17.6971267
  63.8286839  39.8628210  17.5065140  73.7719170  50.9491940  17.3594634
  72.9814714  50.9316079  16.8199134  73.5352525  51.4880234  18.1143671
  73.8917045  47.7984407  14.6727363  73.9415050  47.6334414  15.6142886
  73.7830968  46.9311666  14.2825244  62.7753304  50.4772952   1.9619452
  62.9241424  51.1608417   1.3086124  63.5819747  50.4578042   2.4768907
  71.1820807  43.7815335  15.9886669  72.0830670  43.6421799  15.6970667
  71.2568782  43.9469789  16.9284847  65.5163613  41.1582189  14.8339856
  64.6466922  41.4515755  14.5622444  65.7523093  41.7422634  15.5547119
  75.3935242  50.2181348  14.9169384  75.1020050  50.5811329  15.7532845
  74.7807373  49.5048356  14.7382716  76.5930924  47.7834228   7.4371955
  77.4277816  48.2224032   7.6009515  76.7290053  47.3072881   6.6180200
  73.6422430  45.3413963  13.3849442  74.1176552  45.5341609  12.5768294
  72.7187996  45.3973149  13.1392826  60.5305937  46.5038130   2.9680521
  60.2851979  45.6000460   3.1660731  60.7001851  46.5055280   2.0259999
  68.2202647  37.3761806  12.3505276  68.7384591  38.1122833  12.0251765
  67.8657779  37.6825800  13.1852035  59.8001584  42.2366488   0.4666682
  59.1070829  42.3110843  -0.1893282  59.5553336  41.4726831   0.9888199
  68.4715241  33.7962089   7.8706173  68.7516995  33.1285278   8.4966599
  69.2565848  33.9891184   7.3580837  66.2748709  52.9721083  -0.5668801
  65.7022676  53.5911270  -1.0198329  66.8481503  53.5220444  -0.0328879
  72.3424099  42.2179723  11.6177748  73.2941522  42.3177821  11.6389972
  72.1727550  41.4257991  12.1275832  70.3638479  39.3035306  11.8037149
  69.7688411  39.5840319  11.1083637  70.0788175  39.7929207  12.5753890
  69.4945969  53.2558233   0.5639781  70.4276642  53.1903795   0.7672657
  69.4069182  54.0914500   0.1054314  72.1233986  52.5724103  -2.4756271
  72.0447617  52.2383967  -1.5820513  72.9443653  53.0645871  -2.4764799
  74.8212177  45.4385843  10.7320048  74.7888497  44.5001843  10.9179731
  75.4312801  45.5169879   9.9985872  66.6595508  44.3081896  -3.2252748
  67.6054613  44.1788104  -3.1564330  66.2809753  43.5696557  -2.7483320
  74.9706665  42.2296886  10.7778331  74.4545714  41.4455343  10.5908260
  75.8546614  41.9015603  10.9424850  72.6317392  35.9737902   6.7374143
  72.4342213  35.6652990   7.6217475  73.2417098  36.6999540   6.8672073
  80.6388727  46.5001849   9.8726084  81.3692115  46.2387138  10.4333788
  80.0295672  45.7630571   9.9128152  78.7204024  44.6409712  10.4700536
  77.9937188  44.5065677   9.8617027  78.3051311  44.9486541  11.2757254
  66.5434200  48.3599642  18.2347909  67.4637210  48.5378241  18.4287955
  66.5083783  47.4155687  18.0827608  55.7616365  43.5538235   7.1601183
  55.4419150  42.7003543   6.8675557  55.2149794  43.7686813   7.9159151
  59.5396273  46.2700676  10.8770690  59.7582283  47.2017784  10.8958724
  59.9522047  45.9108651  11.6625494  66.4600491  36.7768762   2.8646378
  65.6501219  36.4315847   3.2401624  67.1484908  36.4676305   3.4533990
  68.3891039  35.8546808   4.4870675  68.9422078  36.2742262   5.1460698
  68.6261125  34.9282557   4.5293631  64.4124138  41.8433882  20.2673439
  64.3120865  42.7928239  20.1985530  64.1945680  41.5152121  19.3949509
  55.6304625  47.1741147   9.1294305  54.9368097  46.7595100   8.6164259
  56.3777616  47.2161683   8.5327724  71.7669846  37.9647334   3.9949339
  71.1868515  38.6232138   3.6127391  71.5005779  37.1424678   3.5836756
  70.2173412  37.3652391   6.1970659  70.7173191  37.4768926   5.3884978
  70.8609020  37.0613444   6.8371468  64.2755408  45.2731021  19.0838500
  63.7922490  46.0731381  19.2902389  64.3616347  45.2838966  18.1305944
  57.5441368  47.1059401   7.0060320  57.5212056  47.2047088   6.0542203
  57.8542004  47.9524551   7.3277486  60.2028746  49.1635556  11.1206934
  61.1571999  49.1319498  11.0536866  60.0041269  48.7026179  11.9357160
  60.7928128  47.7336672  13.6877732  61.6121017  48.2280750  13.7112569
  61.0664936  46.8168640  13.6595299  70.5494724  40.1247424   3.0505687
  69.6620579  40.4097075   2.8325882  70.9648713  39.9641187   2.2032964
  73.9009260  40.1493945   6.7660026  74.6769650  40.6390397   7.0384643
  73.1757394  40.5751999   7.2231896  76.3381819  40.8621564   7.8233967
  76.9326310  40.6217300   7.1127275  76.4108403  40.1428695   8.4507503
  58.5578975  54.7055175   8.1377132  58.4233442  53.9455576   7.5715130
  58.1411037  55.4296075   7.6705921  69.6937938  49.8892099  -2.8546293
  70.3973788  50.0942101  -2.2388637  68.9700586  50.4568861  -2.5897209
  70.5235748  45.6401960   3.2655977  70.4670949  46.0970511   2.4263610
  71.0764090  44.8792644   3.0878820  74.3340554  41.4291692   4.0906097
  74.0777488  41.0288327   4.9214305  73.7093422  42.1435486   3.9656236
  78.6452892  44.1687765   6.5977388  78.0852450  44.2380954   7.3708950
  78.0396395  43.9928750   5.8776885  61.7148100  55.6024492   8.3495575
  61.5980485  56.5469925   8.2474265  60.8940547  55.2998054   8.7381374
  71.6024635  50.3274628  -0.8047833  72.4370239  49.8955826  -0.9870358
  71.4408978  50.1556642   0.1229062  71.2570527  46.8306741   0.5608507
  71.2019331  46.6651013  -0.3803049  70.6316582  47.5382774   0.7170696
  56.0463042  42.0674806  14.3869929  56.6921906  41.5573759  14.8757154
  55.8380193  42.8043487  14.9613354  68.5716434  49.1355653  19.8862069
  69.4407594  49.3096305  19.5248704  68.0923186  49.9550070  19.7637799
  64.5666653  36.3314850   0.1393825  64.5545322  37.2756690   0.2962096
  65.4590074  36.1484996  -0.1546714  62.7402615  56.2552754  11.5651503
  63.6429861  56.2876364  11.8817998  62.5139985  55.3253205  11.5797839
  64.4956217  55.0083741   8.2261582  63.5451848  55.0085602   8.1125954
  64.7988703  54.2616475   7.7097616  68.3818772  32.9257627   4.3939762
  67.6151168  32.3716113   4.5396444  68.7929477  32.9979496   5.2553913
  60.3860533  39.2142423  18.4844943  61.2491995  38.8579227  18.6948268
  59.8125944  38.8756317  19.1720347  80.2308910  60.8444279   9.2907344
  80.8687320  60.7251026   8.5870684  80.1129753  61.7925123   9.3495296
  77.0398616  60.7971707   9.2268869  76.7017128  60.6812772   8.3389404
  77.9088385  60.3962872   9.2069875  72.8985432  62.6507183   5.2165760
  72.3350297  62.5597120   4.4482047  72.7837827  61.8307088   5.6968252
  77.5218399  61.9506559  15.1855074  77.5107040  61.5559357  14.3135578
  77.6839039  61.2172631  15.7788846  70.4449864  64.1458375   8.0549980
  71.2371156  63.8049200   7.6396279  70.6846514  64.2553350   8.9752133
  78.4784991  66.3178151   0.5280225  77.8272971  66.9032232   0.1414238
  79.2729354  66.8484346   0.5875262  72.4040618  63.4067288   0.9267359
  73.1771494  62.8596275   0.7880235  72.7566017  64.2711538   1.1381820
  74.2425660  64.7343671  14.1334258  73.9515526  65.6389301  14.0180925
  74.8782645  64.7760198  14.8478328  75.1681867  62.1120519  10.7235618
  75.7645440  61.8876541  10.0092581  75.2256839  61.3705265  11.3261066
  74.7406896  59.5659954  -1.4414191  74.9932416  59.0441476  -2.2030728
  73.8031455  59.4026100  -1.3387508  79.7850179  58.5695733   6.3660552
  80.5713268  58.1515156   6.0150969  80.0488883  59.4741825   6.5342200
  79.9560256  64.0068583   1.0649209  79.3206089  64.0803210   1.7770114
  79.6257662  64.5962182   0.3868288  85.1858606  58.5070966   7.2693531
  85.9183778  57.9370183   7.5031360  84.4297961  58.1192566   7.7100036
  74.4603184  61.4688060   0.7610184  74.3439443  60.7932964   1.4291268
  74.5705444  60.9820434  -0.0557663  76.8034725  60.9298207   4.4656873
  76.4392933  60.4028828   5.1769795  77.6601841  60.5396677   4.2923358
  82.7084026  52.2192540  11.7288139  82.3767351  53.0887951  11.5049354
  82.1129639  51.9028824  12.4082170  76.4440212  55.9588107  -0.5381778
  76.6114615  56.8268344  -0.1711307  76.2537381  56.1215389  -1.4620489
  79.2015546  64.4205086  11.1284052  78.9016269  65.3230125  11.0199859
  78.8566605  64.1537269  11.9805205  72.6528027  60.8718883   7.1620756
  71.7278523  60.7395097   7.3698448  72.9012440  61.6513102   7.6590699
  82.6012689  56.9387626   8.8081489  81.6929567  56.8703035   8.5140250
  82.5500285  57.4159571   9.6363315  76.4229433  58.4145765   0.4464888
  76.3029058  58.8602815   1.2850369  75.7282022  58.7631082  -0.1121573
  70.0136838  60.5152156   7.9964545  70.1429219  60.7686635   8.9103957
  69.3334289  61.1079864   7.6769200  74.1836325  71.1849406   4.0955020
  74.1060355  72.1357232   4.1743500  73.5797969  70.8395279   4.7529946
  76.6753555  58.3577272  16.7516387  75.8986889  58.9171192  16.7419251
  77.3144118  58.8434055  17.2731257  84.4674336  55.1404065  10.5859363
  83.8248716  55.4336598   9.9399158  83.9629264  55.0256985  11.3912560
  82.1214499  58.8867238   1.2745222  83.0332356  59.1194625   1.0992920
  81.6124146  59.4704282   0.7120301  74.9299927  61.1662725  16.3134354
  75.6714612  61.7047769  16.0369177  74.2236913  61.7929014  16.4705905
  80.4055267  63.3091866  14.9106515  80.8138623  62.8674276  14.1661147
  79.6832529  62.7344493  15.1640708  76.7586337  58.2464472  12.2840072
  77.6047532  58.6703886  12.4274721  76.6984975  57.5898097  12.9778635
  80.7284082  63.8693056   8.6658804  80.0992944  64.0338770   7.9634872
  80.3409744  64.2834666   9.4369768  84.6073314  64.8047494   6.0203168
  83.9224352  65.1846396   5.4700201  84.6917163  65.4142821   6.7535115
  79.9085782  55.9068841  13.9421246  79.6646714  56.6610901  13.4055521
  80.1845713  56.2854188  14.7768493  81.8624245  62.4507453  12.6198511
  82.0741140  63.0939213  11.9432892  81.8153993  61.6169770  12.1520441
  79.4650474  55.0625274   9.5235083  78.6034953  55.3606527   9.8151821
  79.4912909  55.2795673   8.5916116  76.2812044  63.6067464   5.9308889
  76.7450389  63.8855167   5.1413511  76.0168842  62.7050909   5.7481980
  73.1736125  63.1538946   8.8688652  73.7437482  63.5826214   8.2306137
  73.7644236  62.8721531   9.5672838  75.2180930  59.7290617   2.7398454
  75.9204973  60.1811660   3.2072380  74.8861558  59.0874436   3.3678347
  73.6661291  58.3202373  17.1149664  73.0359952  59.0018654  17.3485060
  73.5597379  58.2085455  16.1702802  68.9606264  57.9874169   8.0415588
  68.1705318  58.2431698   7.5655698  69.4517511  58.8022507   8.1467628
  82.9770073  65.3279409  10.7920869  83.7987517  64.9259596  10.5103550
  82.9732476  65.2247643  11.7436984  70.9121009  58.3518749   4.9999064
  70.1152172  58.4637443   5.5182560  70.6846601  58.6905401   4.1339955
  76.7426677  64.8763452  12.9481579  76.8071109  65.3383859  13.7839751
  76.0337600  64.2460817  13.0763889  67.2443967  58.2404660  10.4730578
  67.4952005  59.1251670  10.7388154  67.7803515  58.0609261   9.7005670
  91.0676066  61.6718157   7.1405840  90.3139775  61.1025555   6.9849844
  91.2023607  61.6380822   8.0876475  76.4574694  66.5431559   2.8160559
  76.3220369  67.3883095   3.2445407  76.9984507  66.7450837   2.0526493
  72.9442034  52.6223139  19.4774915  72.5508979  52.0689338  20.1522559
  73.7608174  52.9333718  19.8681432  69.9104092  64.0606997   3.3888484
  70.4228612  64.8550248   3.5394049  70.5626804  63.3633288   3.3222086
  71.7198976  67.1772754   5.4711238  71.8965605  68.0990718   5.2832222
  72.5155810  66.8631173   5.9005617  75.8609995  54.0381018  17.0695171
  76.6019708  54.6388171  16.9899634  76.0927918  53.2958656  16.5113214
  71.0051333  59.2237386  15.3473401  70.8904848  58.3222643  15.6480500
  70.1495851  59.4701082  14.9958217  78.0843171  67.1655126  16.9460901
  77.6407025  66.3791504  16.6281806  78.7460384  67.3534276  16.2804792
  72.8430292  68.6950927  11.4721580  73.3937717  68.5667991  10.6998574
  72.0041768  68.9945817  11.1216473  80.1824409  67.4457926  14.9742303
  80.1642884  68.2666807  14.4822572  81.1044329  67.3212001  15.1992444
  76.6397463  64.9602055  15.8165811  77.1725800  64.1990343  15.5865119
  76.1111544  64.6675707  16.5589966  79.8067158  50.0662121  11.3459453
  79.4631427  50.9563763  11.2698563  80.1746120  49.8763779  10.4829038
  67.8753008  62.3895652   4.1648055  68.7128230  62.7992660   3.9481763
  68.0531276  61.4495094   4.1348249  79.7717441  60.0570732  -0.1468112
  79.2564064  60.8275337   0.0920275  79.4994749  59.3835869   0.4764949
  77.3564552  54.9020433   4.9117126  76.5006148  54.5127284   4.7322765
  77.7691503  54.9812394   4.0516912  78.8863698  52.4366776   9.3108686
  78.3828494  52.3996912   8.4976491  79.1794305  53.3459519   9.3705343
  75.1306584  52.5205506   8.3174868  75.9959581  52.3248315   7.9580757
  75.1984093  52.2915858   9.2444225  84.7451715  62.8103087   1.7885061
  83.9681157  62.4714247   1.3440223  85.4243196  62.8155710   1.1140026
  79.5603744  57.9297824   1.6791669  79.2553879  58.2443974   2.5301812
  80.5134186  58.0079244   1.7219002  78.0050176  64.0888048   3.3284623
  77.4771537  63.3540807   3.0157861  77.5037678  64.8662724   3.0824591
  82.9843022  62.2837068   8.4451669  82.3266696  62.9736330   8.5331798
  83.7883421  62.6733500   8.7885656  72.7368903  54.7507714   5.6891235
  73.3112655  54.5282896   4.9564428  73.3239886  54.8196409   6.4419836
  81.7948480  60.6381441   6.4955611  82.3080362  61.2711433   6.9977321
  82.4449704  60.0382636   6.1298971  73.0638490  56.7812175  -0.2912880
  72.2275803  57.1186862   0.0296395  72.9243260  56.6461155  -1.2285743
  75.0391571  51.6248963   4.4166304  74.3855983  51.3097980   3.7922919
  74.9972045  51.0024703   5.1426127  76.1502776  61.9068258  -3.6680404
  75.2429837  61.6757512  -3.4689255  76.6473808  61.1105877  -3.4806422
  78.2729311  58.1130897   8.7413952  77.3551873  58.3345844   8.5835640
  78.6889455  58.1877207   7.8825659  79.0564359  59.5122312   3.8716632
  79.8036178  60.0243709   3.5623754  79.3255949  59.1906365   4.7321025
  77.3291009  62.0080853   0.8543586  76.4202228  61.7239886   0.9516056
  77.3586093  62.4279931  -0.0053107  82.5610277  65.6187442   4.6234754
  82.1072604  64.7778352   4.6799944  81.9304243  66.2548841   4.9609534
  81.5043196  56.5479428   5.8535421  80.7665953  56.0356815   6.1845664
  81.7569970  56.1079810   5.0418698  81.0043216  67.4563939   5.5584572
  81.2966190  68.0168996   4.8396938  81.5141836  67.7492500   6.3137731
  81.6054823  49.3255680   6.4477190  81.9113700  48.4653044   6.1603106
  82.3307428  49.9173301   6.2476184  67.8979180  59.7286367   4.8358788
  67.7003579  59.1355728   4.1109855  67.3425844  59.4238577   5.5534727
  75.8775903  59.6209474   6.9553382  75.9324513  58.6683310   6.8795858
  75.0667105  59.7768913   7.4394680  77.0267097  63.5489597  -1.8068335
  76.5886527  62.8325456  -2.2662698  77.7677538  63.7765711  -2.3683244
  73.8168263  58.2386533   4.7143760  73.0036129  58.5380704   5.1208953
  74.3127257  57.8442222   5.4318243  75.9676841  68.2344290   6.6478025
  75.9253020  68.4605137   5.7186557  76.8839540  68.0007665   6.7963826
  79.4142475  58.7028358  13.5458654  79.7691863  58.9299831  14.4053120
  80.0614606  59.0346735  12.9235910  85.1440212  61.8246794   4.2507983
  85.0058110  62.0148390   3.3229173  84.7876431  62.5866176   4.7076034
  73.3082338  55.8104889  10.3304995  73.9481717  55.6693648   9.6327959
  72.4759868  55.5239402   9.9543597  85.1709591  63.8923321   9.2619255
  85.6046098  63.7998610  10.1102309  85.8841172  63.8680821   8.6239271
  74.0842642  65.1107319   6.4439988  74.8783240  64.6157639   6.2422563
  73.3734334  64.5825182   6.0807693  78.9037486  67.4925415  10.7952355
  78.9574509  68.0616351  11.5630071  78.0352268  67.6627300  10.4306393
  70.3925405  59.2550401   2.5199741  69.4622993  59.1934856   2.7369703
  70.4882877  58.7326354   1.7236382  70.3110954  55.7805214   5.1077982
  70.5717772  56.6950547   4.9987143  71.1328127  55.3129656   5.2574595
  71.7835880  57.1942971  12.2776807  72.4558933  56.9860333  11.6289456
  70.9565666  56.9965057  11.8382039  86.0325141  63.9347021  11.7952140
  86.2261031  64.8392832  12.0411415  85.9325759  63.4754440  12.6290725
  77.6861452  53.8204912  14.2942468  77.0389367  54.5194862  14.2006944
  78.4562467  54.2541056  14.6618716  81.0940250  64.0853764  17.3693021
  80.9425756  63.8564316  16.4523105  81.0844929  65.0424365  17.3824366
  77.8625586  61.6585677  12.3539287  78.7917646  61.8096836  12.1808255
  77.4416616  61.7469698  11.4987934  76.6613918  65.6836341  10.1237825
  76.5225004  65.3155126  10.9963763  75.8728514  66.1983981   9.9521783
  77.2562070  70.7845438   1.4663361  77.4313825  70.3133481   2.2808984
  76.5694858  71.4111204   1.6944622  78.2119133  65.0617944   7.5126663
  77.8768966  65.0218714   8.4084313  77.7123079  64.3962660   7.0397073
  72.1863377  60.4685574  13.0379244  72.0483175  59.7365813  13.6390783
  73.0968300  60.3794474  12.7563432  81.1478325  62.4073978  -2.2136278
  80.5307495  61.6820806  -2.3103225  80.6794813  63.1683339  -2.5569203
  74.8145678  60.1805533  12.5262924  75.5245296  59.5398725  12.4849542
  74.7714986  60.4318428  13.4489104  82.8032456  67.1172887  15.4469503
  82.7445002  66.4332107  14.7800086  83.2051975  67.8591877  14.9950129
  73.5274612  57.1670751  14.3458563  72.9911969  56.7161490  14.9980159
  72.9391320  57.3016660  13.6029027  71.8223155  73.9334800   8.2403222
  72.0619753  74.5653325   8.9182240  70.9792352  73.5822840   8.5268581
  72.9376871  56.6259403  -3.0914973  72.0606337  56.5048203  -3.4552727
  73.4134624  55.8345481  -3.3436085  82.8049864  65.0812471  13.6783482
  81.9176642  64.7438392  13.8009881  83.3748415  64.3495502  13.9152248
  64.4579011  61.4136562   7.0026534  65.1450050  61.0998292   6.4147549
  64.3027139  62.3177927   6.7293785  69.2613733  56.3026759  11.4311557
  69.1771922  55.6952428  10.6961967  68.4396439  56.7935777  11.4321054
  76.3351017  69.7413923  10.6444726  76.2621188  70.5468894  11.1564030
  75.8928410  69.9405889   9.8192747  76.1240797  68.9785693   4.1547547
  75.3408318  69.5207373   4.2485772  76.8233542  69.4959673   4.5541788
  79.4337447  54.7880322   6.7981753  79.9306146  54.0350285   6.4782823
  78.6624428  54.8244639   6.2324962  87.2867204  60.4920688   8.4400044
  87.2757080  61.3745403   8.0693977  86.4184583  60.1392239   8.2454581
  78.7949700  69.6400757  12.8002884  79.5077673  70.2748222  12.7278786
  78.3039729  69.7364623  11.9842886  80.5167227  63.5452010   4.3720176
  79.5823506  63.6653472   4.2024880  80.6943896  62.6424476   4.1080186
  76.0172415  56.9297705   6.5253437  75.6470203  56.3768746   7.2134343
  76.5131508  56.3255839   5.9728437  83.9039779  59.3869329   4.9070210
  84.3700231  60.2197320   4.8330513  84.3547279  58.9214310   5.6115469
  73.8461614  67.3895200  13.6208455  74.5471073  68.0231683  13.7737849
  73.3756729  67.7309932  12.8604094  81.9716010  65.7313150   1.9056362
  82.2475854  65.6169745   2.8150236  81.1020509  65.3330635   1.8668535
  81.8756441  51.7549916   8.9461111  80.9619521  51.9854143   9.1143318
  82.3049543  51.8388360   9.7975144  81.6462900  59.9439808  11.4461005
  80.9934350  60.1915715  10.7913458  82.0243280  59.1303946  11.1123483
  78.6070074  69.9799501   5.5489176  78.7892468  69.1621157   6.0116928
  79.4303060  70.1967193   5.1114066  78.9412239  68.9067686   2.8104224
  79.4700006  68.3960141   2.1974386  79.2040459  68.5910216   3.6749757
  77.6950473  60.6859619  17.9327043  77.0191110  60.5853748  18.6029418
  78.5178107  60.5298833  18.3963040  69.4429332  66.9231555  10.5539558
  70.0282769  66.1775243  10.6867462  69.2454170  67.2335512  11.4376222
  72.2967987  69.9582803   5.5702000  71.6278363  70.4428930   5.0866040
  72.1580857  70.2052023   6.4845379  64.0346987  59.4937156   9.2744001
  64.0731086  58.9600746  10.0681119  63.5287280  58.9672361   8.6554978
  76.4373256  71.9926546  12.1684659  76.9891564  72.1558168  12.9333744
  76.7779449  72.5830984  11.4964683  71.4137749  54.3401696  12.7706543
  71.4779076  55.2016527  12.3583941  71.3504869  53.7275698  12.0378902
  70.8890022  56.4124829  16.4179577  71.5162060  56.0301906  17.0317102
  70.0317940  56.1939031  16.7835270  81.2884130  66.8187804  18.0233313
  81.8324034  67.4317762  17.5288268  80.7070975  67.3767382  18.5400326
  67.6655564  58.2201258   2.3497932  67.9609005  57.3111936   2.2964986
  66.7643600  58.1988997   2.0278935  79.5741643  69.9408522   9.1548341
  79.4492783  69.1398262   8.6459286  80.2320734  70.4354715   8.6662311
  71.1949811  56.2957254   8.3325481  70.4736397  56.9093222   8.1932954
  71.9843067  56.8315019   8.2542127  81.6376552  67.7417542  10.7827891
  80.6906887  67.6222893  10.7106217  81.9859325  66.8540040  10.8654152
  73.9976125  53.6311681  14.6066133  74.5210527  53.8773977  15.3692442
  73.7788458  54.4631716  14.1869270  69.3943406  55.9015355   2.4737257
  69.0656112  55.0212734   2.2912363  69.7482777  55.8463024   3.3613647
  78.6422985  67.5370258   6.9832243  78.4947947  66.6086966   7.1639813
  79.4676478  67.5590349   6.4989318  72.5085229  56.1888325   2.8412735
  72.8481302  56.7174246   2.1191343  72.9557350  56.5268731   3.6171302
  82.2457107  68.3598817   8.0697116  83.1703654  68.1541678   7.9321567
  82.0772410  68.1115218   8.9786457  75.2028670  54.5725376  12.2915803
  74.8625490  53.7733189  12.6936483  74.4967676  54.8727087  11.7192636
  75.8545142  51.6574688  10.7443126  76.6771211  51.1835167  10.6222017
  76.0983205  52.4365172  11.2441813  74.4953376  54.6862947   1.0406028
  75.2161739  55.0644200   0.5369745  73.8718680  55.4051824   1.1441006
  78.6384499  55.3908096   1.9764360  78.8548114  56.2732734   1.6753188
  78.1578566  54.9994309   1.2470002  73.3783721  58.3493809   8.5535105
  73.2328301  58.6634112   9.4459386  72.9008924  58.9678709   8.0006003
  75.2380103  55.3396357   8.6015994  75.2241672  54.4437450   8.2648292
  75.9552531  55.3467021   9.2354280  77.0906234  55.7733697  10.6469122
  76.8324012  56.6950768  10.6453452  76.5591274  55.3764132  11.3369586
  82.0352423  68.8784484   3.4259207  82.2089300  68.3130907   2.6733060
  82.5281314  69.6785379   3.2438697  67.8529383  60.8899153  11.4922766
  67.3082851  61.6658961  11.6243040  68.7308733  61.2369958  11.3341887
  74.6416999  54.2210737   3.8703565  74.7632911  53.2927383   4.0694452
  74.3519042  54.2349423   2.9581880  77.5108190  51.9065648   7.0070284
  77.5329887  51.9704981   6.0522264  77.9276249  51.0670156   7.2010791
  87.8891814  61.6420907   5.0449507  88.3322960  60.8928232   4.6468630
  87.0118324  61.6331044   4.6623239  83.0227595  68.1951249   0.5256105
  83.7178500  68.8157941   0.7443420  83.3650745  67.3446600   0.8008483
  68.6395405  60.0169050  14.3852923  67.8977141  60.1651685  14.9717553
  68.3188149  60.2777315  13.5219672  84.9219018  65.6450954   2.0543436
  85.4470343  65.9838227   1.3292756  84.8341371  64.7097970   1.8706571
  76.5839067  69.5585028  14.1833313  76.8926194  69.3134175  15.0556012
  77.3814549  69.7631666  13.6952183  76.6059679  71.7122938   6.4138689
  76.1664670  71.2199316   7.1071546  77.3567796  71.1695905   6.1730765
  69.0852018  67.9034478   6.4163318  69.9110038  67.6038250   6.0361961
  68.7346070  67.1342101   6.8653106  74.0533551  67.2560947   8.4860991
  73.4313561  66.5931652   8.1863219  74.7238418  67.2822079   7.8034639
  67.2860623  65.8220805   7.3752251  66.4492532  65.3942979   7.1936252
  67.2584269  66.0153248   8.3123042  74.1258079  55.7342735  18.0793497
  74.1746234  56.6104857  17.6971267  74.6680593  55.1920128  17.5065140
  84.6112925  66.2783858  17.3594634  83.8208468  66.2607997  16.8199134
  84.3746279  66.8172152  18.1143671  84.7310800  63.1276324  14.6727363
  84.7808805  62.9626332  15.6142886  84.6224723  62.2603583  14.2825244
  73.6147058  65.8064870   1.9619452  73.7635179  66.4900334   1.3086124
  74.4213502  65.7869960   2.4768907  82.0214562  59.1107252  15.9886669
  82.9224425  58.9713717  15.6970667  82.0962536  59.2761707  16.9284847
  76.3557367  56.4874107  14.8339856  75.4860677  56.7807673  14.5622444
  76.5916848  57.0714552  15.5547119  86.2328996  65.5473266  14.9169384
  85.9413805  65.9103246  15.7532845  85.6201128  64.8340274  14.7382716
  87.4324679  63.1126146   7.4371955  88.2671570  63.5515950   7.6009515
  87.5683808  62.6364799   6.6180200  84.4816185  60.6705880  13.3849442
  84.9570306  60.8633527  12.5768294  83.5581750  60.7265066  13.1392826
  71.3699691  61.8330048   2.9680521  71.1245733  60.9292378   3.1660731
  71.5395606  61.8347198   2.0259999  79.0596401  52.7053724  12.3505276
  79.5778345  53.4414751  12.0251765  78.7051534  53.0117717  13.1852035
  70.6395339  57.5658405   0.4666682  69.9464584  57.6402760  -0.1893282
  70.3947091  56.8018749   0.9888199  79.3108995  49.1254007   7.8706173
  79.5910749  48.4577196   8.4966599  80.0959602  49.3183102   7.3580837
  77.1142464  68.3013000  -0.5668801  76.5416431  68.9203188  -1.0198329
  77.6875257  68.8512362  -0.0328879  83.1817854  57.5471641  11.6177748
  84.1335277  57.6469738  11.6389972  83.0121304  56.7549909  12.1275832
  81.2032233  54.6327224  11.8037149  80.6082165  54.9132236  11.1083637
  80.9181930  55.1221125  12.5753890  80.3339724  68.5850151   0.5639781
  81.2670397  68.5195712   0.7672657  80.2462936  69.4206417   0.1054314
  85.6605931  60.7677760  10.7320048  85.6282252  59.8293761  10.9179731
  86.2706555  60.8461797   9.9985872  77.4989262  59.6373813  -3.2252748
  78.4448367  59.5080021  -3.1564330  77.1203507  58.8988475  -2.7483320
  85.8100420  57.5588804  10.7778331  85.2939469  56.7747260  10.5908260
  86.6940368  57.2307520  10.9424850  83.4711147  51.3029819   6.7374143
  83.2735968  50.9944907   7.6217475  84.0810852  52.0291458   6.8672073
  91.4782481  61.8293767   9.8726084  92.2085870  61.5679055  10.4333788
  90.8689427  61.0922489   9.9128152  89.5597778  59.9701630  10.4700536
  88.8330942  59.8357595   9.8617027  89.1445065  60.2778458  11.2757254
  77.3827955  63.6891559  18.2347909  78.3030964  63.8670158  18.4287955
  77.3477538  62.7447605  18.0827608  75.6832179  57.5623790  -3.2897863
  74.7763635  57.2656902  -3.2135150  75.9608160  57.2653608  -4.1563577
  66.6010120  58.8830153   7.1601183  66.2812904  58.0295461   6.8675557
  66.0543548  59.0978731   7.9159151  70.3790027  61.5992594  10.8770690
  70.5976037  62.5309702  10.8958724  70.7915801  61.2400568  11.6625494
  77.2994245  52.1060679   2.8646378  76.4894974  51.7607764   3.2401624
  77.9878662  51.7968223   3.4533990  79.2284793  51.1838726   4.4870675
  79.7815832  51.6034180   5.1460698  79.4654880  50.2574474   4.5293631
  75.2517893  57.1725800  20.2673439  75.1514620  58.1220157  20.1985530
  75.0339435  56.8444039  19.3949509  74.4530964  54.4210725  -3.1485884
  75.3150128  54.7465623  -2.8890067  74.6381308  53.6342221  -3.6612818
  66.4698380  62.5033064   9.1294305  65.7761851  62.0887017   8.6164259
  67.2171371  62.5453601   8.5327724  82.6063601  53.2939251   3.9949339
  82.0262270  53.9524055   3.6127391  82.3399533  52.4716596   3.5836756
  81.0567167  52.6944309   6.1970659  81.5566945  52.8060843   5.3884978
  81.7002775  52.3905362   6.8371468  75.1149163  60.6022939  19.0838500
  74.6316244  61.4023299  19.2902389  75.2010102  60.6130883  18.1305944
  68.3835122  62.4351318   7.0060320  68.3605810  62.5339006   6.0542203
  68.6935759  63.2816469   7.3277486  71.0422500  64.4927473  11.1206934
  71.9965754  64.4611416  11.0536866  70.8435024  64.0318097  11.9357160
  71.6321882  63.0628589  13.6877732  72.4514771  63.5572668  13.7112569
  71.9058690  62.1460557  13.6595299  81.3888479  55.4539342   3.0505687
  80.5014334  55.7388992   2.8325882  81.8042468  55.2933105   2.2032964
  84.7403015  55.4785863   6.7660026  85.5163405  55.9682315   7.0384643
  84.0151149  55.9043917   7.2231896  87.1775573  56.1913482   7.8233967
  87.7720064  55.9509218   7.1127275  87.2502157  55.4720612   8.4507503
  69.3972729  70.0347093   8.1377132  69.2627197  69.2747494   7.5715130
  68.9804791  70.7587993   7.6705921  81.3629502  60.9693878   3.2655977
  81.3064704  61.4262429   2.4263610  81.9157845  60.2084562   3.0878820
  85.1734308  56.7583609   4.0906097  84.9171242  56.3580245   4.9214305
  84.5487176  57.4727403   3.9656236  89.4846646  59.4979683   6.5977388
  88.9246204  59.5672872   7.3708950  88.8790149  59.3220667   5.8776885
  72.5541855  70.9316410   8.3495575  72.4374239  71.8761842   8.2474265
  71.7334301  70.6289971   8.7381374  82.4418389  65.6566546  -0.8047833
  83.2763993  65.2247744  -0.9870358  82.2802732  65.4848559   0.1229062
  82.0964282  62.1598659   0.5608507  82.0413085  61.9942930  -0.3803049
  81.4710337  62.8674692   0.7170696  66.8856797  57.3966723  14.3869929
  67.5315660  56.8865677  14.8757154  66.6773948  58.1335405  14.9613354
  79.4110189  64.4647571  19.8862069  80.2801348  64.6388223  19.5248704
  78.9316940  65.2841988  19.7637799  75.4060407  51.6606768   0.1393825
  75.3939077  52.6048608   0.2962096  76.2983829  51.4776913  -0.1546714
  73.5796369  71.5844672  11.5651503  74.4823616  71.6168282  11.8817998
  73.3533739  70.6545123  11.5797839  75.3349971  70.3375658   8.2261582
  74.3845602  70.3377520   8.1125954  75.6382457  69.5908393   7.7097616
  79.2212527  48.2549544   4.3939762  78.4544922  47.7008031   4.5396444
  79.6323232  48.3271413   5.2553913  71.2254288  54.5434340  18.4844943
  72.0885749  54.1871145  18.6948268  70.6519698  54.2048235  19.1720347
  91.0702665  76.1736197   9.2907344  91.7081074  76.0542944   8.5870684
  90.9523507  77.1217041   9.3495296  87.8792371  76.1263625   9.2268869
  87.5410882  76.0104689   8.3389404  88.7482139  75.7254790   9.2069875
  88.3612154  77.2798476  15.1855074  88.3500795  76.8851275  14.3135578
  88.5232793  76.5464549  15.7788846  81.2843618  79.4750293   8.0549980
  82.0764910  79.1341117   7.6396279  81.5240269  79.5845268   8.9752133
  85.0819415  80.0635588  14.1334258  84.7909281  80.9681219  14.0180925
  85.7176399  80.1052116  14.8478328  86.0075622  77.4412437  10.7235618
  86.6039194  77.2168459  10.0092581  86.0650593  76.6997182  11.3261066
  93.5477780  67.5484458  11.7288139  93.2161105  68.4179869  11.5049354
  92.9523394  67.2320742  12.4082170  90.0409300  79.7497004  11.1284052
  89.7410023  80.6522043  11.0199859  89.6960360  79.4829187  11.9805205
  83.4921782  76.2010801   7.1620756  82.5672278  76.0687015   7.3698448
  83.7406195  76.9805020   7.6590699  93.4406444  72.2679544   8.8081489
  92.5323321  72.1994952   8.5140250  93.3894040  72.7451489   9.6363315
  80.8530593  75.8444074   7.9964545  80.9822974  76.0978553   8.9103957
  80.1728044  76.4371782   7.6769200  87.5147310  73.6869190  16.7516387
  86.7380644  74.2463110  16.7419251  88.1537873  74.1725973  17.2731257
  95.3068090  70.4695982  10.5859363  94.6642470  70.7628516   9.9399158
  94.8023019  70.3548903  11.3912560  85.7693682  76.4954643  16.3134354
  86.5108366  77.0339687  16.0369177  85.0630667  77.1220932  16.4705905
  91.2449022  78.6383783  14.9106515  91.6532378  78.1966194  14.1661147
  90.5226283  78.0636411  15.1640708  87.5980092  73.5756390  12.2840072
  88.4441287  73.9995804  12.4274721  87.5378729  72.9190014  12.9778635
  90.7479537  71.2360758  13.9421246  90.5040469  71.9902819  13.4055521
  91.0239467  71.6146106  14.7768493  92.7018000  77.7799371  12.6198511
  92.9134895  78.4231131  11.9432892  92.6547748  76.9461687  12.1520441
  90.3044229  70.3917192   9.5235083  89.4428708  70.6898445   9.8151821
  90.3306663  70.6087590   8.5916116  84.0129879  78.4830864   8.8688652
  84.5831236  78.9118132   8.2306137  84.6037991  78.2013448   9.5672838
  84.5055046  73.6494291  17.1149664  83.8753706  74.3310572  17.3485060
  84.3991134  73.5377373  16.1702802  79.8000018  73.3166087   8.0415588
  79.0099072  73.5723616   7.5655698  80.2911265  74.1314425   8.1467628
  81.7514763  73.6810666   4.9999064  80.9545927  73.7929361   5.5182560
  81.5240356  74.0197319   4.1339955  87.5820431  80.2055370  12.9481579
  87.6464864  80.6675777  13.7839751  86.8731355  79.5752734  13.0763889
  78.0837721  73.5696578  10.4730578  78.3345759  74.4543587  10.7388154
  78.6197269  73.3901179   9.7005670  83.7835788  67.9515057  19.4774915
  83.3902734  67.3981255  20.1522559  84.6001929  68.2625635  19.8681432
  86.7003749  69.3672936  17.0695171  87.4413463  69.9680089  16.9899634
  86.9321672  68.6250574  16.5113214  81.8445087  74.5529303  15.3473401
  81.7298603  73.6514561  15.6480500  80.9889605  74.7993000  14.9958217
  88.9236925  82.4947044  16.9460901  88.4800779  81.7083422  16.6281806
  89.5854139  82.6826194  16.2804792  83.6824046  84.0242845  11.4721580
  84.2331471  83.8959909  10.6998574  82.8435522  84.3237734  11.1216473
  91.0218163  82.7749844  14.9742303  91.0036639  83.5958725  14.4822572
  91.9438083  82.6503919  15.1992444  87.4791217  80.2893973  15.8165811
  88.0119554  79.5282261  15.5865119  86.9505298  79.9967625  16.5589966
  90.6460912  65.3954039  11.3459453  90.3025182  66.2855681  11.2698563
  91.0139875  65.2055697  10.4829038  88.1958306  70.2312351   4.9117126
  87.3399902  69.8419201   4.7322765  88.6085258  70.3104312   4.0516912
  89.7257453  67.7658694   9.3108686  89.2222248  67.7288829   8.4976491
  90.0188060  68.6751437   9.3705343  85.9700339  67.8497424   8.3174868
  86.8353335  67.6540233   7.9580757  86.0377847  67.6207776   9.2444225
  83.5762658  70.0799632   5.6891235  84.1506410  69.8574813   4.9564428
  84.1633640  70.1488326   6.4419836  85.8785325  66.9540881   4.4166304
  85.2249738  66.6389898   3.7922919  85.8365800  66.3316621   5.1426127
  89.1123066  73.4422814   8.7413952  88.1945627  73.6637761   8.5835640
  89.5283209  73.5169125   7.8825659  92.4448578  64.6547598   6.4477190
  92.7507455  63.7944962   6.1603106  93.1701183  65.2465218   6.2476184
  78.7372934  75.0578285   4.8358788  78.5397334  74.4647645   4.1109855
  78.1819598  74.7530495   5.5534727  86.7169658  74.9501391   6.9553382
  86.7718267  73.9975228   6.8795858  85.9060860  75.1060830   7.4394680
  84.6562018  73.5678451   4.7143760  83.8429883  73.8672622   5.1208953
  85.1521012  73.1734140   5.4318243  90.2536229  74.0320275  13.5458654
  90.6085617  74.2591749  14.4053120  90.9008361  74.3638652  12.9235910
  84.1476092  71.1396806  10.3304995  84.7875472  70.9985566   9.6327959
  83.3153623  70.8531320   9.9543597  81.1504709  71.1097131   5.1077982
  81.4111526  72.0242465   4.9987143  81.9721881  70.6421574   5.2574595
  82.6229634  72.5234889  12.2776807  83.2952688  72.3152251  11.6289456
  81.7959421  72.3256975  11.8382039  88.5255206  69.1496830  14.2942468
  87.8783121  69.8486779  14.2006944  89.2956222  69.5832973  14.6618716
  91.9334004  79.4145682  17.3693021  91.7819511  79.1856233  16.4523105
  91.9238684  80.3716283  17.3824366  88.7019341  76.9877594  12.3539287
  89.6311401  77.1388754  12.1808255  88.2810371  77.0761615  11.4987934
  87.5007672  81.0128259  10.1237825  87.3618758  80.6447043  10.9963763
  86.7122269  81.5275898   9.9521783  83.0257131  75.7977492  13.0379244
  82.8876929  75.0657730  13.6390783  83.9362055  75.7086392  12.7563432
  85.6539432  75.5097451  12.5262924  86.3639051  74.8690643  12.4849542
  85.6108740  75.7610346  13.4489104  93.6426211  82.4464804  15.4469503
  93.5838757  81.7624024  14.7800086  94.0445729  83.1883794  14.9950129
  84.3668366  72.4962669  14.3458563  83.8305723  72.0453407  14.9980159
  83.7785074  72.6308578  13.6029027  93.6443618  80.4104388  13.6783482
  92.7570397  80.0730310  13.8009881  94.2142169  79.6787419  13.9152248
  75.2972765  76.7428480   7.0026534  75.9843805  76.4290210   6.4147549
  75.1420894  77.6469845   6.7293785  80.1007487  71.6318677  11.4311557
  80.0165676  71.0244346  10.6961967  79.2790194  72.1227695  11.4321054
  90.2731201  70.1172240   6.7981753  90.7699901  69.3642202   6.4782823
  89.5018183  70.1536557   6.2324962  86.8566170  72.2589623   6.5253437
  86.4863957  71.7060663   7.2134343  87.3525262  71.6547757   5.9728437
  84.6855368  82.7187118  13.6208455  85.3864828  83.3523601  13.7737849
  84.2150483  83.0601850  12.8604094  92.7150196  67.0841834   8.9461111
  91.8013276  67.3146060   9.1143318  93.1443297  67.1680278   9.7975144
  92.4856654  75.2731725  11.4461005  91.8328105  75.5207633  10.7913458
  92.8637034  74.4595864  11.1123483  88.5344227  76.0151537  17.9327043
  87.8584864  75.9145666  18.6029418  89.3571861  75.8590750  18.3963040
  80.2823087  82.2523473  10.5539558  80.8676523  81.5067161  10.6867462
  80.0847925  82.5627430  11.4376222  74.8740741  74.8229073   9.2744001
  74.9124841  74.2892664  10.0681119  74.3681034  74.2964279   8.6554978
  82.2531504  69.6693614  12.7706543  82.3172830  70.5308445  12.3583941
  82.1898624  69.0567615  12.0378902  81.7283776  71.7416746  16.4179577
  82.3555815  71.3593824  17.0317102  80.8711695  71.5230948  16.7835270
  92.1277885  82.1479722  18.0233313  92.6717789  82.7609680  17.5288268
  91.5464730  82.7059300  18.5400326  78.5049319  73.5493175   2.3497932
  78.8002760  72.6403854   2.2964986  77.6037355  73.5280915   2.0278935
  82.0343566  71.6249172   8.3325481  81.3130152  72.2385140   8.1932954
  82.8236822  72.1606937   8.2542127  84.8369879  68.9603599  14.6066133
  85.3604281  69.2065895  15.3692442  84.6182213  69.7923633  14.1869270
  80.2337160  71.2307273   2.4737257  79.9049867  70.3504652   2.2912363
  80.5876531  71.1754942   3.3613647  86.0422424  69.9017294  12.2915803
  85.7019245  69.1025107  12.6936483  85.3361431  70.2019004  11.7192636
  86.6938896  66.9866606  10.7443126  87.5164966  66.5127084  10.6222017
  86.9376960  67.7657090  11.2441813  84.2177475  73.6785727   8.5535105
  84.0722056  73.9926030   9.4459386  83.7402679  74.2970627   8.0006003
  86.0773858  70.6688275   8.6015994  86.0635427  69.7729368   8.2648292
  86.7946286  70.6758938   9.2354280  87.9299989  71.1025615  10.6469122
  87.6717766  72.0242686  10.6453452  87.3985029  70.7056049  11.3369586
  78.6923137  76.2191071  11.4922766  78.1476605  76.9950879  11.6243040
  79.5702487  76.5661876  11.3341887  85.4810754  69.5502655   3.8703565
  85.6026665  68.6219301   4.0694452  85.1912796  69.5641341   2.9581880
  88.3501944  67.2357565   7.0070284  88.3723641  67.2996898   6.0522264
  88.7670003  66.3962074   7.2010791  79.4789159  75.3460967  14.3852923
  78.7370895  75.4943603  14.9717553  79.1581903  75.6069233  13.5219672
  87.4232822  84.8876946  14.1833313  87.7319948  84.6426092  15.0556012
  88.2208304  85.0923584  13.6952183  78.1254378  81.1512723   7.3752251
  77.2886286  80.7234897   7.1936252  78.0978023  81.3445166   8.3123042
  84.9651833  71.0634652  18.0793497  85.0139989  71.9396775  17.6971267
  85.5074348  70.5212045  17.5065140  95.4506679  81.6075776  17.3594634
  94.6602223  81.5899914  16.8199134  95.2140034  82.1464069  18.1143671
  95.5704554  78.4568242  14.6727363  95.6202559  78.2918249  15.6142886
  95.4618477  77.5895501  14.2825244  92.8608316  74.4399170  15.9886669
  93.7618179  74.3005635  15.6970667  92.9356291  74.6053625  16.9284847
  87.1951122  71.8166025  14.8339856  86.3254431  72.1099591  14.5622444
  87.4310602  72.4006470  15.5547119  97.0722751  80.8765183  14.9169384
  96.7807559  81.2395164  15.7532845  96.4594882  80.1632192  14.7382716
  95.3209939  75.9997798  13.3849442  95.7964061  76.1925444  12.5768294
  94.3975505  76.0556984  13.1392826  89.8990156  68.0345642  12.3505276
  90.4172099  68.7706669  12.0251765  89.5445288  68.3409635  13.1852035
  90.1502750  64.4545924   7.8706173  90.4304504  63.7869113   8.4966599
  90.9353357  64.6475020   7.3580837  94.0211608  72.8763558  11.6177748
  94.9729031  72.9761656  11.6389972  93.8515059  72.0841827  12.1275832
  92.0425988  69.9619141  11.8037149  91.4475920  70.2424154  11.1083637
  91.7575684  70.4513042  12.5753890  96.6494174  72.8880721  10.7778331
  96.1333223  72.1039178  10.5908260  97.5334123  72.5599438  10.9424850
  94.3104901  66.6321737   6.7374143  94.1129722  66.3236825   7.6217475
  94.9204607  67.3583376   6.8672073  88.2221709  79.0183477  18.2347909
  89.1424719  79.1962076  18.4287955  88.1871292  78.0739522  18.0827608
  77.4403874  74.2122071   7.1601183  77.1206659  73.3587379   6.8675557
  76.8937303  74.4270649   7.9159151  81.2183782  76.9284512  10.8770690
  81.4369792  77.8601619  10.8958724  81.6309556  76.5692486  11.6625494
  88.1388000  67.4352597   2.8646378  87.3288728  67.0899682   3.2401624
  88.8272417  67.1260141   3.4533990  90.0678548  66.5130644   4.4870675
  90.6209587  66.9326097   5.1460698  90.3048634  65.5866392   4.5293631
  86.0911647  72.5017717  20.2673439  85.9908374  73.4512074  20.1985530
  85.8733189  72.1735956  19.3949509  77.3092134  77.8324982   9.1294305
  76.6155606  77.4178935   8.6164259  78.0565125  77.8745519   8.5327724
  91.8960921  68.0236227   6.1970659  92.3960700  68.1352761   5.3884978
  92.5396529  67.7197279   6.8371468  85.9542917  75.9314856  19.0838500
  85.4709999  76.7315216  19.2902389  86.0403856  75.9422801  18.1305944
  79.2228877  77.7643236   7.0060320  79.1999565  77.8630923   6.0542203
  79.5329513  78.6108387   7.3277486  81.8816255  79.8219391  11.1206934
  82.8359508  79.7903333  11.0536866  81.6828778  79.3610015  11.9357160
  82.4715637  78.3920507  13.6877732  83.2908526  78.8864586  13.7112569
  82.7452445  77.4752475  13.6595299  77.7250551  72.7258641  14.3869929
  78.3709415  72.2157595  14.8757154  77.5167702  73.4627323  14.9613354
  90.2503943  79.7939488  19.8862069  91.1195103  79.9680141  19.5248704
  89.7710695  80.6133905  19.7637799  84.4190124  86.9136589  11.5651503
  85.3217370  86.9460200  11.8817998  84.1927494  85.9837040  11.5797839
  90.0606281  63.5841462   4.3939762  89.2938677  63.0299949   4.5396444
  90.4716986  63.6563331   5.2553913  82.0648042  69.8726258  18.4844943
  82.9279504  69.5163063  18.6948268  81.4913453  69.5340153  19.1720347
  94.6229543  83.2806975  19.4774915  94.2296488  82.7273173  20.1522559
  95.4395683  83.5917553  19.8681432  97.5397504  84.6964854  17.0695171
  98.2807217  85.2972007  16.9899634  97.7715427  83.9542491  16.5113214
  92.5677531  87.0708664  16.4179577  93.1949569  86.6885741  17.0317102
  91.7105449  86.8522866  16.7835270  95.8045588  86.3926570  18.0793497
  95.8533743  87.2688693  17.6971267  96.3468102  85.8503963  17.5065140
  96.9305402  87.8309635  20.2673439  96.8302129  88.7803992  20.1985530
  96.7126944  87.5027874  19.3949509  88.5644306  88.0550559  14.3869929
  89.2103169  87.5449513  14.8757154  88.3561457  88.7919240  14.9613354
  92.9041797  85.2018176  18.4844943  93.7673258  84.8454980  18.6948268
  92.3307207  84.8632070  19.1720347  71.9638703  28.7943092   2.1714809
  71.9051249  28.1102312   1.5045392  72.3658221  29.5362082   1.7195435
  70.4490377  28.4958009   4.7478620  70.9930281  29.1087967   4.2533574
  69.8677222  29.0537587   5.2645633  73.7719171  27.9554063   4.0839941
  72.9814715  27.9378202   3.5444440  73.5352526  28.4942357   4.8388977
  75.3935243  27.2243471   1.6414691  75.1020051  27.5873451   2.4778152
  74.7807374  26.5110479   1.4628023  68.5716436  26.1417776   6.6107376
  69.4407595  26.3158428   6.2494011  68.0923187  26.9612192   6.4883105
  80.2308911  37.8506402  -3.9847349  80.8687321  37.7313149  -4.6884009
  80.1129754  38.7987245  -3.9259397  77.0398618  37.8033830  -4.0485825
  76.7017129  37.6874894  -4.9365290  77.9088386  37.4024995  -4.0684819
  77.5218401  38.9568681   1.9100381  77.5107041  38.5621480   1.0380885
  77.6839040  38.2234754   2.5034152  70.4449865  41.1520498  -5.2204713
  71.2371157  40.8111322  -5.6358414  70.6846515  41.2615473  -4.3002560
  74.2425662  41.7405793   0.8579565  73.9515528  42.6451424   0.7426231
  74.8782646  41.7822321   1.5723634  75.1681869  39.1182642  -2.5519075
  75.7645441  38.8938664  -3.2662113  75.2256840  38.3767387  -1.9493628
  82.7084027  29.2254663  -1.5466554  82.3767352  30.0950074  -1.7705339
  82.1129641  28.9090947  -0.8672524  79.2015547  41.4267209  -2.1470641
  78.9016270  42.3292247  -2.2554834  78.8566606  41.1599392  -1.2949489
  82.6012691  33.9449749  -4.4673204  81.6929568  33.8765157  -4.7614443
  82.5500286  34.4221694  -3.6391379  74.1836327  48.1911529  -9.1799674
  74.1060356  49.1419354  -9.1011193  73.5797970  47.8457402  -8.5224747
  76.6753556  35.3639394   3.4761693  75.8986890  35.9233315   3.4664558
  77.3144119  35.8496177   3.9976563  74.9299929  38.1724848   3.0379660
  75.6714613  38.7109892   2.7614484  74.2236914  38.7991137   3.1951212
  80.4055268  40.3153988   1.6351822  80.8138624  39.8736399   0.8906454
  79.6832530  39.7406616   1.8886015  76.7586338  35.2526595  -0.9914621
  77.6047534  35.6766009  -0.8479972  76.6984976  34.5960219  -0.2976058
  80.7284083  40.8755179  -4.6095889  80.0992945  41.0400893  -5.3119822
  80.3409745  41.2896788  -3.8384925  84.6073315  41.8109617  -7.2551526
  83.9224353  42.1908518  -7.8054492  84.6917164  42.4204943  -6.5219578
  79.9085784  32.9130963   0.6666552  79.6646716  33.6673024   0.1300828
  80.1845714  33.2916311   1.5013799  81.8624246  39.4569576  -0.6556182
  82.0741142  40.1001336  -1.3321801  81.8153995  38.6231892  -1.1234252
  73.1736126  40.1601069  -4.4066041  73.7437483  40.5888337  -5.0448557
  73.7644238  39.8783653  -3.7081855  73.6661292  35.3264496   3.8394970
  73.0359953  36.0080777   4.0730367  73.5597380  35.2147578   2.8948108
  82.9770074  42.3341531  -2.4833825  83.7987518  41.9321718  -2.7651143
  82.9732477  42.2309765  -1.5317709  76.7426678  41.8825574  -0.3273114
  76.8071110  42.3445982   0.5085057  76.0337602  41.2522939  -0.1990805
  72.9442035  29.6285262   6.2020221  72.5508981  29.0751460   6.8767865
  73.7608175  29.9395840   6.5926739  71.7198978  44.1834876  -7.8043456
  71.8965606  45.1052841  -7.9922472  72.5155811  43.8693296  -7.3749076
  75.8609996  31.0443141   3.7940478  76.6019710  31.6450294   3.7144940
  76.0927919  30.3020779   3.2358520  71.0051334  36.2299508   2.0718707
  70.8904849  35.3284765   2.3725806  70.1495852  36.4763205   1.7203524
  78.0843172  44.1717248   3.6706208  77.6407026  43.3853627   3.3527113
  78.7460385  44.3596399   3.0050099  72.8430293  45.7013050  -1.8033113
  73.3937718  45.5730113  -2.5756119  72.0041769  46.0007939  -2.1538221
  80.1824410  44.4520048   1.6987609  80.1642885  45.2728929   1.2067879
  81.1044330  44.3274124   1.9237750  76.6397464  41.9664178   2.5411118
  77.1725801  41.2052466   2.3110426  76.1111545  41.6737830   3.2835272
  82.9843023  39.2899191  -4.8303024  82.3266697  39.9798452  -4.7422895
  83.7883422  39.6795623  -4.4869038  78.2729313  35.1193019  -4.5340742
  77.3551874  35.3407966  -4.6919054  78.6889456  35.1939330  -5.3929034
  82.5610278  42.6249565  -8.6519940  82.1072605  41.7840475  -8.5954749
  81.9304245  43.2610963  -8.3145159  81.0043217  44.4626062  -7.7170121
  81.2966191  45.0231119  -8.4357756  81.5141838  44.7554623  -6.9616962
  75.9676842  45.2406413  -6.6276668  75.9253021  45.4667259  -7.5568136
  76.8839541  45.0069787  -6.4790867  79.4142476  35.7090480   0.2703961
  79.7691864  35.9361953   1.1298427  80.0614607  36.0408857  -0.3518784
  85.1709593  40.8985443  -4.0135439  85.6046099  40.8060732  -3.1652384
  85.8841173  40.8742944  -4.6515423  78.9037488  44.4987537  -2.4802338
  78.9574510  45.0678474  -1.7124622  78.0352269  44.6689422  -2.8448301
  71.7835881  34.2005094  -0.9977887  72.4558934  33.9922456  -1.6465238
  70.9565667  34.0027180  -1.4372654  86.0325142  40.9409144  -1.4802553
  86.2261032  41.8454954  -1.2343278  85.9325760  40.4816563  -0.6463968
  77.6861453  30.8267034   1.0187774  77.0389368  31.5256984   0.9252251
  78.4562468  31.2603178   1.3864022  81.0940251  41.0915887   4.0938327
  80.9425757  40.8626438   3.1768411  81.0844930  42.0486488   4.1069673
  77.8625587  38.6647799  -0.9215406  78.7917647  38.8158959  -1.0946439
  77.4416617  38.7531820  -1.7766760  76.6613919  42.6898464  -3.1516868
  76.5225005  42.3217248  -2.2790930  75.8728515  43.2046103  -3.3232911
  77.2562071  47.7907560 -11.8091332  77.4313827  47.3195603 -10.9945709
  76.5694859  48.4173326 -11.5810071  78.2119134  42.0680066  -5.7628031
  77.8768967  42.0280836  -4.8670381  77.7123080  41.4024782  -6.2357620
  72.1863378  37.4747697  -0.2375449  72.0483176  36.7427935   0.3636090
  73.0968302  37.3856597  -0.5191262  74.8145679  37.1867656  -0.7491770
  75.5245297  36.5460848  -0.7905151  74.7714987  37.4380551   0.1734411
  82.8032458  44.1235009   2.1714809  82.7445004  43.4394229   1.5045392
  83.2051976  44.8653999   1.7195435  73.5274613  34.1732874   1.0703870
  72.9911970  33.7223612   1.7225466  72.9391321  34.3078783   0.3274334
  71.8223156  50.9396923  -5.0351472  72.0619755  51.5715447  -4.3572453
  70.9792353  50.5884963  -4.7486112  82.8049865  42.0874593   0.4028789
  81.9176644  41.7500515   0.5255188  83.3748416  41.3557624   0.6397554
  76.3351018  46.7476045  -2.6309968  76.2621190  47.5531017  -2.1190663
  75.8928411  46.9468011  -3.4561946  76.1240798  45.9847815  -9.1207146
  75.3408320  46.5269496  -9.0268922  76.8233543  46.5021795  -8.7212905
  78.7949702  46.6462879  -0.4751809  79.5077674  47.2810344  -0.5475908
  78.3039730  46.7426745  -1.2911807  73.8461615  44.3957323   0.3453762
  74.5471075  45.0293806   0.4983156  73.3756730  44.7372055  -0.4150599
  81.6462901  36.9501930  -1.8293688  80.9934351  37.1977838  -2.4841235
  82.0243281  36.1366069  -2.1631211  78.6070075  46.9861624  -7.7265518
  78.7892470  46.1683280  -7.2637765  79.4303061  47.2029316  -8.1640628
  78.9412241  45.9129809 -10.4650469  79.4700007  45.4022263 -11.0780307
  79.2040460  45.5972339  -9.6004936  77.6950474  37.6921741   4.6572349
  77.0191111  37.5915871   5.3274724  78.5178108  37.5360955   5.1208346
  69.4429333  43.9293678  -2.7215136  70.0282770  43.1837366  -2.5887231
  69.2454172  44.2397635  -1.8378472  72.2967989  46.9644925  -7.7052693
  71.6278364  47.4491053  -8.1888653  72.1580858  47.2114146  -6.7909315
  76.4373257  48.9988669  -1.1070035  76.9891565  49.1620290  -0.3420950
  76.7779451  49.5893107  -1.7790010  70.8890023  33.4186951   3.1424884
  71.5162062  33.0364029   3.7562408  70.0317942  33.2001153   3.5080577
  81.2884131  43.8249926   4.7478620  81.8324035  44.4379885   4.2533574
  80.7070976  44.3829505   5.2645633  79.5741644  46.9470644  -4.1206353
  79.4492784  46.1460384  -4.6295407  80.2320735  47.4416838  -4.6092383
  81.6376553  44.7479665  -2.4926803  80.6906888  44.6285016  -2.5648476
  81.9859326  43.8602163  -2.4100541  73.9976126  30.6373803   1.3311439
  74.5210528  30.8836100   2.0937749  73.7788459  31.4693838   0.9114577
  78.6422986  44.5432381  -6.2922450  78.4947948  43.6149088  -6.1114880
  79.4676480  44.5652471  -6.7765375  82.2457108  45.3660939  -5.2057578
  83.1703655  45.1603801  -5.3433126  82.0772411  45.1177341  -4.2968236
  75.2028671  31.5787499  -0.9838890  74.8625492  30.7795312  -0.5818210
  74.4967677  31.8789209  -1.5562057  77.0906235  32.7795820  -2.6285572
  76.8324013  33.7012890  -2.6301241  76.5591276  32.3826254  -1.9385107
  82.0352424  45.8846607  -9.8495486  82.2089302  45.3193029 -10.6021634
  82.5281315  46.6847502 -10.0315996  67.8529384  37.8961276  -1.7831927
  67.3082852  38.6721084  -1.6511653  68.7308734  38.2432080  -1.9412806
  68.6395406  37.0231172   1.1098230  67.8977142  37.1713808   1.6962860
  68.3188150  37.2839438   0.2464979  76.5839068  46.5647151   0.9078620
  76.8926195  46.3196297   1.7801319  77.3814550  46.7693789   0.4197490
  76.6059680  48.7185060  -6.8616004  76.1664671  48.2261439  -6.1683147
  77.3567797  48.1758028  -7.1023929  69.0852019  44.9096601  -6.8591376
  69.9110039  44.6100373  -7.2392732  68.7346071  44.1404223  -6.4101587
  74.0533553  44.2623069  -4.7893702  73.4313562  43.5993774  -5.0891474
  74.7238420  44.2884201  -5.4720054  74.1258080  32.7404857   4.8038804
  74.1746236  33.6166980   4.4216573  74.6680594  32.1982250   4.2310447
  84.6112926  43.2845981   4.0839941  83.8208469  43.2670119   3.5444440
  84.3746280  43.8234274   4.8388977  84.7310801  40.1338447   1.3972669
  84.7808806  39.9688454   2.3388192  84.6224724  39.2665706   1.0070550
  82.0214563  36.1169375   2.7131976  82.9224426  35.9775840   2.4215974
  82.0962538  36.2823830   3.6530154  76.3557369  33.4936230   1.5585162
  75.4860678  33.7869796   1.2867751  76.5916849  34.0776675   2.2792426
  86.2328998  42.5535388   1.6414691  85.9413806  42.9165369   2.4778152
  85.6201129  41.8402397   1.4628023  84.4816186  37.6768003   0.1094749
  84.9570308  37.8695649  -0.6986400  83.5581751  37.7327189  -0.1361867
  79.0596402  29.7115847  -0.9249417  79.5778346  30.4476874  -1.2502929
  78.7051535  30.0179840  -0.0902658  83.1817855  34.5533763  -1.6576945
  84.1335278  34.6531861  -1.6364721  83.0121305  33.7612032  -1.1478861
  81.2032234  31.6389346  -1.4717545  80.6082166  31.9194359  -2.1671056
  80.9181931  32.1283247  -0.7000803  85.6605933  37.7739883  -2.5434646
  85.6282253  36.8355884  -2.3574962  86.2706556  37.8523920  -3.2768821
  77.3827956  40.6953682   4.9593215  78.3030966  40.8732281   5.1533262
  77.3477539  39.7509727   4.8072914  70.3790029  38.6054717  -2.3984004
  70.5976038  39.5371824  -2.3795970  70.7915802  38.2462691  -1.6129200
  75.2517894  34.1787922   6.9918745  75.1514621  35.1282279   6.9230836
  75.0339436  33.8506161   6.1194815  75.1149164  37.6085061   5.8083807
  74.6316246  38.4085421   6.0147696  75.2010103  37.6193006   4.8551251
  71.0422502  41.4989596  -2.1547759  71.9965755  41.4673538  -2.2217828
  70.8435025  41.0380220  -1.3397533  71.6321884  40.0690712   0.4123038
  72.4514773  40.5634791   0.4357876  71.9058691  39.1522680   0.3840606
  69.3972730  47.0409215  -5.1377561  69.2627198  46.2809616  -5.7039563
  68.9804793  47.7650115  -5.6048773  72.5541856  47.9378532  -4.9259119
  72.4374240  48.8823965  -5.0280429  71.7334302  47.6352094  -4.5373320
  66.8856798  34.4028846   1.1115235  67.5315661  33.8927800   1.6002461
  66.6773949  35.1397527   1.6858661  79.4110190  41.4709693   6.6107376
  80.2801350  41.6450346   6.2494011  78.9316942  42.2904110   6.4883105
  73.5796370  48.5906794  -1.7103190  74.4823617  48.6230405  -1.3936695
  73.3533740  47.6607245  -1.6956855  75.3349972  47.3437781  -5.0493112
  74.3845603  47.3439642  -5.1628739  75.6382458  46.5970515  -5.5657077
  71.2254289  31.5496463   5.2090250  72.0885750  31.1933268   5.4193574
  70.6519700  31.2110358   5.8965654  91.0702666  53.1798319  -3.9847349
  91.7081076  53.0605067  -4.6884009  90.9523509  54.1279163  -3.9259397
  87.8792372  53.1325747  -4.0485825  87.5410884  53.0166812  -4.9365290
  88.7482140  52.7316912  -4.0684819  88.3612155  54.2860599   1.9100381
  88.3500796  53.8913397   1.0380885  88.5232795  53.5526672   2.5034152
  81.2843620  56.4812415  -5.2204713  82.0764912  56.1403240  -5.6358414
  81.5240270  56.5907390  -4.3002560  85.0819416  57.0697711   0.8579565
  84.7909282  57.9743342   0.7426231  85.7176401  57.1114238   1.5723634
  86.0075623  54.4474559  -2.5519075  86.6039195  54.2230582  -3.2662113
  86.0650595  53.7059305  -1.9493628  93.5477782  44.5546580  -1.5466554
  93.2161107  45.4241991  -1.7705339  92.9523395  44.2382864  -0.8672524
  90.0409301  56.7559126  -2.1470641  89.7410024  57.6584165  -2.2554834
  89.6960361  56.4891310  -1.2949489  83.4921783  53.2072923  -6.1133937
  82.5672279  53.0749137  -5.9056245  83.7406196  53.9867142  -5.6163995
  93.4406445  49.2741667  -4.4673204  92.5323322  49.2057075  -4.7614443
  93.3894041  49.7513611  -3.6391379  80.8530594  52.8506197  -5.2790148
  80.9822975  53.1040676  -4.3650736  80.1728045  53.4433905  -5.5985493
  87.5147311  50.6931312   3.4761693  86.7380645  51.2525232   3.4664558
  88.1537874  51.1788095   3.9976563  85.7693683  53.5016765   3.0379660
  86.5108368  54.0401809   2.7614484  85.0630669  54.1283054   3.1951212
  91.2449023  55.6445906   1.6351822  91.6532379  55.2028316   0.8906454
  90.5226284  55.0698533   1.8886015  87.5980093  50.5818513  -0.9914621
  88.4441288  51.0057926  -0.8479972  87.5378731  49.9252137  -0.2976058
  90.7479538  48.2422881   0.6666552  90.5040470  48.9964942   0.1300828
  91.0239469  48.6208229   1.5013799  92.7018001  54.7861493  -0.6556182
  92.9134896  55.4293253  -1.3321801  92.6547749  53.9523810  -1.1234252
  90.3044230  47.3979314  -3.7519610  89.4428709  47.6960568  -3.4602872
  90.3306665  47.6149713  -4.6838577  84.0129880  55.4892986  -4.4066041
  84.5831237  55.9180255  -5.0448557  84.6037992  55.2075571  -3.7081855
  84.5055047  50.6556414   3.8394970  83.8753707  51.3372695   4.0730367
  84.3991135  50.5439495   2.8948108  79.8000019  50.3228210  -5.2339106
  79.0099073  50.5785738  -5.7098995  80.2911267  51.1376548  -5.1287065
  81.7514765  50.6872789  -8.2755629  80.9545928  50.7991483  -7.7572133
  81.5240357  51.0259441  -9.1414738  87.5820432  57.2117492  -0.3273114
  87.6464865  57.6737899   0.5085057  86.8731356  56.5814857  -0.1990805
  78.0837722  50.5758700  -2.8024115  78.3345761  51.4605710  -2.5366539
  78.6197271  50.3963302  -3.5749023  83.7835790  44.9577180   6.2020221
  83.3902735  44.4043378   6.8767865  84.6001930  45.2687758   6.5926739
  86.7003751  46.3735059   3.7940478  87.4413464  46.9742212   3.7144940
  86.9321673  45.6312696   3.2358520  81.8445089  51.5591426   2.0718707
  81.7298604  50.6576683   2.3725806  80.9889606  51.8055123   1.7203524
  88.9236926  59.5009166   3.6706208  88.4800781  58.7145545   3.3527113
  89.5854140  59.6888317   3.0050099  83.6824048  61.0304968  -1.8033113
  84.2331473  60.9022031  -2.5756119  82.8435523  61.3299857  -2.1538221
  91.0218164  59.7811966   1.6987609  91.0036640  60.6020847   1.2067879
  91.9438085  59.6566041   1.9237750  87.4791219  57.2956096   2.5411118
  88.0119555  56.5344384   2.3110426  86.9505300  57.0029747   3.2835272
  89.7257454  44.7720817  -3.9646007  89.2222250  44.7350952  -4.7778202
  90.0188061  45.6813559  -3.9049351  85.9700340  44.8559546  -4.9579826
  86.8353337  44.6602355  -5.3173936  86.0377849  44.6269898  -4.0310469
  83.5762659  47.0861754  -7.5863459  84.1506411  46.8636936  -8.3190266
  84.1633641  47.1550449  -6.8334857  89.1123067  50.4484937  -4.5340742
  88.1945628  50.6699884  -4.6919054  89.5283211  50.5231247  -5.3929034
  78.7372935  52.0640407  -8.4395905  78.5397335  51.4709768  -9.1644838
  78.1819599  51.7592618  -7.7219966  86.7169659  51.9563514  -6.3201312
  86.7718269  51.0037350  -6.3958835  85.9060861  52.1122953  -5.8360013
  84.6562019  50.5740574  -8.5610933  83.8429884  50.8734744  -8.1545741
  85.1521013  50.1796262  -7.8436451  90.2536231  51.0382398   0.2703961
  90.6085618  51.2653871   1.1298427  90.9008362  51.3700775  -0.3518784
  84.1476094  48.1458929  -2.9449698  84.7875473  48.0047688  -3.6426735
  83.3153624  47.8593442  -3.3211096  81.1504710  48.1159254  -8.1676711
  81.4111527  49.0304587  -8.2767551  81.9721882  47.6483697  -8.0180098
  82.6229635  49.5297011  -0.9977887  83.2952689  49.3214373  -1.6465238
  81.7959422  49.3319097  -1.4372654  88.5255207  46.1558952   1.0187774
  87.8783122  46.8548902   0.9252251  89.2956223  46.5895096   1.3864022
  91.9334005  56.4207804   4.0938327  91.7819512  56.1918356   3.1768411
  91.9238685  57.3778406   4.1069673  88.7019342  53.9939717  -0.9215406
  89.6311402  54.1450877  -1.0946439  88.2810372  54.0823738  -1.7766760
  87.5007674  58.0190381  -3.1516868  87.3618759  57.6509166  -2.2790930
  86.7122270  58.5338021  -3.3232911  83.0257133  52.8039614  -0.2375449
  82.8876931  52.0719853   0.3636090  83.9362056  52.7148514  -0.5191262
  85.6539433  52.5159574  -0.7491770  86.3639052  51.8752766  -0.7905151
  85.6108741  52.7672468   0.1734411  93.6426212  59.4526927   2.1714809
  93.5838758  58.7686147   1.5045392  94.0445730  60.1945917   1.7195435
  84.3668367  49.5024791   1.0703870  83.8305724  49.0515530   1.7225466
  83.7785076  49.6370700   0.3274334  93.6443619  57.4166511   0.4028789
  92.7570398  57.0792433   0.5255188  94.2142170  56.6849542   0.6397554
  75.2972766  53.7490603  -6.2728160  75.9843806  53.4352333  -6.8607144
  75.1420895  54.6531967  -6.5460908  80.1007489  48.6380799  -1.8443136
  80.0165677  48.0306469  -2.5792726  79.2790195  49.1289817  -1.8433640
  86.8566171  49.2651746  -6.7501256  86.4863959  48.7122786  -6.0620351
  87.3525264  48.6609879  -7.3026256  84.6855370  59.7249241   0.3453762
  85.3864829  60.3585724   0.4983156  84.2150485  60.0663972  -0.4150599
  92.4856656  52.2793848  -1.8293688  91.8328106  52.5269756  -2.4841235
  92.8637036  51.4657986  -2.1631211  88.5344229  53.0213659   4.6572349
  87.8584866  52.9207788   5.3274724  89.3571863  52.8652873   5.1208346
  80.2823088  59.2585596  -2.7215136  80.8676525  58.5129284  -2.5887231
  80.0847926  59.5689552  -1.8378472  74.8740743  51.8291196  -4.0010692
  74.9124842  51.2954787  -3.2073574  74.3681035  51.3026401  -4.6199715
  82.2531505  46.6755736  -0.5048150  82.3172831  47.5370567  -0.9170752
  82.1898625  46.0629738  -1.2375792  81.7283777  48.7478869   3.1424884
  82.3555816  48.3655946   3.7562408  80.8711696  48.5293071   3.5080577
  92.1277886  59.1541844   4.7478620  92.6717790  59.7671802   4.2533574
  91.5464731  59.7121423   5.2645633  78.5049320  50.5555298 -10.9256761
  78.8002761  49.6465976 -10.9789707  77.6037356  50.5343038 -11.2475759
  82.0343567  48.6311295  -4.9429212  81.3130153  49.2447262  -5.0821739
  82.8236823  49.1669059  -5.0212567  84.8369881  45.9665721   1.3311439
  85.3604282  46.2128018   2.0937749  84.6182214  46.7985756   0.9114577
  80.2337162  48.2369396 -10.8017436  79.9049868  47.3566775 -10.9842330
  80.5876532  48.1817064  -9.9141047  86.0422426  46.9079416  -0.9838890
  85.7019246  46.1087229  -0.5818210  85.3361432  47.2081127  -1.5562057
  86.6938897  43.9928729  -2.5311567  87.5164967  43.5189207  -2.6532677
  86.9376961  44.7719212  -2.0312881  84.2177476  50.6847849  -4.7219589
  84.0722057  50.9988152  -3.8295307  83.7402680  51.3032750  -5.2748690
  86.0773859  47.6750397  -4.6738699  86.0635428  46.7791491  -5.0106401
  86.7946287  47.6821061  -4.0400413  87.9299990  48.1087737  -2.6285572
  87.6717768  49.0304808  -2.6301241  87.3985030  47.7118172  -1.9385107
  78.6923138  53.2253194  -1.7831927  78.1476606  54.0013002  -1.6511653
  79.5702488  53.5723998  -1.9412806  79.4789160  52.3523090   1.1098230
  78.7370896  52.5005725   1.6962860  79.1581905  52.6131356   0.2464979
  87.4232823  61.8939068   0.9078620  87.7319949  61.6488215   1.7801319
  88.2208305  62.0985707   0.4197490  78.1254379  58.1574845  -5.9002442
  77.2886287  57.7297019  -6.0818441  78.0978024  58.3507288  -4.9631651
  84.9651835  48.0696775   4.8038804  85.0139990  48.9458898   4.4216573
  85.5074349  47.5274168   4.2310447  95.4506680  58.6137898   4.0839941
  94.6602224  58.5962037   3.5444440  95.2140035  59.1526192   4.8388977
  95.5704555  55.4630365   1.3972669  95.6202560  55.2980372   2.3388192
  95.4618479  54.5957624   1.0070550  92.8608318  51.4461293   2.7131976
  93.7618180  51.3067757   2.4215974  92.9356292  51.6115747   3.6530154
  87.1951123  48.8228147   1.5585162  86.3254432  49.1161713   1.2867751
  87.4310603  49.4068592   2.2792426  97.0722752  57.8827306   1.6414691
  96.7807560  58.2457287   2.4778152  96.4594883  57.1694314   1.4628023
  95.3209940  53.0059921   0.1094749  95.7964062  53.1987567  -0.6986400
  94.3975506  53.0619107  -0.1361867  89.8990157  45.0407764  -0.9249417
  90.4172101  45.7768791  -1.2502929  89.5445290  45.3471758  -0.0902658
  94.0211609  49.8825681  -1.6576945  94.9729032  49.9823778  -1.6364721
  93.8515060  49.0903949  -1.1478861  92.0425989  46.9681264  -1.4717545
  91.4475921  47.2486277  -2.1671056  91.7575686  47.4575165  -0.7000803
  88.2221711  56.0245600   4.9593215  89.1424720  56.2024199   5.1533262
  88.1871294  55.0801645   4.8072914  77.4403876  51.2184193  -6.1153510
  77.1206660  50.3649501  -6.4079136  76.8937304  51.4332771  -5.3595543
  81.2183783  53.9346634  -2.3984004  81.4369793  54.8663742  -2.3795970
  81.6309557  53.5754609  -1.6129200  86.0911648  49.5079840   6.9918745
  85.9908375  50.4574197   6.9230836  85.8733190  49.1798079   6.1194815
  77.3092136  54.8387105  -4.1460389  76.6155607  54.4241058  -4.6590434
  78.0565127  54.8807641  -4.7426970  85.9542919  52.9376979   5.8083807
  85.4710000  53.7377339   6.0147696  86.0403858  52.9484924   4.8551251
  79.2228878  54.7705359  -6.2694374  79.1999566  54.8693046  -7.2212491
  79.5329515  55.6170509  -5.9477208  81.8816256  56.8281514  -2.1547759
  82.8359510  56.7965456  -2.2217828  81.6828780  56.3672137  -1.3397533
  82.4715638  55.3982630   0.4123038  83.2908527  55.8926708   0.4357876
  82.7452446  54.4814598   0.3840606  77.7250552  49.7320763   1.1115235
  78.3709416  49.2219717   1.6002461  77.5167703  50.4689445   1.6858661
  90.2503945  56.8001611   6.6107376  91.1195104  56.9742263   6.2494011
  89.7710696  57.6196028   6.4883105  84.4190125  63.9198712  -1.7103190
  85.3217371  63.9522322  -1.3936695  84.1927495  62.9899163  -1.6956855
  82.0648043  46.8788381   5.2090250  82.9279505  46.5225185   5.4193574
  81.4913454  46.5402275   5.8965654  94.6229544  60.2869097   6.2020221
  94.2296490  59.7335296   6.8767865  95.4395684  60.5979676   6.5926739
  97.5397505  61.7026976   3.7940478  98.2807218  62.3034129   3.7144940
  97.7715428  60.9604614   3.2358520  92.5677532  64.0770787   3.1424884
  93.1949571  63.6947864   3.7562408  91.7105451  63.8584989   3.5080577
  95.8045589  63.3988693   4.8038804  95.8533745  64.2750815   4.4216573
  96.3468103  62.8566086   4.2310447  96.9305403  64.8371758   6.9918745
  96.8302130  65.7866115   6.9230836  96.7126945  64.5089997   6.1194815
  88.5644307  65.0612681   1.1115235  89.2103170  64.5511635   1.6002461
  88.3561458  65.7981363   1.6858661  92.9041798  62.2080298   5.2090250
  93.7673259  61.8517103   5.4193574  92.3307209  61.8694193   5.8965654
   4.3526024  99.9947956  73.5179304   3.5989732  99.4255354  73.3623308
   4.4873565  99.9610620  74.4649938   0.7174637 101.4355944  73.8145418
   1.5521528 101.8745748  73.9782979   0.8533765 100.9594597  72.9953664
   4.7632439 100.1523566  76.2499548   5.4935828  99.8908854  76.8107251
   4.1539385  99.4152288  76.2901616   2.8447736  98.2931428  76.8473999
   2.1180900  98.1587393  76.2390491   2.4295023  98.6008257  77.6530717
   0.4625531  94.5143280  74.2007431   1.0570022  94.2739016  73.4900739
   0.5352115  93.7950411  74.8280967   2.7696604  97.8209481  72.9750852
   2.2096162  97.8902671  73.7482414   2.1640107  97.6450466  72.2550348
   3.9310870 103.7183838  77.7232917   3.5875140 104.6085479  77.6472027
   4.2989833 103.5285495  76.8602502   5.7298536 102.9777397  72.8250654
   6.0357413 102.1174760  72.5376569   6.4551141 103.5695017  72.6249648
   3.4352708 102.7775723  74.2479636   3.7154461 102.1098912  74.8740063
   4.2203315 102.9704818  73.7354300   7.5954859 104.9551536  73.1147607
   7.3979680 104.6466624  73.9990939   8.2054565 105.6813174  73.2445537
   3.3456239 101.9071261  70.7713226   2.5788635 101.3529747  70.9169908
   3.7566944 101.9793130  71.6327377   4.3526025  77.0010078  60.2424610
   3.5989734  76.4317476  60.0868615   4.4873566  76.9672743  61.1895245
   0.7174638  78.4418067  60.5390725   1.5521529  78.8807871  60.7028285
   0.8533767  77.9656720  59.7198971   4.7632440  77.1585688  62.9744855
   5.4935829  76.8970976  63.5352558   4.1539386  76.4214410  63.0146923
   2.8447737  75.2993551  63.5719306   2.1180901  75.1649516  62.9635797
   2.4295024  75.6070379  64.3776024   0.4625532  71.5205403  60.9252737
   1.0570023  71.2801139  60.2146046   0.5352116  70.8012534  61.5526274
   2.7696605  74.8271604  59.6996159   2.2096163  74.8964793  60.4727721
   2.1640109  74.6512589  58.9795655   4.3552624  91.5028118  62.3926114
   4.9931034  91.3834865  61.6889454   4.2373466  92.4508962  62.4514067
   1.1642330  91.4555546  62.3287639   0.8260841  91.3396611  61.4408174
   2.0332098  91.0546711  62.3088645   1.6462113  92.6090398  68.2873845
   1.6350754  92.2143196  67.4154348   1.8082752  91.8756470  68.8807616
   2.6028704  96.9761990  53.6298995   1.9516684  97.5616070  53.2433009
   3.3973067  97.5068185  53.6894032   3.9093892  89.2279572  59.4679322
   4.6956981  88.8098995  59.1169739   4.1732596  90.1325664  59.6360971
   4.0803969  94.6652422  54.1667979   3.4449802  94.7387049  54.8788884
   3.7501376  95.2546021  53.4887059   9.3102319  89.1654805  60.3712301
  10.0427491  88.5954022  60.6050130   8.5541675  88.7776405  60.8118807
   0.9278439  91.5882046  57.5675643   0.5636646  91.0612667  58.2788565
   1.7845555  91.1980515  57.3942129   6.8327740  82.8776379  64.8306910
   6.5011064  83.7471790  64.6068125   6.2373353  82.5612663  65.5100940
   3.3259259  95.0788925  64.2302822   3.0259982  95.9813964  64.1218630
   2.9810319  94.8121108  65.0823975   6.7256403  87.5971465  61.9100260
   5.8173280  87.5286874  61.6159021   6.6743999  88.0743410  62.7382085
   8.5918049  85.7987904  63.6878134   7.9492430  86.0920437  63.0417928
   8.0872978  85.6840824  64.4931330   6.2458213  89.5451077  54.3763993
   7.1576069  89.7778464  54.2011690   5.7367860  90.1288121  53.8139071
   4.5298981  93.9675705  68.0125285   4.9382337  93.5258115  67.2679918
   3.8076242  93.3928332  68.2659478   0.8830051  88.9048311  65.3858842
   1.7291246  89.3287725  65.5293491   0.8228688  88.2481936  66.0797405
   4.8527795  94.5276895  61.7677574   4.2236658  94.6922609  61.0653642
   4.4653457  94.9418505  62.5388538   8.7317027  95.4631333  59.1221938
   8.0468065  95.8430234  58.5718971   8.8160876  96.0726660  59.8553886
   4.0329496  86.5652680  67.0440016   3.7890428  87.3194740  66.5074292
   4.3089426  86.9438027  67.8787263   5.9867959  93.1091292  65.7217282
   6.1984854  93.7523052  65.0451663   5.9397707  92.2753609  65.2539212
   3.5894188  85.7209113  62.6253854   2.7278667  86.0190366  62.9170591
   3.6156622  85.9379512  61.6934886   7.1013787  95.9863248  63.8939639
   7.9231230  95.5843435  63.6122321   7.0976190  95.8831482  64.8455755
  15.1919780  92.3301996  60.2424610  14.4383488  91.7609394  60.0868615
  15.3267321  92.2964660  61.1895245   0.5818408  97.2015398  55.9179330
   0.4464083  98.0466934  56.3464178   1.1228220  97.4034676  55.1545264
   2.2086884  97.8238965  70.0479672   1.7650738  97.0375343  69.7300576
   2.8704098  98.0118115  69.3823563   4.3068122  98.1041765  68.0761073
   4.2886598  98.9250646  67.5841342   5.2288042  97.9795840  68.3011214
   3.9310871  80.7245960  64.4478223   3.5875141  81.6147602  64.3717334
   4.2989834  80.5347618  63.5847808   3.8961154  90.7154571  52.9550658
   3.3807778  91.4859176  53.1939046   3.6238463  90.0419707  53.5783720
   1.4808265  85.5604272  58.0135897   0.6249861  85.1711122  57.8341535
   1.8935217  85.6396233  57.1535682   3.0107412  83.0950615  62.4127456
   2.5072207  83.0580751  61.5995262   3.3038019  84.0043358  62.4724113
   8.8695428  93.4686926  54.8903832   8.0924871  93.1298085  54.4458994
   9.5486909  93.4739549  54.2158797   3.6847457  88.5881663  54.7810439
   3.3797593  88.9027813  55.6320583   4.6377899  88.6663083  54.8237772
   2.1293889  94.7471887  56.4303393   1.6015251  94.0124646  56.1176631
   1.6281392  95.5246563  56.1843362   7.1086735  92.9420907  61.5470440
   6.4510410  93.6320169  61.6350568   7.9127134  93.3317339  61.8904426
   5.9192194  91.2965280  59.5974381   6.4324076  91.9295272  60.0996091
   6.5693418  90.6966475  59.2317742   3.1814568 101.2749604  52.3535053
   2.5076267 101.5781301  52.9620010   3.5680390 102.0778684  52.0040510
   2.3973025  88.7714735  61.8432722   1.4795586  88.9929682  61.6854410
   2.8133168  88.8461046  60.9844429   3.1808073  90.1706151  56.9735402
   3.9279891  90.6827548  56.6642524   3.4499662  89.8490204  57.8339796
   1.4534723  92.6664692  53.9562357   0.5445942  92.3823725  54.0534826
   1.4829807  93.0863770  53.0965663   6.6853990  96.2771281  57.7253524
   6.2316317  95.4362191  57.7818715   6.0547957  96.9132680  58.0628304
   5.6286910  87.2063267  58.9554192   4.8909667  86.6940654  59.2864434
   5.8813683  86.7663649  58.1437468   5.1286929  98.1147778  58.6603342
   5.4209904  98.6752835  57.9415708   5.6385550  98.4076339  59.4156501
   5.7298537  79.9839519  59.5495961   6.0357414  79.1236883  59.2621876
   6.4551142  80.5757140  59.3494955   1.1510811  94.2073436  51.2950435
   0.7130240  93.4909294  50.8356072   1.8921251  94.4349550  50.7335527
   3.5386188  89.3612197  66.6477425   3.8935576  89.5883670  67.5071890
   4.1858320  89.6930573  66.0254680   9.2683925  92.4830633  57.3526754
   9.1301824  92.6732229  56.4247943   8.9120144  93.2450015  57.8094805
   9.2953305  94.5507160  62.3638025   9.7289812  94.4582449  63.2121079
  10.0084886  94.5264660  61.7258041   3.0281200  98.1509254  63.8971126
   3.0818222  98.7200190  64.6648842   2.1595981  98.3211139  63.5325163
  10.1568854  94.5930860  64.8970911  10.3504745  95.4976671  65.1430186
  10.0569473  94.1338279  65.7309496   1.8105165  84.4788751  67.3961238
   1.1633080  85.1778700  67.3025714   2.5806181  84.9124895  67.7637486
   5.2183963  94.7437603  70.4711791   5.0669470  94.5148155  69.5541875
   5.2088643  95.7008204  70.4843136   1.9869300  92.3169516  65.4558058
   2.9161360  92.4680675  65.2827025   1.5660330  92.4053536  64.6006704
   1.3805783 101.4429277  54.5682132   1.5557539 100.9717320  55.3827755
   0.6938571 102.0695043  54.7963393   2.3362846  95.7201783  60.6145433
   2.0012679  95.6802553  61.5103083   1.8366792  95.0546499  60.1415843
   5.2722038  93.0657817  50.8882493   4.6551209  92.3404645  50.7915545
   4.8038527  93.8267177  50.5449567   6.9276170  97.7756725  68.5488273
   6.8688716  97.0915946  67.8818856   7.3295688  98.5175716  68.0968899
   6.9293577  95.7396309  66.7802253   6.0420356  95.4022231  66.9028652
   7.4992128  95.0079341  67.0171018   3.5581160  85.4464161  59.9000523
   4.0549860  84.6934124  59.5801593   2.7868142  85.4828478  59.3343732
  11.4110918  91.1504527  61.5418814  11.4000794  92.0329242  61.1712748
  10.5428297  90.7976078  61.3473351   2.9193414 100.2984596  65.9021655
   3.6321386 100.9332061  65.8297556   2.4283443 100.3948462  65.0861656
   4.6410941  94.2035848  57.4738946   3.7067220  94.3237311  57.3043651
   4.8187609  93.3008315  57.2098956   8.0283492  90.0453168  58.0088980
   8.4943944  90.8781159  57.9349283   8.4790993  89.5798149  58.7134239
   6.0959723  96.3896989  55.0075132   6.3719567  96.2753584  55.9169007
   5.2264222  95.9914474  54.9687306   6.0000155  82.4133755  62.0479882
   5.0863235  82.6437982  62.2162089   6.4293256  82.4972199  62.8993914
   5.7706613  90.6023647  64.5479776   5.1178064  90.8499554  63.8932229
   6.1486993  89.7887785  64.2142253   2.7313787 100.6383340  58.6507946
   2.9136182  99.8204996  59.1135698   3.5546773 100.8551032  58.2132836
   3.0655953  99.5651525  55.9122995   3.5943719  99.0543980  55.2993157
   3.3284172  99.2494055  56.7768528   1.8194187  91.3443458  71.0345813
   1.1434824  91.2437587  71.7048188   2.6421820  91.1882672  71.4981810
   0.5616969 102.6510385  65.2703429   1.1135277 102.8142007  66.0352514
   0.9023163 103.2414823  64.5983454   5.4127844  97.4771643  71.1252083
   5.9567748  98.0901601  70.6307038   4.8314689  98.0351221  71.6419096
   3.6985357 100.5992361  62.2567111   3.5736496  99.7982101  61.7478057
   4.3564448 101.0938554  61.7681081   5.7620265  98.4001381  63.8846661
   4.8150601  98.2806732  63.8124988   6.1103038  97.5123879  63.9672923
   2.7666698  98.1954097  60.0851013   2.6191661  97.2670804  60.2658583
   3.5920192  98.2174188  59.6008089   6.3700820  99.0182656  61.1715886
   7.2947368  98.8125517  61.0340337   6.2016124  98.7699057  62.0805228
   2.7628213  86.0491935  55.0783131   2.9791827  86.9316573  54.7771959
   2.2822280  85.6578148  54.3488773   1.2149948  86.4317536  63.7487892
   0.9567725  87.3534607  63.7472223   0.6834988  86.0347971  64.4388356
   6.1596136  99.5368323  56.5277978   6.3333014  98.9714746  55.7751830
   6.6525028 100.3369218  56.3457468   1.6351903  82.5649487  60.1089055
   1.6573600  82.6288820  59.1541034   2.0519962  81.7253995  60.3029561
  12.0135528  92.3004746  58.1468277  12.4566674  91.5512071  57.7487401
  11.1362038  92.2914883  57.7642009   7.1471309  98.8535088  53.6274876
   7.8422214  99.4741780  53.8462190   7.4894459  98.0030439  53.9027254
   9.0462732  96.3034793  55.1562207   9.5714056  96.6422066  54.4311527
   8.9585085  95.3681809  54.9725341   0.7082781 100.2168867  67.2852083
   1.0169907  99.9718014  68.1574783   1.5058263 100.4215505  66.7970953
   8.7356638  96.9367697  70.4613405   7.9452182  96.9191836  69.9217904
   8.4989993  97.4755991  71.2162441   8.8554513  93.7860163  67.7746133
   8.9052518  93.6210171  68.7161656   8.7468436  92.9187422  67.3844014
   6.1458276  89.7691091  69.0905440   7.0468138  89.6297556  68.7989438
   6.2206250  89.9345546  70.0303617  10.3572710  96.2057105  68.0188155
  10.0657518  96.5687085  68.8551616   9.7444841  95.4924113  67.8401487
  11.5568392  93.7709984  60.5390725  12.3915284  94.2099789  60.7028285
  11.6927521  93.2948638  59.7198971   8.6059898  91.3289719  66.4868213
   9.0814020  91.5217366  65.6787064   7.6825464  91.3848905  66.2411596
   3.1840115  83.3637563  65.4524047   3.7022059  84.0998590  65.1270535
   2.8295247  83.6701556  66.2870806   3.4352709  79.7837845  60.9724943
   3.7154463  79.1161035  61.5985370   4.2203316  79.9766941  60.4599607
   1.2386177  98.9596839  52.5349969   0.6660144  99.5787026  52.0820441
   1.8118971  99.5096201  53.0689891   7.3061567  88.2055479  64.7196518
   8.2578990  88.3053577  64.7408742   7.1365018  87.4133748  65.2294603
   5.3275947  85.2911063  64.9055919   4.7325879  85.5716075  64.2102408
   5.0425643  85.7804964  65.6772660   4.4583437  99.2433989  53.6658552
   5.3914110  99.1779551  53.8691427   4.3706650 100.0790256  53.2073084
   7.0871454  98.5599860  50.6262499   7.0085085  98.2259723  51.5198257
   7.9081121  99.0521628  50.6253972   9.7849645  91.4261599  63.8338818
   9.7525965  90.4877600  64.0198502  10.3950269  91.5045636  63.1004643
   1.6232976  90.2957652  49.8766022   2.5692081  90.1663860  49.9454440
   1.2447221  89.5572314  50.3535450   9.9344133  88.2172643  63.8797101
   9.4183182  87.4331099  63.6927030  10.8184082  87.8891359  64.0443621
   7.5954860  81.9613658  59.8392914   7.3979682  81.6528746  60.7236246
   8.2054566  82.6875297  59.9690844  15.6026195  92.4877606  62.9744855
  16.3329583  92.2262894  63.5352558  14.9933140  91.7506328  63.0146923
  13.6841492  90.6285469  63.5719306  12.9574656  90.4941433  62.9635797
  13.2688779  90.9362297  64.3776024   1.5071668  94.3475398  71.3366679
   2.4274678  94.5253997  71.5306725   1.4721251  93.4031444  71.1846378
   1.4237959  82.7644518  55.9665148   0.6138687  82.4191603  56.3420395
   2.1122376  82.4552062  56.5552760   3.3528507  81.8422565  57.5889445
   3.9059546  82.2618018  58.2479468   3.5898593  80.9158313  57.6312401
   6.7307314  83.9523090  57.0968109   6.1505983  84.6107894  56.7146162
   6.4643247  83.1300435  56.6855527   5.1810880  83.3528148  59.2989430
   5.6810659  83.4644682  58.4903749   5.8246488  83.0489201  59.9390238
   5.5132192  86.1123181  56.1524458   4.6258047  86.3972831  55.9344652
   5.9286181  85.9516944  55.3051735   8.8646728  86.1369702  59.8678797
   9.6407118  86.6266154  60.1403414   8.1394862  86.5627756  60.3250666
  11.3019287  86.8497321  60.9252737  11.8963778  86.6093057  60.2146046
  11.3745871  86.1304451  61.5526274   4.6575406  95.8767855  50.2472478
   5.3611256  96.0817858  50.8630133   3.9338054  96.4444617  50.5121561
   5.4873216  91.6277716  56.3674748   5.4308417  92.0846268  55.5282380
   6.0401558  90.8668401  56.1897591   9.2978022  87.4167448  57.1924867
   9.0414956  87.0164084  58.0233075   8.6730890  88.1311242  57.0675006
  13.6090360  90.1563522  59.6996159  13.0489918  90.2256711  60.4727721
  13.0033863  89.9804506  58.9795655   6.5662103  96.3150384  52.2970938
   7.4007707  95.8831583  52.1148412   6.4046446  96.1432398  53.2247832
   6.2207995  92.8182498  53.6627277   6.1656799  92.6526769  52.7215721
   5.5954050  93.5258531  53.8189467   3.5353902  95.1231410  72.9880840
   4.4045062  95.2972062  72.6267475   3.0560654  95.9425826  72.8656569
   3.3456240  78.9133383  57.4958532   2.5788636  78.3591870  57.6415215
   3.7566945  78.9855252  58.3572684  15.1946378 106.8320036  62.3926114
  15.8324788 106.7126783  61.6889454  15.0767221 107.7800879  62.4514067
  12.0036084 106.7847464  62.3287639  11.6654596 106.6688528  61.4408174
  12.8725853 106.3838629  62.3088645  12.4855867 107.9382315  68.2873845
  12.4744508 107.5435114  67.4154348  12.6476507 107.2048388  68.8807616
   9.7044364 105.5535711  51.6604579   9.9569884 105.0317232  50.8988042
   8.7668923 105.3901856  51.7631263  14.7487647 104.5571489  59.4679322
  15.5350736 104.1390913  59.1169739  15.0126351 105.4617582  59.6360971
  20.1496074 104.4946723  60.3712301  20.8821246 103.9245939  60.6050130
  19.3935429 104.1068323  60.8118807  11.7672193 106.9173964  57.5675643
  11.4030401 106.3904585  58.2788565  12.6239309 106.5272433  57.3942129
  17.6721494  98.2068297  64.8306910  17.3404819  99.0763708  64.6068125
  17.0767107  97.8904581  65.5100940  11.4077680 101.9463864  52.5636992
  11.5752083 102.8144100  52.9307463  11.2174849 102.1091145  51.6398281
  17.5650157 102.9263383  61.9100260  16.6567035 102.8578791  61.6159021
  17.5137753 103.4035328  62.7382085  11.3866901 104.4021521  53.5483659
  11.2666526 104.8478572  54.3869139  10.6919490 104.7506839  52.9897197
  11.6391023 104.3453028  69.8535157  10.8624357 104.9046949  69.8438022
  12.2781586 104.8309811  70.3750027  19.4311804 101.1279821  63.6878134
  18.7886184 101.4212354  63.0417928  18.9266732 101.0132742  64.4931330
  17.0851967 104.8742994  54.3763993  17.9969824 105.1070381  54.2011690
  16.5761615 105.4580039  53.8139071  11.7223805 104.2340229  65.3858842
  12.5685000 104.6579643  65.5293491  11.6622443 103.5773853  66.0797405
  14.8723250 101.8944597  67.0440016  14.6284182 102.6486658  66.5074292
  15.1483181 102.2729945  67.8787263  16.8261713 108.4383210  65.7217282
  17.0378608 109.0814970  65.0451663  16.7791461 107.6045526  65.2539212
  14.4287942 101.0501030  62.6253854  13.5672421 101.3482284  62.9170591
  14.4550377 101.2671429  61.6934886  10.1818398 105.7166373  55.8417224
  10.8842441 106.1687417  56.3091151   9.8499026 105.0750192  56.4697118
   8.6298759 104.3078130  70.2168434   7.9997420 104.9894411  70.4503831
   8.5234847 104.1961212  69.2721572   3.9243732 103.9749926  61.1434358
   3.1342786 104.2307455  60.6674469   4.4154979 104.7898264  61.2486399
   5.8758477 104.3394505  58.1017835   5.0789640 104.4513200  58.6201330
   5.6484069 104.6781157  57.2358725  26.0313534 107.6593914  60.2424610
  25.2777243 107.0901312  60.0868615  26.1661075 107.6256578  61.1895245
   7.9079502  98.6098896  72.5793685   7.5146447  98.0565094  73.2541329
   8.7245642  98.9209474  72.9700202  10.8247463 100.0256775  70.1713941
  11.5657176 100.6263928  70.0918404  11.0565386  99.2834413  69.6131984
  14.7704626  96.0537878  64.4478223  14.4268895  96.9439520  64.3717334
  15.1383588  95.8639535  63.5847808  14.7354909 106.0446489  52.9550658
  14.2201532 106.8151094  53.1939046  14.4632217 105.3711625  53.5783720
  12.3202020 100.8896190  58.0135897  11.4643616 100.5003040  57.8341535
  12.7328971 100.9688151  57.1535682  13.8501166  98.4242533  62.4127456
  13.3465962  98.3872668  61.5995262  14.1431773  99.3335276  62.4724113
  10.0944052  98.5081263  61.4193638  10.9597049  98.3124071  61.0599528
  10.1621561  98.2791615  62.3462995  19.7089183 108.7978844  54.8903832
  18.9318625 108.4590003  54.4458994  20.3880664 108.8031467  54.2158797
  14.5241212 103.9173581  54.7810439  14.2191347 104.2319730  55.6320583
  15.4771654 103.9955001  54.8237772  17.9480490 108.2712825  61.5470440
  17.2904164 108.9612086  61.6350568  18.7520889 108.6609257  61.8904426
   7.7006371 100.7383471  58.7910005   8.2750123 100.5158652  58.0583198
   8.2877354 100.8072165  59.5438606  16.7585948 106.6257198  59.5974381
  17.2717830 107.2587189  60.0996091  17.4087172 106.0258393  59.2317742
   8.0275958 102.7687932  52.8105890   7.1913271 103.1062618  53.1315165
   7.8880728 102.6336911  51.8733027  10.0029039  97.6124720  57.5185074
   9.3493451  97.2973737  56.8941689   9.9609513  96.9900460  58.2444897
  13.2366779 104.1006653  61.8432722  12.3189341 104.3221600  61.6854410
  13.6526923 104.1752964  60.9844429  14.0201827 105.4998069  56.9735402
  14.7673646 106.0119466  56.6642524  14.2893417 105.1782122  57.8339796
  16.4680664 102.5355185  58.9554192  15.7303421 102.0232571  59.2864434
  16.7207438 102.0955567  58.1437468  16.5692292  95.3131437  59.5495961
  16.8751168  94.4528800  59.2621876  17.2944896  95.9049057  59.3494955
  10.8413371 105.6085230  60.0572152  10.8961981 104.6559067  59.9814629
  10.0304573 105.7644669  60.5413450   8.7805731 104.2262290  57.8162531
   7.9673597 104.5256460  58.2227723   9.2764725 103.8317979  58.5337013
  14.3779943 104.6904114  66.6477425  14.7329331 104.9175587  67.5071890
  15.0252074 105.0222491  66.0254680  20.1077680 107.8122550  57.3526754
  19.9695578 108.0024146  56.4247943  19.7513899 108.5741933  57.8094805
   8.2719806 101.7980645  63.4323766   8.9119185 101.6569404  62.7346729
   7.4397336 101.5115159  63.0562368  20.1347059 109.8799077  62.3638025
  20.5683566 109.7874366  63.2121079  20.8478640 109.8556578  61.7258041
   5.3562873 105.2426158  55.6218511   4.4260461 105.1810613  55.8388473
   5.4520345 104.7202110  54.8255152   5.2748422 101.7680970  58.2096753
   5.5355240 102.6826304  58.1005913   6.0965595 101.3005413  58.3593365
   6.7473348 103.1818728  65.3795577   7.4196401 102.9736090  64.7308226
   5.9203134 102.9840814  64.9400809  20.9962609 109.9222778  64.8970911
  21.1898499 110.8268588  65.1430186  20.8963227 109.4630197  65.7309496
  12.6498920  99.8080668  67.3961238  12.0026835 100.5070618  67.3025714
  13.4199935 100.2416812  67.7637486  12.8263054 107.6461433  65.4558058
  13.7555114 107.7972593  65.2827025  12.4054084 107.7345454  64.6006704
  16.1115793 108.3949735  50.8882493  15.4944963 107.6696563  50.7915545
  15.6432281 109.1559095  50.5449567   9.7783146 106.1681290  65.6281694
  10.4882764 105.5274482  65.5868312   9.7352454 106.4194185  66.5507875
   8.4912080 103.1546508  67.4477333   7.9549437 102.7037246  68.0998930
   7.9028788 103.2892417  66.7047798   7.9014339 102.6135159  50.0103797
   7.0243805 102.4923960  49.6466044   8.3772092 101.8221237  49.7582686
   4.2251201 102.2902515  64.5330328   4.1409390 101.6828185  63.7980738
   3.4033907 102.7811534  64.5339824  14.3974915 100.7756079  59.9000523
  14.8943614 100.0226041  59.5801593  13.6261896 100.8120396  59.3343732
  22.2504672 106.4796444  61.5418814  22.2394548 107.3621160  61.1712748
  21.3822052 106.1267995  61.3473351  10.9809883 102.9173462  59.6272208
  10.6107671 102.3644502  60.3153113  11.4768976 102.3131595  59.0747208
  18.8677247 105.3745085  58.0088980  19.3337699 106.2073077  57.9349283
  19.3184747 104.9090067  58.7134239  16.8393909  97.7425672  62.0479882
  15.9256989  97.9729899  62.2162089  17.2687011  97.8264117  62.8993914
  16.6100368 105.9315564  64.5479776  15.9571818 106.1791472  63.8932229
  16.9880748 105.1179703  64.2142253  12.6587941 106.6735375  71.0345813
  11.9828578 106.5729505  71.7048188  13.4815575 106.5174589  71.4981810
   6.3775217 100.3277453  65.8725314   6.4416544 101.1892284  65.4602711
   6.3142337  99.7151454  65.1397672   5.8527490 102.4000585  69.5198348
   6.4799528 102.0177663  70.1335872   4.9955408 102.1814787  69.8854040
   2.6293032 104.2077014  55.4516703   2.9246473 103.2987693  55.3983756
   1.7281068 104.1864754  55.1297705   6.1587279 102.2833011  61.4344251
   5.4373865 102.8968979  61.2951725   6.9480535 102.8190776  61.3560897
   8.9613593  99.6187437  67.7084903   9.4847995  99.8649734  68.4711212
   8.7425926 100.4507472  67.2888040   4.3580874 101.8891112  55.5756028
   4.0293580 101.0088491  55.3931134   4.7120245 101.8338781  56.4632417
   7.4722697 102.1764082  55.9431506   7.8118770 102.7050003  55.2210114
   7.9194818 102.5144488  56.7190072  10.1666138 100.5601133  65.3934574
   9.8262958  99.7608946  65.7955253   9.4605144 100.8602843  64.8211407
  10.8182610  97.6450445  63.8461897  11.6408679  97.1710923  63.7240787
  11.0620673  98.4240929  64.3460583   9.4590844 100.6738703  54.1424798
  10.1799207 101.0519956  53.6388515   8.8356148 101.3927580  54.2459776
  13.6021967 101.3783852  55.0783131  13.8185582 102.2608490  54.7771959
  13.1216034 100.9870066  54.3488773   8.3421189 104.3369566  61.6553875
   8.1965769 104.6509869  62.5478157   7.8646392 104.9554466  61.1024774
  10.2017571 101.3272114  61.7034765  10.1879140 100.4313207  61.3667063
  10.9190000 101.3342777  62.3373051  12.0543702 101.7609454  63.7487892
  11.7961480 102.6826524  63.7472223  11.5228743 101.3639888  64.4388356
   9.6054467 100.2086494  56.9722335   9.7270379  99.2803140  57.1713222
   9.3156510 100.2225180  56.0600650  12.4745658  97.8941404  60.1089055
  12.4967355  97.9580737  59.1541034  12.8913717  97.0545913  60.3029561
  22.8529282 107.6296664  58.1468277  23.2960428 106.8803989  57.7487401
  21.9755792 107.6206800  57.7642009   9.0895547 101.7218491  71.1812268
   9.1383702 102.5980614  70.7990037   9.6318061 101.1795884  70.6083911
  19.6948268 109.1152081  67.7746133  19.7446273 108.9502088  68.7161656
  19.5862191 108.2479340  67.3844014  16.9852030 105.0983009  69.0905440
  17.8861893 104.9589474  68.7989438  17.0600005 105.2637464  70.0303617
  11.3194835 102.4749864  67.9358626  10.4498145 102.7683430  67.6641215
  11.5554316 103.0590309  68.6565890  22.3962147 109.1001902  60.5390725
  23.2309038 109.5391706  60.7028285  22.5321276 108.6240555  59.7198971
  19.4453653 106.6581637  66.4868213  19.9207774 106.8509283  65.6787064
  18.5219218 106.7140823  66.2411596  14.0233869  98.6929481  65.4524047
  14.5415813  99.4290508  65.1270535  13.6689002  98.9993474  66.2870806
   5.6032807 103.5534162  53.5685452   4.9102052 103.6278517  52.9125488
   5.3584559 102.7894505  54.0906969  14.2746463  95.1129763  60.9724943
  14.5548217  94.4452952  61.5985370  15.0597070  95.3058859  60.4599607
  18.1455322 103.5347397  64.7196518  19.0972745 103.6345495  64.7408742
  17.9758772 102.7425666  65.2294603  16.1669701 100.6202980  64.9055919
  15.5719633 100.9007993  64.2102408  15.8819398 101.1096881  65.6772660
  20.6243399 106.7553517  63.8338818  20.5919720 105.8169518  64.0198502
  21.2344023 106.8337554  63.1004643  12.4626730 105.6249570  49.8766022
  13.4085835 105.4955778  49.9454440  12.0840975 104.8864232  50.3535450
  20.7737888 103.5464560  63.8797101  20.2576937 102.7623017  63.6927030
  21.6577836 103.2183277  64.0443621  18.4348615  97.2905576  59.8392914
  18.2373436  96.9820664  60.7236246  19.0448320  98.0167215  59.9690844
  26.4419949 107.8169524  62.9744855  27.1723338 107.5554812  63.5352558
  25.8326895 107.0798246  63.0146923  24.5235246 105.9577386  63.5719306
  23.7968410 105.8233351  62.9635797  24.1082533 106.2654215  64.3776024
  10.6469647 103.5499546  49.8120907   9.7401103 103.2532659  49.8883621
  10.9245628 103.2529364  48.9455193  12.2631713  98.0936436  55.9665148
  11.4532442  97.7483521  56.3420395  12.9516130  97.7843980  56.5552760
  14.1922261  97.1714483  57.5889445  14.7453300  97.5909936  58.2479468
  14.4292348  96.2450231  57.6312401  10.2155361 103.1601556  73.3692209
  10.1152088 104.1095913  73.3004300   9.9976903 102.8319795  72.4968279
   9.4168432 100.4086481  49.9532886  10.2787596 100.7341380  50.2128704
   9.6018776  99.6217977  49.4405952  17.5701069  99.2815008  57.0968109
  16.9899738  99.9399812  56.7146162  17.3037001  98.4592352  56.6855527
  16.0204635  98.6820066  59.2989430  16.5204413  98.7936600  58.4903749
  16.6640243  98.3781118  59.9390238  16.3525947 101.4415098  56.1524458
  15.4651802 101.7264749  55.9344652  16.7679936 101.2808862  55.3051735
  19.7040483 101.4661619  59.8678797  20.4800873 101.9558072  60.1403414
  18.9788617 101.8919673  60.3250666  22.1413041 102.1789238  60.9252737
  22.7357532 101.9384974  60.2146046  22.2139625 101.4596369  61.5526274
  16.3266970 106.9569634  56.3674748  16.2702172 107.4138186  55.5282380
  16.8795313 106.1960319  56.1897591  20.1371776 102.7459366  57.1924867
  19.8808710 102.3456002  58.0233075  19.5124644 103.4603160  57.0675006
  24.4484114 105.4855439  59.6996159  23.8883672 105.5548629  60.4727721
  23.8427617 105.3096424  58.9795655  17.0601750 108.1474415  53.6627277
  17.0050553 107.9818687  52.7215721  16.4347805 108.8550448  53.8189467
   1.8494265 103.3842480  67.4888699   2.4953128 102.8741434  67.9775924
   1.6411416 104.1211161  68.0632124  10.3697875  97.6482524  53.2412595
  10.3576545  98.5924364  53.3980866  11.2621297  97.4652670  52.9472057
  14.1849995  94.2425301  57.4958532  13.4182390  93.6883788  57.6415215
  14.5960700  94.3147170  58.3572684   6.1891756 100.5310097  71.5863713
   7.0523217 100.1746902  71.7967038   5.6157166 100.1923992  72.2739118
  25.6098380 111.3829796  64.4478223  25.2662650 112.2731437  64.3717334
  25.9777343 111.1931453  63.5847808  27.4086046 110.6423355  59.5495961
  27.7144923 109.7820718  59.2621876  28.1338651 111.2340975  59.3494955
  25.1140218 110.4421681  60.9724943  25.3941972 109.7744870  61.5985370
  25.8990825 110.6350776  60.4599607  29.2742369 112.6197493  59.8392914
  29.0767191 112.3112582  60.7236246  29.8842075 113.3459132  59.9690844
  25.0243749 109.5717219  57.4958532  24.2576145 109.0175705  57.6415215
  25.4354454 109.6439087  58.3572684   4.3526027  54.0072201  46.9669917
   3.5989735  53.4379599  46.8113921   4.4873568  53.9734865  47.9140552
   0.7174639  55.4480189  47.2636032   1.5521530  55.8869993  47.4273592
   0.8533768  54.9718843  46.4444277   4.7632442  54.1647811  49.6990161
   5.4935830  53.9033099  50.2597865   4.1539387  53.4276533  49.7392229
   2.8447739  52.3055673  50.2964613   2.1180902  52.1711638  49.6881104
   2.4295026  52.6132502  51.1021331   0.4625534  48.5267526  47.6498044
   1.0570024  48.2863262  46.9391352   0.5352117  47.8074656  48.2771580
   2.7696606  51.8333727  46.4241465   2.2096164  51.9026916  47.1973027
   2.1640110  51.6574711  45.7040962   4.3552625  68.5090240  49.1171421
   4.9931035  68.3896988  48.4134761   4.2373468  69.4571084  49.1759373
   1.1642331  68.4617669  49.0532946   0.8260843  68.3458733  48.1653481
   2.0332099  68.0608834  49.0333952   1.6462114  69.6152520  55.0119151
   1.6350755  69.2205319  54.1399655   1.8082754  68.8818593  55.6052923
   2.6028706  73.9824113  40.3544302   1.9516685  74.5678193  39.9678315
   3.3973068  74.5130308  40.4139339   3.9093893  66.2341694  46.1924629
   4.6956983  65.8161117  45.8415046   4.1732598  67.1387786  46.3606277
   4.0803971  71.6714545  40.8913286   3.4449804  71.7449171  41.6034191
   3.7501377  72.2608143  40.2132365   9.3102320  66.1716927  47.0957608
  10.0427492  65.6016144  47.3295437   8.5541676  65.7838528  47.5364113
   0.9278440  68.5944169  44.2920950   0.5636647  68.0674790  45.0033872
   1.7845556  68.2042638  44.1187435   6.8327741  59.8838502  51.5552216
   6.5011066  60.7533913  51.3313431   6.2373354  59.5674786  52.2346247
   3.3259260  72.0851048  50.9548129   3.0259983  72.9876086  50.8463936
   2.9810320  71.8183231  51.8069282   6.7256404  64.6033588  48.6345566
   5.8173281  64.5348996  48.3404327   6.6744000  65.0805533  49.4627392
   8.5918051  62.8050026  50.4123440   7.9492431  63.0982559  49.7663235
   8.0872979  62.6902947  51.2176637   6.2458214  66.5513199  41.1009299
   7.1576070  66.7840586  40.9256997   5.7367861  67.1350244  40.5384378
   4.5298982  70.9737827  54.7370592   4.9382338  70.5320238  53.9925224
   3.8076243  70.3990455  54.9904785   0.8830052  65.9110434  52.1104149
   1.7291247  66.3349848  52.2538798   0.8228690  65.2544058  52.8042712
   4.8527797  71.5339018  48.4922881   4.2236659  71.6984732  47.7898949
   4.4653459  71.9480627  49.2633845   8.7317028  72.4693456  45.8467245
   8.0468067  72.8492357  45.2964278   8.8160878  73.0788782  46.5799192
   4.0329497  63.5714802  53.7685323   3.7890429  64.3256863  53.2319598
   4.3089428  63.9500150  54.6032570   5.9867960  70.1153415  52.4462588
   6.1984855  70.7585175  51.7696969   5.9397708  69.2815731  51.9784518
   3.5894189  62.7271235  49.3499160   2.7278668  63.0252489  49.6415898
   3.6156624  62.9441634  48.4180193   7.1013788  72.9925370  50.6184946
   7.9231232  72.5905557  50.3367627   7.0976191  72.8893604  51.5701061
  15.1919781  69.3364119  46.9669917  14.4383489  68.7671517  46.8113921
  15.3267322  69.3026783  47.9140552   0.5818409  74.2077521  42.6424636
   0.4464084  75.0529057  43.0709484   1.1228222  74.4096799  41.8790570
   2.2086885  74.8301087  56.7724978   1.7650740  74.0437466  56.4545883
   2.8704099  75.0180238  56.1068869   4.3068124  75.1103887  54.8006380
   4.2886599  75.9312768  54.3086649   5.2288044  74.9857963  55.0256521
   3.9310873  57.7308083  51.1723530   3.5875142  58.6209724  51.0962640
   4.2989835  57.5409740  50.3093115   3.8961155  67.7216694  39.6795965
   3.3807779  68.4921299  39.9184352   3.6238464  67.0481830  40.3029026
   1.4808266  62.5666395  44.7381203   0.6249863  62.1773245  44.5586842
   1.8935218  62.6458355  43.8780989   3.0107413  60.1012738  49.1372763
   2.5072209  60.0642873  48.3240568   3.3038020  61.0105481  49.1969420
   8.8695429  70.4749049  41.6149138   8.0924872  70.1360208  41.1704300
   9.5486910  70.4801672  40.9404103   3.6847459  65.5943786  41.5055746
   3.3797594  65.9089935  42.3565889   4.6377901  65.6725206  41.5483079
   2.1293890  71.7534009  43.1548700   1.6015252  71.0186769  42.8421938
   1.6281393  72.5308686  42.9088668   7.1086736  69.9483030  48.2715746
   6.4510411  70.6382291  48.3595875   7.9127136  70.3379462  48.6149733
   5.9192195  68.3027402  46.3219688   6.4324077  68.9357394  46.8241398
   6.5693419  67.7028598  45.9563048   3.1814569  78.2811727  39.0780359
   2.5076268  78.5843424  39.6865317   3.5680391  79.0840807  38.7285816
   2.3973026  65.7776858  48.5678029   1.4795587  65.9991805  48.4099717
   2.8133170  65.8523169  47.7089736   3.1808074  67.1768274  43.6980709
   3.9279893  67.6889671  43.3887831   3.4499663  66.8552326  44.5585102
   1.4534724  69.6726814  40.6807663   0.5445943  69.3885847  40.7780133
   1.4829808  70.0925893  39.8210970   6.6853991  73.2833404  44.4498831
   6.2316319  72.4424314  44.5064021   6.0547958  73.9194802  44.7873611
   5.6286911  64.2125390  45.6799498   4.8909668  63.7002776  46.0109741
   5.8813684  63.7725772  44.8682775   5.1286931  75.1209901  45.3848649
   5.4209905  75.6814958  44.6661015   5.6385551  75.4138462  46.1401808
   5.7298538  56.9901642  46.2741267   6.0357415  56.1299005  45.9867183
   6.4551143  57.5819262  46.0740261   1.1510812  71.2135558  38.0195742
   0.7130242  70.4971417  37.5601379   1.8921253  71.4411673  37.4580833
   3.5386190  66.3674319  53.3722731   3.8935577  66.5945792  54.2317197
   4.1858321  66.6992696  52.7499987   9.2683927  69.4892755  44.0772060
   9.1301825  69.6794351  43.1493250   8.9120145  70.2512138  44.5340111
   9.2953306  71.5569282  49.0883332   9.7289813  71.4644571  49.9366386
  10.0084887  71.5326783  48.4503348   3.0281201  75.1571376  50.6216432
   3.0818223  75.7262313  51.3894148   2.1595982  75.3273261  50.2570470
  10.1568856  71.5992983  51.6216217  10.3504746  72.5038793  51.8675492
  10.0569474  71.1400402  52.4554802   1.8105166  61.4850873  54.1206545
   1.1633082  62.1840823  54.0271021   2.5806182  61.9187017  54.4882793
   5.2183964  71.7499726  57.1957098   5.0669471  71.5210277  56.2787182
   5.2088644  72.7070327  57.2088443   1.9869301  69.3231638  52.1803364
   2.9161361  69.4742798  52.0072332   1.5660331  69.4115659  51.3252011
   1.3805785  78.4491399  41.2927438   1.5557540  77.9779442  42.1073061
   0.6938573  79.0757165  41.5208699   2.3362848  72.7263905  47.3390740
   2.0012680  72.6864675  48.2348390   1.8366793  72.0608621  46.8661150
   5.2722039  70.0719940  37.6127799   4.6551210  69.3466768  37.5160852
   4.8038528  70.8329300  37.2694874   6.9276171  74.7818848  55.2733580
   6.8688717  74.0978068  54.6064163   7.3295689  75.5237838  54.8214206
   6.9293578  72.7458432  53.5047559   6.0420357  72.4084354  53.6273958
   7.4992129  72.0141463  53.7416325   3.5581161  62.4526284  46.6245830
   4.0549861  61.6996246  46.3046900   2.7868143  62.4890601  46.0589039
  11.4110919  68.1566649  48.2664121  11.4000795  69.0391365  47.8958054
  10.5428298  67.8038200  48.0718658   2.9193415  77.3046718  52.6266961
   3.6321387  77.9394183  52.5542863   2.4283444  77.4010584  51.8106963
   4.6410942  71.2097971  44.1984253   3.7067221  71.3299434  44.0288957
   4.8187611  70.3070438  43.9344263   8.0283493  67.0515290  44.7334287
   8.4943946  67.8843282  44.6594590   8.4790994  66.5860272  45.4379546
   6.0959725  73.3959112  41.7320439   6.3719569  73.2815706  42.6414313
   5.2264223  72.9976597  41.6932612   6.0000156  59.4195877  48.7725188
   5.0863236  59.6500104  48.9407395   6.4293258  59.5034321  49.6239221
   5.7706615  67.6085769  51.2725082   5.1178065  67.8561677  50.6177535
   6.1486995  66.7949908  50.9387560   2.7313789  77.6445463  45.3753253
   2.9136183  76.8267118  45.8381005   3.5546775  77.8613155  44.9378143
   3.0655954  76.5713648  42.6368301   3.5943721  76.0606102  42.0238463
   3.3284174  76.2556178  43.5013834   1.8194188  68.3505580  57.7591120
   1.1434825  68.2499710  58.4293495   2.6421822  68.1944794  58.2227117
   0.5616971  79.6572508  51.9948736   1.1135279  79.8204129  52.7597821
   0.9023164  80.2476946  51.3228760   5.4127845  74.4833765  57.8497390
   5.9567749  75.0963724  57.3552345   4.8314690  75.0413344  58.3664403
   3.6985358  77.6054483  48.9812418   3.5736497  76.8044223  48.4723363
   4.3564449  78.1000677  48.4926388   5.7620266  75.4063503  50.6091968
   4.8150602  75.2868855  50.5370295   6.1103039  74.5186001  50.6918229
   2.7666700  75.2016220  46.8096320   2.6191662  74.2732927  46.9903890
   3.5920193  75.2236310  46.3253395   6.3700821  76.0244778  47.8961193
   7.2947369  75.8187640  47.7585644   6.2016125  75.7761180  48.8050534
   2.7628214  63.0554057  41.8028437   2.9791828  63.9378695  41.5017265
   2.2822281  62.6640271  41.0734079   1.2149949  63.4379659  50.4733199
   0.9567727  64.3596729  50.4717529   0.6834989  63.0410093  51.1633663
   6.1596138  76.5430446  43.2523284   6.3333015  75.9776868  42.4997137
   6.6525029  77.3431341  43.0702774   1.6351905  59.5711609  46.8334361
   1.6573601  59.6350942  45.8786341   2.0519964  58.7316118  47.0274868
  12.0135529  69.3066869  44.8713584  12.4566675  68.5574194  44.4732707
  11.1362039  69.2977005  44.4887316   7.1471310  75.8597210  40.3520182
   7.8422215  76.4803903  40.5707497   7.4894460  75.0092561  40.6272560
   9.0462733  73.3096916  41.8807513   9.5714057  73.6484189  41.1556833
   8.9585086  72.3743931  41.6970648   0.7082782  77.2230989  54.0097390
   1.0169908  76.9780136  54.8820089   1.5058264  77.4277628  53.5216260
   8.7356639  73.9429819  57.1858711   7.9452183  73.9253958  56.6463211
   8.4989994  74.4818113  57.9407748   8.8554514  70.7922286  54.4991440
   8.9052519  70.6272293  55.4406963   8.7468438  69.9249545  54.1089321
   6.1458277  66.7753214  55.8150746   7.0468140  66.6359679  55.5234744
   6.2206251  66.9407669  56.7548924  10.3572711  73.2119227  54.7433461
  10.0657520  73.5749208  55.5796922   9.7444842  72.4986236  54.5646793
  11.5568394  70.7772107  47.2636032  12.3915285  71.2161911  47.4273592
  11.6927522  70.3010760  46.4444277   8.6059899  68.3351842  53.2113519
   9.0814021  68.5279488  52.4032371   7.6825465  68.3911028  52.9656903
   3.1840116  60.3699686  52.1769353   3.7022060  61.1060712  51.8515842
   2.8295249  60.6763679  53.0116112   3.4352710  56.7899968  47.6970250
   3.7154464  56.1223157  48.3230676   4.2203317  56.9829064  47.1844914
   1.2386179  75.9658962  39.2595276   0.6660146  76.5849149  38.8065748
   1.8118972  76.5158324  39.7935198   7.3061568  65.2117602  51.4441825
   8.2578991  65.3115700  51.4654049   7.1365019  64.4195871  51.9539909
   5.3275948  62.2973185  51.6301226   4.7325880  62.5778198  50.9347714
   5.0425645  62.7867086  52.4017967   4.4583438  76.2496112  40.3903858
   5.3914112  76.1841674  40.5936734   4.3706651  77.0852379  39.9318391
   7.0871455  75.5661982  37.3507806   7.0085087  75.2321846  38.2443564
   7.9081122  76.0583750  37.3499278   9.7849646  68.4323722  50.5584125
   9.7525966  67.4939722  50.7443808  10.3950270  68.5107758  49.8249949
   1.6232977  67.3019775  36.6011329   2.5692082  67.1725983  36.6699747
   1.2447222  66.5634437  37.0780757   9.9344135  65.2234765  50.6042408
   9.4183183  64.4393222  50.4172337  10.8184083  64.8953482  50.7688927
   7.5954862  58.9675781  46.5638220   7.3979683  58.6590869  47.4481552
   8.2054567  59.6937420  46.6936150  15.6026196  69.4939729  49.6990161
  16.3329585  69.2325017  50.2597865  14.9933142  68.7568450  49.7392229
  13.6841493  67.6347591  50.2964613  12.9574657  67.5003556  49.6881104
  13.2688780  67.9424420  51.1021331   1.5071670  71.3537521  58.0611986
   2.4274679  71.5316120  58.2552032   1.4721253  70.4093566  57.9091685
   1.4237960  59.7706641  42.6910455   0.6138688  59.4253726  43.0665701
   2.1122377  59.4614185  43.2798067   3.3528508  58.8484688  44.3134752
   3.9059547  59.2680141  44.9724775   3.5898595  57.9220436  44.3557708
   6.7307315  60.9585213  43.8213416   6.1505984  61.6170017  43.4391468
   6.4643248  60.1362557  43.4100833   5.1810882  60.3590270  46.0234736
   5.6810660  60.4706805  45.2149055   5.8246490  60.0551323  46.6635545
   5.5132193  63.1185303  42.8769764   4.6258048  63.4034954  42.6589959
   5.9286182  62.9579067  42.0297041   8.8646730  63.1431824  46.5924103
   9.6407120  63.6328277  46.8648720   8.1394864  63.5689878  47.0495973
  11.3019288  63.8559443  47.6498044  11.8963779  63.6155179  46.9391352
  11.3745872  63.1366574  48.2771580   4.6575407  72.8829978  36.9717784
   5.3611257  73.0879980  37.5875440   3.9338056  73.4506740  37.2366868
   5.4873217  68.6339839  43.0920054   5.4308419  69.0908390  42.2527687
   6.0401560  67.8730524  42.9142897   9.2978023  64.4229571  43.9170174
   9.0414957  64.0226207  44.7478382   8.6730891  65.1373365  43.7920313
  13.6090361  67.1625644  46.4241465  13.0489919  67.2318834  47.1973027
  13.0033864  66.9866629  45.7040962   6.5662104  73.3212507  39.0216244
   7.4007708  72.8893705  38.8393719   6.4046447  73.1494521  39.9493139
   6.2207996  69.8244620  40.3872584   6.1656800  69.6588892  39.4461028
   5.5954052  70.5320653  40.5434773   3.5353904  72.1293532  59.7126146
   4.4045063  72.3034184  59.3512781   3.0560655  72.9487949  59.5901876
   3.3456241  55.9195506  44.2203839   2.5788637  55.3653993  44.3660521
   3.7566946  55.9917375  45.0817990  15.1946379  83.8382158  49.1171421
  15.8324789  83.7188905  48.4134761  15.0767222  84.7863002  49.1759373
  12.0036086  83.7909586  49.0532946  11.6654597  83.6750651  48.1653481
  12.8725854  83.3900751  49.0333952   7.8622901  85.6445063  45.0429837
   7.2987766  85.5535000  44.2746124   7.7475296  84.8244967  45.5232329
  12.4855869  84.9444438  55.0119151  12.4744509  84.5497236  54.1399655
  12.6476508  84.2110511  55.6052923   5.4087333  87.1396254  47.8814057
   6.2008625  86.7987079  47.4660356   5.6483983  87.2491229  48.8016210
  13.4422460  89.3116030  40.3544302  12.7910440  89.8970111  39.9678315
  14.2366823  89.8422225  40.4139339   7.3678087  86.4005167  40.7531436
   8.1408963  85.8534155  40.6144312   7.7203486  87.2649417  40.9645897
   9.2063130  87.7281550  53.9598335   8.9152996  88.6327181  53.8445002
   9.8420114  87.7698077  54.6742405  10.1319337  85.1058398  50.5499695
  10.7282909  84.8814421  49.8356658  10.1894308  84.3643144  51.1525143
   9.7044365  82.5597834  38.3849886   9.9569886  82.0379355  37.6233349
   8.7668924  82.3963979  38.4876569  14.7487648  81.5633612  46.1924629
  15.5350737  81.1453035  45.8415046  15.0126352  82.4679704  46.3606277
  14.9197725  87.0006462  40.8913286  14.2843558  87.0741089  41.6034191
  14.5895132  87.5900061  40.2132365  20.1496075  81.5008845  47.0957608
  20.8821247  80.9308062  47.3295437  19.3935431  81.1130446  47.5364113
   9.4240654  84.4625940  40.5874261   9.3076912  83.7870843  41.2555345
   9.5342914  83.9758313  39.7706414  11.7672195  83.9236087  44.2920950
  11.4030402  83.3966708  45.0033872  12.6239311  83.5334556  44.1187435
  17.6721495  75.2130419  51.5552216  17.3404820  76.0825830  51.3313431
  17.0767109  74.8966703  52.2346247  11.4077682  78.9525986  39.2882299
  11.5752084  79.8206223  39.6552770  11.2174851  79.1153268  38.3643588
  14.1653015  87.4142965  50.9548129  13.8653738  88.3168004  50.8463936
  13.8204074  87.1475148  51.8069282   7.6165496  83.8656762  46.9884833
   6.6915993  83.7332976  47.1962525   7.8649910  84.6450981  47.4854776
  17.5650159  79.9325505  48.6345566  16.6567036  79.8640914  48.3404327
  17.5137754  80.4097450  49.4627392  11.3866903  81.4083644  40.2728965
  11.2666528  81.8540695  41.1114446  10.6919491  81.7568962  39.7142504
   4.9774307  83.5090036  47.8228622   5.1066689  83.7624515  48.7368034
   4.2971759  84.1017744  47.5033277   9.1473795  94.1787286  43.9219097
   9.0697824  95.1295111  44.0007577   8.5435438  93.8333158  44.5794023
  11.6391024  81.3515151  56.5780464  10.8624358  81.9109071  56.5683328
  12.2781587  81.8371934  57.0995334  19.4311805  78.1341944  50.4123440
  18.7886185  78.4274477  49.7663235  18.9266734  78.0194864  51.2176637
  17.0851969  81.8805117  41.1009299  17.9969825  82.1132504  40.9256997
  16.5761616  82.4642161  40.5384378   9.8937397  84.1600604  56.1398431
  10.6352081  84.6985648  55.8633254   9.1874382  84.7866893  56.2969982
  15.3692736  86.3029745  54.7370592  15.7776092  85.8612155  53.9925224
  14.6469998  85.7282372  54.9904785  11.7223806  81.2402352  52.1104149
  12.5685002  81.6641765  52.2538798  11.6622444  80.5835976  52.8042712
  15.6921551  86.8630935  48.4922881  15.0630413  87.0276650  47.7898949
  15.3047213  87.2772545  49.2633845  19.5710783  87.7985373  45.8467245
  18.8861821  88.1784275  45.2964278  19.6554632  88.4080700  46.5799192
  14.8723252  78.9006720  53.7685323  14.6284184  79.6548781  53.2319598
  15.1483182  79.2792068  54.6032570  16.8261715  85.4445332  52.4462588
  17.0378610  86.0877092  51.7696969  16.7791463  84.6107649  51.9784518
  14.4287943  78.0563153  49.3499160  13.5672422  78.3544407  49.6415898
  14.4550378  78.2733552  48.4180193  11.2449513  86.6005344  45.7572966
  11.7087858  86.8793047  44.9677588  10.9806311  85.6988788  45.5746057
   8.1373594  86.1476825  48.6952729   8.7074951  86.5764093  48.0570214
   8.7281706  85.8659410  49.3936915  10.1818399  82.7228496  42.5662531
  10.8842442  83.1749540  43.0336457   9.8499027  82.0812315  43.1942424
   8.6298760  81.3140253  56.9413741   7.9997421  81.9956533  57.1749137
   8.5234848  81.2023334  55.9966879   3.9243733  80.9812049  47.8679665
   3.1342787  81.2369577  47.3919775   4.4154980  81.7960386  47.9731705
  17.9407542  88.3217288  50.6184946  18.7624986  87.9197475  50.3367627
  17.9369945  88.2185522  51.5701061   5.8758478  81.3456628  44.8263141
   5.0789642  81.4575322  45.3446637   5.6484070  81.6843280  43.9604032
  11.7064146  87.8701331  52.7745656  11.7708578  88.3321738  53.6103828
  10.9975070  87.2398696  52.9027966   2.2081436  81.2342539  50.2994655
   2.4589474  82.1189549  50.5652231   2.7440984  81.0547141  49.5269747
  26.0313535  84.6656036  46.9669917  25.2777244  84.0963434  46.8113921
  26.1661077  84.6318701  47.9140552  11.4212164  89.5369439  42.6424636
  11.2857838  90.3820974  43.0709484  11.9621976  89.7388716  41.8790570
   7.9079503  75.6161018  59.3038992   7.5146449  75.0627217  59.9786636
   8.7245644  75.9271597  59.6945509   4.8741561  87.0544877  43.2152561
   5.3866082  87.8488127  43.3658126   5.5264274  86.3571167  43.1486163
   6.6836446  90.1710633  45.2975315   6.8603074  91.0928598  45.1096299
   7.4793279  89.8569052  45.7269694  10.8247464  77.0318898  56.8959248
  11.5657178  77.6326051  56.8163711  11.0565387  76.2896535  56.3377291
   5.9688802  82.2175265  55.1737478   5.8542317  81.3160522  55.4744577
   5.1133320  82.4638962  54.8222294  13.0480640  90.1593005  56.7724978
  12.6044494  89.3729384  56.4545883  13.7097854  90.3472156  56.1068869
   7.8067761  91.6888807  51.2985657   8.3575186  91.5605870  50.5262651
   6.9679237  91.9883696  50.9480550  15.1461878  90.4395805  54.8006380
  15.1280353  91.2604686  54.3086649  16.0681798  90.3149880  55.0256521
  11.6034932  87.9539935  55.6429888  12.1363269  87.1928223  55.4129196
  11.0749013  87.6613586  56.3854043  14.7704627  73.0600000  51.1723530
  14.4268897  73.9501642  51.0962640  15.1383590  72.8701658  50.3093115
   2.8390478  85.3833531  43.9912132   3.6765700  85.7930539  43.7745840
   3.0168745  84.4432973  43.9612326  14.7354910  83.0508612  39.6795965
  14.2201533  83.8213216  39.9184352  14.4632218  82.3773748  40.3029026
  12.3202021  77.8958312  44.7381203  11.4643617  77.5065163  44.5586842
  12.7328973  77.9750273  43.8780989  13.8501168  75.4304656  49.1372763
  13.3465963  75.3934791  48.3240568  14.1431774  76.3397398  49.1969420
  10.0944053  75.5143385  48.1438945  10.9597050  75.3186194  47.7844834
  10.1621562  75.2853737  49.0708302  19.7089184  85.8040966  41.6149138
  18.9318627  85.4652126  41.1704300  20.3880665  85.8093589  40.9404103
  14.5241213  80.9235704  41.5055746  14.2191349  81.2381853  42.3565889
  15.4771655  81.0017124  41.5483079  12.9687645  87.0825927  43.1548700
  12.4409006  86.3478687  42.8421938  12.4675148  87.8600603  42.9088668
  17.9480491  85.2774947  48.2715746  17.2904165  85.9674209  48.3595875
  18.7520890  85.6671379  48.6149733   7.7006372  77.7445593  45.5155312
   8.2750124  77.5220775  44.7828505   8.2877355  77.8134288  46.2683913
  16.7585950  83.6319320  46.3219688  17.2717831  84.2649312  46.8241398
  17.4087174  83.0320516  45.9563048   8.0275960  79.7750054  39.5351197
   7.1913272  80.1124741  39.8560472   7.8880729  79.6399034  38.5978334
  10.0029040  74.6186842  44.2430381   9.3493453  74.3035859  43.6186996
   9.9609514  73.9962583  44.9690204  11.1140245  84.9006137  36.1583673
  10.2067307  84.6695391  36.3574822  11.6111277  84.1043756  36.3457655
  14.0208324  93.6103644  39.0780359  13.3470023  93.9135341  39.6865317
  14.4074146  94.4132725  38.7285816  13.2366781  81.1068776  48.5678029
  12.3189342  81.3283723  48.4099717  13.6526924  81.1815086  47.7089736
  14.0201828  82.5060191  43.6980709  14.7673647  83.0181589  43.3887831
  14.2893418  82.1844244  44.5585102  12.2928478  85.0018732  40.6807663
  11.3839698  84.7177765  40.7780133  12.3223562  85.4217811  39.8210970
  17.5247746  88.6125322  44.4498831  17.0710073  87.7716231  44.5064021
  16.8941713  89.2486720  44.7873611  16.4680665  79.5417308  45.6799498
  15.7303422  79.0294694  46.0109741  16.7207439  79.1017689  44.8682775
  15.9680685  90.4501818  45.3848649  16.2603660  91.0106875  44.6661015
  16.4779306  90.7430379  46.1401808  16.5692293  72.3193560  46.2741267
  16.8751170  71.4590923  45.9867183  17.2944898  72.9111180  46.0740261
   2.8616649  82.7224246  44.6622865   2.6641049  82.1293607  43.9373932
   2.3063313  82.4176456  45.3798804  10.8413373  82.6147353  46.7817459
  10.8961982  81.6621189  46.7059935  10.0304575  82.7706792  47.2658757
  11.9904566  86.5427476  38.0195742  11.5523996  85.8263335  37.5601379
  12.7315007  86.7703591  37.4580833   8.7805732  81.2324412  44.5407837
   7.9673598  81.5318583  44.9473030   9.2764727  80.8380101  45.2582320
  10.9314310  91.2282169  46.4742102  10.8890489  91.4543016  45.5450634
  11.8477009  90.9945544  46.6227903  14.3779944  81.6966237  53.3722731
  14.7329332  81.9237710  54.2317197  15.0252075  82.0284614  52.7499987
  20.1077681  84.8184673  44.0772060  19.9695580  85.0086269  43.1493250
  19.7513900  85.5804056  44.5340111   8.2719807  78.8042768  50.1569072
   8.9119187  78.6631527  49.4592036   7.4397338  78.5177281  49.7807674
  20.1347061  86.8861200  49.0883332  20.5683567  86.7936489  49.9366386
  20.8478641  86.8618700  48.4503348   9.0480111  88.1045198  46.2704065
   9.8420710  87.6095519  46.0686640   8.3371803  87.5763062  45.9071770
  13.8674956  90.4863294  50.6216432  13.9211978  91.0554230  51.3894148
  12.9989737  90.6565179  50.2570470   5.3562875  82.2488280  42.3463818
   4.4260463  82.1872736  42.5633780   5.4520347  81.7264233  41.5500459
   5.2748424  78.7743093  44.9342059   5.5355241  79.6888426  44.8251220
   6.0965596  78.3067536  45.0838672   6.7473349  80.1880850  52.1040884
   7.4196402  79.9798212  51.4553533   5.9203135  79.9902936  51.6646116
  20.9962610  86.9284900  51.6216217  21.1898500  87.8330711  51.8675492
  20.8963228  86.4692320  52.4554802  12.6498921  76.8142791  54.1206545
  12.0026836  77.5132741  54.0271021  13.4199936  77.2478935  54.4882793
  16.0577719  87.0791643  57.1957098  15.9063225  86.8502195  56.2787182
  16.0482398  88.0362245  57.2088443  12.8263055  84.6523556  52.1803364
  13.7555115  84.8034716  52.0072332  12.4054085  84.7407577  51.3252011
  11.6251387  88.6774220  49.9501902  11.4862473  88.3093005  50.8227840
  10.8365983  89.1921860  49.7785860  12.2199539  93.7783317  41.2927438
  12.3951295  93.3071360  42.1073061  11.5332327  94.4049083  41.5208699
  13.1756602  88.0555823  47.3390740  12.8406435  88.0156593  48.2348390
  12.6760548  87.3900539  46.8661150   7.1500846  83.4623453  52.8643321
   7.0120644  82.7303692  53.4654860   8.0605770  83.3732353  52.5827509
  16.1115794  85.4011857  37.6127799  15.4944965  84.6758686  37.5160852
  15.6432282  86.1621218  37.2694874   9.7783147  83.1743412  52.3527001
  10.4882765  82.5336605  52.3113619   9.7352455  83.4256307  53.2753181
  17.7669926  90.1110766  55.2733580  17.7082472  89.4269986  54.6064163
  18.1689444  90.8529756  54.8214206   8.4912081  80.1608630  54.1722640
   7.9549438  79.7099369  54.8244236   7.9028789  80.2954539  53.4293104
   6.7860624  96.9272680  48.0667299   7.0257223  97.5591204  48.7446317
   5.9429821  96.5760720  48.3532658   7.9014340  79.6197282  36.7349104
   7.0243806  79.4986083  36.3711350   8.3772093  78.8283360  36.4827992
  17.7687333  88.0750350  53.5047559  16.8814112  87.7376271  53.6273958
  18.3385884  87.3433381  53.7416325   4.2251202  79.2964638  51.2575634
   4.1409391  78.6890308  50.5226044   3.4033908  79.7873656  51.2585131
  11.2988486  92.7351802  50.4708803  11.2258658  93.5406774  50.9828107
  10.8565879  92.9343768  49.6456824  11.0878266  91.9723572  43.9811624
  10.3045788  92.5145252  44.0749849  11.7871011  92.4897552  44.3805865
  14.3974916  77.7818202  46.6245830  14.8943615  77.0288164  46.3046900
  13.6261897  77.8182518  46.0589039  22.2504673  83.4858567  48.2664121
  22.2394550  84.3683283  47.8958054  21.3822053  83.1330118  48.0718658
  13.7587170  92.6338636  52.6266961  14.4715142  93.2686101  52.5542863
  13.2677198  92.7302502  51.8106963  15.4804697  86.5389889  44.1984253
  14.5460975  86.6591351  44.0288957  15.6581365  85.6362356  43.9344263
  10.9809885  79.9235585  46.3517514  10.6107672  79.3706625  47.0398420
  11.4768977  79.3193718  45.7992514  18.8677248  82.3807208  44.7334287
  19.3337700  83.2135200  44.6594590  19.3184748  81.9152190  45.4379546
   8.8099083  90.3833080  53.4472532   9.5108543  91.0169563  53.6001926
   8.3394198  90.7247811  52.6868171  16.9353479  88.7251029  41.7320439
  17.2113323  88.6107624  42.6414313  16.0657978  88.3268514  41.6932612
  16.8393911  74.7487795  48.7725188  15.9256991  74.9792022  48.9407395
  17.2687012  74.8326239  49.6239221  16.6100369  82.9377687  51.2725082
  15.9571819  83.1853594  50.6177535  16.9880749  82.1241825  50.9387560
  13.5707543  92.9737380  45.3753253  13.7529938  92.1559036  45.8381005
  14.3940529  93.1905072  44.9378143  13.9049709  91.9005565  42.6368301
  14.4337475  91.3898020  42.0238463  14.1677928  91.5848096  43.5013834
  12.6587942  83.6797498  57.7591120  11.9828579  83.5791627  58.4293495
  13.4815576  83.5236712  58.2227117   4.4066801  89.9169435  50.3803635
   4.9920238  89.1713123  50.5131539   4.2091640  90.2273391  51.2640299
   7.2605457  92.9520682  45.3966077   6.5915832  93.4366810  44.9130117
   7.1218326  93.1989902  46.3109456  11.4010725  94.9864426  51.9948736
  11.9529033  95.1496047  52.7597821  11.7416919  95.5768863  51.3228760
   6.3775218  77.3339575  52.5970620   6.4416545  78.1954406  52.1848018
   6.3142339  76.7213577  51.8642979   5.8527491  79.4062708  56.2443654
   6.4799530  79.0239785  56.8581179   4.9955410  79.1876910  56.6099347
  16.2521599  89.8125683  57.8497390  16.7961503  90.4255641  57.3552345
  15.6708444  90.3705261  58.3664403   2.6293034  81.2139137  42.1762009
   2.9246475  80.3049815  42.1229063   1.7281069  81.1926876  41.8543012
  14.5379112  92.9346401  48.9812418  14.4130252  92.1336141  48.4723363
  15.1958204  93.4292594  48.4926388   6.1587281  79.2895134  48.1589558
   5.4373866  79.9031101  48.0197031   6.9480536  79.8252898  48.0806204
  16.6014021  90.7355421  50.6091968  15.6544356  90.6160772  50.5370295
  16.9496794  89.8477919  50.6918229   8.9613594  76.6249560  54.4330210
   9.4847996  76.8711857  55.1956519   8.7425927  77.4569595  54.0133347
   4.3580875  78.8953235  42.3001334   4.0293581  78.0150614  42.1176440
   4.7120246  78.8400903  43.1877724  13.6060454  90.5308137  46.8096320
  13.4585417  89.6024845  46.9903890  14.4313948  90.5528228  46.3253395
   7.4722698  79.1826204  42.6676812   7.8118771  79.7112126  41.9455421
   7.9194819  79.5206611  43.4435379  17.2094576  91.3536696  47.8961193
  18.1341123  91.1479557  47.7585644  17.0409879  91.1053097  48.8050534
  10.1666139  77.5663255  52.1179880   9.8262960  76.7671068  52.5200560
   9.4605145  77.8664966  51.5456713  10.8182611  74.6512568  50.5707203
  11.6408680  74.1773046  50.4486094  11.0620675  75.4303051  51.0705890
   9.4590846  77.6800826  40.8670105  10.1799208  78.0582079  40.3633822
   8.8356150  78.3989703  40.9705083  13.6021968  78.3845975  41.8028437
  13.8185583  79.2670613  41.5017265  13.1216036  77.9932188  41.0734079
   8.3421190  81.3431688  48.3799182   8.1965771  81.6571991  49.2723463
   7.8646393  81.9616589  47.8270080  10.2017573  78.3334236  48.4280071
  10.1879141  77.4375330  48.0912369  10.9190001  78.3404900  49.0618357
  12.0543703  78.7671576  50.4733199  11.7961481  79.6888647  50.4717529
  11.5228744  78.3702011  51.1633663  16.9989892  91.8722364  43.2523284
  17.1726770  91.3068786  42.4997137  17.4918783  92.6723258  43.0702774
   2.8166852  83.8837033  51.3186843   2.2720320  84.6596841  51.4507117
   3.6946202  84.2307837  51.1605964   9.6054469  77.2148616  43.6967642
   9.7270380  76.2865263  43.8958529   9.3156511  77.2287302  42.7845957
  12.4745659  74.9003527  46.8334361  12.4967356  74.9642860  45.8786341
  12.8913718  74.0608036  47.0274868  22.8529283  84.6358786  44.8713584
  23.2960429  83.8866112  44.4732707  21.9755794  84.6268923  44.4887316
  17.9865065  91.1889128  40.3520182  18.6815969  91.8095821  40.5707497
  18.3288215  90.3384479  40.6272560   3.6032874  83.0106929  54.2117000
   2.8614610  83.1589564  54.7981630   3.2825618  83.2715194  53.3483749
  19.8856488  88.6388833  41.8807513  20.4107812  88.9776106  41.1556833
  19.7978840  87.7035849  41.6970648  11.5476536  92.5522907  54.0097390
  11.8563663  92.3072054  54.8820089  12.3452018  92.7569546  53.5216260
  11.5697149  94.7060817  46.2402766  11.1302139  94.2137195  46.9335623
  12.3205265  94.1633784  45.9994842   4.0489487  90.8972358  46.2427395
   4.8747507  90.5976129  45.8626038   3.6983539  90.1279980  46.6917183
   9.0171021  90.2498826  48.3125068   8.3951030  89.5869531  48.0127296
   9.6875888  90.2759958  47.6298716   2.2498093  88.8158684  47.2016328
   1.4130001  88.3880858  47.0200329   2.2221738  89.0091127  48.1387119
   9.0895548  78.7280614  57.9057574   9.1383704  79.6042737  57.5235344
   9.6318062  78.1858007  57.3329217  19.5750394  89.2721737  57.1858711
  18.7845938  89.2545876  56.6463211  19.3383748  89.8110031  57.9407748
  19.6948269  86.1214203  54.4991440  19.7446274  85.9564211  55.4406963
  19.5862192  85.2541462  54.1089321   8.5784528  88.8002749  41.7883529
   8.7272648  89.4838214  41.1350201   9.3850971  88.7807839  42.3032984
  16.9852031  82.1045131  55.8150746  17.8861894  81.9651596  55.5234744
  17.0600006  82.2699586  56.7548924  11.3194837  79.4811986  54.6603933
  10.4498146  79.7745552  54.3886521  11.5554317  80.0652431  55.3811196
  21.1966466  88.5411145  54.7433461  20.9051274  88.9041126  55.5796922
  20.5838597  87.8278153  54.5646793  22.3962148  86.1064025  47.2636032
  23.2309039  86.5453829  47.4273592  22.5321277  85.6302678  46.4444277
  19.4453654  83.6643760  53.2113519  19.9207776  83.8571406  52.4032371
  18.5219219  83.7202945  52.9656903   6.3337161  84.8267927  42.7944598
   6.0883202  83.9230257  42.9924808   6.5033075  84.8285077  41.8524076
  14.0233870  75.6991603  52.1769353  14.5415814  76.4352630  51.8515842
  13.6689003  76.0055596  53.0116112   5.6032808  80.5596284  40.2930759
   4.9102053  80.6340639  39.6370795   5.3584560  79.7956628  40.8152276
  14.2746465  72.1191886  47.6970250  14.5548218  71.4515075  48.3230676
  15.0597072  72.3120981  47.1844914  12.0779933  91.2950880  39.2595276
  11.5053900  91.9141067  38.8065748  12.6512727  91.8450241  39.7935198
  18.1455323  80.5409520  51.4441825  19.0972746  80.6407617  51.4654049
  17.9758773  79.7487788  51.9539909  16.1669702  77.6265103  51.6301226
  15.5719635  77.9070116  50.9347714  15.8819399  78.1159004  52.4017967
  15.2977193  91.5788030  40.3903858  16.2307866  91.5133591  40.5936734
  15.2100406  92.4144297  39.9318391  17.9265210  90.8953900  37.3507806
  17.8478841  90.5613764  38.2443564  18.7474876  91.3875668  37.3499278
  20.6243401  83.7615639  50.5584125  20.5919721  82.8231640  50.7443808
  21.2344024  83.8399676  49.8249949  12.4626732  82.6311692  36.6011329
  13.4085836  82.5017900  36.6699747  12.0840977  81.8926354  37.0780757
  20.7737889  80.5526683  50.6042408  20.2576938  79.7685139  50.4172337
  21.6577838  80.2245399  50.7688927  18.4348616  74.2967698  46.5638220
  18.2373437  73.9882787  47.4481552  19.0448322  75.0229337  46.6936150
  26.4419951  84.8231646  49.6990161  27.1723339  84.5616934  50.2597865
  25.8326896  84.0860368  49.7392229  24.5235248  82.9639509  50.2964613
  23.7968411  82.8295474  49.6881104  24.1082535  83.2716337  51.1021331
  12.3465424  86.6829438  58.0611986  13.2668434  86.8608038  58.2552032
  12.3115007  85.7385484  57.9091685  10.6469649  80.5561669  36.5366214
   9.7401104  80.2594781  36.6128927  10.9245630  80.2591487  35.6700500
   1.5647589  81.8768032  46.9865260   1.2450373  81.0233340  46.6939634
   1.0181017  82.0916610  47.7423228   5.3427497  84.5930473  50.7034767
   5.5613506  85.5247581  50.7222801   5.7553270  84.2338448  51.4889571
  12.2631714  75.0998558  42.6910455  11.4532443  74.7545643  43.0665701
  12.9516131  74.7906102  43.2798067  14.1922263  74.1776605  44.3134752
  14.7453301  74.5972059  44.9724775  14.4292349  73.2512353  44.3557708
  10.2155362  80.1663679  60.0937516  10.1152089  81.1158036  60.0249607
   9.9976904  79.8381918  59.2213586   9.4168433  77.4148604  36.6778193
  10.2787597  77.7403502  36.9374010   9.6018778  76.6280100  36.1651259
   1.4335849  85.4970944  48.9558382   0.7399321  85.0824896  48.4428336
   2.1808840  85.5391480  48.3591801  17.5701070  76.2877130  43.8213416
  16.9899739  76.9461934  43.4391468  17.3037003  75.4654475  43.4100833
  16.0204636  75.6882188  46.0234736  16.5204415  75.7998723  45.2149055
  16.6640244  75.3843241  46.6635545  10.0786632  83.5960818  58.9102577
   9.5953714  84.3961178  59.1166466  10.1647571  83.6068763  57.9570021
   3.3472592  85.4289197  46.8324397   3.3243280  85.5276885  45.8806280
   3.6573228  86.2754348  47.1541563   6.0059970  87.4865352  50.9471011
   6.9603223  87.4549295  50.8800943   5.8072493  87.0255976  51.7621237
   6.5959352  86.0566469  53.5141809   7.4152241  86.5510547  53.5376646
   6.8696159  85.1398437  53.4859376  16.3525948  78.4477221  42.8769764
  15.4651803  78.7326871  42.6589959  16.7679937  78.2870984  42.0297041
  19.7040484  78.4723742  46.5924103  20.4800874  78.9620194  46.8648720
  18.9788618  78.8981796  47.0495973  22.1413043  79.1851361  47.6498044
  22.7357533  78.9447097  46.9391352  22.2139626  78.4658492  48.2771580
   4.3610198  93.0284972  47.9641209   4.2264666  92.2685373  47.3979207
   3.9442261  93.7525872  47.4969998  15.4969161  88.2121895  36.9717784
  16.2005011  88.4171898  37.5875440  14.7731810  88.7798657  37.2366868
  16.3266972  83.9631757  43.0920054  16.2702173  84.4200308  42.2527687
  16.8795314  83.2022441  42.9142897  20.1371778  79.7521489  43.9170174
  19.8808712  79.3518124  44.7478382  19.5124646  80.4665283  43.7920313
  24.4484115  82.4917562  46.4241465  23.8883673  82.5610751  47.1973027
  23.8427619  82.3158546  45.7040962   7.5179324  93.9254289  48.1759652
   7.4011708  94.8699721  48.0738342   6.6971770  93.6227851  48.5645451
  17.4055859  88.6504425  39.0216244  18.2401463  88.2185623  38.8393719
  17.2440202  88.4786438  39.9493139  17.0601751  85.1536538  40.3872584
  17.0050555  84.9880809  39.4461028  16.4347806  85.8612571  40.5434773
   1.8494266  80.3904602  54.2134006   2.4953130  79.8803556  54.7021231
   1.6411417  81.1273284  54.7877431  14.3747658  87.4585450  59.7126146
  15.2438818  87.6326102  59.3512781  13.8954410  88.2779867  59.5901876
  10.3697876  74.6544647  39.9657902  10.3576546  75.5986487  40.1226173
  11.2621298  74.4714792  39.6717363   8.5433838  94.5782551  51.3915580
   9.4461085  94.6106161  51.7082075   8.3171208  93.6483002  51.4061916
  10.2987440  93.3313537  48.0525659   9.3483071  93.3315399  47.9390031
  10.6019926  92.5846272  47.5361693  14.1849996  71.2487424  44.2203839
  13.4182392  70.6945910  44.3660521  14.5960701  71.3209292  45.0817990
   6.1891757  77.5372219  58.3109020   7.0523218  77.1809024  58.5212345
   5.6157168  77.1986114  58.9984424  26.0340134  99.1674076  49.1171421
  26.6718544  99.0480823  48.4134761  25.9160977 100.1154920  49.1759373
  22.8429840  99.1201504  49.0532946  22.5048352  99.0042569  48.1653481
  23.7119608  98.7192669  49.0333952  18.7016656 100.9736980  45.0429837
  18.1381521 100.8826917  44.2746124  18.5869051 100.1536885  45.5232329
  23.3249623 100.2736356  55.0119151  23.3138264  99.8789154  54.1399655
  23.4870263  99.5402428  55.6052923  16.2481088 102.4688172  47.8814057
  17.0402380 102.1278997  47.4660356  16.4877738 102.5783147  48.8016210
  24.2816215 104.6407948  40.3544302  23.6304194 105.2262028  39.9678315
  25.0760577 105.1714143  40.4139339  18.2071842 101.7297085  40.7531436
  18.9802718 101.1826072  40.6144312  18.5597241 102.5941334  40.9645897
  20.0456884 103.0573467  53.9598335  19.7546750 103.9619098  53.8445002
  20.6813869 103.0989995  54.6742405  20.9713091 100.4350316  50.5499695
  21.5676663 100.2106338  49.8356658  21.0288063  99.6935061  51.1525143
  20.5438120  97.8889751  38.3849886  20.7963640  97.3671273  37.6233349
  19.6062679  97.7255897  38.4876569  25.5881402  96.8925530  46.1924629
  26.3744492  96.4744953  45.8415046  25.8520107  97.7971622  46.3606277
  25.7591480 102.3298380  40.8913286  25.1237313 102.4033006  41.6034191
  25.4288886 102.9191979  40.2132365  30.9889829  96.8300763  47.0957608
  31.7215001  96.2599980  47.3295437  30.2329185  96.4422363  47.5364113
  20.2634408  99.7917857  40.5874261  20.1470666  99.1162761  41.2555345
  20.3736668  99.3050231  39.7706414  22.6065949  99.2528004  44.2920950
  22.2424156  98.7258625  45.0033872  23.4633065  98.8626473  44.1187435
  28.5115250  90.5422337  51.5552216  28.1798575  91.4117748  51.3313431
  27.9160863  90.2258621  52.2346247  22.2471436  94.2817904  39.2882299
  22.4145838  95.1498140  39.6552770  22.0568605  94.4445186  38.3643588
  25.0046769 102.7434883  50.9548129  24.7047492 103.6459922  50.8463936
  24.6597829 102.4767066  51.8069282  18.4559251  99.1948680  46.9884833
  17.5309747  99.0624894  47.1962525  18.7043664  99.9742899  47.4854776
  28.4043913  95.2617423  48.6345566  27.4960790  95.1932832  48.3404327
  28.3531509  95.7389368  49.4627392  22.2260657  96.7375562  40.2728965
  22.1060282  97.1832612  41.1114446  21.5313245  97.0860879  39.7142504
  15.8168062  98.8381953  47.8228622  15.9460443  99.0916432  48.7368034
  15.1365513  99.4309661  47.5033277  19.9867549 109.5079203  43.9219097
  19.9091579 110.4587028  44.0007577  19.3829193 109.1625076  44.5794023
  22.4784779  96.6807069  56.5780464  21.7018113  97.2400989  56.5683328
  23.1175342  97.1663852  57.0995334  30.2705560  93.4633862  50.4123440
  29.6279940  93.7566395  49.7663235  29.7660488  93.3486782  51.2176637
  27.9245723  97.2097035  41.1009299  28.8363579  97.4424421  40.9256997
  27.4155370  97.7934079  40.5384378  20.7331151  99.4892522  56.1398431
  21.4745836 100.0277566  55.8633254  20.0268137 100.1158811  56.2969982
  26.2086491 101.6321663  54.7370592  26.6169847 101.1904073  53.9925224
  25.4863752 101.0574290  54.9904785  22.5617561  96.5694269  52.1104149
  23.4078756  96.9933683  52.2538798  22.5016199  95.9127894  52.8042712
  26.5315305 102.1922853  48.4922881  25.9024168 102.3568567  47.7898949
  26.1440968 102.6064463  49.2633845  30.4104537 103.1277291  45.8467245
  29.7255576 103.5076192  45.2964278  30.4948387 103.7372618  46.5799192
  25.7117006  94.2298638  53.7685323  25.4677938  94.9840698  53.2319598
  25.9876937  94.6083985  54.6032570  27.6655469 100.7737250  52.4462588
  27.8772364 101.4169010  51.7696969  27.6185217  99.9399567  51.9784518
  25.2681698  93.3855071  49.3499160  24.4066177  93.6836324  49.6415898
  25.2944133  93.6025470  48.4180193  22.0843267 101.9297261  45.7572966
  22.5481613 102.2084964  44.9677588  21.8200065 101.0280706  45.5746057
  18.9767348 101.4768743  48.6952729  19.5468705 101.9056011  48.0570214
  19.5675460 101.1951327  49.3936915  21.0212153  98.0520414  42.5662531
  21.7236197  98.5041457  43.0336457  20.6892782  97.4104232  43.1942424
  19.4692515  96.6432170  56.9413741  18.8391176  97.3248451  57.1749137
  19.3628603  96.5315252  55.9966879  14.7637487  96.3103966  47.8679665
  13.9736541  96.5661495  47.3919775  15.2548735  97.1252304  47.9731705
  28.7801297 103.6509205  50.6184946  29.6018741 103.2489393  50.3367627
  28.7763700 103.5477440  51.5701061  16.7152233  96.6748546  44.8263141
  15.9183396  96.7867240  45.3446637  16.4877825  97.0135198  43.9604032
  22.5457900 103.1993249  52.7745656  22.6102333 103.6613656  53.6103828
  21.8368824 102.5690614  52.9027966  13.0475190  96.5634457  50.2994655
  13.2983229  97.4481467  50.5652231  13.5834739  96.3839058  49.5269747
  36.8707290  99.9947954  46.9669917  36.1170998  99.4255352  46.8113921
  37.0054831  99.9610618  47.9140552  22.2605918 104.8661356  42.6424636
  22.1251593 105.7112892  43.0709484  22.8015731 105.0680634  41.8790570
  18.7473258  90.9452936  59.3038992  18.3540203  90.3919135  59.9786636
  19.5639398  91.2563515  59.6945509  15.7135315 102.3836794  43.2152561
  16.2259836 103.1780045  43.3658126  16.3658028 101.6863085  43.1486163
  17.5230200 105.5002551  45.2975315  17.6996828 106.4220515  45.1096299
  18.3187034 105.1860970  45.7269694  21.6641219  92.3610815  56.8959248
  22.4050932  92.9617968  56.8163711  21.8959141  91.6188453  56.3377291
  16.8082557  97.5467182  55.1737478  16.6936072  96.6452440  55.4744577
  15.9527074  97.7930879  54.8222294  23.8874394 105.4884923  56.7724978
  23.4438249 104.7021301  56.4545883  24.5491608 105.6764073  56.1068869
  18.6461516 107.0180724  51.2985657  19.1968941 106.8897788  50.5262651
  17.8072991 107.3175613  50.9480550  25.9855632 105.7687723  54.8006380
  25.9674108 106.5896604  54.3086649  26.9075553 105.6441798  55.0256521
  22.4428687 103.2831852  55.6429888  22.9757023 102.5220140  55.4129196
  21.9142768 102.9905504  56.3854043  25.6098382  88.3891918  51.1723530
  25.2662651  89.2793560  51.0962640  25.9777344  88.1993576  50.3093115
  13.6784232 100.7125449  43.9912132  14.5159454 101.1222457  43.7745840
  13.8562500  99.7724891  43.9612326  25.5748664  98.3800529  39.6795965
  25.0595288  99.1505134  39.9184352  25.3025973  97.7065665  40.3029026
  23.1595775  93.2250230  44.7381203  22.3037372  92.8357080  44.5586842
  23.5722727  93.3042191  43.8780989  24.6894922  90.7596573  49.1372763
  24.1859718  90.7226708  48.3240568  24.9825529  91.6689316  49.1969420
  20.9337808  90.8435303  48.1438945  21.7990805  90.6478112  47.7844834
  21.0015317  90.6145655  49.0708302  30.5482938 101.1332884  41.6149138
  29.7712381 100.7944043  41.1704300  31.2274419 101.1385507  40.9404103
  25.3634967  96.2527621  41.5055746  25.0585103  96.5673771  42.3565889
  26.3165410  96.3309041  41.5483079  23.8081399 102.4117845  43.1548700
  23.2802761 101.6770604  42.8421938  23.3068902 103.1892521  42.9088668
  28.7874245 100.6066865  48.2715746  28.1297920 101.2966127  48.3595875
  29.5914645 100.9963297  48.6149733  18.5400127  93.0737511  45.5155312
  19.1143879  92.8512692  44.7828505  19.1271109  93.1426205  46.2683913
  27.5979704  98.9611238  46.3219688  28.1111586  99.5941230  46.8241398
  28.2480928  98.3612433  45.9563048  18.8669714  95.1041972  39.5351197
  18.0307026  95.4416659  39.8560472  18.7274484  94.9690952  38.5978334
  20.8422795  89.9478760  44.2430381  20.1887207  89.6327777  43.6186996
  20.8003269  89.3254500  44.9690204  21.9534000 100.2298055  36.1583673
  21.0461061  99.9987308  36.3574822  22.4505032  99.4335674  36.3457655
  24.8602078 108.9395562  39.0780359  24.1863777 109.2427259  39.6865317
  25.2467900 109.7424642  38.7285816  24.0760535  96.4360693  48.5678029
  23.1583096  96.6575640  48.4099717  24.4920679  96.5107004  47.7089736
  24.8595583  97.8352109  43.6980709  25.6067402  98.3473506  43.3887831
  25.1287172  97.5136162  44.5585102  23.1322233 100.3310650  40.6807663
  22.2233452 100.0469683  40.7780133  23.1617317 100.7509728  39.8210970
  28.3641500 103.9417239  44.4498831  27.9103827 103.1008149  44.5064021
  27.7335467 104.5778638  44.7873611  27.3074420  94.8709225  45.6799498
  26.5697177  94.3586612  46.0109741  27.5601193  94.4309607  44.8682775
  26.8074440 105.7793736  45.3848649  27.0997414 106.3398793  44.6661015
  27.3173060 106.0722297  46.1401808  27.4086047  87.6485477  46.2741267
  27.7144924  86.7882841  45.9867183  28.1338652  88.2403098  46.0740261
  13.7010403  98.0516164  44.6622865  13.5034803  97.4585525  43.9373932
  13.1457067  97.7468374  45.3798804  21.6807127  97.9439270  46.7817459
  21.7355737  96.9913107  46.7059935  20.8698329  98.0998709  47.2658757
  22.8298321 101.8719393  38.0195742  22.3917751 101.1555252  37.5601379
  23.5708762 102.0995508  37.4580833  19.6199487  96.5616330  44.5407837
  18.8067352  96.8610501  44.9473030  20.1158481  96.1672019  45.2582320
  21.7708065 106.5574087  46.4742102  21.7284244 106.7834933  45.5450634
  22.6870764 106.3237462  46.6227903  25.2173699  97.0258155  53.3722731
  25.5723086  97.2529628  54.2317197  25.8645830  97.3576531  52.7499987
  30.9471436 100.1476590  44.0772060  30.8089334 100.3378186  43.1493250
  30.5907654 100.9095973  44.5340111  19.1113562  94.1334686  50.1569072
  19.7512941  93.9923445  49.4592036  18.2791092  93.8469199  49.7807674
  30.9740815 102.2153117  49.0883332  31.4077322 102.1228407  49.9366386
  31.6872396 102.1910618  48.4503348  19.8873866 103.4337116  46.2704065
  20.6814464 102.9387436  46.0686640  19.1765558 102.9054979  45.9071770
  24.7068710 105.8155212  50.6216432  24.7605732 106.3846148  51.3894148
  23.8383491 105.9857097  50.2570470  16.1956629  97.5780198  42.3463818
  15.2654217  97.5164653  42.5633780  16.2914101  97.0556151  41.5500459
  16.1142178  94.1035011  44.9342059  16.3748995  95.0180344  44.8251220
  16.9359350  93.6359453  45.0838672  17.5867103  95.5172768  52.1040884
  18.2590157  95.3090130  51.4553533  16.7596890  95.3194854  51.6646116
  31.8356365 102.2576818  51.6216217  32.0292255 103.1622629  51.8675492
  31.7356983 101.7984237  52.4554802  23.4892675  92.1434709  54.1206545
  22.8420590  92.8424658  54.0271021  24.2593691  92.5770853  54.4882793
  26.8971473 102.4083561  57.1957098  26.7456980 102.1794113  56.2787182
  26.8876153 103.3654162  57.2088443  23.6656810  99.9815474  52.1803364
  24.5948870 100.1326633  52.0072332  23.2447840 100.0699494  51.3252011
  22.4645142 104.0066138  49.9501902  22.3256227 103.6384922  50.8227840
  21.6759738 104.5213777  49.7785860  23.0593294 109.1075235  41.2927438
  23.2345049 108.6363278  42.1073061  22.3726082 109.7341001  41.5208699
  24.0150357 103.3847741  47.3390740  23.6800189 103.3448511  48.2348390
  23.5154302 102.7192457  46.8661150  17.9894601  98.7915371  52.8643321
  17.8514399  98.0595610  53.4654860  18.8999524  98.7024271  52.5827509
  26.9509548 100.7303775  37.6127799  26.3338719 100.0050603  37.5160852
  26.4826037 101.4913135  37.2694874  20.6176901  98.5035330  52.3527001
  21.3276520  97.8628522  52.3113619  20.5746210  98.7548225  53.2753181
  28.6063680 105.4402683  55.2733580  28.5476226 104.7561904  54.6064163
  29.0083198 106.1821673  54.8214206  19.3305835  95.4900548  54.1722640
  18.7943192  95.0391286  54.8244236  18.7422544  95.6246457  53.4293104
  18.7408094  94.9489199  36.7349104  17.8637561  94.8278000  36.3711350
  19.2165847  94.1575278  36.4827992  28.6081087 103.4042267  53.5047559
  27.7207866 103.0668189  53.6273958  29.1779638 102.6725299  53.7416325
  10.2610234  99.7366359  46.8290611  10.9481274  99.4228089  46.2411626
  10.1058363 100.6407724  46.5557862  15.0644957  94.6256556  51.2575634
  14.9803145  94.0182225  50.5226044  14.2427663  95.1165574  51.2585131
  22.1382241 108.0643720  50.4708803  22.0652412 108.8698691  50.9828107
  21.6959634 108.2635686  49.6456824  21.9272020 107.3015490  43.9811624
  21.1439542 107.8437170  44.0749849  22.6264765 107.8189469  44.3805865
  25.2368670  93.1110119  46.6245830  25.7337370  92.3580082  46.3046900
  24.4655652  93.1474436  46.0589039  33.0898428  98.8150485  48.2664121
  33.0788304  99.6975200  47.8958054  32.2215807  98.4622036  48.0718658
  24.5980924 107.9630554  52.6266961  25.3108896 108.5978019  52.5542863
  24.1070953 108.0594420  51.8106963  26.3198451 101.8681806  44.1984253
  25.3854730 101.9883269  44.0288957  26.4975120 100.9654273  43.9344263
  21.8203639  95.2527502  46.3517514  21.4501427  94.6998543  47.0398420
  22.3162732  94.6485636  45.7992514  29.7071002  97.7099126  44.7334287
  30.1731455  98.5427117  44.6594590  30.1578503  97.2444107  45.4379546
  19.6492838 105.7124997  53.4472532  20.3502297 106.3461480  53.6001926
  19.1787953 106.0539729  52.6868171  27.7747234 104.0542947  41.7320439
  28.0507077 103.9399542  42.6414313  26.9051732 103.6560432  41.6932612
  27.6787665  90.0779713  48.7725188  26.7650745  90.3083940  48.9407395
  28.1080767  90.1618157  49.6239221  27.4494124  98.2669605  51.2725082
  26.7965574  98.5145512  50.6177535  27.8274504  97.4533743  50.9387560
  24.4101298 108.3029298  45.3753253  24.5923692 107.4850954  45.8381005
  25.2334284 108.5196990  44.9378143  24.7443463 107.2297483  42.6368301
  25.2731230 106.7189938  42.0238463  25.0071683 106.9140013  43.5013834
  23.4981697  99.0089416  57.7591120  22.8222334  98.9083545  58.4293495
  24.3209331  98.8528629  58.2227117  15.2460556 105.2461352  50.3803635
  15.8313993 104.5005040  50.5131539  15.0485394 105.5565309  51.2640299
  18.0999211 108.2812600  45.3966077  17.4309586 108.7658727  44.9130117
  17.9612081 108.5281820  46.3109456   9.8378211  97.8166952  49.1008078
   9.8762310  97.2830543  49.8945196   9.3318503  97.2902158  48.4819055
  22.2404480 110.3156343  51.9948736  22.7922788 110.4787965  52.7597821
  22.5810673 110.9060781  51.3228760  17.2168973  92.6631493  52.5970620
  17.2810299  93.5246324  52.1848018  17.1536093  92.0505495  51.8642979
  16.6921245  94.7354626  56.2443654  17.3193284  94.3531703  56.8581179
  15.8349164  94.5168827  56.6099347  27.0915354 105.1417601  57.8497390
  27.6355258 105.7547559  57.3552345  26.5102199 105.6997179  58.3664403
  13.4686788  96.5431055  42.1762009  13.7640229  95.6341733  42.1229063
  12.5674824  96.5218794  41.8543012  25.3772867 108.2638319  48.9812418
  25.2524006 107.4628059  48.4723363  26.0351958 108.7584512  48.4926388
  16.9981035  94.6187051  48.1589558  16.2767621  95.2323019  48.0197031
  17.7874291  95.1544816  48.0806204  27.4407775 106.0647339  50.6091968
  26.4938111 105.9452690  50.5370295  27.7890548 105.1769837  50.6918229
  19.8007349  91.9541478  54.4330210  20.3241750  92.2003774  55.1956519
  19.5819682  92.7861513  54.0133347  15.1974630  94.2245152  42.3001334
  14.8687336  93.3442531  42.1176440  15.5514000  94.1692821  43.1877724
  24.4454209 105.8600055  46.8096320  24.2979171 104.9316762  46.9903890
  25.2707702 105.8820146  46.3253395  18.3116453  94.5118122  42.6676812
  18.6512525  95.0404043  41.9455421  18.7588573  94.8498528  43.4435379
  28.0488330 106.6828614  47.8961193  28.9734878 106.4771475  47.7585644
  27.8803634 106.4345015  48.8050534  21.0059894  92.8955173  52.1179880
  20.6656714  92.0962986  52.5200560  20.2998900  93.1956884  51.5456713
  21.6576366  89.9804485  50.5707203  22.4802435  89.5064963  50.4486094
  21.9014429  90.7594969  51.0705890  20.2984600  93.0092744  40.8670105
  21.0192963  93.3873996  40.3633822  19.6749904  93.7281621  40.9705083
  24.4415723  93.7137893  41.8028437  24.6579337  94.5962531  41.5017265
  23.9609790  93.3224106  41.0734079  19.1814944  96.6723606  48.3799182
  19.0359525  96.9863909  49.2723463  18.7040148  97.2908506  47.8270080
  21.0411327  93.6626154  48.4280071  21.0272896  92.7667247  48.0912369
  21.7583755  93.6696818  49.0618357  22.8937458  94.0963494  50.4733199
  22.6355236  95.0180565  50.4717529  22.3622498  93.6993929  51.1633663
  27.8383647 107.2014281  43.2523284  28.0120524 106.6360704  42.4997137
  28.3312538 108.0015176  43.0702774  13.6560606  99.2128950  51.3186843
  13.1114075  99.9888758  51.4507117  14.5339956  99.5599755  51.1605964
  20.4448223  92.5440534  43.6967642  20.5664134  91.6157180  43.8958529
  20.1550265  92.5579220  42.7845957  23.3139413  90.2295445  46.8334361
  23.3361110  90.2934778  45.8786341  23.7307472  89.3899953  47.0274868
  33.6923038  99.9650704  44.8713584  34.1354184  99.2158029  44.4732707
  32.8149548  99.9560841  44.4887316  28.8258819 106.5181046  40.3520182
  29.5209724 107.1387738  40.5707497  29.1681969 105.6676397  40.6272560
  14.4426628  98.3398847  54.2117000  13.7008364  98.4881482  54.7981630
  14.1219373  98.6007112  53.3483749  30.7250242 103.9680751  41.8807513
  31.2501566 104.3068024  41.1556833  30.6372595 103.0327766  41.6970648
  22.3870291 107.8814825  54.0097390  22.6957417 107.6363972  54.8820089
  23.1845773 108.0861463  53.5216260  22.4090903 110.0352734  46.2402766
  21.9695893 109.5429113  46.9335623  23.1599020 109.4925702  45.9994842
  14.8883242 106.2264275  46.2427395  15.7141262 105.9268047  45.8626038
  14.5377294 105.4571898  46.6917183  19.8564775 105.5790743  48.3125068
  19.2344784 104.9161449  48.0127296  20.5269642 105.6051875  47.6298716
  13.0891847 104.1450602  47.2016328  12.2523755 103.7172776  47.0200329
  13.0615492 104.3383045  48.1387119  19.9289303  94.0572532  57.9057574
  19.9777458  94.9334654  57.5235344  20.4711817  93.5149925  57.3329217
  30.4144148 104.6013655  57.1858711  29.6239692 104.5837794  56.6463211
  30.1777503 105.1401948  57.9407748  30.5342023 101.4506121  54.4991440
  30.5840028 101.2856129  55.4406963  30.4255947 100.5833380  54.1089321
  19.4178282 104.1294667  41.7883529  19.5666402 104.8130131  41.1350201
  20.2244726 104.1099757  42.3032984  27.8245786  97.4337049  55.8150746
  28.7255649  97.2943514  55.5234744  27.8993760  97.5991504  56.7548924
  22.1588591  94.8103904  54.6603933  21.2891900  95.1037470  54.3886521
  22.3948071  95.3944349  55.3811196  32.0360220 103.8703063  54.7433461
  31.7445028 104.2333043  55.5796922  31.4232351 103.1570071  54.5646793
  33.2355903 101.4355942  47.2636032  34.0702794 101.8745747  47.4273592
  33.3715031 100.9594596  46.4444277  30.2847408  98.9935677  53.2113519
  30.7601530  99.1863324  52.4032371  29.3612974  99.0494863  52.9656903
  17.1730915 100.1559844  42.7944598  16.9276957  99.2522174  42.9924808
  17.3426830 100.1576995  41.8524076  24.8627625  91.0283521  52.1769353
  25.3809569  91.7644548  51.8515842  24.5082758  91.3347514  53.0116112
  16.4426563  95.8888202  40.2930759  15.7495808  95.9632557  39.6370795
  16.1978314  95.1248546  40.8152276  25.1140219  87.4483803  47.6970250
  25.3941973  86.7806992  48.3230676  25.8990826  87.6412899  47.1844914
  22.9173688 106.6242797  39.2595276  22.3447655 107.2432984  38.8065748
  23.4906481 107.1742159  39.7935198  28.9849077  95.8701437  51.4441825
  29.9366500  95.9699535  51.4654049  28.8152528  95.0779706  51.9539909
  27.0063457  92.9557021  51.6301226  26.4113389  93.2362033  50.9347714
  26.7213154  93.4450922  52.4017967  26.1370947 106.9079947  40.3903858
  27.0701621 106.8425509  40.5936734  26.0494160 107.7436214  39.9318391
  28.7658964 106.2245818  37.3507806  28.6872596 105.8905681  38.2443564
  29.5868631 106.7167586  37.3499278  31.4637155  99.0907557  50.5584125
  31.4313475  98.1523558  50.7443808  32.0737779  99.1691594  49.8249949
  23.3020486  97.9603610  36.6011329  24.2479591  97.8309818  36.6699747
  22.9234731  97.2218272  37.0780757  31.6131644  95.8818600  50.6042408
  31.0970692  95.0977057  50.4172337  32.4971592  95.5537317  50.7688927
  29.2742371  89.6259616  46.5638220  29.0767192  89.3174704  47.4481552
  29.8842076  90.3521255  46.6936150  37.2813705 100.1523564  49.6990161
  38.0117094  99.8908852  50.2597865  36.6720651  99.4152286  49.7392229
  35.3629002  98.2931426  50.2964613  34.6362166  98.1587391  49.6881104
  34.9476289  98.6008255  51.1021331  23.1859179 102.0121356  58.0611986
  24.1062188 102.1899955  58.2552032  23.1508762 101.0677402  57.9091685
  21.4863403  95.8853586  36.5366214  20.5794859  95.5886699  36.6128927
  21.7639384  95.5883405  35.6700500  12.4041344  97.2059950  46.9865260
  12.0844128  96.3525258  46.6939634  11.8574772  97.4208528  47.7423228
  16.1821251  99.9222391  50.7034767  16.4007261 100.8539499  50.7222801
  16.5947025  99.5630365  51.4889571  23.1025469  90.4290476  42.6910455
  22.2926197  90.0837561  43.0665701  23.7909886  90.1198020  43.2798067
  25.0316017  89.5068523  44.3134752  25.5847056  89.9263976  44.9724775
  25.2686104  88.5804271  44.3557708  21.0549116  95.4955597  60.0937516
  20.9545843  96.4449954  60.0249607  20.8370659  95.1673835  59.2213586
  20.2562188  92.7440522  36.6778193  21.1181352  93.0695420  36.9374010
  20.4412532  91.9572018  36.1651259  12.2729604 100.8262861  48.9558382
  11.5793075 100.4116814  48.4428336  13.0202595 100.8683398  48.3591801
  28.4094824  91.6169048  43.8213416  27.8293493  92.2753852  43.4391468
  28.1430757  90.7946393  43.4100833  26.8598391  91.0174106  46.0234736
  27.3598169  91.1290640  45.2149055  27.5033999  90.7135159  46.6635545
  20.9180387  98.9252735  58.9102577  20.4347468  99.7253096  59.1166466
  21.0041326  98.9360680  57.9570021  14.1866346 100.7581115  46.8324397
  14.1637034 100.8568802  45.8806280  14.4966983 101.6046266  47.1541563
  16.8453724 102.8157270  50.9471011  17.7996978 102.7841212  50.8800943
  16.6466248 102.3547894  51.7621237  17.4353106 101.3858386  53.5141809
  18.2545995 101.8802465  53.5376646  17.7089914 100.4690354  53.4859376
  27.1919702  93.7769138  42.8769764  26.3045557  94.0618789  42.6589959
  27.6073691  93.6162902  42.0297041  30.5434238  93.8015659  46.5924103
  31.3194629  94.2912112  46.8648720  29.8182373  94.2273714  47.0495973
  32.9806797  94.5143279  47.6498044  33.5751288  94.2739015  46.9391352
  33.0533381  93.7950409  48.2771580  26.3362916 103.5413813  36.9717784
  27.0398766 103.7463816  37.5875440  25.6125565 104.1090575  37.2366868
  27.1660726  99.2923674  43.0920054  27.1095928  99.7492226  42.2527687
  27.7189069  98.5314359  42.9142897  30.9765532  95.0813406  43.9170174
  30.7202466  94.6810042  44.7478382  30.3518400  95.7957200  43.7920313
  35.2877870  97.8209480  46.4241465  34.7277428  97.8902669  47.1973027
  34.6821373  97.6450464  45.7040962  28.2449613 103.9796342  39.0216244
  29.0795217 103.5477541  38.8393719  28.0833956 103.8078356  39.9493139
  27.8995505 100.4828456  40.3872584  27.8444309 100.3172727  39.4461028
  27.2741561 101.1904489  40.5434773  12.6888020  95.7196520  54.2134006
  13.3346884  95.2095474  54.7021231  12.4805172  96.4565202  54.7877431
  25.2141413 102.7877368  59.7126146  26.0832572 102.9618020  59.3512781
  24.7348164 103.6071784  59.5901876  21.2091631  89.9836565  39.9657902
  21.1970301  90.9278405  40.1226173  22.1015053  89.8006710  39.6717363
  19.3827593 109.9074469  51.3915580  20.2854840 109.9398079  51.7082075
  19.1564963 108.9774919  51.4061916  21.1381195 108.6605455  48.0525659
  20.1876826 108.6607317  47.9390031  21.4413681 107.9138190  47.5361693
  25.0243750  86.5779341  44.2203839  24.2576146  86.0237828  44.3660521
  25.4354455  86.6501210  45.0817990  17.0285511  92.8664137  58.3109020
  17.8916973  92.5100942  58.5212345  16.4550922  92.5278032  58.9984424
  36.8733888 114.4965993  49.1171421  37.5112298 114.3772741  48.4134761
  36.7554731 115.4446837  49.1759373  33.6823595 114.4493422  49.0532946
  33.3442106 114.3334486  48.1653481  34.5513363 114.0484587  49.0333952
  34.1643378 115.6028273  55.0119151  34.1532018 115.2081072  54.1399655
  34.3264017 114.8694346  55.6052923  31.3831874 113.2181669  38.3849886
  31.6357395 112.6963190  37.6233349  30.4456433 113.0547814  38.4876569
  36.4275157 112.2217447  46.1924629  37.2138246 111.8036870  45.8415046
  36.6913861 113.1263540  46.3606277  41.8283584 112.1592681  47.0957608
  42.5608756 111.5891897  47.3295437  41.0722940 111.7714281  47.5364113
  33.4459704 114.5819922  44.2920950  33.0817911 114.0550543  45.0033872
  34.3026820 114.1918391  44.1187435  39.3509004 105.8714255  51.5552216
  39.0192329 106.7409666  51.3313431  38.7554618 105.5550539  52.2346247
  33.0865191 109.6109822  39.2882299  33.2539593 110.4790058  39.6552770
  32.8962360 109.7737103  38.3643588  39.2437668 110.5909341  48.6345566
  38.3354545 110.5224749  48.3404327  39.1925263 111.0681286  49.4627392
  33.0654412 112.0667479  40.2728965  32.9454037 112.5124530  41.1114446
  32.3707000 112.4152797  39.7142504  33.3178533 112.0098986  56.5780464
  32.5411867 112.5692907  56.5683328  33.9569096 112.4955769  57.0995334
  41.1099314 108.7925779  50.4123440  40.4673694 109.0858312  49.7663235
  40.6054243 108.6778700  51.2176637  38.7639478 112.5388952  41.1009299
  39.6757334 112.7716339  40.9256997  38.2549125 113.1225997  40.5384378
  33.4011315 111.8986187  52.1104149  34.2472511 112.3225601  52.2538798
  33.3409953 111.2419811  52.8042712  36.5510761 109.5590555  53.7685323
  36.3071693 110.3132616  53.2319598  36.8270691 109.9375903  54.6032570
  38.5049223 116.1029168  52.4462588  38.7166119 116.7460928  51.7696969
  38.4578972 115.2691484  51.9784518  36.1075452 108.7146988  49.3499160
  35.2459931 109.0128242  49.6415898  36.1337887 108.9317387  48.4180193
  31.8605908 113.3812331  42.5662531  32.5629951 113.8333375  43.0336457
  31.5286536 112.7396150  43.1942424  30.3086269 111.9724088  56.9413741
  29.6784930 112.6540369  57.1749137  30.2022357 111.8607170  55.9966879
  25.6031242 111.6395884  47.8679665  24.8130296 111.8953413  47.3919775
  26.0942489 112.4544222  47.9731705  27.5545987 112.0040463  44.8263141
  26.7577151 112.1159157  45.3446637  27.3271579 112.3427115  43.9604032
  47.7101044 115.3239872  46.9669917  46.9564753 114.7547270  46.8113921
  47.8448586 115.2902536  47.9140552  29.5867012 106.2744854  59.3038992
  29.1933958 105.7211052  59.9786636  30.4033152 106.5855432  59.6945509
  32.5034973 107.6902733  56.8959248  33.2444687 108.2909886  56.8163711
  32.7352896 106.9480371  56.3377291  36.4492136 103.7183836  51.1723530
  36.1056405 104.6085477  51.0962640  36.8171099 103.5285493  50.3093115
  36.4142419 113.7092447  39.6795965  35.8989042 114.4797052  39.9184352
  36.1419727 113.0357583  40.3029026  33.9989530 108.5542148  44.7381203
  33.1431126 108.1648998  44.5586842  34.4116482 108.6334108  43.8780989
  35.5288676 106.0888491  49.1372763  35.0253472 106.0518626  48.3240568
  35.8219283 106.9981234  49.1969420  31.7731562 106.1727221  48.1438945
  32.6384559 105.9770029  47.7844834  31.8409071 105.9437572  49.0708302
  41.3876693 116.4624802  41.6149138  40.6106136 116.1235961  41.1704300
  42.0668174 116.4677425  40.9404103  36.2028722 111.5819539  41.5055746
  35.8978858 111.8965688  42.3565889  37.1559164 111.6600959  41.5483079
  39.6268000 115.9358783  48.2715746  38.9691674 116.6258044  48.3595875
  40.4308399 116.3255215  48.6149733  29.3793881 108.4029429  45.5155312
  29.9537633 108.1804610  44.7828505  29.9664864 108.4718123  46.2683913
  38.4373459 114.2903156  46.3219688  38.9505340 114.9233147  46.8241398
  39.0874683 113.6904351  45.9563048  29.7063469 110.4333890  39.5351197
  28.8700781 110.7708576  39.8560472  29.5668238 110.2982869  38.5978334
  31.6816549 105.2770678  44.2430381  31.0280961 104.9619695  43.6186996
  31.6397023 104.6546418  44.9690204  34.9154290 111.7652611  48.5678029
  33.9976851 111.9867558  48.4099717  35.3314433 111.8398922  47.7089736
  35.6989337 113.1644027  43.6980709  36.4461156 113.6765424  43.3887831
  35.9680927 112.8428079  44.5585102  38.1468174 110.2001143  45.6799498
  37.4090931 109.6878529  46.0109741  38.3994948 109.7601525  44.8682775
  38.2479802 102.9777395  46.2741267  38.5538679 102.1174758  45.9867183
  38.9732407 103.5695015  46.0740261  32.5200881 113.2731188  46.7817459
  32.5749491 112.3205024  46.7059935  31.7092084 113.4290627  47.2658757
  30.4593241 111.8908248  44.5407837  29.6461107 112.1902418  44.9473030
  30.9552236 111.4963937  45.2582320  36.0567453 112.3550072  53.3722731
  36.4116841 112.5821545  54.2317197  36.7039584 112.6868449  52.7499987
  41.7865190 115.4768508  44.0772060  41.6483089 115.6670104  43.1493250
  41.4301409 116.2387891  44.5340111  29.9507316 109.4626603  50.1569072
  30.5906695 109.3215362  49.4592036  29.1184847 109.1761117  49.7807674
  41.8134570 117.5445035  49.0883332  42.2471076 117.4520324  49.9366386
  42.5266150 117.5202536  48.4503348  27.0350384 112.9072115  42.3463818
  26.1047972 112.8456571  42.5633780  27.1307856 112.3848068  41.5500459
  26.9535933 109.4326928  44.9342059  27.2142750 110.3472262  44.8251220
  27.7753105 108.9651371  45.0838672  28.4260858 110.8464685  52.1040884
  29.0983911 110.6382048  51.4553533  27.5990644 110.6486771  51.6646116
  42.6750119 117.5868736  51.6216217  42.8686009 118.4914546  51.8675492
  42.5750737 117.1276155  52.4554802  34.3286430 107.4726626  54.1206545
  33.6814345 108.1716576  54.0271021  35.0987445 107.9062770  54.4882793
  34.5050564 115.3107391  52.1803364  35.4342624 115.4618551  52.0072332
  34.0841594 115.3991412  51.3252011  37.7903303 116.0595693  37.6127799
  37.1732474 115.3342521  37.5160852  37.3219791 116.8205053  37.2694874
  31.4570656 113.8327248  52.3527001  32.1670274 113.1920440  52.3113619
  31.4139964 114.0840143  53.2753181  30.1699590 110.8192466  54.1722640
  29.6336947 110.3683204  54.8244236  29.5816298 110.9538375  53.4293104
  29.5801849 110.2781117  36.7349104  28.7031315 110.1569918  36.3711350
  30.0559602 109.4867195  36.4827992  25.9038711 109.9548473  51.2575634
  25.8196900 109.3474143  50.5226044  25.0821417 110.4457492  51.2585131
  36.0762425 108.4402037  46.6245830  36.5731124 107.6871999  46.3046900
  35.3049406 108.4766354  46.0589039  43.9292182 114.1442402  48.2664121
  43.9182059 115.0267118  47.8958054  43.0609562 113.7913953  48.0718658
  32.6597394 110.5819420  46.3517514  32.2895181 110.0290460  47.0398420
  33.1556486 109.9777553  45.7992514  40.5464757 113.0391043  44.7334287
  41.0125209 113.8719035  44.6594590  40.9972257 112.5736025  45.4379546
  38.5181420 105.4071630  48.7725188  37.6044500 105.6375857  48.9407395
  38.9474521 105.4910074  49.6239221  38.2887878 113.5961522  51.2725082
  37.6359328 113.8437430  50.6177535  38.6668258 112.7825661  50.9387560
  34.3375451 114.3381333  57.7591120  33.6616088 114.2375463  58.4293495
  35.1603085 114.1820547  58.2227117  28.0562727 107.9923411  52.5970620
  28.1204054 108.8538242  52.1848018  27.9929848 107.3797412  51.8642979
  27.5315000 110.0646543  56.2443654  28.1587039 109.6823621  56.8581179
  26.6742919 109.8460745  56.6099347  24.3080543 111.8722972  42.1762009
  24.6033984 110.9633651  42.1229063  23.4068578 111.8510712  41.8543012
  27.8374790 109.9478969  48.1589558  27.1161375 110.5614937  48.0197031
  28.6268045 110.4836734  48.0806204  30.6401103 107.2833395  54.4330210
  31.1635505 107.5295692  55.1956519  30.4213436 108.1153430  54.0133347
  26.0368384 109.5537070  42.3001334  25.7081090 108.6734449  42.1176440
  26.3907755 109.4984739  43.1877724  29.1510207 109.8410040  42.6676812
  29.4906280 110.3695961  41.9455421  29.5982328 110.1790446  43.4435379
  31.8453648 108.2247091  52.1179880  31.5050469 107.4254904  52.5200560
  31.1392654 108.5248801  51.5456713  32.4970120 105.3096403  50.5707203
  33.3196189 104.8356881  50.4486094  32.7408184 106.0886887  51.0705890
  31.1378355 108.3384661  40.8670105  31.8586717 108.7165914  40.3633822
  30.5143659 109.0573538  40.9705083  35.2809477 109.0429810  41.8028437
  35.4973092 109.9254448  41.5017265  34.8003545 108.6516024  41.0734079
  30.0208699 112.0015524  48.3799182  29.8753279 112.3155827  49.2723463
  29.5433902 112.6200424  47.8270080  31.8805082 108.9918072  48.4280071
  31.8666650 108.0959165  48.0912369  32.5977510 108.9988735  49.0618357
  33.7331212 109.4255412  50.4733199  33.4748990 110.3472482  50.4717529
  33.2016253 109.0285846  51.1633663  31.2841978 107.8732452  43.6967642
  31.4057889 106.9449098  43.8958529  30.9944020 107.8871138  42.7845957
  34.1533168 105.5587362  46.8334361  34.1754865 105.6226695  45.8786341
  34.5701227 104.7191871  47.0274868  44.5316792 115.2942622  44.8713584
  44.9747938 114.5449947  44.4732707  43.6543303 115.2852758  44.4887316
  30.7683057 109.3864449  57.9057574  30.8171213 110.2626572  57.5235344
  31.3105571 108.8441842  57.3329217  41.3735778 116.7798039  54.4991440
  41.4233783 116.6148046  55.4406963  41.2649701 115.9125298  54.1089321
  38.6639540 112.7628967  55.8150746  39.5649403 112.6235432  55.5234744
  38.7387515 112.9283422  56.7548924  32.9982346 110.1395822  54.6603933
  32.1285655 110.4329388  54.3886521  33.2341826 110.7236267  55.3811196
  44.0749657 116.7647860  47.2636032  44.9096548 117.2037664  47.4273592
  44.2108786 116.2886513  46.4444277  41.1241163 114.3227595  53.2113519
  41.5995285 114.5155241  52.4032371  40.2006728 114.3786781  52.9656903
  35.7021379 106.3575439  52.1769353  36.2203323 107.0936465  51.8515842
  35.3476512 106.6639432  53.0116112  27.2820317 111.2180120  40.2930759
  26.5889562 111.2924475  39.6370795  27.0372069 110.4540463  40.8152276
  35.9533974 102.7775721  47.6970250  36.2335727 102.1098910  48.3230676
  36.7384581 102.9704817  47.1844914  39.8242832 111.1993355  51.4441825
  40.7760255 111.2991453  51.4654049  39.6546282 110.4071624  51.9539909
  37.8457211 108.2848938  51.6301226  37.2507144 108.5653951  50.9347714
  37.5606908 108.7742839  52.4017967  42.3030910 114.4199475  50.5584125
  42.2707230 113.4815475  50.7443808  42.9131533 114.4983511  49.8249949
  34.1414241 113.2895528  36.6011329  35.0873345 113.1601736  36.6699747
  33.7628486 112.5510190  37.0780757  42.4525398 111.2110518  50.6042408
  41.9364447 110.4268975  50.4172337  43.3365347 110.8829235  50.7688927
  40.1136125 104.9551534  46.5638220  39.9160946 104.6466622  47.4481552
  40.7235831 105.6813173  46.6936150  48.1207460 115.4815482  49.6990161
  48.8510848 115.2200770  50.2597865  47.5114405 114.7444204  49.7392229
  46.2022757 113.6223344  50.2964613  45.4755920 113.4879309  49.6881104
  45.7870044 113.9300173  51.1021331  32.3257158 111.2145504  36.5366214
  31.4188613 110.9178617  36.6128927  32.6033139 110.9175322  35.6700500
  33.9419223 105.7582394  42.6910455  33.1319952 105.4129479  43.0665701
  34.6303640 105.4489938  43.2798067  35.8709772 104.8360441  44.3134752
  36.4240810 105.2555894  44.9724775  36.1079858 103.9096189  44.3557708
  31.8942871 110.8247514  60.0937516  31.7939598 111.7741871  60.0249607
  31.6764413 110.4965753  59.2213586  31.0955942 108.0732439  36.6778193
  31.9575106 108.3987338  36.9374010  31.2806287 107.2863935  36.1651259
  39.2488579 106.9460966  43.8213416  38.6687248 107.6045770  43.4391468
  38.9824512 106.1238310  43.4100833  37.6992145 106.3466023  46.0234736
  38.1991924 106.4582558  45.2149055  38.3427753 106.0427076  46.6635545
  38.0313457 109.1061056  42.8769764  37.1439312 109.3910707  42.6589959
  38.4467446 108.9454820  42.0297041  41.3827993 109.1307577  46.5924103
  42.1588383 109.6204030  46.8648720  40.6576127 109.5565631  47.0495973
  43.8200552 109.8435196  47.6498044  44.4145042 109.6030932  46.9391352
  43.8927135 109.1242327  48.2771580  38.0054481 114.6215592  43.0920054
  37.9489682 115.0784144  42.2527687  38.5582823 113.8606277  42.9142897
  41.8159287 110.4105324  43.9170174  41.5596221 110.0101960  44.7478382
  41.1912155 111.1249118  43.7920313  46.1271624 113.1501397  46.4241465
  45.5671182 113.2194587  47.1973027  45.5215128 112.9742382  45.7040962
  38.7389260 115.8120373  40.3872584  38.6838064 115.6464645  39.4461028
  38.1135315 116.5196406  40.5434773  23.5281775 111.0488438  54.2134006
  24.1740638 110.5387392  54.7021231  23.3198926 111.7857119  54.7877431
  32.0485385 105.3128482  39.9657902  32.0364055 106.2570322  40.1226173
  32.9408807 105.1298628  39.6717363  35.8637505 101.9071259  44.2203839
  35.0969901 101.3529746  44.3660521  36.2748210 101.9793128  45.0817990
  27.8679266 108.1956055  58.3109020  28.7310727 107.8392860  58.5212345
  27.2944677 107.8569950  58.9984424  47.2885891 119.0475753  51.1723530
  46.9450160 119.9377395  51.0962640  47.6564853 118.8577411  50.3093115
  49.0873556 118.3069313  46.2741267  49.3932433 117.4466676  45.9867183
  49.8126161 118.8986933  46.0740261  46.7927728 118.1067639  47.6970250
  47.0729482 117.4390828  48.3230676  47.5778335 118.2996734  47.1844914
  50.9529880 120.2843451  46.5638220  50.7554701 119.9758540  47.4481552
  51.5629585 121.0105090  46.6936150  46.7031259 117.2363177  44.2203839
  45.9363655 116.6821663  44.3660521  47.1141964 117.3085045  45.0817990
   4.3526028  31.0134324  33.6915224   3.5989736  30.4441722  33.5359228
   4.4873569  30.9796988  34.6385858   0.7174640  32.4542312  33.9881338
   1.5521532  32.8932116  34.1518899   0.8533769  31.9780965  33.1689584
   4.7632443  31.1709933  36.4235468   5.4935831  30.9095222  36.9843171
   4.1539388  30.4338655  36.4637536   2.8447740  29.3117796  37.0209919
   2.1180904  29.1773761  36.4126411   2.4295027  29.6194625  37.8266637
   0.4625535  25.5329648  34.3743351   1.0570026  25.2925384  33.6636659
   0.5352119  24.8136779  35.0016887   2.7696608  28.8395849  33.1486772
   2.2096166  28.9089038  33.9218334   2.1640111  28.6636834  32.4286268
   4.3552626  45.5152363  35.8416728   4.9931036  45.3959110  35.1380068
   4.2373469  46.4633207  35.9004680   1.1642332  45.4679791  35.7778252
   0.8260844  45.3520856  34.8898787   2.0332101  45.0670956  35.7579259
   1.6462115  46.6214643  41.7364458   1.6350756  46.2267441  40.8644962
   1.8082755  45.8880715  42.3298229   2.6028707  50.9886235  27.0789608
   1.9516687  51.5740316  26.6923622   3.3973070  51.5192430  27.1384646
   3.9093895  43.2403817  32.9169936   4.6956984  42.8223240  32.5660353
   4.1732599  44.1449909  33.0851584   4.0803972  48.6776667  27.6158593
   3.4449805  48.7511294  28.3279497   3.7501378  49.2670266  26.9377672
   9.3102322  43.1779050  33.8202914  10.0427494  42.6078267  34.0540744
   8.5541677  42.7900651  34.2609420   0.9278441  45.6006292  31.0166257
   0.5636649  45.0736913  31.7279178   1.7845557  45.2104761  30.8432742
   6.8327742  36.8900624  38.2797523   6.5011067  37.7596035  38.0558738
   6.2373355  36.5736908  38.9591553   3.3259262  49.0913170  37.6793436
   3.0259985  49.9938209  37.5709243   2.9810321  48.8245353  38.5314588
   6.7256405  41.6095710  35.3590873   5.8173283  41.5411119  35.0649634
   6.6744001  42.0867655  36.1872698   8.5918052  39.8112149  37.1368747
   7.9492432  40.1044682  36.4908541   8.0872980  39.6965069  37.9421943
   6.2458215  43.5575322  27.8254606   7.1576072  43.7902709  27.6502304
   5.7367863  44.1412366  27.2629685   4.5298983  47.9799950  41.4615899
   4.9382339  47.5382360  40.7170531   3.8076245  47.4052577  41.7150092
   0.8830053  42.9172557  38.8349456   1.7291248  43.3411970  38.9784105
   0.8228691  42.2606181  39.5288019   4.8527798  48.5401140  35.2168188
   4.2236660  48.7046855  34.5144255   4.4653460  48.9542750  35.9879152
   8.7317030  49.4755578  32.5712551   8.0468068  49.8554480  32.0209585
   8.8160879  50.0850905  33.3044499   4.0329498  40.5776925  40.4930629
   3.7890430  41.3318985  39.9564905   4.3089429  40.9562273  41.3277876
   5.9867961  47.1215537  39.1707895   6.1984857  47.7647297  38.4942276
   5.9397710  46.2877854  38.7029825   3.5894190  39.7333358  36.0744467
   2.7278669  40.0314612  36.3661205   3.6156625  39.9503757  35.1425500
   7.1013789  49.9987493  37.3430252   7.9231233  49.5967680  37.0612934
   7.0976192  49.8955727  38.2946368  15.1919782  46.3426241  33.6915224
  14.4383491  45.7733639  33.5359228  15.3267323  46.3088906  34.6385858
   0.5818410  51.2139643  29.3669943   0.4464085  52.0591179  29.7954791
   1.1228223  51.4158921  28.6035877   2.2086887  51.8363210  43.4970285
   1.7650741  51.0499589  43.1791190   2.8704100  52.0242361  42.8314176
   4.3068125  52.1166010  41.5251686   4.2886600  52.9374891  41.0331956
   5.2288045  51.9920085  41.7501828   3.9310874  34.7370205  37.8968836
   3.5875143  35.6271847  37.8207947   4.2989836  34.5471863  37.0338421
   3.8961157  44.7278816  26.4041272   3.3807780  45.4983421  26.6429659
   3.6238465  44.0543953  27.0274333   1.4808268  39.5728517  31.4626510
   0.6249864  39.1835368  31.2832149   1.8935219  39.6520478  30.6026295
   3.0107414  37.1074861  35.8618070   2.5072210  37.0704996  35.0485875
   3.3038021  38.0167603  35.9214726   8.8695431  47.4811171  28.3394445
   8.0924874  47.1422331  27.8949607   9.5486912  47.4863794  27.6649410
   3.6847460  42.6005909  28.2301053   3.3797595  42.9152058  29.0811196
   4.6377902  42.6787328  28.2728386   2.1293892  48.7596132  29.8794007
   1.6015253  48.0248891  29.5667244   1.6281394  49.5370808  29.6333975
   7.1086738  46.9545152  34.9961053   6.4510412  47.6444414  35.0841182
   7.9127137  47.3441584  35.3395039   5.9192196  45.3089525  33.0464995
   6.4324078  45.9419517  33.5486705   6.5693420  44.7090721  32.6808355
   3.1814571  55.2873849  25.8025666   2.5076269  55.5905546  26.4110624
   3.5680393  56.0902930  25.4531123   2.3973027  42.7838981  35.2923335
   1.4795589  43.0053928  35.1345023   2.8133171  42.8585291  34.4335043
   3.1808075  44.1830396  30.4226016   3.9279894  44.6951794  30.1133138
   3.4499665  43.8614449  31.2830409   1.4534725  46.6788937  27.4052970
   0.5445945  46.3947970  27.5025440   1.4829809  47.0988016  26.5456277
   6.6853993  50.2895527  31.1744137   6.2316320  49.4486436  31.2309328
   6.0547959  50.9256925  31.5118918   5.6286912  41.2187513  32.4044805
   4.8909669  40.7064899  32.7355047   5.8813686  40.7787894  31.5928082
   5.1286932  52.1272023  32.1093956   5.4209906  52.6877080  31.3906321
   5.6385552  52.4200584  32.8647115   5.7298540  33.9963765  32.9986574
   6.0357416  33.1361128  32.7112489   6.4551144  34.5881385  32.7985568
   1.1510813  48.2197681  24.7441048   0.7130243  47.5033540  24.2846686
   1.8921254  48.4473796  24.1826140   3.5386191  43.3736442  40.0968038
   3.8935579  43.6007915  40.9562504   4.1858322  43.7054819  39.4745293
   9.2683928  46.4954878  30.8017367   9.1301826  46.6856474  29.8738556
   8.9120147  47.2574261  31.2585418   9.2953307  48.5631405  35.8128638
   9.7289814  48.4706694  36.6611693  10.0084888  48.5388905  35.1748654
   3.0281202  52.1633499  37.3461739   3.0818225  52.7324435  38.1139455
   2.1595984  52.3335384  36.9815776  10.1568857  48.6055105  38.3461524
  10.3504747  49.5100916  38.5920799  10.0569475  48.1462524  39.1800109
   1.8105168  38.4912996  40.8451851   1.1633083  39.1902946  40.7516328
   2.5806183  38.9249140  41.2128099   5.2183966  48.7561848  43.9202405
   5.0669472  48.5272400  43.0032488   5.2088645  49.7132450  43.9333750
   1.9869302  46.3293761  38.9048671   2.9161362  46.4804920  38.7317638
   1.5660332  46.4177782  38.0497317   1.3805786  55.4553522  28.0172745
   1.5557542  54.9841565  28.8318368   0.6938574  56.0819288  28.2454006
   2.3362849  49.7326028  34.0636046   2.0012682  49.6926798  34.9593696
   1.8366795  49.0670744  33.5906457   5.2722041  47.0782062  24.3373106
   4.6551211  46.3528891  24.2406159   4.8038529  47.8391423  23.9940180
   6.9276172  51.7880971  41.9978886   6.8688718  51.1040191  41.3309469
   7.3295691  52.5299961  41.5459512   6.9293580  49.7520555  40.2292866
   6.0420358  49.4146476  40.3519265   7.4992131  49.0203586  40.4661631
   3.5581163  39.4588406  33.3491136   4.0549862  38.7058369  33.0292206
   2.7868144  39.4952723  32.7834346  11.4110920  45.1628772  34.9909428
  11.4000796  46.0453487  34.6203361  10.5428300  44.8100323  34.7963965
   2.9193417  54.3108841  39.3512268   3.6321389  54.9456306  39.2788169
   2.4283445  54.4072707  38.5352270   4.6410943  48.2160094  30.9229560
   3.7067222  48.3361556  30.7534264   4.8187612  47.3132560  30.6589569
   8.0283495  44.0577413  31.4579594   8.4943947  44.8905405  31.3839896
   8.4790995  43.5922395  32.1624852   6.0959726  50.4021234  28.4565746
   6.3719570  50.2877829  29.3659620   5.2264225  50.0038719  28.4177919
   6.0000158  36.4258000  35.4970495   5.0863237  36.6562227  35.6652702
   6.4293259  36.5096444  36.3484527   5.7706616  44.6147892  37.9970389
   5.1178066  44.8623799  37.3422842   6.1486996  43.8012030  37.6632866
   2.7313790  54.6507585  32.0998559   2.9136184  53.8329241  32.5626312
   3.5546776  54.8675277  31.6623449   3.0655955  53.5775770  29.3613608
   3.5943722  53.0668225  28.7483770   3.3284175  53.2618300  30.2259141
   1.8194189  45.3567703  44.4836426   1.1434826  45.2561832  45.1538801
   2.6421823  45.2006917  44.9472423   0.5616972  56.6634630  38.7194042
   1.1135280  56.8266252  39.4843127   0.9023165  57.2539068  38.0474067
   5.4127846  51.4895888  44.5742697   5.9567750  52.1025846  44.0797651
   4.8314691  52.0475466  45.0909710   3.6985359  54.6116606  35.7057724
   3.5736499  53.8106346  35.1968670   4.3564450  55.1062799  35.2171694
   5.7620268  52.4125626  37.3337274   4.8150603  52.2930977  37.2615601
   6.1103041  51.5248124  37.4163536   2.7666701  52.2078342  33.5341627
   2.6191663  51.2795050  33.7149197   3.5920194  52.2298433  33.0498702
   6.3700823  53.0306901  34.6206499   7.2947370  52.8249762  34.4830951
   6.2016126  52.7823302  35.5295841   2.7628215  40.0616180  28.5273744
   2.9791830  40.9440818  28.2262572   2.2822282  39.6702393  27.7979386
   1.2149950  40.4441781  37.1978505   0.9567728  41.3658852  37.1962836
   0.6834991  40.0472216  37.8878970   6.1596139  53.5492568  29.9768591
   6.3333016  52.9838991  29.2242443   6.6525030  54.3493463  29.7948081
   1.6351906  36.5773732  33.5579668   1.6573603  36.6413065  32.6031648
   2.0519965  35.7378240  33.7520174  12.0135530  46.3128991  31.5958891
  12.4566676  45.5636317  31.1978014  11.1362040  46.3039128  31.2132623
   7.1471311  52.8659333  27.0765489   7.8422216  53.4866026  27.2952804
   7.4894462  52.0154684  27.3517867   9.0462735  50.3159038  28.6052820
   9.5714059  50.6546311  27.8802140   8.9585087  49.3806054  28.4215955
   0.7082783  54.2293112  40.7342697   1.0169910  53.9842259  41.6065396
   1.5058265  54.4339750  40.2461567   8.7356641  50.9491942  43.9104018
   7.9452184  50.9316081  43.3708517   8.4989995  51.4880236  44.6653054
   8.8554516  47.7984408  41.2236746   8.9052521  47.6334416  42.1652269
   8.7468439  46.9311667  40.8334627   6.1458278  43.7815336  42.5396053
   7.0468141  43.6421801  42.2480051   6.2206253  43.9469791  43.4794231
  10.3572712  50.2181350  41.4678768  10.0657521  50.5811330  42.3042229
   9.7444844  49.5048358  41.2892100  11.5568395  47.7834230  33.9881338
  12.3915286  48.2224034  34.1518899  11.6927524  47.3072883  33.1689584
   8.6059901  45.3413965  39.9358826   9.0814022  45.5341611  39.1277677
   7.6825466  45.3973150  39.6902210   3.1840117  37.3761808  38.9014660
   3.7022061  38.1122835  38.5761148   2.8295250  37.6825801  39.7361419
   3.4352711  33.7962091  34.4215556   3.7154465  33.1285280  35.0475983
   4.2203318  33.9891186  33.9090220   1.2386180  52.9721085  25.9840583
   0.6660147  53.5911272  25.5311055   1.8118974  53.5220446  26.5180505
   7.3061570  42.2179725  38.1687132   8.2578993  42.3177822  38.1899356
   7.1365020  41.4257993  38.6785216   5.3275949  39.3035308  38.3546532
   4.7325881  39.5840321  37.6593021   5.0425646  39.7929209  39.1263274
   4.4583440  53.2558235  27.1149165   5.3914113  53.1903796  27.3182041
   4.3706652  54.0914502  26.6563698   7.0871456  52.5724105  24.0753113
   7.0085088  52.2383969  24.9688870   7.9081123  53.0645873  24.0744585
   9.7849647  45.4385844  37.2829431   9.7525968  44.5001845  37.4689115
  10.3950271  45.5169881  36.5495256   1.6232978  44.3081897  23.3256635
   2.5692083  44.1788105  23.3945053   1.2447223  43.5696559  23.8026063
   9.9344136  42.2296888  37.3287714   9.4183185  41.4455344  37.1417643
  10.8184085  41.9015604  37.4934234   7.5954863  35.9737903  33.2883527
   7.3979684  35.6652991  34.1726859   8.2054568  36.6999542  33.4181457
  15.6026197  46.5001851  36.4235468  16.3329586  46.2387139  36.9843171
  14.9933143  45.7630573  36.4637536  13.6841494  44.6409714  37.0209919
  12.9574658  44.5065679  36.4126411  13.2688781  44.9486542  37.8266637
   1.5071671  48.3599643  44.7857292   2.4274680  48.5378242  44.9797339
   1.4721254  47.4155689  44.6336991   1.4237961  36.7768763  29.4155762
   0.6138690  36.4315848  29.7911008   2.1122378  36.4676307  30.0043373
   3.3528510  35.8546810  31.0380058   3.9059548  36.2742264  31.6970081
   3.5898596  34.9282558  31.0803014   6.7307317  37.9647335  30.5458723
   6.1505986  38.6232139  30.1636775   6.4643249  37.1424680  30.1346140
   5.1810883  37.3652393  32.7480043   5.6810661  37.4768928  31.9394362
   5.8246491  37.0613446  33.3880851   5.5132195  40.1247426  29.6015071
   4.6258050  40.4097076  29.3835266   5.9286184  39.9641189  28.7542348
   8.8646731  40.1493947  33.3169410   9.6407121  40.6390399  33.5894027
   8.1394865  40.5752001  33.7741280  11.3019289  40.8621566  34.3743351
  11.8963780  40.6217302  33.6636659  11.3745873  40.1428697  35.0016887
   4.6575408  49.8892100  23.6963091   5.3611258  50.0942103  24.3120746
   3.9338057  50.4568862  23.9612174   5.4873218  45.6401962  29.8165361
   5.4308420  46.0970513  28.9772993   6.0401561  44.8792646  29.6388204
   9.2978024  41.4291694  30.6415481   9.0414959  41.0288329  31.4723688
   8.6730892  42.1435487  30.5165620  13.6090362  44.1687767  33.1486772
  13.0489920  44.2380956  33.9218334  13.0033866  43.9928751  32.4286268
   6.5662106  50.3274630  25.7461551   7.4007709  49.8955828  25.5639026
   6.4046448  50.1556643  26.6738445   6.2207998  46.8306743  27.1117890
   6.1656801  46.6651014  26.1706334   5.5954053  47.5382776  27.2680080
   3.5353905  49.1355655  46.4371453   4.4045064  49.3096307  46.0758088
   3.0560656  49.9550072  46.3147182   3.3456243  32.9257629  30.9449145
   2.5788638  32.3716115  31.0905828   3.7566948  32.9979497  31.8063297
  15.1946381  60.8444281  35.8416728  15.8324791  60.7251028  35.1380068
  15.0767223  61.7925125  35.9004680  12.0036087  60.7971709  35.7778252
  11.6654598  60.6812774  34.8898787  12.8725855  60.3962874  35.7579259
   7.8622903  62.6507185  31.7675143   7.2987768  62.5597122  30.9991431
   7.7475298  61.8307090  32.2477636  12.4855870  61.9506561  41.7364458
  12.4744511  61.5559359  40.8644962  12.6476509  61.2172633  42.3298229
   5.4087335  64.1458377  34.6059364   6.2008626  63.8049201  34.1905663
   5.6483985  64.2553352  35.5261517  13.4422461  66.3178153  27.0789608
  12.7910441  66.9032233  26.6923622  14.2366824  66.8484348  27.1384646
   7.3678088  63.4067290  27.4776743   8.1408964  62.8596277  27.3389618
   7.7203487  64.2711539  27.6891204   9.2063131  64.7343672  40.6843642
   8.9152997  65.6389303  40.5690308   9.8420115  64.7760200  41.3987711
  10.1319338  62.1120521  37.2745002  10.7282910  61.8876543  36.5601964
  10.1894309  61.3705266  37.8770449   9.7044366  59.5659956  25.1095192
   9.9569887  59.0441477  24.3478655   8.7668925  59.4026102  25.2121876
  14.7487649  58.5695735  32.9169936  15.5350738  58.1515158  32.5660353
  15.0126353  59.4741827  33.0851584  14.9197726  64.0068585  27.6158593
  14.2843559  64.0803211  28.3279497  14.5895133  64.5962184  26.9377672
  20.1496076  58.5070968  33.8202914  20.8821248  57.9370185  34.0540744
  19.3935432  58.1192568  34.2609420   9.4240655  61.4688062  27.3119567
   9.3076913  60.7932966  27.9800652   9.5342915  60.9820436  26.4951720
  11.7672196  60.9298209  31.0166257  11.4030403  60.4028830  31.7279178
  12.6239312  60.5396678  30.8432742  17.6721497  52.2192542  38.2797523
  17.3404821  53.0887953  38.0558738  17.0767110  51.9028826  38.9591553
  11.4077683  55.9588109  26.0127605  11.5752085  56.8268345  26.3798076
  11.2174852  56.1215391  25.0888894  14.1653016  64.4205088  37.6793436
  13.8653739  65.3230127  37.5709243  13.8204076  64.1537271  38.5314588
   7.6165498  60.8718885  33.7130140   6.6915994  60.7395099  33.9207832
   7.8649911  61.6513104  34.2100082  17.5650160  56.9387628  35.3590873
  16.6567037  56.8703036  35.0649634  17.5137756  57.4159573  36.1872698
  11.3866904  58.4145766  26.9974272  11.2666529  58.8602817  27.8359752
  10.6919492  58.7631084  26.4387810   4.9774309  60.5152158  34.5473929
   5.1066690  60.7686637  35.4613341   4.2971760  61.1079866  34.2278584
   9.1473796  71.1849408  30.6464403   9.0697826  72.1357233  30.7252884
   8.5435439  70.8395281  31.3039330  11.6391026  58.3577274  43.3025770
  10.8624360  58.9171194  43.2928635  12.2781589  58.8434057  43.8240640
  19.4311806  55.1404066  37.1368747  18.7886187  55.4336600  36.4908541
  18.9266735  55.0256987  37.9421943  17.0851970  58.8867240  27.8254606
  17.9969826  59.1194626  27.6502304  16.5761617  59.4704284  27.2629685
   9.8937398  61.1662727  42.8643737  10.6352082  61.7047771  42.5878561
   9.1874383  61.7929016  43.0215289  15.3692738  63.3091867  41.4615899
  15.7776094  62.8674278  40.7170531  14.6469999  62.7344495  41.7150092
  11.7223808  58.2464474  38.8349456  12.5685003  58.6703888  38.9784105
  11.6622445  57.5898099  39.5288019  15.6921552  63.8693058  35.2168188
  15.0630415  64.0338772  34.5144255  15.3047214  64.2834668  35.9879152
  19.5710784  64.8047496  32.5712551  18.8861822  65.1846397  32.0209585
  19.6554633  65.4142823  33.3044499  14.8723253  55.9068843  40.4930629
  14.6284185  56.6610903  39.9564905  15.1483183  56.2854190  41.3277876
  16.8261716  62.4507455  39.1707895  17.0378611  63.0939215  38.4942276
  16.7791464  61.6169772  38.7029825  14.4287945  55.0625276  36.0744467
  13.5672424  55.3606529  36.3661205  14.4550379  55.2795675  35.1425500
  11.2449514  63.6067466  32.4818273  11.7087860  63.8855169  31.6922895
  10.9806312  62.7050911  32.2991363   8.1373595  63.1538948  35.4198036
   8.7074952  63.5826216  34.7815520   8.7281707  62.8721532  36.1182222
  10.1818400  59.7290619  29.2907838  10.8842444  60.1811662  29.7581764
   9.8499029  59.0874437  29.9187731   8.6298762  58.3202375  43.6659047
   7.9997422  59.0018656  43.8994444   8.5234850  58.2085457  42.7212185
   3.9243734  57.9874171  34.5924971   3.1342788  58.2431700  34.1165082
   4.4154982  58.8022509  34.6977012  17.9407544  65.3279410  37.3430252
  18.7624987  64.9259598  37.0612934  17.9369947  65.2247645  38.2946368
   5.8758480  58.3518750  31.5508448   5.0789643  58.4637445  32.0691944
   5.6484072  58.6905403  30.6849339  11.7064147  64.8763454  39.4990963
  11.7708580  65.3383861  40.3349135  10.9975071  64.2460819  39.6273273
   2.2081437  58.2404662  37.0239962   2.4589476  59.1251672  37.2897538
   2.7440986  58.0609263  36.2515054  26.0313537  61.6718159  33.6915224
  25.2777245  61.1025557  33.5359228  26.1661078  61.6380823  34.6385858
  11.4212165  66.5431561  29.3669943  11.2857840  67.3883097  29.7954791
  11.9621977  66.7450839  28.6035877   7.9079504  52.6223141  46.0284298
   7.5146450  52.0689340  46.7031942   8.7245645  52.9333719  46.4190816
   4.8741562  64.0606999  29.9397868   5.3866083  64.8550249  30.0903433
   5.5264275  63.3633290  29.8731470   6.6836447  67.1772755  32.0220621
   6.8603075  68.0990720  31.8341605   7.4793280  66.8631175  32.4515001
  10.8247465  54.0381020  43.6204555  11.5657179  54.6388173  43.5409017
  11.0565388  53.2958658  43.0622597   5.9688803  59.2237387  41.8982784
   5.8542319  58.3222645  42.1989883   5.1133321  59.4701084  41.5467601
  13.0480641  67.1655128  43.4970285  12.6044495  66.3791506  43.1791190
  13.7097855  67.3534278  42.8314176   7.8067762  68.6950929  38.0230964
   8.3575187  68.5667993  37.2507958   6.9679238  68.9945818  37.6725856
  15.1461879  67.4457928  41.5251686  15.1280355  68.2666809  41.0331956
  16.0681799  67.3212003  41.7501828  11.6034933  64.9602057  42.3675195
  12.1363270  64.1990345  42.1374503  11.0749015  64.6675709  43.1099349
  14.7704628  50.0662123  37.8968836  14.4268898  50.9563765  37.8207947
  15.1383591  49.8763781  37.0338421   2.8390479  62.3895654  30.7157439
   3.6765701  62.7992662  30.4991146   3.0168747  61.4495096  30.6857632
  14.7354911  60.0570734  26.4041272  14.2201535  60.8275339  26.6429659
  14.4632220  59.3835870  27.0274333  12.3202022  54.9020435  31.4626510
  11.4643618  54.5127285  31.2832149  12.7328974  54.9812396  30.6026295
  13.8501169  52.4366778  35.8618070  13.3465964  52.3996913  35.0485875
  14.1431776  53.3459521  35.9214726  10.0944055  52.5205508  34.8684251
  10.9597051  52.3248317  34.5090141  10.1621564  52.2915860  35.7953608
  19.7089185  62.8103089  28.3394445  18.9318628  62.4714248  27.8949607
  20.3880666  62.8155712  27.6649410  14.5241214  57.9297826  28.2301053
  14.2191350  58.2443975  29.0811196  15.4771656  58.0079246  28.2728386
  12.9687646  64.0888050  29.8794007  12.4409008  63.3540809  29.5667244
  12.4675149  64.8662726  29.6333975  17.9480492  62.2837070  34.9961053
  17.2904167  62.9736331  35.0841182  18.7520891  62.6733502  35.3395039
   7.7006374  54.7507716  32.2400618   8.2750126  54.5282897  31.5073811
   8.2877356  54.8196410  32.9929220  16.7585951  60.6381443  33.0464995
  17.2717833  61.2711435  33.5486705  17.4087175  60.0382638  32.6808355
   8.0275961  56.7812177  26.2596504   7.1913273  57.1186863  26.5805778
   7.8880730  56.6461157  25.3223640  10.0029041  51.6248965  30.9675688
   9.3493454  51.3097982  30.3432302   9.9609516  51.0024705  31.6935511
  11.1140246  61.9068260  22.8828980  10.2067308  61.6757513  23.0820129
  11.6111278  61.1105879  23.0702961  14.0208325  70.6165767  25.8025666
  13.3470024  70.9197464  26.4110624  14.4074147  71.4194847  25.4531123
  13.2366782  58.1130898  35.2923335  12.3189343  58.3345845  35.1345023
  13.6526925  58.1877209  34.4335043  14.0201830  59.5122314  30.4226016
  14.7673649  60.0243711  30.1133138  14.2893419  59.1906367  31.2830409
  12.2928480  62.0080855  27.4052970  11.3839699  61.7239888  27.5025440
  12.3223564  62.4279933  26.5456277  17.5247747  65.6187444  31.1744137
  17.0710074  64.7778354  31.2309328  16.8941714  66.2548843  31.5118918
  16.4680667  56.5479430  32.4044805  15.7303424  56.0356816  32.7355047
  16.7207440  56.1079812  31.5928082  15.9680686  67.4563941  32.1093956
  16.2603661  68.0168998  31.3906321  16.4779307  67.7492502  32.8647115
  16.5692294  49.3255682  32.9986574  16.8751171  48.4653046  32.7112489
  17.2944899  49.9173302  32.7985568   2.8616650  59.7286369  31.3868172
   2.6641050  59.1355730  30.6619239   2.3063314  59.4238579  32.1044111
  10.8413374  59.6209475  33.5062765  10.8961984  58.6683312  33.4305242
  10.0304576  59.7768914  33.9904064  11.9904568  63.5489598  24.7441048
  11.5523997  62.8325457  24.2846686  12.7315008  63.7765713  24.1826140
   8.7805734  58.2386535  31.2653144   7.9673599  58.5380706  31.6718336
   9.2764728  57.8442224  31.9827626  10.9314312  68.2344292  33.1987409
  10.8890490  68.4605138  32.2695941  11.8477010  68.0007667  33.3473210
  14.3779945  58.7028360  40.0968038  14.7329333  58.9299833  40.9562504
  15.0252077  59.0346736  39.4745293  20.1077682  61.8246795  30.8017367
  19.9695581  62.0148391  29.8738556  19.7513901  62.5866178  31.2585418
   8.2719808  55.8104891  36.8814379   8.9119188  55.6693650  36.1837342
   7.4397339  55.5239404  36.5052981  20.1347062  63.8923322  35.8128638
  20.5683569  63.7998612  36.6611693  20.8478643  63.8680823  35.1748654
   9.0480112  65.1107321  32.9949371   9.8420711  64.6157641  32.7931946
   8.3371805  64.5825184  32.6317077  13.8674957  67.4925417  37.3461739
  13.9211979  68.0616353  38.1139455  12.9989738  67.6627302  36.9815776
   5.3562876  59.2550403  29.0709124   4.4260464  59.1934858  29.2879086
   5.4520348  58.7326355  28.2745765   5.2748425  55.7805216  31.6587366
   5.5355242  56.6950549  31.5496526   6.0965597  55.3129658  31.8083979
   6.7473350  57.1942973  38.8286190   7.4196404  56.9860335  38.1798839
   5.9203137  56.9965059  38.3891423  20.9962611  63.9347023  38.3461524
  21.1898502  64.8392834  38.5920799  20.8963230  63.4754442  39.1800109
  12.6498922  53.8204914  40.8451851  12.0026837  54.5194863  40.7516328
  13.4199938  54.2541058  41.2128099  16.0577720  64.0853766  43.9202405
  15.9063227  63.8564318  43.0032488  16.0482400  65.0424367  43.9333750
  12.8263057  61.6585679  38.9048671  13.7555117  61.8096838  38.7317638
  12.4054087  61.7469699  38.0497317  11.6251388  65.6836343  36.6747209
  11.4862474  65.3155127  37.5473147  10.8365985  66.1983982  36.5031166
  12.2199540  70.7845439  28.0172745  12.3951296  70.3133483  28.8318368
  11.5332328  71.4111206  28.2454006  13.1756604  65.0617946  34.0636046
  12.8406436  65.0218716  34.9593696  12.6760549  64.3962662  33.5906457
   7.1500847  60.4685576  39.5888628   7.0120645  59.7365815  40.1900167
   8.0605771  60.3794476  39.3072815  16.1115795  62.4073980  24.3373106
  15.4944966  61.6820808  24.2406159  15.6432284  63.1683340  23.9940180
   9.7783148  60.1805535  39.0772307  10.4882767  59.5398727  39.0358926
   9.7352456  60.4318430  39.9998488  17.7669927  67.1172888  41.9978886
  17.7082473  66.4332109  41.3309469  18.1689445  67.8591878  41.5459512
   8.4912082  57.1670753  40.8967947   7.9549439  56.7161491  41.5489543
   7.9028791  57.3016662  40.1538411   6.7860626  73.9334802  34.7912605
   7.0257224  74.5653326  35.4691624   5.9429822  73.5822842  35.0777965
   7.9014341  56.6259404  23.4594410   7.0243807  56.5048205  23.0956657
   8.3772094  55.8345483  23.2073299  17.7687334  65.0812472  40.2292866
  16.8814113  64.7438394  40.3519265  18.3385885  64.3495504  40.4661631
   4.2251203  56.3026761  37.9820941   4.1409392  55.6952430  37.2471351
   3.4033910  56.7935779  37.9830437  11.2988487  69.7413925  37.1954109
  11.2258659  70.5468896  37.7073414  10.8565881  69.9405890  36.3702131
  11.0878267  68.9785695  30.7056931  10.3045789  69.5207375  30.7995155
  11.7871012  69.4959674  31.1051172  14.3974917  54.7880324  33.3491136
  14.8943617  54.0350286  33.0292206  13.6261899  54.8244641  32.7834346
  22.2504675  60.4920690  34.9909428  22.2394551  61.3745405  34.6203361
  21.3822054  60.1392241  34.7963965  13.7587171  69.6400759  39.3512268
  14.4715143  70.2748224  39.2788169  13.2677200  69.7364625  38.5352270
  15.4804698  63.5452011  30.9229560  14.5460977  63.6653474  30.7534264
  15.6581366  62.6424478  30.6589569  10.9809886  56.9297707  33.0762821
  10.6107673  56.3768748  33.7643726  11.4768978  56.3255841  32.5237821
  18.8677249  59.3869331  31.4579594  19.3337701  60.2197322  31.3839896
  19.3184750  58.9214312  32.1624852   8.8099085  67.3895202  40.1717839
   9.5108544  68.0231685  40.3247233   8.3394200  67.7309934  39.4113478
  16.9353480  65.7313152  28.4565746  17.2113324  65.6169747  29.3659620
  16.0657979  65.3330637  28.4177919  16.8393912  51.7549918  35.4970495
  15.9256992  51.9854144  35.6652702  17.2687013  51.8388362  36.3484527
  16.6100370  59.9439810  37.9970389  15.9571821  60.1915717  37.3422842
  16.9880750  59.1303948  37.6632866  13.5707544  69.9799503  32.0998559
  13.7529939  69.1621159  32.5626312  14.3940530  70.1967195  31.6623449
  13.9049710  68.9067688  29.3613608  14.4337476  68.3960142  28.7483770
  14.1677929  68.5910218  30.2259141  12.6587944  60.6859621  44.4836426
  11.9828581  60.5853750  45.1538801  13.4815577  60.5298834  44.9472423
   4.4066803  66.9231557  37.1048941   4.9920239  66.1775245  37.2376846
   4.2091641  67.2335514  37.9885605   7.2605458  69.9582805  32.1211384
   6.5915833  70.4428932  31.6375424   7.1218328  70.2052025  33.0354762
  11.4010726  71.9926548  38.7194042  11.9529034  72.1558170  39.4843127
  11.7416920  72.5830986  38.0474067   6.3775220  54.3401698  39.3215927
   6.4416546  55.2016529  38.9093325   6.3142340  53.7275700  38.5888285
   5.8527492  56.4124830  42.9688961   6.4799531  56.0301908  43.5826485
   4.9955411  56.1939032  43.3344654  16.2521601  66.8187806  44.5742697
  16.7961505  67.4317764  44.0797651  15.6708446  67.3767384  45.0909710
   2.6293035  58.2201260  28.9007316   2.9246476  57.3111938  28.8474370
   1.7281071  58.1988999  28.5788318  14.5379114  69.9408524  35.7057724
  14.4130253  69.1398263  35.1968670  15.1958205  70.4354717  35.2171694
   6.1587282  56.2957256  34.8834865   5.4373868  56.9093224  34.7442338
   6.9480538  56.8315021  34.8051510  16.6014022  67.7417544  37.3337274
  15.6544358  67.6222895  37.2615601  16.9496795  66.8540042  37.4163536
   8.9613595  53.6311683  41.1575516   9.4847997  53.8773979  41.9201826
   8.7425929  54.4631717  40.7378654   4.3580876  55.9015357  29.0246641
   4.0293583  55.0212736  28.8421747   4.7120247  55.8463026  29.9123030
  13.6060455  67.5370260  33.5341627  13.4585418  66.6086967  33.7149197
  14.4313949  67.5590351  33.0498702   7.4722700  56.1888327  29.3922119
   7.8118772  56.7174248  28.6700727   7.9194820  56.5268733  30.1680685
  17.2094577  68.3598819  34.6206499  18.1341125  68.1541680  34.4830951
  17.0409881  68.1115220  35.5295841  10.1666140  54.5725378  38.8425187
   9.8262961  53.7733191  39.2445867   9.4605147  54.8727089  38.2702020
  10.8182612  51.6574690  37.2952510  11.6408682  51.1835168  37.1731400
  11.0620676  52.4365174  37.7951196   9.4590847  54.6862949  27.5915412
  10.1799209  55.0644201  27.0879128   8.8356151  55.4051825  27.6950389
  13.6021970  55.3908098  28.5273744  13.8185584  56.2732735  28.2262572
  13.1216037  54.9994311  27.7979386   8.3421191  58.3493811  35.1044488
   8.1965772  58.6634114  35.9968770   7.8646395  58.9678711  34.5515387
  10.2017574  55.3396359  35.1525378  10.1879143  54.4437452  34.8157676
  10.9190002  55.3467023  35.7863664  12.0543705  55.7733699  37.1978505
  11.7961482  56.6950770  37.1962836  11.5228745  55.3764134  37.8878970
  16.9989893  68.8784486  29.9768591  17.1726771  68.3130909  29.2242443
  17.4918785  69.6785381  29.7948081   2.8166853  60.8899155  38.0432150
   2.2720321  61.6658963  38.1752424   3.6946203  61.2369960  37.8851271
   9.6054470  54.2210739  30.4212948   9.7270381  53.2927385  30.6203836
   9.3156512  54.2349425  29.5091264  12.4745660  51.9065650  33.5579668
  12.4967357  51.9704983  32.6031648  12.8913719  51.0670158  33.7520174
  22.8529285  61.6420909  31.5958891  23.2960431  60.8928234  31.1978014
  21.9755795  61.6331045  31.2132623  17.9865066  68.1951251  27.0765489
  18.6815971  68.8157943  27.2952804  18.3288216  67.3446602  27.3517867
   3.6032875  60.0169051  40.9362307   2.8614611  60.1651687  41.5226937
   3.2825619  60.2777317  40.0729056  19.8856489  65.6450956  28.6052820
  20.4107813  65.9838229  27.8802140  19.7978842  64.7097971  28.4215955
  11.5476538  69.5585030  40.7342697  11.8563664  69.3134176  41.6065396
  12.3452020  69.7631668  40.2461567  11.5697150  71.7122939  32.9648073
  11.1302140  71.2199318  33.6580930  12.3205267  71.1695907  32.7240148
   4.0489489  67.9034480  32.9672701   4.8747509  67.6038252  32.5871345
   3.6983541  67.1342103  33.4162490   9.0171022  67.2560948  35.0370375
   8.3951031  66.5931653  34.7372603   9.6875889  67.2822080  34.3544023
   2.2498094  65.8220807  33.9261635   1.4130002  65.3942981  33.7445636
   2.2221739  66.0153250  34.8632426   9.0895549  55.7342736  44.6302881
   9.1383705  56.6104859  44.2480650   9.6318064  55.1920129  44.0574524
  19.5750395  66.2783860  43.9104018  18.7845939  66.2607999  43.3708517
  19.3383750  66.8172153  44.6653054  19.6948270  63.1276326  41.2236746
  19.7446275  62.9626334  42.1652269  19.5862193  62.2603585  40.8334627
   8.5784529  65.8064872  28.5128835   8.7272649  66.4900336  27.8595508
   9.3850972  65.7869962  29.0278291  16.9852033  59.1107254  42.5396053
  17.8861895  58.9713719  42.2480051  17.0600007  59.2761709  43.4794231
  11.3194838  56.4874109  41.3849239  10.4498147  56.7807675  41.1131828
  11.5554318  57.0714554  42.1056503  21.1966467  65.5473268  41.4678768
  20.9051275  65.9103248  42.3042229  20.5838598  64.8340276  41.2892100
  22.3962149  63.1126147  33.9881338  23.2309041  63.5515951  34.1518899
  22.5321278  62.6364801  33.1689584  19.4453655  60.6705882  39.9358826
  19.9207777  60.8633529  39.1277677  18.5219221  60.7265068  39.6902210
   6.3337162  61.8330049  29.5189904   6.0883204  60.9292379  29.7170114
   6.5033076  61.8347200  28.5769382  14.0233872  52.7053726  38.9014660
  14.5415816  53.4414753  38.5761148  13.6689004  53.0117719  39.7361419
   5.6032809  57.5658407  27.0176066   4.9102054  57.6402762  26.3616102
   5.3584561  56.8018751  27.5397583  14.2746466  49.1254008  34.4215556
  14.5548220  48.4577197  35.0475983  15.0597073  49.3183104  33.9090220
  12.0779934  68.3013002  25.9840583  11.5053901  68.9203189  25.5311055
  12.6512728  68.8512364  26.5180505  18.1455324  57.5471642  38.1687132
  19.0972747  57.6469740  38.1899356  17.9758775  56.7549911  38.6785216
  16.1669704  54.6327226  38.3546532  15.5719636  54.9132238  37.6593021
  15.8819400  55.1221126  39.1263274  15.2977194  68.5850152  27.1149165
  16.2307867  68.5195714  27.3182041  15.2100407  69.4206419  26.6563698
  17.9265211  67.9016023  24.0753113  17.8478842  67.5675886  24.9688870
  18.7474878  68.3937791  24.0744585  20.6243402  60.7677762  37.2829431
  20.5919722  59.8293763  37.4689115  21.2344026  60.8461799  36.5495256
  12.4626733  59.6373815  23.3256635  13.4085838  59.5080023  23.3945053
  12.0840978  58.8988477  23.8026063  20.7737890  57.5588805  37.3287714
  20.2576939  56.7747262  37.1417643  21.6577839  57.2307522  37.4934234
  18.4348617  51.3029821  33.2883527  18.2373439  50.9944909  34.1726859
  19.0448323  52.0291460  33.4181457  26.4419952  61.8293769  36.4235468
  27.1723340  61.5679057  36.9843171  25.8326897  61.0922491  36.4637536
  24.5235249  59.9701631  37.0209919  23.7968413  59.8357596  36.4126411
  24.1082536  60.2778460  37.8266637  12.3465425  63.6891561  44.7857292
  13.2668435  63.8670160  44.9797339  12.3115008  62.7447606  44.6336991
  10.6469650  57.5623791  23.2611520   9.7401105  57.2656904  23.3374234
  10.9245631  57.2653609  22.3945807   1.5647590  58.8830155  33.7110567
   1.2450375  58.0295463  33.4184941   1.0181019  59.0978733  34.4668534
   5.3427498  61.5992596  37.4280073   5.5613508  62.5309704  37.4468107
   5.7553272  61.2400570  38.2134877  12.2631716  52.1060681  29.4155762
  11.4532444  51.7607766  29.7911008  12.9516133  51.7968225  30.0043373
  14.1922264  51.1838728  31.0380058  14.7453303  51.6034181  31.6970081
  14.4292350  50.2574476  31.0803014  10.2155363  57.1725802  46.8182822
  10.1152090  58.1220158  46.7494913   9.9976905  56.8444040  45.9458892
   9.4168435  54.4210727  23.4023500  10.2787599  54.7465625  23.6619317
   9.6018779  53.6342222  22.8896565   1.4335850  62.5033066  35.6803688
   0.7399322  62.0887019  35.1673643   2.1808841  62.5453603  35.0837107
  17.5701071  53.2939253  30.5458723  16.9899740  53.9524057  30.1636775
  17.3037004  52.4716598  30.1346140  16.0204637  52.6944311  32.7480043
  16.5204416  52.8060845  31.9394362  16.6640245  52.3905364  33.3880851
  10.0786633  60.6022940  45.6347884   9.5953715  61.4023300  45.8411773
  10.1647572  60.6130885  44.6815328   3.3472593  62.4351320  33.5569703
   3.3243281  62.5339007  32.6051586   3.6573229  63.2816471  33.8786869
   6.0059971  64.4927475  37.6716318   6.9603224  64.4611417  37.6046249
   5.8072494  64.0318099  38.4866544   6.5959353  63.0628591  40.2387115
   7.4152242  63.5572670  40.2621953   6.8696161  62.1460559  40.2104683
  16.3525949  55.4539343  29.6015071  15.4651804  55.7388994  29.3835266
  16.7679938  55.2933107  28.7542348  19.7040485  55.4785864  33.3169410
  20.4800875  55.9682317  33.5894027  18.9788619  55.9043919  33.7741280
  22.1413044  56.1913484  34.3743351  22.7357535  55.9509220  33.6636659
  22.2139628  55.4720614  35.0016887   4.3610200  70.0347095  34.6886516
   4.2264668  69.2747495  34.1224514   3.9442262  70.7587994  34.2215304
  15.4969163  65.2184018  23.6963091  16.2005013  65.4234021  24.3120746
  14.7731811  65.7860780  23.9612174  16.3266973  60.9693879  29.8165361
  16.2702174  61.4262431  28.9772993  16.8795315  60.2084564  29.6388204
  20.1371779  56.7583611  30.6415481  19.8808713  56.3580247  31.4723688
  19.5124647  57.4727405  30.5165620  24.4484117  59.4979684  33.1486772
  23.8883675  59.5672874  33.9218334  23.8427620  59.3220669  32.4286268
   7.5179325  70.9316412  34.9004958   7.4011710  71.8761844  34.7983648
   6.6971772  70.6289973  35.2890757  17.4055860  65.6566547  25.7461551
  18.2401464  65.2247746  25.5639026  17.2440203  65.4848561  26.6738445
  17.0601752  62.1598661  27.1117890  17.0050556  61.9942932  26.1706334
  16.4347807  62.8674693  27.2680080   1.8494267  57.3966725  40.9379312
   2.4953131  56.8865679  41.4266538   1.6411418  58.1335407  41.5122738
  14.3747659  64.4647572  46.4371453  15.2438819  64.6388225  46.0758088
  13.8954411  65.2841989  46.3147182  10.3697878  51.6606770  26.6903209
  10.3576547  52.6048610  26.8471479  11.2621300  51.4776915  26.3962670
   8.5433840  71.5844673  38.1160887   9.4461086  71.6168284  38.4327382
   8.3171210  70.6545124  38.1307222  10.2987442  70.3375660  34.7770965
   9.3483073  70.3377522  34.6635338  10.6019928  69.5908395  34.2607000
  14.1849997  48.2549546  30.9449145  13.4182393  47.7008033  31.0905828
  14.5960702  48.3271415  31.8063297   6.1891758  54.5434342  45.0354327
   7.0523220  54.1871147  45.2457651   5.6157169  54.2048237  45.7229731
  26.0340135  76.1736198  35.8416728  26.6718545  76.0542946  35.1380068
  25.9160978  77.1217042  35.9004680  22.8429841  76.1263627  35.7778252
  22.5048353  76.0104691  34.8898787  23.7119610  75.7254792  35.7579259
  18.7016657  77.9799103  31.7675143  18.1381522  77.8889040  30.9991431
  18.5869052  77.1599007  32.2477636  23.3249624  77.2798478  41.7364458
  23.3138265  76.8851276  40.8644962  23.4870264  76.5464551  42.3298229
  16.2481089  79.4750295  34.6059364  17.0402381  79.1341119  34.1905663
  16.4877739  79.5845270  35.5261517  24.2816216  81.6470071  27.0789608
  23.6304196  82.2324151  26.6923622  25.0760579  82.1776266  27.1384646
  18.2071843  78.7359208  27.4776743  18.9802719  78.1888195  27.3389618
  18.5597242  79.6003457  27.6891204  20.0456886  80.0635590  40.6843642
  19.7546751  80.9681221  40.5690308  20.6813870  80.1052118  41.3987711
  20.9713092  77.4412439  37.2745002  21.5676665  77.2168461  36.5601964
  21.0288064  76.6997184  37.8770449  20.5438121  74.8951874  25.1095192
  20.7963641  74.3733395  24.3478655  19.6062680  74.7318019  25.2121876
  25.5881404  73.8987652  32.9169936  26.3744493  73.4807075  32.5660353
  25.8520108  74.8033744  33.0851584  25.7591481  79.3360503  27.6158593
  25.1237314  79.4095129  28.3279497  25.4288887  79.9254101  26.9377672
  30.9889831  73.8362885  33.8202914  31.7215003  73.2662102  34.0540744
  30.2329186  73.4484486  34.2609420  20.2634409  76.7979980  27.3119567
  20.1470668  76.1224883  27.9800652  20.3736669  76.3112354  26.4951720
  22.6065950  76.2590127  31.0166257  22.2424158  75.7320748  31.7279178
  23.4633066  75.8688596  30.8432742  28.5115251  67.5484460  38.2797523
  28.1798576  68.4179871  38.0558738  27.9160864  67.2320744  38.9591553
  22.2471437  71.2880027  26.0127605  22.4145840  72.1560263  26.3798076
  22.0568606  71.4507308  25.0888894  25.0046771  79.7497006  37.6793436
  24.7047494  80.6522044  37.5709243  24.6597830  79.4829189  38.5314588
  18.4559252  76.2010802  33.7130140  17.5309749  76.0687016  33.9207832
  18.7043665  76.9805022  34.2100082  28.4043914  72.2679546  35.3590873
  27.4960792  72.1994954  35.0649634  28.3531510  72.7451491  36.1872698
  22.2260658  73.7437684  26.9974272  22.1060283  74.1894735  27.8359752
  21.5313247  74.0923002  26.4387810  15.8168063  75.8444076  34.5473929
  15.9460444  76.0978555  35.4613341  15.1365514  76.4371784  34.2278584
  19.9867550  86.5141326  30.6464403  19.9091580  87.4649151  30.7252884
  19.3829194  86.1687198  31.3039330  22.4784780  73.6869191  43.3025770
  21.7018114  74.2463111  43.2928635  23.1175343  74.1725974  43.8240640
  30.2705561  70.4695984  37.1368747  29.6279941  70.7628517  36.4908541
  29.7660489  70.3548904  37.9421943  27.9245724  74.2159157  27.8254606
  28.8363581  74.4486544  27.6502304  27.4155372  74.7996202  27.2629685
  20.7331152  76.4954645  42.8643737  21.4745837  77.0339689  42.5878561
  20.0268138  77.1220933  43.0215289  26.2086492  78.6383785  41.4615899
  26.6169848  78.1966196  40.7170531  25.4863754  78.0636413  41.7150092
  22.5617562  73.5756392  38.8349456  23.4078757  73.9995805  38.9784105
  22.5016200  72.9190016  39.5288019  26.5315307  79.1984976  35.2168188
  25.9024169  79.3630690  34.5144255  26.1440969  79.6126585  35.9879152
  30.4104539  80.1339414  32.5712551  29.7255577  80.5138315  32.0209585
  30.4948388  80.7434740  33.3044499  25.7117007  71.2360760  40.4930629
  25.4677939  71.9902821  39.9564905  25.9876938  71.6146108  41.3277876
  27.6655470  77.7799373  39.1707895  27.8772365  78.4231133  38.4942276
  27.6185218  76.9461689  38.7029825  25.2681699  70.3917193  36.0744467
  24.4066178  70.6898447  36.3661205  25.2944134  70.6087592  35.1425500
  22.0843269  78.9359384  32.4818273  22.5481614  79.2147087  31.6922895
  21.8200067  78.0342828  32.2991363  18.9767350  78.4830865  35.4198036
  19.5468707  78.9118134  34.7815520  19.5675462  78.2013450  36.1182222
  21.0212155  75.0582536  29.2907838  21.7236198  75.5103580  29.7581764
  20.6892783  74.4166355  29.9187731  19.4692516  73.6494293  43.6659047
  18.8391177  74.3310574  43.8994444  19.3628604  73.5377374  42.7212185
  14.7637489  73.3166089  34.5924971  13.9736543  73.5723617  34.1165082
  15.2548736  74.1314427  34.6977012  28.7801298  80.6571328  37.3430252
  29.6018742  80.2551515  37.0612934  28.7763701  80.5539562  38.2946368
  16.7152234  73.6810668  31.5508448  15.9183397  73.7929362  32.0691944
  16.4877826  74.0197320  30.6849339  22.5457902  80.2055371  39.4990963
  22.6102334  80.6675779  40.3349135  21.8368826  79.5752736  39.6273273
  13.0475192  73.5696579  37.0239962  13.2983230  74.4543589  37.2897538
  13.5834740  73.3901181  36.2515054  36.8707291  77.0010077  33.6915224
  36.1171000  76.4317475  33.5359228  37.0054832  76.9672741  34.6385858
  22.2605919  81.8723479  29.3669943  22.1251594  82.7175015  29.7954791
  22.8015732  82.0742756  28.6035877  18.7473259  67.9515059  46.0284298
  18.3540204  67.3981257  46.7031942  19.5639399  68.2625637  46.4190816
  15.7135317  79.3898917  29.9397868  16.2259837  80.1842167  30.0903433
  16.3658030  78.6925207  29.8731470  17.5230201  82.5064673  32.0220621
  17.6996830  83.4282638  31.8341605  18.3187035  82.1923092  32.4515001
  21.6641220  69.3672938  43.6204555  22.4050933  69.9680091  43.5409017
  21.8959143  68.6250576  43.0622597  16.8082558  74.5529305  41.8982784
  16.6936073  73.6514562  42.1989883  15.9527076  74.7993002  41.5467601
  23.8874396  82.4947045  43.4970285  23.4438250  81.7083424  43.1791190
  24.5491609  82.6826196  42.8314176  18.6461517  84.0242847  38.0230964
  19.1968942  83.8959910  37.2507958  17.8072993  84.3237736  37.6725856
  25.9855634  82.7749845  41.5251686  25.9674109  83.5958726  41.0331956
  26.9075554  82.6503921  41.7501828  22.4428688  80.2893975  42.3675195
  22.9757025  79.5282263  42.1374503  21.9142769  79.9967627  43.1099349
  25.6098383  65.3954041  37.8968836  25.2662652  66.2855682  37.8207947
  25.9777345  65.2055698  37.0338421  13.6784233  77.7187571  30.7157439
  14.5159455  78.1284580  30.4991146  13.8562501  76.7787013  30.6857632
  25.5748666  75.3862652  26.4041272  25.0595289  76.1567256  26.6429659
  25.3025974  74.7127788  27.0274333  23.1595777  70.2312353  31.4626510
  22.3037373  69.8419203  31.2832149  23.5722728  70.3104313  30.6026295
  24.6894923  67.7658696  35.8618070  24.1859719  67.7288831  35.0485875
  24.9825530  68.6751439  35.9214726  20.9337809  67.8497426  34.8684251
  21.7990806  67.6540234  34.5090141  21.0015318  67.6207777  35.7953608
  30.5482940  78.1395006  28.3394445  29.7712382  77.8006166  27.8949607
  31.2274421  78.1447630  27.6649410  25.3634969  73.2589744  28.2301053
  25.0585104  73.5735893  29.0811196  26.3165411  73.3371164  28.2728386
  23.8081401  79.4179967  29.8794007  23.2802762  78.6832727  29.5667244
  23.3068903  80.1954644  29.6333975  28.7874247  77.6128988  34.9961053
  28.1297921  78.3028249  35.0841182  29.5914646  78.0025420  35.3395039
  18.5400128  70.0799634  32.2400618  19.1143880  69.8574815  31.5073811
  19.1271111  70.1488328  32.9929220  27.5979705  75.9673360  33.0464995
  28.1111587  76.6003352  33.5486705  28.2480929  75.3674556  32.6808355
  18.8669715  72.1104095  26.2596504  18.0307028  72.4478781  26.5805778
  18.7274485  71.9753074  25.3223640  20.8422796  66.9540882  30.9675688
  20.1887208  66.6389900  30.3432302  20.8003270  66.3316623  31.6935511
  21.9534001  77.2360178  22.8828980  21.0461063  77.0049431  23.0820129
  22.4505033  76.4397797  23.0702961  24.8602080  85.9457685  25.8025666
  24.1863778  86.2489381  26.4110624  25.2467902  86.7486765  25.4531123
  24.0760536  73.4422816  35.2923335  23.1583098  73.6637763  35.1345023
  24.4920680  73.5169126  34.4335043  24.8595584  74.8414232  30.4226016
  25.6067403  75.3535629  30.1133138  25.1287174  74.5198284  31.2830409
  23.1322234  77.3372772  27.4052970  22.2233453  77.0531805  27.5025440
  23.1617318  77.7571851  26.5456277  28.3641502  80.9479362  31.1744137
  27.9103829  80.1070272  31.2309328  27.7335468  81.5840760  31.5118918
  27.3074421  71.8771348  32.4044805  26.5697178  71.3648734  32.7355047
  27.5601195  71.4371730  31.5928082  26.8074441  82.7855859  32.1093956
  27.0997415  83.3460916  31.3906321  27.3173061  83.0784420  32.8647115
  27.4086049  64.6547600  32.9986574  27.7144925  63.7944963  32.7112489
  28.1338653  65.2465220  32.7985568  13.7010405  75.0578287  31.3868172
  13.5034804  74.4647647  30.6619239  13.1457069  74.7530497  32.1044111
  21.6807128  74.9501393  33.5062765  21.7355738  73.9975229  33.4305242
  20.8698330  75.1060832  33.9904064  22.8298322  78.8781516  24.7441048
  22.3917752  78.1617375  24.2846686  23.5708763  79.1057631  24.1826140
  19.6199488  73.5678453  31.2653144  18.8067354  73.8672623  31.6718336
  20.1158482  73.1734141  31.9827626  21.7708066  83.5636210  33.1987409
  21.7284245  83.7897056  32.2695941  22.6870765  83.3299584  33.3473210
  25.2173700  74.0320277  40.0968038  25.5723088  74.2591750  40.9562504
  25.8645831  74.3638654  39.4745293  30.9471437  77.1538713  30.8017367
  30.8089335  77.3440309  29.8738556  30.5907656  77.9158096  31.2585418
  19.1113563  71.1396808  36.8814379  19.7512942  70.9985567  36.1837342
  18.2791093  70.8531322  36.5052981  30.9740816  79.2215240  35.8128638
  31.4077323  79.1290529  36.6611693  31.6872397  79.1972741  35.1748654
  19.8873867  80.4399239  32.9949371  20.6814465  79.9449559  32.7931946
  19.1765559  79.9117102  32.6317077  24.7068711  82.8217334  37.3461739
  24.7605734  83.3908271  38.1139455  23.8383493  82.9919219  36.9815776
  16.1956630  74.5842320  29.0709124  15.2654218  74.5226776  29.2879086
  16.2914102  74.0618273  28.2745765  16.1142179  71.1097133  31.6587366
  16.3748997  72.0242466  31.5496526  16.9359352  70.6421576  31.8083979
  17.5867105  72.5234890  38.8286190  18.2590158  72.3152253  38.1798839
  16.7596891  72.3256976  38.3891423  31.8356366  79.2638941  38.3461524
  32.0292256  80.1684751  38.5920799  31.7356984  78.8046360  39.1800109
  23.4892677  69.1496831  40.8451851  22.8420592  69.8486781  40.7516328
  24.2593692  69.5832975  41.2128099  26.8971475  79.4145683  43.9202405
  26.7456981  79.1856235  43.0032488  26.8876154  80.3716285  43.9333750
  23.6656811  76.9877596  38.9048671  24.5948871  77.1388756  38.7317638
  23.2447841  77.0761617  38.0497317  22.4645143  81.0128261  36.6747209
  22.3256229  80.6447045  37.5473147  21.6759739  81.5275900  36.5031166
  23.0593295  86.1137357  28.0172745  23.2345051  85.6425400  28.8318368
  22.3726083  86.7403123  28.2454006  24.0150358  80.3909863  34.0636046
  23.6800191  80.3510633  34.9593696  23.5154304  79.7254579  33.5906457
  17.9894602  75.7977493  39.5888628  17.8514400  75.0657732  40.1900167
  18.8999525  75.7086393  39.3072815  26.9509550  77.7365898  24.3373106
  26.3338720  77.0112726  24.2406159  26.4826038  78.4975258  23.9940180
  20.6176903  75.5097453  39.0772307  21.3276521  74.8690645  39.0358926
  20.5746211  75.7610348  39.9998488  28.6063681  82.4464806  41.9978886
  28.5476227  81.7624026  41.3309469  29.0083200  83.1883796  41.5459512
  19.3305837  72.4962671  40.8967947  18.7943194  72.0453409  41.5489543
  18.7422545  72.6308579  40.1538411  17.6254380  89.2626720  34.7912605
  17.8650978  89.8945244  35.4691624  16.7823577  88.9114760  35.0777965
  18.7408096  71.9551322  23.4594410  17.8637562  71.8340123  23.0956657
  19.2165849  71.1637400  23.2073299  28.6081089  80.4104390  40.2292866
  27.7207867  80.0730312  40.3519265  29.1779640  79.6787421  40.4661631
  10.2610236  76.7428482  33.5535917  10.9481276  76.4290212  32.9656933
  10.1058364  77.6469846  33.2803169  15.0644958  71.6318678  37.9820941
  14.9803147  71.0244348  37.2471351  14.2427664  72.1227697  37.9830437
  22.1382242  85.0705842  37.1954109  22.0652413  85.8760814  37.7073414
  21.6959635  85.2697808  36.3702131  21.9272022  84.3077612  30.7056931
  21.1439543  84.8499293  30.7995155  22.6264767  84.8251592  31.1051172
  25.2368672  70.1172242  33.3491136  25.7337371  69.3642204  33.0292206
  24.4655653  70.1536558  32.7834346  33.0898429  75.8212607  34.9909428
  33.0788305  76.7037323  34.6203361  32.2215809  75.4684158  34.7963965
  24.5980925  84.9692676  39.3512268  25.3108898  85.6040141  39.2788169
  24.1070954  85.0656542  38.5352270  26.3198452  78.8743929  30.9229560
  25.3854731  78.9945392  30.7534264  26.4975121  77.9716396  30.6589569
  21.8203640  72.2589625  33.0762821  21.4501428  71.7060665  33.7643726
  22.3162733  71.6547758  32.5237821  29.7071004  74.7161248  31.4579594
  30.1731456  75.5489240  31.3839896  30.1578504  74.2506230  32.1624852
  19.6492839  82.7187120  40.1717839  20.3502299  83.3523603  40.3247233
  19.1787954  83.0601851  39.4113478  27.7747235  81.0605070  28.4565746
  28.0507079  80.9461664  29.3659620  26.9051734  80.6622554  28.4177919
  27.6787666  67.0841835  35.4970495  26.7650746  67.3146062  35.6652702
  28.1080768  67.1680279  36.3484527  27.4494125  75.2731727  37.9970389
  26.7965575  75.5207635  37.3422842  27.8274505  74.4595865  37.6632866
  24.4101299  85.3091420  32.0998559  24.5923693  84.4913076  32.5626312
  25.2334285  85.5259113  31.6623449  24.7443464  84.2359606  29.3613608
  25.2731231  83.7252060  28.7483770  25.0071684  83.9202136  30.2259141
  23.4981698  76.0151538  44.4836426  22.8222335  75.9145668  45.1538801
  24.3209332  75.8590752  44.9472423  15.2460557  82.2523475  37.1048941
  15.8313994  81.5067163  37.2376846  15.0485396  82.5627432  37.9885605
  18.0999212  85.2874722  32.1211384  17.4309588  85.7720850  31.6375424
  17.9612082  85.5343943  33.0354762   9.8378212  74.8229075  35.8253385
   9.8762311  74.2892666  36.6190503   9.3318505  74.2964281  35.2064362
  22.2404481  87.3218466  38.7194042  22.7922789  87.4850087  39.4843127
  22.5810674  87.9122904  38.0474067  17.2168974  69.6693616  39.3215927
  17.2810301  70.5308446  38.9093325  17.1536094  69.0567617  38.5888285
  16.6921247  71.7416748  42.9688961  17.3193285  71.3593825  43.5826485
  15.8349165  71.5230950  43.3344654  27.0915355  82.1479723  44.5742697
  27.6355259  82.7609682  44.0797651  26.5102200  82.7059302  45.0909710
  13.4686789  73.5493177  28.9007316  13.7640230  72.6403856  28.8474370
  12.5674825  73.5280917  28.5788318  25.3772868  85.2700441  35.7057724
  25.2524008  84.4690181  35.1968670  26.0351959  85.7646635  35.2171694
  16.9981036  71.6249174  34.8834865  16.2767622  72.2385142  34.7442338
  17.7874292  72.1606939  34.8051510  27.4407777  83.0709461  37.3337274
  26.4938112  82.9514813  37.2615601  27.7890550  82.1831959  37.4163536
  19.8007350  68.9603600  41.1575516  20.3241752  69.2065897  41.9201826
  19.5819683  69.7923635  40.7378654  15.1974631  71.2307275  29.0246641
  14.8687337  70.3504654  28.8421747  15.5514002  71.1754944  29.9123030
  24.4454210  82.8662178  33.5341627  24.2979172  81.9378885  33.7149197
  25.2707703  82.8882268  33.0498702  18.3116454  71.5180245  29.3922119
  18.6512527  72.0466166  28.6700727  18.7588575  71.8560651  30.1680685
  28.0488332  83.6890736  34.6206499  28.9734879  83.4833598  34.4830951
  27.8803635  83.4407138  35.5295841  21.0059895  69.9017295  38.8425187
  20.6656715  69.1025108  39.2445867  20.2998901  70.2019006  38.2702020
  21.6576367  66.9866608  37.2952510  22.4802436  66.5127086  37.1731400
  21.9014430  67.7657092  37.7951196  20.2984601  70.0154866  27.5915412
  21.0192964  70.3936119  27.0879128  19.6749905  70.7343743  27.6950389
  24.4415724  70.7200015  28.5273744  24.6579339  71.6024653  28.2262572
  23.9609791  70.3286229  27.7979386  19.1814946  73.6785728  35.1044488
  19.0359526  73.9926032  35.9968770  18.7040149  74.2970629  34.5515387
  21.0411328  70.6688276  35.1525378  21.0272897  69.7729370  34.8157676
  21.7583757  70.6758940  35.7863664  22.8937459  71.1025617  37.1978505
  22.6355237  72.0242687  37.1962836  22.3622500  70.7056051  37.8878970
  27.8383648  84.2076404  29.9768591  28.0120525  83.6422826  29.2242443
  28.3312539  85.0077299  29.7948081  13.6560608  76.2191073  38.0432150
  13.1114076  76.9950881  38.1752424  14.5339958  76.5661877  37.8851271
  20.4448224  69.5502657  30.4212948  20.5664136  68.6219303  30.6203836
  20.1550267  69.5641343  29.5091264  23.3139415  67.2357567  33.5579668
  23.3361112  67.2996900  32.6031648  23.7307474  66.3962076  33.7520174
  33.6923039  76.9712827  31.5958891  34.1354185  76.2220152  31.1978014
  32.8149549  76.9622963  31.2132623  28.8258820  83.5243168  27.0765489
  29.5209725  84.1449861  27.2952804  29.1681971  82.6738519  27.3517867
  14.4426630  75.3460969  40.9362307  13.7008366  75.4943605  41.5226937
  14.1219374  75.6069235  40.0729056  30.7250244  80.9742874  28.6052820
  31.2501568  81.3130146  27.8802140  30.6372596  80.0389889  28.4215955
  22.3870292  84.8876947  40.7342697  22.6957419  84.6426094  41.6065396
  23.1845774  85.0923586  40.2461567  22.4090904  87.0414857  32.9648073
  21.9695895  86.5491236  33.6580930  23.1599021  86.4987825  32.7240148
  14.8883243  83.2326398  32.9672701  15.7141263  82.9330170  32.5871345
  14.5377295  82.4634020  33.4162490  19.8564776  82.5852866  35.0370375
  19.2344786  81.9223571  34.7372603  20.5269643  82.6113998  34.3544023
  13.0891848  81.1512724  33.9261635  12.2523757  80.7234899  33.7445636
  13.0615494  81.3445168  34.8632426  19.9289304  71.0634654  44.6302881
  19.9777459  71.9396777  44.2480650  20.4711818  70.5212047  44.0574524
  30.4144150  81.6075777  43.9104018  29.6239693  81.5899916  43.3708517
  30.1777504  82.1464071  44.6653054  30.5342025  78.4568244  41.2236746
  30.5840030  78.2918251  42.1652269  30.4255948  77.5895503  40.8334627
  19.4178283  81.1356789  28.5128835  19.5666404  81.8192254  27.8595508
  20.2244727  81.1161879  29.0278291  27.8245787  74.4399172  42.5396053
  28.7255650  74.3005637  42.2480051  27.8993762  74.6053627  43.4794231
  22.1588592  71.8166027  41.3849239  21.2891902  72.1099593  41.1131828
  22.3948073  72.4006472  42.1056503  32.0360221  80.8765185  41.4678768
  31.7445030  81.2395166  42.3042229  31.4232353  80.1632194  41.2892100
  33.2355904  78.4418065  33.9881338  34.0702795  78.8807869  34.1518899
  33.3715033  77.9656718  33.1689584  30.2847410  75.9997800  39.9358826
  30.7601531  76.1925446  39.1277677  29.3612975  76.0556986  39.6902210
  17.1730916  77.1621967  29.5189904  16.9276958  76.2584297  29.7170114
  17.3426831  77.1639118  28.5769382  24.8627626  68.0345643  38.9014660
  25.3809570  68.7706670  38.5761148  24.5082759  68.3409637  39.7361419
  16.4426564  72.8950325  27.0176066  15.7495809  72.9694680  26.3616102
  16.1978316  72.1310668  27.5397583  25.1140220  64.4545926  34.4215556
  25.3941974  63.7869115  35.0475983  25.8990827  64.6475022  33.9090220
  22.9173689  83.6304920  25.9840583  22.3447656  84.2495107  25.5311055
  23.4906483  84.1804282  26.5180505  28.9849079  72.8763560  38.1687132
  29.9366502  72.9761658  38.1899356  28.8152529  72.0841829  38.6785216
  27.0063458  69.9619143  38.3546532  26.4113390  70.2424156  37.6593021
  26.7213155  70.4513044  39.1263274  26.1370949  83.9142070  27.1149165
  27.0701622  83.8487632  27.3182041  26.0494161  84.7498337  26.6563698
  28.7658965  83.2307940  24.0753113  28.6872597  82.8967804  24.9688870
  29.5868632  83.7229708  24.0744585  31.4637156  76.0969680  37.2829431
  31.4313477  75.1585680  37.4689115  32.0737780  76.1753716  36.5495256
  23.3020487  74.9665733  23.3256635  24.2479592  74.8371941  23.3945053
  22.9234732  74.2280395  23.8026063  31.6131645  72.8880723  37.3287714
  31.0970694  72.1039180  37.1417643  32.4971593  72.5599440  37.4934234
  29.2742372  66.6321739  33.2883527  29.0767193  66.3236827  34.1726859
  29.8842077  67.3583378  33.4181457  37.2813706  77.1585687  36.4235468
  38.0117095  76.8970975  36.9843171  36.6720652  76.4214408  36.4637536
  35.3629003  75.2993549  37.0209919  34.6362167  75.1649514  36.4126411
  34.9476290  75.6070378  37.8266637  23.1859180  79.0183479  44.7857292
  24.1062189  79.1962078  44.9797339  23.1508763  78.0739524  44.6336991
  21.4863404  72.8915709  23.2611520  20.5794860  72.5948822  23.3374234
  21.7639386  72.5945527  22.3945807  12.4041345  74.2122072  33.7110567
  12.0844129  73.3587381  33.4184941  11.8574773  74.4270651  34.4668534
  16.1821252  76.9284513  37.4280073  16.4007262  77.8601621  37.4468107
  16.5947026  76.5692488  38.2134877  23.1025470  67.4352599  29.4155762
  22.2926199  67.0899684  29.7911008  23.7909887  67.1260142  30.0043373
  25.0316019  66.5130646  31.0380058  25.5847057  66.9326099  31.6970081
  25.2686105  65.5866394  31.0803014  21.0549118  72.5017719  46.8182822
  20.9545845  73.4512076  46.7494913  20.8370660  72.1735958  45.9458892
  20.2562189  69.7502644  23.4023500  21.1181353  70.0757543  23.6619317
  20.4412533  68.9634140  22.8896565  12.2729605  77.8324984  35.6803688
  11.5793076  77.4178937  35.1673643  13.0202596  77.8745520  35.0837107
  28.4094826  68.6231171  30.5458723  27.8293495  69.2815975  30.1636775
  28.1430758  67.8008515  30.1346140  26.8598392  68.0236228  32.7480043
  27.3598170  68.1352763  31.9394362  27.5034000  67.7197281  33.3880851
  20.9180388  75.9314858  45.6347884  20.4347469  76.7315218  45.8411773
  21.0041327  75.9422803  44.6815328  14.1866347  77.7643238  33.5569703
  14.1637036  77.8630925  32.6051586  14.4966984  78.6108389  33.8786869
  16.8453725  79.8219393  37.6716318  17.7996979  79.7903335  37.6046249
  16.6466249  79.3610016  38.4866544  17.4353107  78.3920509  40.2387115
  18.2545996  78.8864587  40.2621953  17.7089915  77.4752477  40.2104683
  27.1919704  70.7831261  29.6015071  26.3045559  71.0680912  29.3835266
  27.6073693  70.6225024  28.7542348  30.5434240  70.8077782  33.3169410
  31.3194630  71.2974235  33.5894027  29.8182374  71.2335836  33.7741280
  32.9806798  71.5205401  34.3743351  33.5751289  71.2801137  33.6636659
  33.0533382  70.8012532  35.0016887  15.2003954  85.3639012  34.6886516
  15.0658422  84.6039413  34.1224514  14.7836016  86.0879912  34.2215304
  26.3362917  80.5475936  23.6963091  27.0398767  80.7525938  24.3120746
  25.6125566  81.1152698  23.9612174  27.1660727  76.2985797  29.8165361
  27.1095929  76.7554348  28.9772993  27.7189070  75.5376482  29.6388204
  30.9765533  72.0875529  30.6415481  30.7202468  71.6872165  31.4723688
  30.3518401  72.8019323  30.5165620  35.2877871  74.8271602  33.1486772
  34.7277429  74.8964791  33.9218334  34.6821374  74.6512587  32.4286268
  18.3573080  86.2608329  34.9004958  18.2405464  87.2053762  34.7983648
  17.5365526  85.9581891  35.2890757  28.2449614  80.9858465  25.7461551
  29.0795218  80.5539663  25.5639026  28.0833957  80.8140479  26.6738445
  27.8995507  77.4890578  27.1117890  27.8444310  77.3234850  26.1706334
  27.2741562  78.1966611  27.2680080  12.6888022  72.7258643  40.9379312
  13.3346885  72.2157597  41.4266538  12.4805173  73.4627324  41.5122738
  25.2141414  79.7939490  46.4371453  26.0832573  79.9680142  46.0758088
  24.7348165  80.6133907  46.3147182  21.2091632  66.9898687  26.6903209
  21.1970302  67.9340527  26.8471479  22.1015054  66.8068833  26.3962670
  19.3827594  86.9136591  38.1160887  20.2854841  86.9460201  38.4327382
  19.1564964  85.9837042  38.1307222  21.1381196  85.6667578  34.7770965
  20.1876827  85.6669439  34.6635338  21.4413682  84.9200312  34.2607000
  25.0243752  63.5841464  30.9449145  24.2576147  63.0299951  31.0905828
  25.4354457  63.6563333  31.8063297  17.0285513  69.8726260  45.0354327
  17.8916974  69.5163065  45.2457651  16.4550923  69.5340155  45.7229731
  36.8733890  91.5028116  35.8416728  37.5112300  91.3834863  35.1380068
  36.7554732  92.4508960  35.9004680  33.6823596  91.4555544  35.7778252
  33.3442107  91.3396609  34.8898787  34.5513364  91.0546709  35.7579259
  29.5410412  93.3091021  31.7675143  28.9775277  93.2180958  30.9991431
  29.4262807  92.4890925  32.2477636  34.1643379  92.6090396  41.7364458
  34.1532020  92.2143194  40.8644962  34.3264018  91.8756469  42.3298229
  27.0874843  94.8042212  34.6059364  27.8796135  94.4633037  34.1905663
  27.3271494  94.9137187  35.5261517  35.1209970  96.9761988  27.0789608
  34.4697950  97.5616069  26.6923622  35.9154333  97.5068183  27.1384646
  29.0465597  94.0651125  27.4776743  29.8196473  93.5180113  27.3389618
  29.3990996  94.9295375  27.6891204  30.8850640  95.3927508  40.6843642
  30.5940506  96.2973139  40.5690308  31.5207624  95.4344035  41.3987711
  31.8106847  92.7704356  37.2745002  32.4070419  92.5460379  36.5601964
  31.8681818  92.0289102  37.8770449  31.3831875  90.2243792  25.1095192
  31.6357396  89.7025313  24.3478655  30.4456434  90.0609937  25.2121876
  36.4275158  89.2279570  32.9169936  37.2138247  88.8098993  32.5660353
  36.6913862  90.1325662  33.0851584  36.5985235  94.6652420  27.6158593
  35.9631068  94.7387047  28.3279497  36.2682642  95.2546019  26.9377672
  41.8283585  89.1654803  33.8202914  42.5608757  88.5954020  34.0540744
  41.0722941  88.7776404  34.2609420  31.1028164  92.1271898  27.3119567
  30.9864422  91.4516801  27.9800652  31.2130424  91.6404271  26.4951720
  33.4459705  91.5882045  31.0166257  33.0817912  91.0612666  31.7279178
  34.3026821  91.1980514  30.8432742  39.3509006  82.8776377  38.2797523
  39.0192330  83.7471788  38.0558738  38.7554619  82.5612661  38.9591553
  33.0865192  86.6171944  26.0127605  33.2539594  87.4852181  26.3798076
  32.8962361  86.7799226  25.0888894  35.8440525  95.0788923  37.6793436
  35.5441248  95.9813962  37.5709243  35.4991585  94.8121106  38.5314588
  29.2953007  91.5302720  33.7130140  28.3703503  91.3978934  33.9207832
  29.5437420  92.3096939  34.2100082  39.2437669  87.5971463  35.3590873
  38.3354546  87.5286872  35.0649634  39.1925265  88.0743408  36.1872698
  33.0654413  89.0729602  26.9974272  32.9454038  89.5186653  27.8359752
  32.3707001  89.4214919  26.4387810  26.6561818  91.1735994  34.5473929
  26.7854199  91.4270473  35.4613341  25.9759269  91.7663702  34.2278584
  30.8261305 101.8433244  30.6464403  30.7485335 102.7941069  30.7252884
  30.2222948 101.4979116  31.3039330  33.3178535  89.0161109  43.3025770
  32.5411869  89.5755029  43.2928635  33.9569098  89.5017892  43.8240640
  41.1099315  85.7987902  37.1368747  40.4673696  86.0920435  36.4908541
  40.6054244  85.6840822  37.9421943  38.7639479  89.5451075  27.8254606
  39.6757335  89.7778462  27.6502304  38.2549126  90.1288119  27.2629685
  31.5724907  91.8246562  42.8643737  32.3139591  92.3631606  42.5878561
  30.8661892  92.4512851  43.0215289  37.0480247  93.9675703  41.4615899
  37.4563603  93.5258113  40.7170531  36.3257508  93.3928330  41.7150092
  33.4011317  88.9048310  38.8349456  34.2472512  89.3287723  38.9784105
  33.3409954  88.2481934  39.5288019  37.3709061  94.5276893  35.2168188
  36.7417924  94.6922608  34.5144255  36.9834723  94.9418503  35.9879152
  41.2498293  95.4631331  32.5712551  40.5649331  95.8430233  32.0209585
  41.3342142  96.0726658  33.3044499  36.5510762  86.5652678  40.4930629
  36.3071694  87.3194738  39.9564905  36.8270692  86.9438026  41.3277876
  38.5049225  93.1091290  39.1707895  38.7166120  93.7523050  38.4942276
  38.4578973  92.2753607  38.7029825  36.1075454  85.7209111  36.0744467
  35.2459933  86.0190365  36.3661205  36.1337888  85.9379510  35.1425500
  32.9237023  94.2651302  32.4818273  33.3875369  94.5439005  31.6922895
  32.6593821  93.3634746  32.2991363  29.8161104  93.8122783  35.4198036
  30.3862461  94.2410051  34.7815520  30.4069216  93.5305368  36.1182222
  31.8605909  90.3874454  29.2907838  32.5629953  90.8395498  29.7581764
  31.5286538  89.7458273  29.9187731  30.3086271  88.9786211  43.6659047
  29.6784931  89.6602491  43.8994444  30.2022359  88.8669292  42.7212185
  25.6031243  88.6458007  34.5924971  24.8130297  88.9015535  34.1165082
  26.0942490  89.4606344  34.6977012  39.6195053  95.9863246  37.3430252
  40.4412496  95.5843433  37.0612934  39.6157456  95.8831480  38.2946368
  27.5545989  89.0102586  31.5508448  26.7577152  89.1221280  32.0691944
  27.3271581  89.3489238  30.6849339  33.3851656  95.5347289  39.4990963
  33.4496089  95.9967696  40.3349135  32.6762580  94.9044654  39.6273273
  23.8868946  88.8988497  37.0239962  24.1376985  89.7835507  37.2897538
  24.4228495  88.7193099  36.2515054  47.7101046  92.3301994  33.6915224
  46.9564754  91.7609392  33.5359228  47.8448587  92.2964659  34.6385858
  33.0999674  97.2015397  29.3669943  32.9645349  98.0466932  29.7954791
  33.6409486  97.4034674  28.6035877  29.5867013  83.2806976  46.0284298
  29.1933959  82.7273175  46.7031942  30.4033154  83.5917555  46.4190816
  26.5529071  94.7190835  29.9397868  27.0653592  95.5134085  30.0903433
  27.2051784  94.0217125  29.8731470  28.3623956  97.8356591  32.0220621
  28.5390584  98.7574556  31.8341605  29.1580789  97.5215010  32.4515001
  32.5034974  84.6964855  43.6204555  33.2444688  85.2972009  43.5409017
  32.7352897  83.9542493  43.0622597  27.6476312  89.8821223  41.8982784
  27.5329828  88.9806480  42.1989883  26.7920830  90.1284919  41.5467601
  34.7268150  97.8238963  43.4970285  34.2832004  97.0375342  43.1791190
  35.3885364  98.0118114  42.8314176  29.4855271  99.3534765  38.0230964
  30.0362696  99.2251828  37.2507958  28.6466747  99.6529654  37.6725856
  36.8249388  98.1041763  41.5251686  36.8067864  98.9250644  41.0331956
  37.7469308  97.9795838  41.7501828  33.2822442  95.6185892  42.3675195
  33.8150779  94.8574181  42.1374503  32.7536523  95.3259544  43.1099349
  36.4492137  80.7245958  37.8968836  36.1056407  81.6147600  37.8207947
  36.8171100  80.5347616  37.0338421  24.5177988  93.0479489  30.7157439
  25.3553210  93.4576497  30.4991146  24.6956256  92.1078931  30.6857632
  36.4142420  90.7154570  26.4041272  35.8989044  91.4859174  26.6429659
  36.1419729  90.0419706  27.0274333  33.9989531  85.5604270  31.4626510
  33.1431127  85.1711121  31.2832149  34.4116483  85.6396231  30.6026295
  35.5288678  83.0950614  35.8618070  35.0253473  83.0580749  35.0485875
  35.8219285  84.0043356  35.9214726  31.7731564  83.1789343  34.8684251
  32.6384560  82.9832152  34.5090141  31.8409073  82.9499695  35.7953608
  41.3876694  93.4686924  28.3394445  40.6106137  93.1298084  27.8949607
  42.0668175  93.4739547  27.6649410  36.2028723  88.5881662  28.2301053
  35.8978859  88.9027811  29.0811196  37.1559165  88.6663081  28.2728386
  34.6475155  94.7471885  29.8794007  34.1196517  94.0124645  29.5667244
  34.1462658  95.5246561  29.6333975  39.6268001  92.9420905  34.9961053
  38.9691676  93.6320167  35.0841182  40.4308400  93.3317337  35.3395039
  29.3793883  85.4091551  32.2400618  29.9537635  85.1866733  31.5073811
  29.9664865  85.4780246  32.9929220  38.4373460  91.2965278  33.0464995
  38.9505342  91.9295270  33.5486705  39.0874684  90.6966474  32.6808355
  29.7063470  87.4396012  26.2596504  28.8700782  87.7770699  26.5805778
  29.5668239  87.3044992  25.3223640  31.6816550  82.2832800  30.9675688
  31.0280963  81.9681817  30.3432302  31.6397025  81.6608541  31.6935511
  32.7927755  92.5652095  22.8828980  31.8854817  92.3341349  23.0820129
  33.2898787  91.7689714  23.0702961  35.6995834 101.2749602  25.8025666
  35.0257533 101.5781299  26.4110624  36.0861656 102.0778683  25.4531123
  34.9154291  88.7714734  35.2923335  33.9976852  88.9929681  35.1345023
  35.3314434  88.8461044  34.4335043  35.6989339  90.1706149  30.4226016
  36.4461157  90.6827547  30.1133138  35.9680928  89.8490202  31.2830409
  33.9715989  92.6664690  27.4052970  33.0627208  92.3823723  27.5025440
  34.0011073  93.0863769  26.5456277  39.2035256  96.2771280  31.1744137
  38.7497583  95.4362189  31.2309328  38.5729223  96.9132678  31.5118918
  38.1468176  87.2063266  32.4044805  37.4090932  86.6940652  32.7355047
  38.3994949  86.7663647  31.5928082  37.6468195  98.1147776  32.1093956
  37.9391170  98.6752833  31.3906321  38.1566816  98.4076337  32.8647115
  38.2479803  79.9839518  32.9986574  38.5538680  79.1236881  32.7112489
  38.9732408  80.5757138  32.7985568  24.5404159  90.3870204  31.3868172
  24.3428559  89.7939565  30.6619239  23.9850823  90.0822414  32.1044111
  32.5200883  90.2793311  33.5062765  32.5749493  89.3267147  33.4305242
  31.7092085  90.4352750  33.9904064  33.6692077  94.2073434  24.7441048
  33.2311506  93.4909293  24.2846686  34.4102517  94.4349549  24.1826140
  30.4593243  88.8970370  31.2653144  29.6461108  89.1964541  31.6718336
  30.9552237  88.5026059  31.9827626  32.6101821  98.8928127  33.1987409
  32.5677999  99.1188974  32.2695941  33.5264519  98.6591502  33.3473210
  36.0567454  89.3612195  40.0968038  36.4116842  89.5883668  40.9562504
  36.7039586  89.6930572  39.4745293  41.7865191  92.4830631  30.8017367
  41.6483090  92.6732227  29.8738556  41.4301410  93.2450014  31.2585418
  29.9507317  86.4688726  36.8814379  30.5906697  86.3277485  36.1837342
  29.1184848  86.1823239  36.5052981  41.8134571  94.5507158  35.8128638
  42.2471078  94.4582447  36.6611693  42.5266152  94.5264658  35.1748654
  30.7267621  95.7691156  32.9949371  31.5208220  95.2741476  32.7931946
  30.0159314  95.2409019  32.6317077  35.5462466  98.1509252  37.3461739
  35.5999488  98.7200188  38.1139455  34.6777247  98.3211137  36.9815776
  27.0350385  89.9134238  29.0709124  26.1047973  89.8518694  29.2879086
  27.1307857  89.3910191  28.2745765  26.9535934  86.4389051  31.6587366
  27.2142751  87.3534384  31.5496526  27.7753106  85.9713493  31.8083979
  28.4260859  87.8526808  38.8286190  29.0983913  87.6444170  38.1798839
  27.5990646  87.6548894  38.3891423  42.6750120  94.5930858  38.3461524
  42.8686011  95.4976669  38.5920799  42.5750739  94.1338278  39.1800109
  34.3286431  84.4788749  40.8451851  33.6814346  85.1778699  40.7516328
  35.0987447  84.9124893  41.2128099  37.7365229  94.7437601  43.9202405
  37.5850736  94.5148153  43.0032488  37.7269909  95.7008203  43.9333750
  34.5050566  92.3169514  38.9048671  35.4342626  92.4680674  38.7317638
  34.0841596  92.4053535  38.0497317  33.3038897  96.3420178  36.6747209
  33.1649983  95.9738963  37.5473147  32.5153494  96.8567818  36.5031166
  33.8987049 101.4429275  28.0172745  34.0738805 100.9717318  28.8318368
  33.2119837 102.0695041  28.2454006  34.8544112  95.7201781  34.0636046
  34.5193945  95.6802551  34.9593696  34.3548058  95.0546497  33.5906457
  28.8288356  91.1269411  39.5888628  28.6908154  90.3949650  40.1900167
  29.7393280  91.0378311  39.3072815  37.7903304  93.0657815  24.3373106
  37.1732475  92.3404644  24.2406159  37.3219793  93.8267176  23.9940180
  31.4570657  90.8389370  39.0772307  32.1670276  90.1982563  39.0358926
  31.4139965  91.0902265  39.9998488  39.4457436  97.7756724  41.9978886
  39.3869982  97.0915944  41.3309469  39.8476954  98.5175714  41.5459512
  30.1699591  87.8254588  40.8967947  29.6336948  87.3745327  41.5489543
  29.5816300  87.9600497  40.1538411  28.4648135 104.5918638  34.7912605
  28.7044733 105.2237162  35.4691624  27.6217331 104.2406678  35.0777965
  29.5801850  87.2843240  23.4594410  28.7031316  87.1632040  23.0956657
  30.0559603  86.4929318  23.2073299  39.4474843  95.7396308  40.2292866
  38.5601622  95.4022229  40.3519265  40.0173394  95.0079339  40.4661631
  21.1003990  92.0720399  33.5535917  21.7875030  91.7582129  32.9656933
  20.9452119  92.9761764  33.2803169  25.9038712  86.9610596  37.9820941
  25.8196901  86.3536266  37.2471351  25.0821419  87.4519614  37.9830437
  32.9775996 100.3997760  37.1954109  32.9046168 101.2052732  37.7073414
  32.5353390 100.5989726  36.3702131  32.7665776  99.6369530  30.7056931
  31.9833298 100.1791210  30.7995155  33.4658521 100.1543510  31.1051172
  36.0762426  85.4464159  33.3491136  36.5731126  84.6934122  33.0292206
  35.3049408  85.4828476  32.7834346  43.9292184  91.1504525  34.9909428
  43.9182060  92.0329240  34.6203361  43.0609563  90.7976076  34.7963965
  35.4374680 100.2984594  39.3512268  36.1502652 100.9332059  39.2788169
  34.9464709 100.3948460  38.5352270  37.1592207  94.2035847  30.9229560
  36.2248486  94.3237309  30.7534264  37.3368875  93.3008313  30.6589569
  32.6597395  87.5881542  33.0762821  32.2895182  87.0352583  33.7643726
  33.1556487  86.9839676  32.5237821  40.5464758  90.0453166  31.4579594
  41.0125210  90.8781158  31.3839896  40.9972259  89.5798148  32.1624852
  30.4886594  98.0479038  40.1717839  31.1896053  98.6815520  40.3247233
  30.0181708  98.3893769  39.4113478  38.6140989  96.3896987  28.4565746
  38.8900833  96.2753582  29.3659620  37.7445488  95.9914472  28.4177919
  38.5181421  82.4133753  35.4970495  37.6044501  82.6437980  35.6652702
  38.9474522  82.4972197  36.3484527  38.2887879  90.6023645  37.9970389
  37.6359330  90.8499552  37.3422842  38.6668259  89.7887783  37.6632866
  35.2495053 100.6383338  32.0998559  35.4317448  99.8204994  32.5626312
  36.0728039 100.8551030  31.6623449  35.5837219  99.5651523  29.3613608
  36.1124985  99.0543978  28.7483770  35.8465438  99.2494053  30.2259141
  34.3375452  91.3443456  44.4836426  33.6616090  91.2437585  45.1538801
  35.1603086  91.1882670  44.9472423  26.0854312  97.5815393  37.1048941
  26.6707748  96.8359080  37.2376846  25.8879150  97.8919349  37.9885605
  28.9392967 100.6166640  32.1211384  28.2703342 101.1012768  31.6375424
  28.8005836 100.8635860  33.0354762  20.6771966  90.1520993  35.8253385
  20.7156066  89.6184583  36.6190503  20.1712259  89.6256198  35.2064362
  33.0798235 102.6510383  38.7194042  33.6316543 102.8142005  39.4843127
  33.4204429 103.2414821  38.0474067  28.0562729  84.9985533  39.3215927
  28.1204055  85.8600364  38.9093325  27.9929849  84.3859535  38.5888285
  27.5315001  87.0708666  42.9688961  28.1587040  86.6885743  43.5826485
  26.6742920  86.8522868  43.3344654  37.9309110  97.4771641  44.5742697
  38.4749014  98.0901599  44.0797651  37.3495955  98.0351219  45.0909710
  24.3080544  88.8785095  28.9007316  24.6033985  87.9695773  28.8474370
  23.4068580  88.8572834  28.5788318  36.2166623 100.5992359  35.7057724
  36.0917762  99.7982099  35.1968670  36.8745714 101.0938552  35.2171694
  27.8374791  86.9541091  34.8834865  27.1161377  87.5677059  34.7442338
  28.6268047  87.4898856  34.8051510  38.2801531  98.4001379  37.3337274
  37.3331867  98.2806730  37.2615601  38.6284304  97.5123877  37.4163536
  30.6401104  84.2895518  41.1575516  31.1635506  84.5357815  41.9201826
  30.4213438  85.1215553  40.7378654  26.0368385  86.5599193  29.0246641
  25.7081092  85.6796571  28.8421747  26.3907756  86.5046861  29.9123030
  35.2847964  98.1954095  33.5341627  35.1372927  97.2670803  33.7149197
  36.1101458  98.2174186  33.0498702  29.1510209  86.8472162  29.3922119
  29.4906281  87.3758084  28.6700727  29.5982329  87.1852568  30.1680685
  38.8882086  99.0182654  34.6206499  39.8128634  98.8125515  34.4830951
  38.7197390  98.7699055  35.5295841  31.8453649  85.2309213  38.8425187
  31.5050470  84.4317026  39.2445867  31.1392656  85.5310924  38.2702020
  32.4970121  82.3158526  37.2952510  33.3196191  81.8419004  37.1731400
  32.7408185  83.0949009  37.7951196  31.1378356  85.3446784  27.5915412
  31.8586718  85.7228037  27.0879128  30.5143660  86.0635661  27.6950389
  35.2809479  86.0491933  28.5273744  35.4973093  86.9316571  28.2262572
  34.8003546  85.6578146  27.7979386  30.0208700  89.0077646  35.1044488
  29.8753281  89.3217949  35.9968770  29.5433904  89.6262546  34.5515387
  31.8805083  85.9980194  35.1525378  31.8666652  85.1021287  34.8157676
  32.5977511  86.0050858  35.7863664  33.7331214  86.4317534  37.1978505
  33.4748991  87.3534605  37.1962836  33.2016254  86.0347969  37.8878970
  38.6777402  99.5368321  29.9768591  38.8514280  98.9714744  29.2242443
  39.1706294 100.3369216  29.7948081  24.4954362  91.5482991  38.0432150
  23.9507830  92.3242799  38.1752424  25.3733712  91.8953795  37.8851271
  31.2841979  84.8794574  30.4212948  31.4057890  83.9511221  30.6203836
  30.9944021  84.8933260  29.5091264  34.1533169  82.5649485  33.5579668
  34.1754866  82.6288818  32.6031648  34.5701228  81.7253994  33.7520174
  44.5316794  92.3004744  31.5958891  44.9747940  91.5512070  31.1978014
  43.6543304  92.2914881  31.2132623  39.6652575  98.8535086  27.0765489
  40.3603480  99.4741779  27.2952804  40.0075725  98.0030437  27.3517867
  25.2820384  90.6752887  40.9362307  24.5402120  90.8235522  41.5226937
  24.9613128  90.9361152  40.0729056  41.5643998  96.3034791  28.6052820
  42.0895322  96.6422064  27.8802140  41.4766351  95.3681807  28.4215955
  33.2264047 100.2168865  40.7342697  33.5351173  99.9718012  41.6065396
  34.0239529 100.4215504  40.2461567  33.2484659 102.3706775  32.9648073
  32.8089649 101.8783153  33.6580930  33.9992776 101.8279742  32.7240148
  25.7276998  98.5618316  32.9672701  26.5535018  98.2622087  32.5871345
  25.3771050  97.7925938  33.4162490  30.6958531  97.9144784  35.0370375
  30.0738540  97.2515489  34.7372603  31.3663398  97.9405916  34.3544023
  23.9285603  96.4804642  33.9261635  23.0917511  96.0526816  33.7445636
  23.9009248  96.6737085  34.8632426  30.7683058  86.3926572  44.6302881
  30.8171214  87.2688695  44.2480650  31.3105573  85.8503965  44.0574524
  41.2537904  96.9367695  43.9104018  40.4633448  96.9191834  43.3708517
  41.0171259  97.4755989  44.6653054  41.3735779  93.7860161  41.2236746
  41.4233784  93.6210169  42.1652269  41.2649702  92.9187420  40.8334627
  30.2572038  96.4648707  28.5128835  30.4060158  97.1484172  27.8595508
  31.0638481  96.4453797  29.0278291  38.6639542  89.7691089  42.5396053
  39.5649404  89.6297554  42.2480051  38.7387516  89.9345544  43.4794231
  32.9982347  87.1457944  41.3849239  32.1285656  87.4391510  41.1131828
  33.2341827  87.7298389  42.1056503  42.8753976  96.2057103  41.4678768
  42.5838784  96.5687083  42.3042229  42.2626107  95.4924111  41.2892100
  44.0749658  93.7709983  33.9881338  44.9096550  94.2099787  34.1518899
  44.2108787  93.2948636  33.1689584  41.1241164  91.3289718  39.9358826
  41.5995286  91.5217364  39.1277677  40.2006730  91.3848903  39.6902210
  28.0124671  92.4913885  29.5189904  27.7670713  91.5876215  29.7170114
  28.1820585  92.4931035  28.5769382  35.7021381  83.3637561  38.9014660
  36.2203325  84.0998588  38.5761148  35.3476513  83.6701554  39.7361419
  27.2820318  88.2242242  27.0176066  26.5889563  88.2986597  26.3616102
  27.0372070  87.4602586  27.5397583  35.9533975  79.7837844  34.4215556
  36.2335729  79.1161033  35.0475983  36.7384582  79.9766939  33.9090220
  33.7567443  98.9596838  25.9840583  33.1841410  99.5787025  25.5311055
  34.3300237  99.5096199  26.5180505  39.8242833  88.2055478  38.1687132
  40.7760256  88.3053575  38.1899356  39.6546284  87.4133746  38.6785216
  37.8457213  85.2911061  38.3546532  37.2507145  85.5716074  37.6593021
  37.5606909  85.7804962  39.1263274  36.9764703  99.2433988  27.1149165
  37.9095376  99.1779549  27.3182041  36.8887916 100.0790255  26.6563698
  39.6052720  98.5599858  24.0753113  39.5266351  98.2259722  24.9688870
  40.4262387  99.0521626  24.0744585  42.3030911  91.4261597  37.2829431
  42.2707231  90.4877598  37.4689115  42.9131535  91.5045634  36.5495256
  34.1414242  90.2957650  23.3256635  35.0873347  90.1663858  23.3945053
  33.7628487  89.5572312  23.8026063  42.4525399  88.2172641  37.3287714
  41.9364448  87.4331097  37.1417643  43.3365348  87.8891357  37.4934234
  40.1136126  81.9613656  33.2883527  39.9160948  81.6528745  34.1726859
  40.7235832  82.6875295  33.4181457  48.1207461  92.4877604  36.4235468
  48.8510849  92.2262892  36.9843171  47.5114406  91.7506326  36.4637536
  46.2022758  90.6285467  37.0209919  45.4755922  90.4941432  36.4126411
  45.7870045  90.9362295  37.8266637  34.0252934  94.3475396  44.7857292
  34.9455944  94.5253995  44.9797339  33.9902517  93.4031442  44.6336991
  32.3257159  88.2207627  23.2611520  31.4188614  87.9240739  23.3374234
  32.6033140  87.9237445  22.3945807  23.2435099  89.5413990  33.7110567
  22.9237884  88.6879298  33.4184941  22.6968528  89.7562568  34.4668534
  27.0215007  92.2576431  37.4280073  27.2401017  93.1893539  37.4468107
  27.4340781  91.8984406  38.2134877  33.9419225  82.7644516  29.4155762
  33.1319953  82.4191601  29.7911008  34.6303642  82.4552060  30.0043373
  35.8709773  81.8422563  31.0380058  36.4240812  82.2618017  31.6970081
  36.1079859  80.9158311  31.0803014  31.8942872  87.8309637  46.8182822
  31.7939599  88.7803994  46.7494913  31.6764414  87.5027876  45.9458892
  31.0955944  85.0794562  23.4023500  31.9575108  85.4049460  23.6619317
  31.2806288  84.2926058  22.8896565  23.1123359  93.1616902  35.6803688
  22.4186831  92.7470854  35.1673643  23.8596350  93.2037438  35.0837107
  39.2488580  83.9523088  30.5458723  38.6687249  84.6107892  30.1636775
  38.9824513  83.1300433  30.1346140  37.6992146  83.3528146  32.7480043
  38.1991925  83.4644681  31.9394362  38.3427754  83.0489199  33.3880851
  31.7574142  91.2606776  45.6347884  31.2741224  92.0607136  45.8411773
  31.8435081  91.2714721  44.6815328  25.0260102  93.0935155  33.5569703
  25.0030790  93.1922843  32.6051586  25.3360738  93.9400306  33.8786869
  27.6847480  95.1511310  37.6716318  28.6390733  95.1195253  37.6046249
  27.4860003  94.6901934  38.4866544  28.2746862  93.7212426  40.2387115
  29.0939751  94.2156505  40.2621953  28.5483670  92.8044395  40.2104683
  38.0313458  86.1123179  29.6015071  37.1439313  86.3972829  29.3835266
  38.4467447  85.9516942  28.7542348  41.3827994  86.1369700  33.3169410
  42.1588384  86.6266152  33.5894027  40.6576128  86.5627754  33.7741280
  43.8200553  86.8497319  34.3743351  44.4145044  86.6093055  33.6636659
  43.8927137  86.1304450  35.0016887  26.0397709 100.6930930  34.6886516
  25.9052176  99.9331331  34.1224514  25.6229771 101.4171830  34.2215304
  37.1756672  95.8767853  23.6963091  37.8792522  96.0817856  24.3120746
  36.4519320  96.4444615  23.9612174  38.0054482  91.6277715  29.8165361
  37.9489683  92.0846266  28.9772993  38.5582824  90.8668399  29.6388204
  41.8159288  87.4167447  30.6415481  41.5596222  87.0164082  31.4723688
  41.1912156  88.1311241  30.5165620  46.1271626  90.1563520  33.1486772
  45.5671184  90.2256709  33.9218334  45.5215129  89.9804504  32.4286268
  29.1966834 101.5900247  34.9004958  29.0799219 102.5345679  34.7983648
  28.3759281 101.2873808  35.2890757  39.0843369  96.3150383  25.7461551
  39.9188973  95.8831581  25.5639026  38.9227712  96.1432396  26.6738445
  38.7389261  92.8182496  27.1117890  38.6838065  92.6526767  26.1706334
  38.1135316  93.5258529  27.2680080  23.5281776  88.0550560  40.9379312
  24.1740640  87.5449514  41.4266538  23.3198927  88.7919242  41.5122738
  36.0535168  95.1231408  46.4371453  36.9226328  95.2972060  46.0758088
  35.5741920  95.9425825  46.3147182  32.0485387  82.3190605  26.6903209
  32.0364056  83.2632445  26.8471479  32.9408808  82.1360750  26.3962670
  30.2221349 102.2428509  38.1160887  31.1248595 102.2752119  38.4327382
  29.9958719 101.3128960  38.1307222  31.9774951 100.9959495  34.7770965
  31.0270582 100.9961357  34.6635338  32.2807437 100.2492230  34.2607000
  35.8637506  78.9133382  30.9449145  35.0969902  78.3591868  31.0905828
  36.2748211  78.9855250  31.8063297  27.8679267  85.2018177  45.0354327
  28.7310729  84.8454982  45.2457651  27.2944678  84.8632072  45.7229731
  47.7127644 106.8320034  35.8416728  48.3506054 106.7126781  35.1380068
  47.5948487 107.7800878  35.9004680  44.5217350 106.7847462  35.7778252
  44.1835862 106.6688527  34.8898787  45.3907119 106.3838627  35.7579259
  40.3804166 108.6382938  31.7675143  39.8169031 108.5472875  30.9991431
  40.2656561 107.8182843  32.2477636  45.0037133 107.9382314  41.7364458
  44.9925774 107.5435112  40.8644962  45.1657773 107.2048386  42.3298229
  37.9268598 110.1334130  34.6059364  38.7189890 109.7924955  34.1905663
  38.1665248 110.2429105  35.5261517  45.9603725 112.3053906  27.0789608
  45.3091705 112.8907986  26.6923622  46.7548088 112.8360101  27.1384646
  39.8859352 109.3943043  27.4776743  40.6590228 108.8472030  27.3389618
  40.2384751 110.2587292  27.6891204  41.7244394 110.7219425  40.6843642
  41.4334260 111.6265056  40.5690308  42.3601379 110.7635953  41.3987711
  42.6500601 108.0996274  37.2745002  43.2464174 107.8752296  36.5601964
  42.7075573 107.3581019  37.8770449  42.2225630 105.5535709  25.1095192
  42.4751150 105.0317231  24.3478655  41.2850189 105.3901855  25.2121876
  47.2668913 104.5571488  32.9169936  48.0532002 104.1390911  32.5660353
  47.5307617 105.4617580  33.0851584  47.4378990 109.9944338  27.6158593
  46.8024823 110.0678964  28.3279497  47.1076396 110.5837937  26.9377672
  52.6677340 104.4946721  33.8202914  53.4002512 103.9245938  34.0540744
  51.9116695 104.1068321  34.2609420  41.9421918 107.4563815  27.3119567
  41.8258177 106.7808719  27.9800652  42.0524178 106.9696189  26.4951720
  44.2853459 106.9173962  31.0166257  43.9211667 106.3904583  31.7279178
  45.1420575 106.5272431  30.8432742  50.1902760  98.2068295  38.2797523
  49.8586085  99.0763706  38.0558738  49.5948373  97.8904579  38.9591553
  43.9258946 101.9463862  26.0127605  44.0933349 102.8144098  26.3798076
  43.7356115 102.1091144  25.0888894  46.6834280 110.4080841  37.6793436
  46.3835003 111.3105880  37.5709243  46.3385339 110.1413024  38.5314588
  40.1346761 106.8594638  33.7130140  39.2097258 106.7270852  33.9207832
  40.3831174 107.6388857  34.2100082  50.0831423 102.9263381  35.3590873
  49.1748301 102.8578790  35.0649634  50.0319019 103.4035326  36.1872698
  43.9048167 104.4021519  26.9974272  43.7847792 104.8478570  27.8359752
  43.2100756 104.7506837  26.4387810  37.4955572 106.5027911  34.5473929
  37.6247953 106.7562390  35.4613341  36.8153023 107.0955619  34.2278584
  41.6655059 117.1725161  30.6464403  41.5879089 118.1232986  30.7252884
  41.0616703 116.8271034  31.3039330  44.1572289 104.3453027  43.3025770
  43.3805623 104.9046947  43.2928635  44.7962852 104.8309810  43.8240640
  51.9493070 101.1279819  37.1368747  51.3067450 101.4212353  36.4908541
  51.4447998 101.0132740  37.9421943  49.6033233 104.8742993  27.8254606
  50.5151090 105.1070379  27.6502304  49.0942880 105.4580037  27.2629685
  42.4118661 107.1538480  42.8643737  43.1533346 107.6923524  42.5878561
  41.7055647 107.7804769  43.0215289  47.8874001 109.2967620  41.4615899
  48.2957357 108.8550031  40.7170531  47.1651263 108.7220248  41.7150092
  44.2405071 104.2340227  38.8349456  45.0866266 104.6579641  38.9784105
  44.1803709 103.5773852  39.5288019  48.2102816 109.8568811  35.2168188
  47.5811678 110.0214525  34.5144255  47.8228478 110.2710421  35.9879152
  52.0892048 110.7923249  32.5712551  51.4043086 111.1722150  32.0209585
  52.1735897 111.4018576  33.3044499  47.3904516 101.8944596  40.4930629
  47.1465448 102.6486656  39.9564905  47.6664447 102.2729943  41.3277876
  49.3442979 108.4383208  39.1707895  49.5559874 109.0814968  38.4942276
  49.2972727 107.6045525  38.7029825  46.9469208 101.0501029  36.0744467
  46.0853687 101.3482282  36.3661205  46.9731643 101.2671428  35.1425500
  43.7630778 109.5943219  32.4818273  44.2269123 109.8730922  31.6922895
  43.4987576 108.6926664  32.2991363  40.6554859 109.1414701  35.4198036
  41.2256216 109.5701969  34.7815520  41.2462971 108.8597285  36.1182222
  42.6999664 105.7166372  29.2907838  43.4023707 106.1687415  29.7581764
  42.3680292 105.0750190  29.9187731  41.1480025 104.3078128  43.6659047
  40.5178686 104.9894409  43.8994444  41.0416113 104.1961210  42.7212185
  36.4424998 103.9749924  34.5924971  35.6524052 104.2307453  34.1165082
  36.9336245 104.7898262  34.6977012  50.4588807 111.3155163  37.3430252
  51.2806251 110.9135351  37.0612934  50.4551210 111.2123398  38.2946368
  38.3939743 104.3394503  31.5508448  37.5970906 104.4513198  32.0691944
  38.1665335 104.6781156  30.6849339  44.2245411 110.8639207  39.4990963
  44.2889843 111.3259614  40.3349135  43.5156334 110.2336572  39.6273273
  34.7262701 104.2280415  37.0239962  34.9770739 105.1127425  37.2897538
  35.2622249 104.0485016  36.2515054  58.5494800 107.6593912  33.6915224
  57.7958509 107.0901310  33.5359228  58.6842341 107.6256576  34.6385858
  43.9393428 112.5307314  29.3669943  43.8039103 113.3758850  29.7954791
  44.4803241 112.7326592  28.6035877  40.4260768  98.6098894  46.0284298
  40.0327713  98.0565093  46.7031942  41.2426908  98.9209473  46.4190816
  37.3922826 110.0482752  29.9397868  37.9047346 110.8426002  30.0903433
  38.0445538 109.3509043  29.8731470  39.2017710 113.1648509  32.0220621
  39.3784339 114.0866473  31.8341605  39.9974544 112.8506928  32.4515001
  43.3428729 100.0256773  43.6204555  44.0838442 100.6263926  43.5409017
  43.5746652  99.2834411  43.0622597  38.4870067 105.2113140  41.8982784
  38.3723582 104.3098398  42.1989883  37.6314585 105.4576837  41.5467601
  45.5661905 113.1530881  43.4970285  45.1225759 112.3667259  43.1791190
  46.2279118 113.3410031  42.8314176  40.3249026 114.6826682  38.0230964
  40.8756451 114.5543746  37.2507958  39.4860502 114.9821571  37.6725856
  47.6643143 113.4333681  41.5251686  47.6461618 114.2542562  41.0331956
  48.5863063 113.3087756  41.7501828  44.1216197 110.9477810  42.3675195
  44.6544534 110.1866098  42.1374503  43.5930278 110.6551462  43.1099349
  47.2885892  96.0537876  37.8968836  46.9450161  96.9439518  37.8207947
  47.6564854  95.8639534  37.0338421  35.3571742 108.3771407  30.7157439
  36.1946964 108.7868415  30.4991146  35.5350010 107.4370849  30.6857632
  47.2536175 106.0446487  26.4041272  46.7382798 106.8151092  26.6429659
  46.9813483 105.3711623  27.0274333  44.8383286 100.8896188  31.4626510
  43.9824882 100.5003038  31.2832149  45.2510237 100.9688149  30.6026295
  46.3682432  98.4242531  35.8618070  45.8647228  98.3872666  35.0485875
  46.6613039  99.3335274  35.9214726  42.6125318  98.5081261  34.8684251
  43.4778315  98.3124070  34.5090141  42.6802827  98.2791613  35.7953608
  52.2270449 108.7978842  28.3394445  51.4499891 108.4590001  27.8949607
  52.9061930 108.8031465  27.6649410  47.0422478 103.9173579  28.2301053
  46.7372613 104.2319728  29.0811196  47.9952920 103.9954999  28.2728386
  45.4868910 110.0763803  29.8794007  44.9590271 109.3416562  29.5667244
  44.9856412 110.8538479  29.6333975  50.4661756 108.2712823  34.9961053
  49.8085430 108.9612084  35.0841182  51.2702155 108.6609255  35.3395039
  40.2187637 100.7383469  32.2400618  40.7931389 100.5158650  31.5073811
  40.8058620 100.8072163  32.9929220  49.2767214 106.6257196  33.0464995
  49.7899096 107.2587188  33.5486705  49.9268438 106.0258391  32.6808355
  40.5457224 102.7687930  26.2596504  39.7094537 103.1062616  26.5805778
  40.4061994 102.6336910  25.3223640  42.5210305  97.6124718  30.9675688
  41.8674717  97.2973735  30.3432302  42.4790779  96.9900458  31.6935511
  43.6321510 107.8944013  22.8828980  42.7248572 107.6633266  23.0820129
  44.1292542 107.0981632  23.0702961  46.5389589 116.6041520  25.8025666
  45.8651287 116.9073217  26.4110624  46.9255411 117.4070600  25.4531123
  45.7548045 104.1006651  35.2923335  44.8370607 104.3221598  35.1345023
  46.1708189 104.1752962  34.4335043  46.5383093 105.4998067  30.4226016
  47.2854912 106.0119464  30.1133138  46.8074683 105.1782120  31.2830409
  44.8109743 107.9956608  27.4052970  43.9020962 107.7115641  27.5025440
  44.8404827 108.4155686  26.5456277  50.0429011 111.6063197  31.1744137
  49.5891338 110.7654107  31.2309328  49.4122977 112.2424596  31.5118918
  48.9861930 102.5355183  32.4044805  48.2484687 102.0232569  32.7355047
  49.2388704 102.0955565  31.5928082  48.4861950 113.4439694  32.1093956
  48.7784924 114.0044751  31.3906321  48.9960570 113.7368255  32.8647115
  49.0873557  95.3131435  32.9986574  49.3932434  94.4528799  32.7112489
  49.8126162  95.9049055  32.7985568  35.3797914 105.7162122  31.3868172
  35.1822313 105.1231483  30.6619239  34.8244578 105.4114332  32.1044111
  43.3594637 105.6085228  33.5062765  43.4143247 104.6559065  33.4305242
  42.5485839 105.7644667  33.9904064  44.5085831 109.5365351  24.7441048
  44.0705261 108.8201210  24.2846686  45.2496272 109.7641466  24.1826140
  41.2986997 104.2262288  31.2653144  40.4854863 104.5256459  31.6718336
  41.7945991 103.8317977  31.9827626  43.4495575 114.2220045  33.1987409
  43.4071754 114.4480891  32.2695941  44.3658274 113.9883420  33.3473210
  46.8961209 104.6904113  40.0968038  47.2510597 104.9175586  40.9562504
  47.5433340 105.0222489  39.4745293  52.6258946 107.8122548  30.8017367
  52.4876844 108.0024144  29.8738556  52.2695165 108.5741931  31.2585418
  40.7901072 101.7980644  36.8814379  41.4300451 101.6569403  36.1837342
  39.9578602 101.5115157  36.5052981  52.6528325 109.8799075  35.8128638
  53.0864832 109.7874365  36.6611693  53.3659906 109.8556576  35.1748654
  41.5661376 111.0983074  32.9949371  42.3601974 110.6033394  32.7931946
  40.8553068 110.5700937  32.6317077  46.3856220 113.4801170  37.3461739
  46.4393243 114.0492106  38.1139455  45.5171002 113.6503055  36.9815776
  37.8744139 105.2426156  29.0709124  36.9441727 105.1810611  29.2879086
  37.9701611 104.7202109  28.2745765  37.7929688 101.7680969  31.6587366
  38.0536506 102.6826302  31.5496526  38.6146861 101.3005411  31.8083979
  39.2654614 103.1818726  38.8286190  39.9377667 102.9736088  38.1798839
  38.4384400 102.9840812  38.3891423  53.5143875 109.9222776  38.3461524
  53.7079765 110.8268587  38.5920799  53.4144493 109.4630195  39.1800109
  45.1680186  99.8080667  40.8451851  44.5208101 100.5070616  40.7516328
  45.9381201 100.2416811  41.2128099  48.5758984 110.0729519  43.9202405
  48.4244490 109.8440071  43.0032488  48.5663663 111.0300120  43.9333750
  45.3444320 107.6461432  38.9048671  46.2736380 107.7972591  38.7317638
  44.9235350 107.7345452  38.0497317  44.1432652 111.6712096  36.6747209
  44.0043738 111.3030880  37.5473147  43.3547248 112.1859735  36.5031166
  44.7380804 116.7721192  28.0172745  44.9132559 116.3009236  28.8318368
  44.0513592 117.3986959  28.2454006  45.6937867 111.0493699  34.0636046
  45.3587700 111.0094469  34.9593696  45.1941813 110.3838415  33.5906457
  39.6682111 106.4561329  39.5888628  39.5301909 105.7241568  40.1900167
  40.5787034 106.3670229  39.3072815  48.6297059 108.3949733  24.3373106
  48.0126229 107.6696561  24.2406159  48.1613547 109.1559093  23.9940180
  42.2964412 106.1681288  39.0772307  43.0064030 105.5274480  39.0358926
  42.2533720 106.4194183  39.9998488  50.2851190 113.1048641  41.9978886
  50.2263736 112.4207862  41.3309469  50.6870709 113.8467631  41.5459512
  41.0093346 103.1546506  40.8967947  40.4730703 102.7037244  41.5489543
  40.4210054 103.2892415  40.1538411  40.4195605 102.6135157  23.4594410
  39.5425071 102.4923958  23.0956657  40.8953358 101.8221236  23.2073299
  50.2868598 111.0688225  40.2292866  49.3995376 110.7314147  40.3519265
  50.8567149 110.3371257  40.4661631  31.9397745 107.4012317  33.5535917
  32.6268785 107.0874047  32.9656933  31.7845873 108.3053682  33.2803169
  36.7432467 102.2902514  37.9820941  36.6590656 101.6828183  37.2471351
  35.9215173 102.7811532  37.9830437  43.8169751 115.7289678  37.1954109
  43.7439922 116.5344649  37.7073414  43.3747144 115.9281644  36.3702131
  43.6059531 114.9661448  30.7056931  42.8227052 115.5083128  30.7995155
  44.3052276 115.4835427  31.1051172  46.9156181 100.7756077  33.3491136
  47.4124880 100.0226039  33.0292206  46.1443162 100.8120394  32.7834346
  54.7685938 106.4796443  34.9909428  54.7575814 107.3621158  34.6203361
  53.9003318 106.1267994  34.7963965  46.2768434 115.6276512  39.3512268
  46.9896407 116.2623977  39.2788169  45.7858463 115.7240378  38.5352270
  47.9985961 109.5327764  30.9229560  47.0642240 109.6529227  30.7534264
  48.1762630 108.6300231  30.6589569  43.4991149 102.9173460  33.0762821
  43.1288937 102.3644501  33.7643726  43.9950242 102.3131594  32.5237821
  51.3858513 105.3745084  31.4579594  51.8518965 106.2073075  31.3839896
  51.8366013 104.9090065  32.1624852  41.3280348 113.3770955  40.1717839
  42.0289807 114.0107438  40.3247233  40.8575463 113.7185687  39.4113478
  49.4534744 111.7188905  28.4565746  49.7294588 111.6045500  29.3659620
  48.5839243 111.3206390  28.4177919  49.3575175  97.7425671  35.4970495
  48.4438255  97.9729898  35.6652702  49.7868277  97.8264115  36.3484527
  49.1281634 105.9315563  37.9970389  48.4753084 106.1791470  37.3422842
  49.5062014 105.1179701  37.6632866  46.0888808 115.9675256  32.0998559
  46.2711202 115.1496912  32.5626312  46.9121794 116.1842948  31.6623449
  46.4230973 114.8943441  29.3613608  46.9518740 114.3835896  28.7483770
  46.6859193 114.5785971  30.2259141  45.1769207 106.6735374  44.4836426
  44.5009844 106.5729503  45.1538801  45.9996841 106.5174587  44.9472423
  36.9248066 112.9107310  37.1048941  37.5101503 112.1650998  37.2376846
  36.7272905 113.2211267  37.9885605  39.7786721 115.9458558  32.1211384
  39.1097097 116.4304685  31.6375424  39.6399591 116.1927778  33.0354762
  31.5165721 105.4812910  35.8253385  31.5549820 104.9476501  36.6190503
  31.0106014 104.9548116  35.2064362  43.9191990 117.9802301  38.7194042
  44.4710298 118.1433923  39.4843127  44.2598183 118.5706739  38.0474067
  38.8956483 100.3277451  39.3215927  38.9597810 101.1892282  38.9093325
  38.8323603  99.7151453  38.5888285  38.3708756 102.4000583  42.9688961
  38.9980794 102.0177661  43.5826485  37.5136674 102.1814785  43.3344654
  48.7702864 112.8063559  44.5742697  49.3142768 113.4193517  44.0797651
  48.1889709 113.3643137  45.0909710  35.1474298 104.2077013  28.9007316
  35.4427739 103.2987691  28.8474370  34.2462334 104.1864752  28.5788318
  47.0560377 115.9284277  35.7057724  46.9311517 115.1274017  35.1968670
  47.7139468 116.4230470  35.2171694  38.6768545 102.2833009  34.8834865
  37.9555131 102.8968977  34.7442338  39.4661801 102.8190774  34.8051510
  49.1195286 113.7293297  37.3337274  48.1725621 113.6098648  37.2615601
  49.4678059 112.8415795  37.4163536  41.4794859  99.6187436  41.1575516
  42.0029261  99.8649732  41.9201826  41.2607192 100.4507470  40.7378654
  36.8762140 101.8891110  29.0246641  36.5474846 101.0088489  28.8421747
  37.2301511 101.8338779  29.9123030  46.1241719 113.5246013  33.5341627
  45.9766681 112.5962720  33.7149197  46.9495212 113.5466104  33.0498702
  39.9903963 102.1764080  29.3922119  40.3300036 102.7050001  28.6700727
  40.4376084 102.5144486  30.1680685  49.7275841 114.3474572  34.6206499
  50.6522388 114.1417433  34.4830951  49.5591144 114.0990973  35.5295841
  42.6847404 100.5601131  38.8425187  42.3444224  99.7608944  39.2445867
  41.9786410 100.8602842  38.2702020  43.3363876  97.6450443  37.2952510
  44.1589945  97.1710921  37.1731400  43.5801939  98.4240927  37.7951196
  41.9772110 100.6738702  27.5915412  42.6980473 101.0519954  27.0879128
  41.3537414 101.3927578  27.6950389  46.1203233 101.3783851  28.5273744
  46.3366848 102.2608488  28.2262572  45.6397300 100.9870064  27.7979386
  40.8602455 104.3369564  35.1044488  40.7147035 104.6509867  35.9968770
  40.3827658 104.9554464  34.5515387  42.7198837 101.3272112  35.1525378
  42.7060406 100.4313205  34.8157676  43.4371266 101.3342776  35.7863664
  44.5724968 101.7609452  37.1978505  44.3142746 102.6826523  37.1962836
  44.0410008 101.3639887  37.8878970  49.5171157 114.8660239  29.9768591
  49.6908034 114.3006662  29.2242443  50.0100048 115.6661134  29.7948081
  35.3348117 106.8774908  38.0432150  34.7901585 107.6534716  38.1752424
  36.2127467 107.2245713  37.8851271  42.1235733 100.2086492  30.4212948
  42.2451645  99.2803138  30.6203836  41.8337776 100.2225178  29.5091264
  44.9926924  97.8941403  33.5579668  45.0148621  97.9580736  32.6031648
  45.4094983  97.0545911  33.7520174  55.3710548 107.6296662  31.5958891
  55.8141694 106.8803987  31.1978014  54.4937058 107.6206798  31.2132623
  50.5046329 114.1827004  27.0765489  51.1997234 114.8033696  27.2952804
  50.8469480 113.3322355  27.3517867  36.1214139 106.0044805  40.9362307
  35.3795875 106.1527440  41.5226937  35.8006883 106.2653070  40.0729056
  52.4037752 111.6326709  28.6052820  52.9289077 111.9713982  27.8802140
  52.3160105 110.6973724  28.4215955  44.0657801 115.5460783  40.7342697
  44.3744928 115.3009929  41.6065396  44.8633283 115.7507421  40.2461567
  44.0878413 117.6998692  32.9648073  43.6483404 117.2075071  33.6580930
  44.8386530 117.1571660  32.7240148  36.5670752 113.8910233  32.9672701
  37.3928772 113.5914005  32.5871345  36.2164804 113.1217856  33.4162490
  41.5352285 113.2436701  35.0370375  40.9132295 112.5807406  34.7372603
  42.2057152 113.2697833  34.3544023  34.7679357 111.8096560  33.9261635
  33.9311266 111.3818734  33.7445636  34.7403003 112.0029003  34.8632426
  41.6076813 101.7218489  44.6302881  41.6564968 102.5980612  44.2480650
  42.1499327 101.1795883  44.0574524  52.0931659 112.2659613  43.9104018
  51.3027202 112.2483752  43.3708517  51.8565013 112.8047906  44.6653054
  52.2129534 109.1152079  41.2236746  52.2627539 108.9502087  42.1652269
  52.1043457 108.2479338  40.8334627  41.0965792 111.7940625  28.5128835
  41.2453913 112.4776089  27.8595508  41.9032236 111.7745715  29.0278291
  49.5033296 105.0983007  42.5396053  50.4043159 104.9589472  42.2480051
  49.5781271 105.2637462  43.4794231  43.8376101 102.4749862  41.3849239
  42.9679411 102.7683428  41.1131828  44.0735582 103.0590307  42.1056503
  53.7147730 111.5349021  41.4678768  53.4232539 111.8979001  42.3042229
  53.1019862 110.8216029  41.2892100  54.9143413 109.1001900  33.9881338
  55.7490304 109.5391704  34.1518899  55.0502542 108.6240554  33.1689584
  51.9634919 106.6581635  39.9358826  52.4389040 106.8509282  39.1277677
  51.0400484 106.7140821  39.6902210  38.8518425 107.8205802  29.5189904
  38.6064467 106.9168132  29.7170114  39.0214340 107.8222953  28.5769382
  46.5415135  98.6929479  38.9014660  47.0597079  99.4290506  38.5761148
  46.1870268  98.9993472  39.7361419  38.1214073 103.5534160  27.0176066
  37.4283318 103.6278515  26.3616102  37.8765825 102.7894504  27.5397583
  46.7927729  95.1129761  34.4215556  47.0729483  94.4452950  35.0475983
  47.5778336  95.3058857  33.9090220  44.5961198 114.2888755  25.9840583
  44.0235165 114.9078942  25.5311055  45.1693991 114.8388117  26.5180505
  50.6636588 103.5347395  38.1687132  51.6154011 103.6345493  38.1899356
  50.4940038 102.7425664  38.6785216  48.6850967 100.6202979  38.3546532
  48.0900899 100.9007991  37.6593021  48.4000664 101.1096879  39.1263274
  47.8158458 114.5725905  27.1149165  48.7489131 114.5071467  27.3182041
  47.7281670 115.4082172  26.6563698  50.4446474 113.8891776  24.0753113
  50.3660106 113.5551639  24.9688870  51.2656141 114.3813544  24.0744585
  53.1424665 106.7553515  37.2829431  53.1100986 105.8169516  37.4689115
  53.7525289 106.8337552  36.5495256  44.9807996 105.6249568  23.3256635
  45.9267101 105.4955776  23.3945053  44.6022241 104.8864230  23.8026063
  53.2919154 103.5464558  37.3287714  52.7758203 102.7623015  37.1417643
  54.1759102 103.2183275  37.4934234  50.9529881  97.2905574  33.2883527
  50.7554702  96.9820662  34.1726859  51.5629586  98.0167213  33.4181457
  58.9601215 107.8169522  36.4235468  59.6904604 107.5554810  36.9843171
  58.3508161 107.0798244  36.4637536  57.0416512 105.9577384  37.0209919
  56.3149676 105.8233349  36.4126411  56.6263799 106.2654213  37.8266637
  44.8646689 109.6767314  44.7857292  45.7849698 109.8545913  44.9797339
  44.8296272 108.7323359  44.6336991  43.1650913 103.5499544  23.2611520
  42.2582369 103.2532657  23.3374234  43.4426894 103.2529362  22.3945807
  34.0828854 104.8705908  33.7110567  33.7631638 104.0171216  33.4184941
  33.5362282 105.0854486  34.4668534  37.8608761 107.5868349  37.4280073
  38.0794771 108.5185457  37.4468107  38.2734535 107.2276323  38.2134877
  44.7812979  98.0936434  29.4155762  43.9713708  97.7483519  29.7911008
  45.4697396  97.7843978  30.0043373  46.7103527  97.1714481  31.0380058
  47.2634566  97.5909934  31.6970081  46.9473614  96.2450229  31.0803014
  42.7336627 103.1601555  46.8182822  42.6333354 104.1095911  46.7494913
  42.5158169 102.8319793  45.9458892  41.9349698 100.4086480  23.4023500
  42.7968862 100.7341378  23.6619317  42.1200042  99.6217975  22.8896565
  33.9517114 108.4908819  35.6803688  33.2580585 108.0762772  35.1673643
  34.6990105 108.5329356  35.0837107  50.0882335  99.2815006  30.5458723
  49.5081004  99.9399810  30.1636775  49.8218267  98.4592351  30.1346140
  48.5385901  98.6820064  32.7480043  49.0385679  98.7936598  31.9394362
  49.1821509  98.3781117  33.3880851  42.5967897 106.5898693  45.6347884
  42.1134978 107.3899053  45.8411773  42.6828836 106.6006638  44.6815328
  35.8653856 108.4227073  33.5569703  35.8424544 108.5214760  32.6051586
  36.1754493 109.2692224  33.8786869  38.5241234 110.4803228  37.6716318
  39.4784488 110.4487170  37.6046249  38.3253758 110.0193852  38.4866544
  39.1140616 109.0504344  40.2387115  39.9333505 109.5448423  40.2621953
  39.3877424 108.1336312  40.2104683  48.8707213 101.4415096  29.6015071
  47.9833068 101.7264747  29.3835266  49.2861202 101.2808860  28.7542348
  52.2221749 101.4661617  33.3169410  52.9982139 101.9558070  33.5894027
  51.4969883 101.8919672  33.7741280  54.6594307 102.1789237  34.3743351
  55.2538798 101.9384973  33.6636659  54.7320891 101.4596367  35.0016887
  48.0150426 111.2059771  23.6963091  48.7186276 111.4109774  24.3120746
  47.2913075 111.7736533  23.9612174  48.8448236 106.9569632  29.8165361
  48.7883438 107.4138184  28.9772993  49.3976579 106.1960317  29.6388204
  52.6553042 102.7459364  30.6415481  52.3989976 102.3456000  31.4723688
  52.0305910 103.4603158  30.5165620  56.9665380 105.4855437  33.1486772
  56.4064938 105.5548627  33.9218334  56.3608883 105.3096422  32.4286268
  49.9237123 111.6442300  25.7461551  50.7582727 111.2123499  25.5639026
  49.7621466 111.4724314  26.6738445  49.5783016 108.1474414  27.1117890
  49.5231819 107.9818685  26.1706334  48.9529071 108.8550447  27.2680080
  34.3675531 103.3842478  40.9379312  35.0134394 102.8741432  41.4266538
  34.1592682 104.1211160  41.5122738  46.8928923 110.4523325  46.4371453
  47.7620082 110.6263978  46.0758088  46.4135674 111.2717742  46.3147182
  42.8879141  97.6482523  26.6903209  42.8757811  98.5924363  26.8471479
  43.7802563  97.4652668  26.3962670  41.0615103 117.5720426  38.1160887
  41.9642350 117.6044037  38.4327382  40.8352473 116.6420877  38.1307222
  42.8168705 116.3251413  34.7770965  41.8664336 116.3253275  34.6635338
  43.1201191 115.5784148  34.2607000  46.7031261  94.2425299  30.9449145
  45.9363656  93.6883786  31.0905828  47.1141966  94.3147168  31.8063297
  38.7073022 100.5310095  45.0354327  39.5704483 100.1746900  45.2457651
  38.1338432 100.1923990  45.7229731  58.5521399 122.1611951  35.8416728
  59.1899809 122.0418699  35.1380068  58.4342241 123.1092795  35.9004680
  55.3611105 122.1139380  35.7778252  55.0229616 121.9980444  34.8898787
  56.2300873 121.7130545  35.7579259  55.8430888 123.2674231  41.7364458
  55.8319529 122.8727030  40.8644962  56.0051527 122.5340304  42.3298229
  53.0619384 120.8827627  25.1095192  53.3144905 120.3609148  24.3478655
  52.1243943 120.7193772  25.2121876  58.1062667 119.8863405  32.9169936
  58.8925756 119.4682828  32.5660353  58.3701371 120.7909497  33.0851584
  63.5071094 119.8238638  33.8202914  64.2396266 119.2537855  34.0540744
  62.7510450 119.4360239  34.2609420  55.1247214 122.2465880  31.0166257
  54.7605421 121.7196501  31.7279178  55.9814330 121.8564349  30.8432742
  61.0296515 113.5360213  38.2797523  60.6979839 114.4055624  38.0558738
  60.4342128 113.2196497  38.9591553  54.7652701 117.2755780  26.0127605
  54.9327103 118.1436016  26.3798076  54.5749870 117.4383061  25.0888894
  60.9225178 118.2555299  35.3590873  60.0142055 118.1870707  35.0649634
  60.8712774 118.7327244  36.1872698  54.7441922 119.7313437  26.9974272
  54.6241547 120.1770488  27.8359752  54.0494510 120.0798755  26.4387810
  54.9966044 119.6744944  43.3025770  54.2199378 120.2338864  43.2928635
  55.6356607 120.1601727  43.8240640  62.7886824 116.4571737  37.1368747
  62.1461204 116.7504270  36.4908541  62.2841753 116.3424657  37.9421943
  60.4426988 120.2034910  27.8254606  61.3544844 120.4362297  27.6502304
  59.9336635 120.7871955  27.2629685  55.0798826 119.5632145  38.8349456
  55.9260021 119.9871558  38.9784105  55.0197463 118.9065769  39.5288019
  58.2298271 117.2236513  40.4930629  57.9859203 117.9778574  39.9564905
  58.5058201 117.6021861  41.3277876  60.1836734 123.7675126  39.1707895
  60.3953629 124.4106886  38.4942276  60.1366482 122.9337442  38.7029825
  57.7862963 116.3792946  36.0744467  56.9247442 116.6774200  36.3661205
  57.8125397 116.5963345  35.1425500  53.5393418 121.0458289  29.2907838
  54.2417461 121.4979333  29.7581764  53.2074047 120.4042108  29.9187731
  51.9873780 119.6370046  43.6659047  51.3572440 120.3186327  43.8994444
  51.8809868 119.5253127  42.7212185  47.2818752 119.3041842  34.5924971
  46.4917806 119.5599370  34.1165082  47.7729999 120.1190180  34.6977012
  49.2333497 119.6686421  31.5508448  48.4364661 119.7805115  32.0691944
  49.0059090 120.0073073  30.6849339  69.3888555 122.9885830  33.6915224
  68.6352263 122.4193228  33.5359228  69.5236096 122.9548494  34.6385858
  51.2654522 113.9390812  46.0284298  50.8721468 113.3857010  46.7031942
  52.0820663 114.2501390  46.4190816  54.1822483 115.3548691  43.6204555
  54.9232197 115.9555844  43.5409017  54.4140406 114.6126329  43.0622597
  58.1279646 111.3829794  37.8968836  57.7843916 112.2731435  37.8207947
  58.4958609 111.1931451  37.0338421  58.0929929 121.3738405  26.4041272
  57.5776552 122.1443010  26.6429659  57.8207237 120.7003541  27.0274333
  55.6777040 116.2188106  31.4626510  54.8218636 115.8294956  31.2832149
  56.0903992 116.2980066  30.6026295  57.2076187 113.7534449  35.8618070
  56.7040982 113.7164584  35.0485875  57.5006794 114.6627192  35.9214726
  53.4519073 113.8373179  34.8684251  54.3172069 113.6415987  34.5090141
  53.5196582 113.6083530  35.7953608  63.0664203 124.1270760  28.3394445
  62.2893646 123.7881919  27.8949607  63.7455684 124.1323383  27.6649410
  57.8816232 119.2465497  28.2301053  57.5766368 119.5611646  29.0811196
  58.8346674 119.3246917  28.2728386  61.3055510 123.6004741  34.9961053
  60.6479185 124.2904002  35.0841182  62.1095909 123.9901173  35.3395039
  51.0581392 116.0675387  32.2400618  51.6325144 115.8450568  31.5073811
  51.6452374 116.1364081  32.9929220  60.1160969 121.9549113  33.0464995
  60.6292851 122.5879105  33.5486705  60.7662193 121.3550309  32.6808355
  51.3850979 118.0979848  26.2596504  50.5488291 118.4354534  26.5805778
  51.2455748 117.9628827  25.3223640  53.3604059 112.9416635  30.9675688
  52.7068472 112.6265653  30.3432302  53.3184534 112.3192376  31.6935511
  56.5941800 119.4298569  35.2923335  55.6764361 119.6513516  35.1345023
  57.0101943 119.5044879  34.4335043  57.3776848 120.8289985  30.4226016
  58.1248666 121.3411382  30.1133138  57.6468437 120.5074037  31.2830409
  59.8255685 117.8647101  32.4044805  59.0878441 117.3524487  32.7355047
  60.0782458 117.4247483  31.5928082  59.9267312 110.6423353  32.9986574
  60.2326189 109.7820716  32.7112489  60.6519917 111.2340973  32.7985568
  54.1988392 120.9377146  33.5062765  54.2537002 119.9850982  33.4305242
  53.3879594 121.0936585  33.9904064  52.1380752 119.5554206  31.2653144
  51.3248617 119.8548376  31.6718336  52.6339746 119.1609895  31.9827626
  57.7354963 120.0196030  40.0968038  58.0904351 120.2467503  40.9562504
  58.3827095 120.3514407  39.4745293  63.4652700 123.1414466  30.8017367
  63.3270599 123.3316062  29.8738556  63.1088919 123.9033849  31.2585418
  51.6294826 117.1272561  36.8814379  52.2694206 116.9861320  36.1837342
  50.7972357 116.8407075  36.5052981  63.4922080 125.2090993  35.8128638
  63.9258587 125.1166282  36.6611693  64.2053661 125.1848494  35.1748654
  48.7137894 120.5718073  29.0709124  47.7835482 120.5102529  29.2879086
  48.8095366 120.0494026  28.2745765  48.6323443 117.0972886  31.6587366
  48.8930260 118.0118220  31.5496526  49.4540615 116.6297329  31.8083979
  50.1048368 118.5110643  38.8286190  50.7771422 118.3028006  38.1798839
  49.2778155 118.3132729  38.3891423  64.3537629 125.2514694  38.3461524
  64.5473520 126.1560504  38.5920799  64.2538248 124.7922113  39.1800109
  56.0073940 115.1372584  40.8451851  55.3601855 115.8362534  40.7516328
  56.7774956 115.5708728  41.2128099  56.1838075 122.9753349  38.9048671
  57.1130135 123.1264509  38.7317638  55.7629105 123.0637370  38.0497317
  59.4690813 123.7241651  24.3373106  58.8519984 122.9988479  24.2406159
  59.0007302 124.4851011  23.9940180  53.1358166 121.4973206  39.0772307
  53.8457785 120.8566398  39.0358926  53.0927474 121.7486101  39.9998488
  51.8487100 118.4838424  40.8967947  51.3124457 118.0329162  41.5489543
  51.2603809 118.6184332  40.1538411  51.2589359 117.9427075  23.4594410
  50.3818825 117.8215876  23.0956657  51.7347112 117.1513153  23.2073299
  47.5826221 117.6194431  37.9820941  47.4984410 117.0120101  37.2471351
  46.7608928 118.1103450  37.9830437  57.7549935 116.1047995  33.3491136
  58.2518635 115.3517957  33.0292206  56.9836917 116.1412312  32.7834346
  65.6079693 121.8088360  34.9909428  65.5969569 122.6913076  34.6203361
  64.7397072 121.4559911  34.7963965  54.3384904 118.2465378  33.0762821
  53.9682691 117.6936418  33.7643726  54.8343996 117.6423511  32.5237821
  62.2252267 120.7037001  31.4579594  62.6912719 121.5364993  31.3839896
  62.6759768 120.2381983  32.1624852  60.1968930 113.0717588  35.4970495
  59.2832010 113.3021815  35.6652702  60.6262031 113.1556032  36.3484527
  59.9675388 121.2607480  37.9970389  59.3146839 121.5083388  37.3422842
  60.3455768 120.4471618  37.6632866  56.0162961 122.0027291  44.4836426
  55.3403598 121.9021421  45.1538801  56.8390595 121.8466505  44.9472423
  49.7350238 115.6569369  39.3215927  49.7991564 116.5184200  38.9093325
  49.6717358 115.0443370  38.5888285  49.2102510 117.7292501  42.9688961
  49.8374549 117.3469578  43.5826485  48.3530429 117.5106703  43.3344654
  45.9868053 119.5368930  28.9007316  46.2821494 118.6279609  28.8474370
  45.0856089 119.5156670  28.5788318  49.5162300 117.6124927  34.8834865
  48.7948886 118.2260895  34.7442338  50.3055556 118.1482692  34.8051510
  52.3188613 114.9479353  41.1575516  52.8423015 115.1941650  41.9201826
  52.1000947 115.7799388  40.7378654  47.7155894 117.2183028  29.0246641
  47.3868601 116.3380407  28.8421747  48.0695265 117.1630697  29.9123030
  50.8297718 117.5055998  29.3922119  51.1693790 118.0341919  28.6700727
  51.2769838 117.8436404  30.1680685  53.5241158 115.8893048  38.8425187
  53.1837979 115.0900862  39.2445867  52.8180165 116.1894759  38.2702020
  54.1757630 112.9742361  37.2952510  54.9983700 112.5002839  37.1731400
  54.4195694 113.7532845  37.7951196  52.8165865 116.0030619  27.5915412
  53.5374227 116.3811872  27.0879128  52.1931169 116.7219496  27.6950389
  56.9596988 116.7075768  28.5273744  57.1760602 117.5900406  28.2262572
  56.4791055 116.3161982  27.7979386  51.6996209 119.6661482  35.1044488
  51.5540790 119.9801785  35.9968770  51.2221413 120.2846382  34.5515387
  53.5592592 116.6564030  35.1525378  53.5454161 115.7605123  34.8157676
  54.2765020 116.6634693  35.7863664  55.4118723 117.0901370  37.1978505
  55.1536500 118.0118440  37.1962836  54.8803763 116.6931804  37.8878970
  52.9629488 115.5378410  30.4212948  53.0845399 114.6095056  30.6203836
  52.6731530 115.5517096  29.5091264  55.8320678 113.2233320  33.5579668
  55.8542375 113.2872653  32.6031648  56.2488737 112.3837829  33.7520174
  66.2104303 122.9588580  31.5958891  66.6535449 122.2095905  31.1978014
  65.3330813 122.9498716  31.2132623  52.4470567 117.0510407  44.6302881
  52.4958723 117.9272530  44.2480650  52.9893082 116.5087800  44.0574524
  63.0523288 124.4443997  41.2236746  63.1021293 124.2794004  42.1652269
  62.9437211 123.5771256  40.8334627  60.3427050 120.4274925  42.5396053
  61.2436913 120.2881390  42.2480051  60.4175025 120.5929380  43.4794231
  54.6769856 117.8041780  41.3849239  53.8073165 118.0975346  41.1131828
  54.9129336 118.3882225  42.1056503  65.7537167 124.4293818  33.9881338
  66.5884059 124.8683622  34.1518899  65.8896296 123.9532471  33.1689584
  62.8028673 121.9873553  39.9358826  63.2782795 122.1801199  39.1277677
  61.8794239 122.0432739  39.6902210  57.3808890 114.0221396  38.9014660
  57.8990834 114.7582423  38.5761148  57.0264022 114.3285390  39.7361419
  48.9607827 118.8826078  27.0176066  48.2677072 118.9570433  26.3616102
  48.7159579 118.1186421  27.5397583  57.6321484 110.4421679  34.4215556
  57.9123238 109.7744868  35.0475983  58.4172091 110.6350775  33.9090220
  61.5030342 118.8639313  38.1687132  62.4547765 118.9637411  38.1899356
  61.3333793 118.0717582  38.6785216  59.5244722 115.9494896  38.3546532
  58.9294654 116.2299909  37.6593021  59.2394418 116.4388797  39.1263274
  63.9818420 122.0845433  37.2829431  63.9494740 121.1461433  37.4689115
  64.5919044 122.1629469  36.5495256  55.8201751 120.9541486  23.3256635
  56.7660856 120.8247694  23.3945053  55.4415996 120.2156148  23.8026063
  64.1312908 118.8756476  37.3287714  63.6151957 118.0914933  37.1417643
  65.0152857 118.5475193  37.4934234  61.7923635 112.6197492  33.2883527
  61.5948456 112.3112580  34.1726859  62.4023341 113.3459131  33.4181457
  69.7994970 123.1461440  36.4235468  70.5298358 122.8846728  36.9843171
  69.1901915 122.4090161  36.4637536  67.8810267 121.2869302  37.0209919
  67.1543430 121.1525267  36.4126411  67.4657554 121.5946131  37.8266637
  54.0044668 118.8791462  23.2611520  53.0976123 118.5824575  23.3374234
  54.2820649 118.5821280  22.3945807  55.6206734 113.4228352  29.4155762
  54.8107462 113.0775437  29.7911008  56.3091151 113.1135896  30.0043373
  57.5497282 112.5006399  31.0380058  58.1028321 112.9201852  31.6970081
  57.7867368 111.5742147  31.0803014  53.5730381 118.4893472  46.8182822
  53.4727108 119.4387829  46.7494913  53.3551923 118.1611711  45.9458892
  52.7743453 115.7378397  23.4023500  53.6362617 116.0633296  23.6619317
  52.9593797 114.9509893  22.8896565  60.9276089 114.6106924  30.5458723
  60.3474758 115.2691728  30.1636775  60.6612022 113.7884268  30.1346140
  59.3779655 114.0111981  32.7480043  59.8779434 114.1228516  31.9394362
  60.0215263 113.7073034  33.3880851  59.7100967 116.7707014  29.6015071
  58.8226822 117.0556665  29.3835266  60.1254956 116.6100777  28.7542348
  63.0615503 116.7953535  33.3169410  63.8375893 117.2849988  33.5894027
  62.3363637 117.2211589  33.7741280  65.4988062 117.5081154  34.3743351
  66.0932553 117.2676890  33.6636659  65.5714646 116.7888285  35.0016887
  59.6841991 122.2861550  29.8165361  59.6277192 122.7430101  28.9772993
  60.2370333 121.5252235  29.6388204  63.4946797 118.0751282  30.6415481
  63.2383731 117.6747918  31.4723688  62.8699665 118.7895076  30.5165620
  67.8059135 120.8147355  33.1486772  67.2458693 120.8840544  33.9218334
  67.2002638 120.6388340  32.4286268  60.4176770 123.4766331  27.1117890
  60.3625574 123.3110603  26.1706334  59.7922825 124.1842364  27.2680080
  45.2069285 118.7134396  40.9379312  45.8528149 118.2033350  41.4266538
  44.9986436 119.4503077  41.5122738  53.7272896 112.9774440  26.6903209
  53.7151565 113.9216280  26.8471479  54.6196317 112.7944586  26.3962670
  57.5425015 109.5717217  30.9449145  56.7757411 109.0175704  31.0905828
  57.9535720 109.6439086  31.8063297  49.5466776 115.8602013  45.0354327
  50.4098238 115.5038818  45.2457651  48.9732187 115.5215908  45.7229731
  68.9673401 126.7121711  37.8968836  68.6237670 127.6023353  37.8207947
  69.3352363 126.5223369  37.0338421  70.7661066 125.9715271  32.9986574
  71.0719943 125.1112634  32.7112489  71.4913671 126.5632891  32.7985568
  68.4715238 125.7713597  34.4215556  68.7516992 125.1036786  35.0475983
  69.2565845 125.9642692  33.9090220  72.6317390 127.9489409  33.2883527
  72.4342211 127.6404498  34.1726859  73.2417095 128.6751048  33.4181457
  68.3818770 124.9009135  30.9449145  67.6151165 124.3467621  31.0905828
  68.7929475 124.9731003  31.8063297   6.9276174  28.7943093  28.7224193
   6.8688720  28.1102313  28.0554776   7.3295692  29.5362083  28.2704819
   5.4127847  28.4958011  31.2988003   5.9567751  29.1087969  30.8042958
   4.8314692  29.0537589  31.8155016   8.7356642  27.9554065  30.6349324
   7.9452186  27.9378203  30.0953824   8.4989996  28.4942358  31.3898361
  10.3572714  27.2243472  28.1924075  10.0657522  27.5873453  29.0287536
   9.7444845  26.5110481  28.0137407   3.5353906  26.1417777  33.1616760
   4.4045066  26.3158430  32.8003395   3.0560658  26.9612194  33.0392489
  15.1946382  37.8506403  22.5662034  15.8324792  37.7313151  21.8625374
  15.0767225  38.7987247  22.6249986  12.0036088  37.8033831  22.5023559
  11.6654600  37.6874896  21.6144094  12.8725856  37.4024997  22.4824565
  12.4855871  38.9568683  28.4609765  12.4744512  38.5621481  27.5890268
  12.6476511  38.2234756  29.0543536   5.4087336  41.1520499  21.3304670
   6.2008628  40.8111324  20.9150970   5.6483986  41.2615474  22.2506824
   9.2063132  41.7405795  27.4088949   8.9152998  42.6451426  27.2935615
   9.8420117  41.7822323  28.1233018  10.1319339  39.1182643  23.9990308
  10.7282911  38.8938666  23.2847271  10.1894311  38.3767389  24.6015756
  20.1496077  35.5133090  20.5448221  20.8821249  34.9432307  20.7786050
  19.3935433  35.1254691  20.9854726  17.6721498  29.2254664  25.0042829
  17.3404823  30.0950075  24.7804044  17.0767111  28.9090948  25.6836860
  14.1653017  41.4267210  24.4038742  13.8653740  42.3292249  24.2954549
  13.8204077  41.1599394  25.2559895  17.5650161  33.9449751  22.0836180
  16.6567038  33.8765159  21.7894940  17.5137757  34.4221696  22.9118005
   9.1473797  48.1911531  17.3709710   9.0697827  49.1419356  17.4498190
   8.5435441  47.8457403  18.0284636  11.6391027  35.3639396  30.0271077
  10.8624361  35.9233316  30.0173941  12.2781590  35.8496179  30.5485947
  19.4311808  32.1466189  23.8614053  18.7886188  32.4398722  23.2153848
  18.9266736  32.0319109  24.6667250   9.8937399  38.1724850  29.5889044
  10.6352084  38.7109894  29.3123867   9.1874385  38.7991138  29.7460596
  15.3692739  40.3153990  28.1861205  15.7776095  39.8736401  27.4415838
  14.6470000  39.7406618  28.4395398  11.7223809  35.2526597  25.5594762
  12.5685004  35.6766010  25.7029411  11.6622447  34.5960221  26.2533325
  15.6921554  40.8755181  21.9413494  15.0630416  41.0400895  21.2389562
  15.3047216  41.2896790  22.7124458  19.5710785  41.8109619  19.2957858
  18.8861824  42.1908520  18.7454891  19.6554635  42.4204945  20.0289806
  14.8723254  32.9130965  27.2175936  14.6284186  33.6673026  26.6810212
  15.1483185  33.2916313  28.0523183  16.8261717  39.4569578  25.8953201
  17.0378612  40.1001337  25.2187583  16.7791465  38.6231894  25.4275132
   8.1373596  40.1601070  22.1443343   8.7074954  40.5888339  21.5060827
   8.7281708  39.8783655  22.8427528   8.6298763  35.3264498  30.3904354
   7.9997424  36.0080779  30.6239751   8.5234851  35.2147579  29.4457492
  17.9407545  42.3341533  24.0675559  18.7624989  41.9321720  23.7858240
  17.9369948  42.2309767  25.0191675  11.7064148  41.8825576  26.2236269
  11.7708581  42.3445984  27.0594441  10.9975072  41.2522941  26.3518579
  26.0313538  38.6780281  20.4160530  25.2777246  38.1087680  20.2604535
  26.1661079  38.6442946  21.3631165   7.9079506  29.6285264  32.7529605
   7.5146451  29.0751462  33.4277249   8.7245646  29.9395842  33.1436122
   6.6836448  44.1834878  18.7465928   6.8603076  45.1052843  18.5586912
   7.4793282  43.8693297  19.1760308  10.8247467  31.0443143  30.3449861
  11.5657180  31.6450296  30.2654324  11.0565390  30.3020781  29.7867904
   5.9688805  36.2299510  28.6228091   5.8542320  35.3284767  28.9235190
   5.1133322  36.4763207  28.2712908  13.0480642  44.1717250  30.2215592
  12.6044497  43.3853629  29.9036496  13.7097856  44.3596401  29.5559482
   7.8067764  45.7013052  24.7476270   8.3575189  45.5730115  23.9753264
   6.9679240  46.0007941  24.3971163  15.1461881  44.4520050  28.2496993
  15.1280356  45.2728931  27.7577262  16.0681801  44.3274125  28.4747134
  11.6034935  41.9664180  29.0920501  12.1363271  41.2052468  28.8619809
  11.0749016  41.6737832  29.8344656  17.9480493  39.2899193  21.7206360
  17.2904168  39.9798454  21.8086488  18.7520893  39.6795625  22.0640346
  16.7585952  37.6443565  19.7710301  17.2717834  38.2773557  20.2732011
  17.4087176  37.0444761  19.4053661  13.2366783  35.1193021  22.0168642
  12.3189344  35.3407968  21.8590330  13.6526927  35.1939331  21.1580349
  17.5247748  42.6249567  17.8989444  17.0710076  41.7840477  17.9554635
  16.8941715  43.2610965  18.2364224  15.9680688  44.4626063  18.8339262
  16.2603662  45.0231121  18.1151628  16.4779308  44.7554624  19.5892421
  10.9314313  45.2406415  19.9232715  10.8890492  45.4667261  18.9941247
  11.8477012  45.0069789  20.0718517  14.3779947  35.7090482  26.8213345
  14.7329334  35.9361955  27.6807810  15.0252078  36.0408859  26.1990600
  20.1077684  38.8308918  17.5262674  19.9695582  39.0210514  16.5983863
  19.7513902  39.5928301  17.9830725  20.1347063  40.8985445  22.5373945
  20.5683570  40.8060734  23.3856999  20.8478644  40.8742945  21.8993961
  13.8674958  44.4987539  24.0707046  13.9211980  45.0678475  24.8384762
  12.9989739  44.6689424  23.7061083   6.7473351  34.2005095  25.5531497
   7.4196405  33.9922457  24.9044146   5.9203138  34.0027181  25.1136729
  20.9962613  40.9409146  25.0706831  21.1898503  41.8454956  25.3166105
  20.8963231  40.4816565  25.9045416  12.6498923  30.8267036  27.5697158
  12.0026839  31.5256986  27.4761634  13.4199939  31.2603180  27.9373406
  16.0577721  41.0915888  30.6447711  15.9063228  40.8626440  29.7277795
  16.0482401  42.0486490  30.6579056  12.8263058  38.6647801  25.6293978
  13.7555118  38.8158961  25.4562945  12.4054088  38.7531822  24.7742624
  11.6251390  42.6898466  23.3992515  11.4862475  42.3217250  24.2718453
  10.8365986  43.2046105  23.2276473  12.2199542  47.7907562  14.7418052
  12.3951297  47.3195605  15.5563674  11.5332330  48.4173328  14.9699312
  13.1756605  42.0680068  20.7881353  12.8406437  42.0280838  21.6839003
  12.6760550  41.4024784  20.3151763   7.1500849  37.4747698  26.3133934
   7.0120647  36.7427937  26.9145473   8.0605772  37.3856598  26.0318122
   9.7783149  37.1867658  25.8017614  10.4882768  36.5460850  25.7604232
   9.7352458  37.4380552  26.7243795  17.7669928  44.1235011  28.7224193
  17.7082474  43.4394231  28.0554776  18.1689446  44.8654001  28.2704819
   8.4912083  34.1732876  27.6213253   7.9549440  33.7223614  28.2734850
   7.9028792  34.3078784  26.8783718   6.7860627  50.9396925  21.5157912
   7.0257225  51.5715449  22.1936930   5.9429823  50.5884965  21.8023271
  17.7687335  42.0874595  26.9538173  16.8814114  41.7500517  27.0764572
  18.3385886  41.3557626  27.1906938  11.2988489  46.7476047  23.9199416
  11.2258660  47.5531019  24.4318720  10.8565882  46.9468013  23.0947437
  11.0878268  45.9847817  17.4302237  10.3045790  46.5269497  17.5240462
  11.7871014  46.5021797  17.8296479  22.2504676  37.4982812  21.7154734
  22.2394552  38.3807528  21.3448667  21.3822055  37.1454363  21.5209271
  13.7587172  46.6462881  26.0757575  14.4715144  47.2810346  26.0033476
  13.2677201  46.7426747  25.2597576   8.8099086  44.3957325  26.8963145
   9.5108545  45.0293808  27.0492540   8.3394201  44.7372056  26.1358785
  16.6100372  36.9501932  24.7215696  15.9571822  37.1977840  24.0668148
  16.9880752  36.1366070  24.3878173  13.5707546  46.9861625  18.8243866
  13.7529940  46.1683281  19.2871618  14.3940532  47.2029318  18.3868756
  13.9049711  45.9129811  16.0858914  14.4337478  45.4022265  15.4729077
  14.1677931  45.5972341  16.9504448  12.6587945  37.6921743  31.2081733
  11.9828582  37.5915873  31.8784108  13.4815579  37.5360957  31.6717730
   4.4066804  43.9293680  23.8294248   4.9920241  43.1837368  23.9622152
   4.2091642  44.2397637  24.7130912   7.2605459  46.9644927  18.8456690
   6.5915834  47.4491055  18.3620730   7.1218329  47.2114148  19.7600069
  11.4010728  48.9988671  25.4439349  11.9529036  49.1620292  26.2088434
  11.7416921  49.5893109  24.7719374   5.8527493  33.4186953  29.6934268
   6.4799532  33.0364030  30.3071792   4.9955412  33.2001155  30.0589960
  16.2521602  43.8249928  31.2988003  16.7961506  44.4379886  30.8042958
  15.6708447  44.3829507  31.8155016  14.5379115  46.9470646  22.4303031
  14.4130254  46.1460386  21.9213976  15.1958206  47.4416840  21.9417001
  16.6014023  44.7479666  24.0582581  15.6544359  44.6285018  23.9860908
  16.9496796  43.8602164  24.1408842   8.9613597  30.6373805  27.8820823
   9.4847998  30.8836102  28.6447132   8.7425930  31.4693840  27.4623960
  13.6060457  44.5432383  20.2586933  13.4585419  43.6149090  20.4394503
  14.4313950  44.5652473  19.7744009  17.2094578  45.3660941  21.3451806
  18.1341126  45.1603803  21.2076257  17.0409882  45.1177342  22.2541148
  10.1666142  31.5787500  25.5670493   9.8262962  30.7795313  25.9691173
   9.4605148  31.8789211  24.9947327  12.0543706  32.7795822  23.9223812
  11.7961484  33.7012892  23.9208143  11.5228746  32.3826256  24.6124276
  16.9989895  45.8846609  16.7013897  17.1726772  45.3193031  15.9487750
  17.4918786  46.6847504  16.5193387   2.8166854  37.8961278  24.7677456
   2.2720323  38.6721086  24.8997731   3.6946204  38.2432082  24.6096578
  22.8529286  38.6483032  18.3204197  23.2960432  37.8990357  17.9223320
  21.9755796  38.6393168  17.9377929  17.9865067  45.2013373  13.8010796
  18.6815972  45.8220066  14.0198110  18.3288217  44.3508724  14.0763174
   3.6032876  37.0231174  27.6607613   2.8614612  37.1713809  28.2472244
   3.2825621  37.2839440  26.7974363  19.8856490  42.6513079  15.3298127
  20.4107814  42.9900351  14.6047447  19.7978843  41.7160094  15.1461261
  11.5476539  46.5647152  27.4588003  11.8563665  46.3196299  28.3310703
  12.3452021  46.7693791  26.9706873  11.5697151  48.7185062  19.6893380
  11.1302141  48.2261441  20.3826236  12.3205268  48.1758030  19.4485455
   4.0489490  44.9096603  19.6918008   4.8747510  44.6100375  19.3116651
   3.6983542  44.1404225  20.1407796   9.0171023  44.2623071  21.7615681
   8.3951032  43.5993776  21.4617909   9.6875890  44.2884203  21.0789329
   9.0895551  32.7404859  31.3548187   9.1383706  33.6166982  30.9725957
   9.6318065  32.1982252  30.7819831  19.5750396  43.2845982  30.6349324
  18.7845940  43.2670121  30.0953824  19.3383751  43.8234276  31.3898361
  19.6948271  40.1338449  27.9482053  19.7446276  39.9688456  28.8897576
  19.5862195  39.2665708  27.5579934  16.9852034  36.1169377  29.2641360
  17.8861897  35.9775842  28.9725358  17.0600008  36.2823832  30.2039537
  11.3194839  33.4936231  28.1094546  10.4498149  33.7869797  27.8377135
  11.5554319  34.0776676  28.8301810  21.1966468  42.5535390  28.1924075
  20.9051277  42.9165371  29.0287536  20.5838599  41.8402398  28.0137407
  22.3962151  40.1188270  20.7126645  23.2309042  40.5578074  20.8764205
  22.5321279  39.6426923  19.8934891  19.4453656  37.6768005  26.6604133
  19.9207778  37.8695651  25.8522984  18.5219222  37.7327191  26.4147516
  14.0233873  29.7115848  25.6259966  14.5415817  30.4476875  25.3006455
  13.6689006  30.0179842  26.4606726  18.1455325  34.5533765  24.8932438
  19.0972748  34.6531863  24.9144662  17.9758776  33.7612033  25.4030523
  16.1669705  31.6389348  25.0791839  15.5719637  31.9194361  24.3838328
  15.8819402  32.1283249  25.8508580  20.6243403  37.7739885  24.0074738
  20.5919723  36.8355885  24.1934422  21.2344027  37.8523921  23.2740563
  20.7737892  34.5650928  24.0533021  20.2576940  33.7809385  23.8662950
  21.6577840  34.2369645  24.2179540  26.4419953  38.8355891  23.1480775
  27.1723342  38.5741180  23.7088478  25.8326899  38.0984613  23.1882843
  24.5235250  36.9763754  23.7455226  23.7968414  36.8419719  23.1371717
  24.1082537  37.2840583  24.5511944  12.3465427  40.6953684  31.5102599
  13.2668436  40.8732283  31.7042645  12.3115010  39.7509729  31.3582298
   5.3427499  38.6054718  24.1525380   5.5613509  39.5371826  24.1713414
   5.7553273  38.2462693  24.9380184  10.2155365  34.1787924  33.5428129
  10.1152091  35.1282281  33.4740220   9.9976907  33.8506163  32.6704199
  10.0786635  37.6085063  32.3593191   9.5953716  38.4085423  32.5657080
  10.1647574  37.6193008  31.4060635   6.0059972  41.4989598  24.3961624
   6.9603226  41.4673540  24.3291556   5.8072496  41.0380221  25.2111850
   6.5959354  40.0690714  26.9632422   7.4152243  40.5634792  26.9867259
   6.8696162  39.1522682  26.9349990  22.1413045  33.1975606  21.0988657
  22.7357536  32.9571342  20.3881966  22.2139629  32.4782737  21.7262194
   4.3610201  47.0409217  21.4131822   4.2264669  46.2809618  20.8469820
   3.9442263  47.7650117  20.9460611  24.4484118  36.5041807  19.8732079
  23.8883676  36.5734996  20.6463641  23.8427621  36.3282792  19.1531575
   7.5179327  47.9378534  21.6250265   7.4011711  48.8823967  21.5228955
   6.6971773  47.6352096  22.0136064   1.8494268  34.4028848  27.6624619
   2.4953132  33.8927802  28.1511844   1.6411420  35.1397529  28.2368044
  14.3747661  41.4709695  33.1616760  15.2438820  41.6450347  32.8003395
  13.8954412  42.2904112  33.0392489   8.5433841  48.5906796  24.8406193
   9.4461088  48.6230406  25.1572688   8.3171211  47.6607247  24.8552529
  10.2987443  47.3437783  21.5016272   9.3483074  47.3439644  21.3880644
  10.6019929  46.5970517  20.9852307   6.1891759  31.5496465  31.7599633
   7.0523221  31.1933269  31.9702958   5.6157170  31.2110359  32.4475038
  26.0340136  53.1798321  22.5662034  26.6718546  53.0605068  21.8625374
  25.9160979  54.1279165  22.6249986  22.8429843  53.1325749  22.5023559
  22.5048354  53.0166814  21.6144094  23.7119611  52.7316914  22.4824565
  18.7016658  54.9861226  18.4920450  18.1381523  54.8951162  17.7236738
  18.5869053  54.1661130  18.9722942  23.3249626  54.2860601  28.4609765
  23.3138266  53.8913399  27.5890268  23.4870265  53.5526673  29.0543536
  16.2481090  56.4812417  21.3304670  17.0402382  56.1403242  20.9150970
  16.4877740  56.5907392  22.2506824  24.2816217  58.6532193  13.8034915
  23.6304197  59.2386274  13.4168929  25.0760580  59.1838388  13.8629952
  18.2071844  55.7421330  14.2022049  18.9802720  55.1950317  14.0634925
  18.5597243  56.6065580  14.4136511  20.0456887  57.0697713  27.4088949
  19.7546753  57.9743343  27.2935615  20.6813871  57.1114240  28.1233018
  20.9713094  54.4474561  23.9990308  21.5676666  54.2230584  23.2847271
  21.0288065  53.7059307  24.6015756  20.5438122  51.9013996  11.8340499
  20.7963643  51.3795518  11.0723962  19.6062681  51.7380142  11.9367183
  25.5881405  50.9049775  19.6415242  26.3744494  50.4869198  19.2905659
  25.8520109  51.8095867  19.8096891  25.7591482  56.3422625  14.3403899
  25.1237315  56.4157252  15.0524804  25.4288889  56.9316224  13.6622978
  30.9889832  50.8425008  20.5448221  31.7215004  50.2724225  20.7786050
  30.2329188  50.4546608  20.9854726  20.2634411  53.8042102  14.0364874
  20.1470669  53.1287006  14.7045958  20.3736671  53.3174476  13.2197027
  22.6065952  53.2652250  17.7411563  22.2424159  52.7382871  18.4524485
  23.4633068  52.8750719  17.5678049  28.5115252  44.5546582  25.0042829
  28.1798577  45.4241993  24.7804044  27.9160866  44.2382866  25.6836860
  22.2471439  48.2942149  12.7372912  22.4145841  49.1622386  13.1043383
  22.0568608  48.4569431  11.8134201  25.0046772  56.7559128  24.4038742
  24.7047495  57.6584167  24.2954549  24.6597831  56.4891311  25.2559895
  18.4559253  53.2072925  20.4375447  17.5309750  53.0749139  20.6453138
  18.7043667  53.9867144  20.9345389  28.4043916  49.2741668  22.0836180
  27.4960793  49.2057077  21.7894940  28.3531511  49.7513613  22.9118005
  22.2260660  50.7499807  13.7219579  22.1060285  51.1956857  14.5605059
  21.5313248  51.0985124  13.1633117  15.8168064  52.8506199  21.2719236
  15.9460446  53.1040677  22.1858647  15.1365516  53.4433907  20.9523891
  19.9867552  63.5203448  17.3709710  19.9091581  64.4711274  17.4498190
  19.3829195  63.1749321  18.0284636  22.4784781  50.6931314  30.0271077
  21.7018115  51.2525234  30.0173941  23.1175344  51.1788097  30.5485947
  30.2705562  47.4758107  23.8614053  29.6279942  47.7690640  23.2153848
  29.7660491  47.3611027  24.6667250  27.9245726  51.2221280  14.5499913
  28.8363582  51.4548667  14.3747610  27.4155373  51.8058324  13.9874991
  20.7331154  53.5016767  29.5889044  21.4745838  54.0401811  29.3123867
  20.0268139  54.1283056  29.7460596  26.2086493  55.6445908  28.1861205
  26.6169849  55.2028318  27.4415838  25.4863755  55.0698535  28.4395398
  22.5617563  50.5818515  25.5594762  23.4078759  51.0057928  25.7029411
  22.5016201  49.9252139  26.2533325  26.5315308  56.2047098  21.9413494
  25.9024170  56.3692812  21.2389562  26.1440970  56.6188708  22.7124458
  30.4104540  57.1401536  19.2957858  29.7255578  57.5200438  18.7454891
  30.4948389  57.7496863  20.0289806  25.7117009  48.2422883  27.2175936
  25.4677941  48.9964943  26.6810212  25.9876939  48.6208230  28.0523183
  27.6655472  54.7861495  25.8953201  27.8772367  55.4293255  25.2187583
  27.6185220  53.9523812  25.4275132  25.2681700  47.3979316  22.7989774
  24.4066179  47.6960569  23.0906511  25.2944135  47.6149715  21.8670806
  22.0843270  55.9421506  19.2063579  22.5481615  56.2209209  18.4168202
  21.8200068  55.0404951  19.0236670  18.9767351  55.4892988  22.1443343
  19.5468708  55.9180256  21.5060827  19.5675463  55.2075573  22.8427528
  21.0212156  52.0644659  16.0153144  21.7236199  52.5165702  16.4827071
  20.6892784  51.4228478  16.6433038  19.4692517  50.6556415  30.3904354
  18.8391178  51.3372696  30.6239751  19.3628605  50.5439497  29.4457492
  14.7637490  50.3228211  21.3170278  13.9736544  50.5785740  20.8410389
  15.2548737  51.1376549  21.4222319  28.7801299  57.6633451  24.0675559
  29.6018743  57.2613638  23.7858240  28.7763702  57.5601685  25.0191675
  16.7152235  50.6872791  18.2753755  15.9183399  50.7991485  18.7937250
  16.4877827  51.0259443  17.4094645  22.5457903  57.2117494  26.2236269
  22.6102335  57.6737901  27.0594441  21.8368827  56.5814859  26.3518579
  13.0475193  50.5758702  23.7485269  13.2983231  51.4605712  24.0142845
  13.5834741  50.3963303  22.9760361  36.8707293  54.0072199  20.4160530
  36.1171001  53.4379597  20.2604535  37.0054834  53.9734864  21.3631165
  22.2605921  58.8785601  16.0915250  22.1251595  59.7237137  16.5200097
  22.8015733  59.0804879  15.3281183  18.7473260  44.9577181  32.7529605
  18.3540206  44.4043380  33.4277249  19.5639401  45.2687760  33.1436122
  15.7135318  56.3961039  16.6643175  16.2259839  57.1904290  16.8148739
  16.3658031  55.6987330  16.5976776  17.5230203  59.5126796  18.7465928
  17.6996831  60.4344760  18.5586912  18.3187036  59.1985215  19.1760308
  21.6641221  46.3735060  30.3449861  22.4050935  46.9742214  30.2654324
  21.8959144  45.6312698  29.7867904  16.8082559  51.5591428  28.6228091
  16.6936074  50.6576685  28.9235190  15.9527077  51.8055124  28.2712908
  23.8874397  59.5009168  30.2215592  23.4438251  58.7145547  29.9036496
  24.5491611  59.6888318  29.5559482  18.6461518  61.0304970  24.7476270
  19.1968943  60.9022033  23.9753264  17.8072994  61.3299859  24.3971163
  25.9855635  59.7811968  28.2496993  25.9674110  60.6020849  27.7577262
  26.9075555  59.6566043  28.4747134  22.4428689  57.2956097  29.0920501
  22.9757026  56.5344386  28.8619809  21.9142770  57.0029749  29.8344656
  25.6098384  42.4016163  24.6214143  25.2662654  43.2917805  24.5453254
  25.9777347  42.2117821  23.7583728  13.6784235  54.7249694  17.4402745
  14.5159457  55.1346702  17.2236453  13.8562502  53.7849136  17.4102939
  25.5748667  52.3924774  13.1286578  25.0595290  53.1629379  13.3674966
  25.3025975  51.7189911  13.7519640  23.1595778  47.2374475  18.1871817
  22.3037374  46.8481326  18.0077455  23.5722730  47.3166436  17.3271602
  24.6894925  44.7720818  22.5863376  24.1859720  44.7350954  21.7731182
  24.9825531  45.6813561  22.6460033  20.9337810  44.8559548  21.5929558
  21.7990807  44.6602357  21.2335448  21.0015319  44.6269900  22.5198915
  30.5482941  55.1457129  15.0639752  29.7712384  54.8068289  14.6194914
  31.2274422  55.1509752  14.3894717  25.3634970  50.2651867  14.9546359
  25.0585106  50.5798016  15.8056503  26.3165412  50.3433286  14.9973692
  23.8081402  56.4242090  16.6039313  23.2802763  55.6894849  16.2912551
  23.3068905  57.2016766  16.3579282  28.7874248  54.6191110  21.7206360
  28.1297922  55.3090372  21.8086488  29.5914647  55.0087542  22.0640346
  18.5400129  47.0861756  18.9645925  19.1143881  46.8636938  18.2319118
  19.1271112  47.1550451  19.7174526  27.5979707  52.9735483  19.7710301
  28.1111588  53.6065475  20.2732011  28.2480931  52.3736679  19.4053661
  18.8669717  49.1166217  12.9841810  18.0307029  49.4540904  13.3051085
  18.7274486  48.9815197  12.0468947  20.8422797  43.9603005  17.6920994
  20.1887210  43.6452022  17.0677609  20.8003271  43.3378745  18.4180817
  21.9534002  54.2422300   9.6074286  21.0461064  54.0111554   9.8065435
  22.4505034  53.4459919   9.7948268  24.8602081  62.9519807  12.5270973
  24.1863780  63.2551504  13.1355930  25.2467903  63.7548888  12.1776430
  24.0760538  50.4484939  22.0168642  23.1583099  50.6699886  21.8590330
  24.4920681  50.5231249  21.1580349  24.8595585  51.8476354  17.1471322
  25.6067404  52.3597751  16.8378444  25.1287175  51.5260407  18.0075716
  23.1322235  54.3434895  14.1298276  22.2233455  54.0593928  14.2270746
  23.1617319  54.7633974  13.2701583  28.3641503  57.9541484  17.8989444
  27.9103830  57.1132394  17.9554635  27.7335470  58.5902883  18.2364224
  27.3074422  48.8833471  19.1290111  26.5697179  48.3710857  19.4600354
  27.5601196  48.4433852  18.3173388  26.8074442  59.7917981  18.8339262
  27.0997417  60.3523038  18.1151628  27.3173063  60.0846542  19.5892421
  27.4086050  41.6609723  19.7231881  27.7144927  40.8007086  19.4357796
  28.1338655  42.2527343  19.5230875  13.7010406  52.0640409  18.1113479
  13.5034806  51.4709770  17.3864545  13.1457070  51.7592619  18.8289417
  21.6807130  51.9563516  20.2308072  21.7355739  51.0037352  20.1550548
  20.8698332  52.1122955  20.7149370  22.8298323  55.8843639  11.4686355
  22.3917753  55.1679498  11.0091992  23.5708764  56.1119753  10.9071446
  19.6199489  50.5740575  17.9898451  18.8067355  50.8734746  18.3963643
  20.1158484  50.1796264  18.7072933  21.7708067  60.5698332  19.9232715
  21.7284246  60.7959179  18.9941247  22.6870766  60.3361707  20.0718517
  25.2173701  51.0382400  26.8213345  25.5723089  51.2653873  27.6807810
  25.8645832  51.3700777  26.1990600  30.9471438  54.1600836  17.5262674
  30.8089337  54.3502432  16.5983863  30.5907657  54.9220219  17.9830725
  19.1113564  48.1458931  23.6059686  19.7512944  48.0047690  22.9082649
  18.2791095  47.8593444  23.2298288  30.9740818  56.2277363  22.5373945
  31.4077324  56.1352652  23.3856999  31.6872398  56.2034863  21.8993961
  19.8873868  57.4461361  19.7194678  20.6814467  56.9511681  19.5177253
  19.1765560  56.9179224  19.3562384  24.7068713  59.8279457  24.0707046
  24.7605735  60.3970393  24.8384762  23.8383494  59.9981342  23.7061083
  16.1956632  51.5904443  15.7954431  15.2654220  51.5288898  16.0124393
  16.2914104  51.0680396  14.9991072  16.1142181  48.1159256  18.3832672
  16.3748998  49.0304589  18.2741833  16.9359353  47.6483698  18.5329285
  17.5867106  49.5297013  25.5531497  18.2590159  49.3214375  24.9044146
  16.7596892  49.3319099  25.1136729  31.8356367  56.2701063  25.0706831
  32.0292257  57.1746874  25.3166105  31.7356985  55.8108482  25.9045416
  23.4892678  46.1558954  27.5697158  22.8420593  46.8548904  27.4761634
  24.2593693  46.5895098  27.9373406  26.8971476  56.4207806  30.6447711
  26.7456982  56.1918358  29.7277795  26.8876155  57.3778408  30.6579056
  23.6656812  53.9939719  25.6293978  24.5948872  54.1450878  25.4562945
  23.2447842  54.0823740  24.7742624  22.4645144  58.0190383  23.3992515
  22.3256230  57.6509168  24.2718453  21.6759740  58.5338023  23.2276473
  23.0593296  63.1199480  14.7418052  23.2345052  62.6487523  15.5563674
  22.3726084  63.7465246  14.9699312  24.0150359  57.3971986  20.7881353
  23.6800192  57.3572756  21.6839003  23.5154305  56.7316702  20.3151763
  17.9894603  52.8039616  26.3133934  17.8514401  52.0719855  26.9145473
  18.8999527  52.7148516  26.0318122  26.9509551  54.7428020  11.0618413
  26.3338722  54.0174848  10.9651465  26.4826039  55.5037381  10.7185487
  20.6176904  52.5159575  25.8017614  21.3276522  51.8752767  25.7604232
  20.5746212  52.7672470  26.7243795  28.6063683  59.4526929  28.7224193
  28.5476229  58.7686149  28.0554776  29.0083201  60.1945919  28.2704819
  19.3305838  49.5024793  27.6213253  18.7943195  49.0515532  28.2734850
  18.7422546  49.6370702  26.8783718  17.6254381  66.2688842  21.5157912
  17.8650980  66.9007367  22.1936930  16.7823578  65.9176883  21.8023271
  28.6081090  57.4166513  26.9538173  27.7207869  57.0792434  27.0764572
  29.1779641  56.6849544  27.1906938  10.2610237  53.7490604  20.2781224
  10.9481277  53.4352334  19.6902239  10.1058366  54.6531969  20.0048475
  15.0644959  48.6380801  24.7066248  14.9803148  48.0306470  23.9716658
  14.2427665  49.1289819  24.7075744  22.1382243  62.0767965  23.9199416
  22.0652415  62.8822936  24.4318720  21.6959636  62.2759931  23.0947437
  21.9272023  61.3139735  17.4302237  21.1439545  61.8561415  17.5240462
  22.6264768  61.8313715  17.8296479  25.2368673  47.1234364  20.0736443
  25.7337372  46.3704327  19.7537513  24.4655654  47.1598681  19.5079652
  33.0898430  52.8274730  21.7154734  33.0788307  53.7099445  21.3448667
  32.2215810  52.4746281  21.5209271  24.5980927  61.9754799  26.0757575
  25.3108899  62.6102264  26.0033476  24.1070955  62.0718665  25.2597576
  26.3198454  55.8806052  17.6474866  25.3854732  56.0007514  17.4779571
  26.4975122  54.9778518  17.3834876  21.8203642  49.2651747  19.8008127
  21.4501429  48.7122788  20.4889033  22.3162734  48.6609881  19.2483127
  29.7071005  51.7223371  18.1824900  30.1731457  52.5551363  18.1085203
  30.1578505  51.2568352  18.8870159  19.6492840  59.7249242  26.8963145
  20.3502300  60.3585725  27.0492540  19.1787955  60.0663974  26.1358785
  27.7747236  58.0667192  15.1811052  28.0507080  57.9523787  16.0904926
  26.9051735  57.6684677  15.1423225  27.6787668  44.0903958  22.2215802
  26.7650748  44.3208185  22.3898009  28.1080769  44.1742402  23.0729834
  27.4494126  52.2793850  24.7215696  26.7965576  52.5269757  24.0668148
  27.8274506  51.4657988  24.3878173  24.4101300  62.3153543  18.8243866
  24.5923695  61.4975199  19.2871618  25.2334286  62.5321235  18.3868756
  24.7443466  61.2421728  16.0858914  25.2731232  60.7314183  15.4729077
  25.0071685  60.9264258  16.9504448  23.4981699  53.0213661  31.2081733
  22.8222336  52.9207790  31.8784108  24.3209333  52.8652875  31.6717730
  15.2460558  59.2585597  23.8294248  15.8313995  58.5129285  23.9622152
  15.0485397  59.5689554  24.7130912  18.0999214  62.2936845  18.8456690
  17.4309589  62.7782972  18.3620730  17.9612083  62.5406065  19.7600069
   9.8378213  51.8291198  22.5498691   9.8762313  51.2954788  23.3435809
   9.3318506  51.3026403  21.9309668  22.2404482  64.3280588  25.4439349
  22.7922790  64.4912210  26.2088434  22.5810676  64.9185026  24.7719374
  17.2168975  46.6755738  26.0461233  17.2810302  47.5370569  25.6338631
  17.1536096  46.0629740  25.3133592  16.6921248  48.7478871  29.6934268
  17.3193287  48.3655948  30.3071792  15.8349167  48.5293073  30.0589960
  27.0915356  59.1541846  31.2988003  27.6355260  59.7671804  30.8042958
  26.5102201  59.7121424  31.8155016  13.4686791  50.5555300  15.6252623
  13.7640232  49.6465978  15.5719676  12.5674826  50.5343039  15.3033625
  25.3772869  62.2762564  22.4303031  25.2524009  61.4752304  21.9213976
  26.0351961  62.7708757  21.9417001  16.9981038  48.6311296  21.6080171
  16.2767623  49.2447264  21.4687644  17.7874293  49.1669061  21.5296817
  27.4407778  60.0771584  24.0582581  26.4938113  59.9576935  23.9860908
  27.7890551  59.1894082  24.1408842  19.8007351  45.9665723  27.8820823
  20.3241753  46.2128019  28.6447132  19.5819684  46.7985758  27.4623960
  15.1974632  48.2369397  15.7491948  14.8687338  47.3566776  15.5667054
  15.5514003  48.1817066  16.6368337  24.4454211  59.8724300  20.2586933
  24.2979174  58.9441008  20.4394503  25.2707705  59.8944391  19.7744009
  18.3116455  48.5242367  16.1167425  18.6512528  49.0528289  15.3946034
  18.7588576  48.8622773  16.8925992  28.0488333  60.6952859  21.3451806
  28.9734880  60.4895720  21.2076257  27.8803636  60.4469260  22.2541148
  21.0059896  46.9079418  25.5670493  20.6656717  46.1087231  25.9691173
  20.2998902  47.2081129  24.9947327  21.6576368  43.9928730  24.0197816
  22.4802437  43.5189209  23.8976707  21.9014432  44.7719214  24.5196503
  20.2984603  47.0216989  14.3160718  21.0192965  47.3998242  13.8124435
  19.6749907  47.7405866  14.4195696  24.4415725  47.7262138  15.2519051
  24.6579340  48.6086776  14.9507879  23.9609793  47.3348351  14.5224692
  19.1814947  50.6847851  21.8289795  19.0359528  50.9988154  22.7214077
  18.7040150  51.3032751  21.2760694  21.0411330  47.6750399  21.8770685
  21.0272898  46.7791492  21.5402983  21.7583758  47.6821063  22.5108971
  22.8937460  48.1087739  23.9223812  22.6355238  49.0304810  23.9208143
  22.3622501  47.7118174  24.6124276  27.8383649  61.2138526  16.7013897
  28.0120527  60.6484949  15.9487750  28.3312540  62.0139421  16.5193387
  13.6560609  53.2253195  24.7677456  13.1114077  54.0013003  24.8997731
  14.5339959  53.5724000  24.6096578  20.4448226  46.5564779  17.1458255
  20.5664137  45.6281426  17.3449142  20.1550268  46.5703465  16.2336570
  23.3139416  44.2419690  20.2824975  23.3361113  44.3059023  19.3276954
  23.7307475  43.4024198  20.4765481  33.6923040  53.9774949  18.3204197
  34.1354186  53.2282275  17.9223320  32.8149551  53.9685086  17.9377929
  28.8258822  60.5305291  13.8010796  29.5209726  61.1511983  14.0198110
  29.1681972  59.6800642  14.0763174  14.4426631  52.3523092  27.6607613
  13.7008367  52.5005727  28.2472244  14.1219375  52.6131357  26.7974363
  30.7250245  57.9804996  15.3298127  31.2501569  58.3192269  14.6047447
  30.6372597  57.0452012  15.1461261  22.3870293  61.8939070  27.4588003
  22.6957420  61.6488217  28.3310703  23.1845775  62.0985708  26.9706873
  22.4090906  64.0476980  19.6893380  21.9695896  63.5553358  20.3826236
  23.1599022  63.5049947  19.4485455  14.8883244  60.2388520  19.6918008
  15.7141264  59.9392292  19.3116651  14.5377296  59.4696143  20.1407796
  19.8564778  59.5914989  21.7615681  19.2344787  58.9285694  21.4617909
  20.5269645  59.6176121  21.0789329  13.0891850  58.1574847  20.6506941
  12.2523758  57.7297021  20.4690943  13.0615495  58.3507290  21.5877733
  19.9289305  48.0696777  31.3548187  19.9777461  48.9458900  30.9725957
  20.4711819  47.5274170  30.7819831  30.4144151  58.6137900  30.6349324
  29.6239695  58.5962039  30.0953824  30.1777505  59.1526194  31.3898361
  30.5342026  55.4630366  27.9482053  30.5840031  55.2980374  28.8897576
  30.4255949  54.5957625  27.5579934  19.4178285  58.1418912  15.2374142
  19.5666405  58.8254376  14.5840815  20.2244728  58.1224002  15.7523598
  27.8245788  51.4461294  29.2641360  28.7255651  51.3067759  28.9725358
  27.8993763  51.6115749  30.2039537  22.1588594  48.8228149  28.1094546
  21.2891903  49.1161715  27.8377135  22.3948074  49.4068594  28.8301810
  32.0360223  57.8827308  28.1924075  31.7445031  58.2457288  29.0287536
  31.4232354  57.1694316  28.0137407  33.2355905  55.4480188  20.7126645
  34.0702796  55.8869992  20.8764205  33.3715034  54.9718841  19.8934891
  30.2847411  53.0059922  26.6604133  30.7601533  53.1987569  25.8522984
  29.3612976  53.0619108  26.4147516  17.1730918  54.1684090  16.2435211
  16.9276959  53.2646420  16.4415421  17.3426832  54.1701240  15.3014689
  24.8627627  45.0407766  25.6259966  25.3809571  45.7768793  25.3006455
  24.5082760  45.3471759  26.4606726  16.4426565  49.9012447  13.7421372
  15.7495810  49.9756802  13.0861408  16.1978317  49.1372791  14.2642889
  25.1140222  41.4608049  21.1460863  25.3941975  40.7931238  21.7721290
  25.8990829  41.6537144  20.6335527  22.9173690  60.6367042  12.7085889
  22.3447657  61.2557230  12.2556361  23.4906484  61.1866404  13.2425811
  28.9849080  49.8825683  24.8932438  29.9366503  49.9823780  24.9144662
  28.8152530  49.0903951  25.4030523  27.0063459  46.9681266  25.0791839
  26.4113392  47.2486279  24.3838328  26.7213156  47.4575167  25.8508580
  26.1370950  60.9204193  13.8394472  27.0701623  60.8549754  14.0427347
  26.0494163  61.7560459  13.3809004  28.7658967  60.2370063  10.7998419
  28.6872598  59.9029927  11.6934177  29.5868633  60.7291831  10.7989892
  31.4637158  53.1031802  24.0074738  31.4313478  52.1647803  24.1934422
  32.0737781  53.1815839  23.2740563  23.3020489  51.9727855  10.0501942
  24.2479593  51.8434063  10.1190360  22.9234734  51.2342517  10.5271370
  31.6131646  49.8942846  24.0533021  31.0970695  49.1101302  23.8662950
  32.4971595  49.5661562  24.2179540  29.2742373  43.6383861  20.0128834
  29.0767194  43.3298949  20.8972166  29.8842079  44.3645500  20.1426764
  37.2813708  54.1647809  23.1480775  38.0117096  53.9033097  23.7088478
  36.6720653  53.4276531  23.1882843  35.3629005  52.3055672  23.7455226
  34.6362168  52.1711637  23.1371717  34.9476292  52.6132500  24.5511944
  23.1859181  56.0245601  31.5102599  24.1062191  56.2024200  31.7042645
  23.1508764  55.0801647  31.3582298  12.4041346  51.2184195  20.4355873
  12.0844130  50.3649503  20.1430247  11.8574774  51.4332773  21.1913841
  16.1821254  53.9346636  24.1525380  16.4007263  54.8663744  24.1713414
  16.5947028  53.5754610  24.9380184  23.1025471  44.4414721  16.1401068
  22.2926200  44.0961806  16.5156314  23.7909888  44.1322265  16.7288680
  25.0316020  43.5192768  17.7625365  25.5847058  43.9388222  18.4215388
  25.2686106  42.5928516  17.8048321  21.0549119  49.5079842  33.5428129
  20.9545846  50.4574199  33.4740220  20.8370661  49.1798081  32.6704199
  12.2729606  54.8387107  22.4048995  11.5793078  54.4241059  21.8918949
  13.0202597  54.8807643  21.8082414  28.4094827  45.6293293  17.2704029
  27.8293496  46.2878097  16.8882082  28.1430760  44.8070638  16.8591447
  26.8598393  45.0298351  19.4725350  27.3598172  45.1414886  18.6639668
  27.5034001  44.7259404  20.1126158  20.9180389  52.9376981  32.3593191
  20.4347471  53.7377341  32.5657080  21.0041328  52.9484925  31.4060635
  14.1866349  54.7705360  20.2815010  14.1637037  54.8693048  19.3296893
  14.4966985  55.6170511  20.6032176  16.8453727  56.8281515  24.3961624
  17.7996980  56.7965458  24.3291556  16.6466250  56.3672139  25.2111850
  17.4353109  55.3982631  26.9632422  18.2545998  55.8926710  26.9867259
  17.7089916  54.4814600  26.9349990  27.1919705  47.7893384  16.3260378
  26.3045560  48.0743034  16.1080572  27.6073694  47.6287147  15.4787654
  30.5434241  47.8139905  20.0414717  31.3194631  48.3036357  20.3139334
  29.8182375  48.2397959  20.4986586  32.9806800  48.5267524  21.0988657
  33.5751290  48.2863260  20.3881966  33.0533383  47.8074654  21.7262194
  15.2003955  62.3701135  21.4131822  15.0658423  61.6101536  20.8469820
  14.7836018  63.0942035  20.9460611  26.3362918  57.5538058  10.4208398
  27.0398768  57.7588061  11.0366053  25.6125567  58.1214820  10.6857481
  27.1660729  53.3047920  16.5410668  27.1095930  53.7616471  15.7018300
  27.7189071  52.5438604  16.3633510  30.9765535  49.0937651  17.3660787
  30.7202469  48.6934287  18.1968995  30.3518403  49.8081445  17.2410926
  35.2877872  51.8333725  19.8732079  34.7277430  51.9026914  20.6463641
  34.6821376  51.6574709  19.1531575  18.3573081  63.2670452  21.6250265
  18.2405465  64.2115884  21.5228955  17.5365527  62.9644013  22.0136064
  28.2449616  57.9920588  12.4706858  29.0795220  57.5601786  12.2884332
  28.0833959  57.8202601  13.3983752  27.8995508  54.4952701  13.8363197
  27.8444312  54.3296972  12.8951641  27.2741563  55.2028734  13.9925387
  12.6888023  49.7320765  27.6624619  13.3346887  49.2219719  28.1511844
  12.4805174  50.4689447  28.2368044  25.2141415  56.8001613  33.1616760
  26.0832575  56.9742265  32.8003395  24.7348167  57.6196030  33.0392489
  21.2091633  43.9960810  13.4148515  21.1970303  44.9402650  13.5716786
  22.1015055  43.8130955  13.1207976  19.3827595  63.9198714  24.8406193
  20.2854842  63.9522324  25.1572688  19.1564965  62.9899165  24.8552529
  21.1381197  62.6729700  21.5016272  20.1876828  62.6731562  21.3880644
  21.4413683  61.9262435  20.9852307  25.0243753  40.5903587  17.6694452
  24.2576149  40.0362073  17.8151134  25.4354458  40.6625455  18.5308604
  17.0285514  46.8788382  31.7599633  17.8916975  46.5225187  31.9702958
  16.4550925  46.5402277  32.4475038  36.8733891  68.5090239  22.5662034
  37.5112301  68.3896986  21.8625374  36.7554734  69.4571083  22.6249986
  33.6823597  68.4617667  22.5023559  33.3442109  68.3458731  21.6144094
  34.5513365  68.0608832  22.4824565  29.5410413  70.3153143  18.4920450
  28.9775278  70.2243080  17.7236738  29.4262808  69.4953048  18.9722942
  34.1643380  69.6152518  28.4609765  34.1532021  69.2205317  27.5890268
  34.3264020  68.8818591  29.0543536  27.0874845  71.8104335  21.3304670
  27.8796137  71.4695159  20.9150970  27.3271495  71.9199310  22.2506824
  35.1209972  73.9824111  13.8034915  34.4697951  74.5678191  13.4168929
  35.9154334  74.5130306  13.8629952  29.0465599  71.0713248  14.2022049
  29.8196475  70.5242235  14.0634925  29.3990998  71.9357497  14.4136511
  30.8850641  72.3989630  27.4088949  30.5940507  73.3035261  27.2935615
  31.5207626  72.4406158  28.1233018  31.8106848  69.7766479  23.9990308
  32.4070420  69.5522501  23.2847271  31.8681820  69.0351224  24.6015756
  31.3831877  67.2305914  11.8340499  31.6357397  66.7087435  11.0723962
  30.4456436  67.0672060  11.9367183  36.4275159  66.2341693  19.6415242
  37.2138249  65.8161116  19.2905659  36.6913864  67.1387785  19.8096891
  36.5985237  71.6714543  14.3403899  35.9631070  71.7449169  15.0524804
  36.2682643  72.2608142  13.6622978  41.8283586  66.1716926  20.5448221
  42.5608758  65.6016143  20.7786050  41.0722942  65.7838526  20.9854726
  31.1028165  69.1334020  14.0364874  30.9864423  68.4578923  14.7045958
  31.2130425  68.6466394  13.2197027  33.4459706  68.5944167  17.7411563
  33.0817913  68.0674788  18.4524485  34.3026822  68.2042636  17.5678049
  39.3509007  59.8838500  25.0042829  39.0192332  60.7533911  24.7804044
  38.7554620  59.5674784  25.6836860  33.0865193  63.6234067  12.7372912
  33.2539596  64.4914303  13.1043383  32.8962362  63.7861349  11.8134201
  35.8440526  72.0851046  24.4038742  35.5441249  72.9876085  24.2954549
  35.4991586  71.8183229  25.2559895  29.2953008  68.5364843  20.4375447
  28.3703504  68.4041057  20.6453138  29.5437421  69.3159062  20.9345389
  39.2437670  64.6033586  22.0836180  38.3354547  64.5348994  21.7894940
  39.1925266  65.0805531  22.9118005  33.0654414  66.0791724  13.7219579
  32.9454039  66.5248775  14.5605059  32.3707002  66.4277042  13.1633117
  26.6561819  68.1798116  21.2719236  26.7854200  68.4332595  22.1858647
  25.9759270  68.7725824  20.9523891  30.8261306  78.8495366  17.3709710
  30.7485336  79.8003191  17.4498190  30.2222950  78.5041239  18.0284636
  33.3178536  66.0223232  30.0271077  32.5411870  66.5817152  30.0173941
  33.9569099  66.5080015  30.5485947  41.1099317  62.8050024  23.8614053
  40.4673697  63.0982558  23.2153848  40.6054245  62.6902945  24.6667250
  38.7639480  66.5513198  14.5499913  39.6757336  66.7840584  14.3747610
  38.2549127  67.1350242  13.9874991  31.5724908  68.8308685  29.5889044
  32.3139593  69.3693729  29.3123867  30.8661894  69.4574974  29.7460596
  37.0480248  70.9737825  28.1861205  37.4563604  70.5320236  27.4415838
  36.3257509  70.3990453  28.4395398  33.4011318  65.9110432  25.5594762
  34.2472513  66.3349846  25.7029411  33.3409956  65.2544056  26.2533325
  37.3709062  71.5339016  21.9413494  36.7417925  71.6984730  21.2389562
  36.9834725  71.9480626  22.7124458  41.2498294  72.4693454  19.2957858
  40.5649333  72.8492355  18.7454891  41.3342144  73.0788781  20.0289806
  36.5510763  63.5714801  27.2175936  36.3071695  64.3256861  26.6810212
  36.8270694  63.9500148  28.0523183  38.5049226  70.1153413  25.8953201
  38.7166121  70.7585173  25.2187583  38.4578974  69.2815729  25.4275132
  36.1075455  62.7271234  22.7989774  35.2459934  63.0252487  23.0906511
  36.1337890  62.9441632  21.8670806  32.9237024  71.2713424  19.2063579
  33.3875370  71.5501127  18.4168202  32.6593822  70.3696869  19.0236670
  29.8161105  70.8184906  22.1443343  30.3862462  71.2472174  21.5060827
  30.4069217  70.5367490  22.8427528  31.8605910  67.3936577  16.0153144
  32.5629954  67.8457620  16.4827071  31.5286539  66.7520395  16.6433038
  30.3086272  65.9848333  30.3904354  29.6784933  66.6664614  30.6239751
  30.2022360  65.8731415  29.4457492  25.6031244  65.6520129  21.3170278
  24.8130298  65.9077658  20.8410389  26.0942492  66.4668467  21.4222319
  39.6195054  72.9925368  24.0675559  40.4412498  72.5905556  23.7858240
  39.6157457  72.8893603  25.0191675  27.5545990  66.0164708  18.2753755
  26.7577153  66.1283403  18.7937250  27.3271582  66.3551361  17.4094645
  33.3851657  72.5409412  26.2236269  33.4496090  73.0029819  27.0594441
  32.6762581  71.9106777  26.3518579  23.8868947  65.9050620  23.7485269
  24.1376986  66.7897630  24.0142845  24.4228496  65.7255221  22.9760361
  47.7101047  69.3364117  20.4160530  46.9564755  68.7671515  20.2604535
  47.8448588  69.3026781  21.3631165  33.0999675  74.2077519  16.0915250
  32.9645350  75.0529055  16.5200097  33.6409488  74.4096797  15.3281183
  29.5867015  60.2869099  32.7529605  29.1933960  59.7335298  33.4277249
  30.4033155  60.5979677  33.1436122  26.5529072  71.7252957  16.6643175
  27.0653593  72.5196207  16.8148739  27.2051785  71.0279248  16.5976776
  28.3623957  74.8418713  18.7465928  28.5390585  75.7636678  18.5586912
  29.1580791  74.5277133  19.1760308  32.5034976  61.7026978  30.3449861
  33.2444689  62.3034131  30.2654324  32.7352898  60.9604616  29.7867904
  27.6476314  66.8883345  28.6228091  27.5329829  65.9868603  28.9235190
  26.7920831  67.1347042  28.2712908  34.7268151  74.8301086  30.2215592
  34.2832006  74.0437464  29.9036496  35.3885365  75.0180236  29.5559482
  29.4855273  76.3596887  24.7476270  30.0362698  76.2313951  23.9753264
  28.6466749  76.6591776  24.3971163  36.8249389  75.1103886  28.2496993
  36.8067865  75.9312767  27.7577262  37.7469310  74.9857961  28.4747134
  33.2822444  72.6248015  29.0920501  33.8150780  71.8636303  28.8619809
  32.7536525  72.3321667  29.8344656  36.4492139  57.7308081  24.6214143
  36.1056408  58.6209723  24.5453254  36.8171101  57.5409739  23.7583728
  24.5177989  70.0541611  17.4402745  25.3553211  70.4638620  17.2236453
  24.6956257  69.1141054  17.4102939  36.4142421  67.7216692  13.1286578
  35.8989045  68.4921297  13.3674966  36.1419730  67.0481828  13.7519640
  33.9989532  62.5666393  18.1871817  33.1431129  62.1773243  18.0077455
  34.4116484  62.6458354  17.3271602  35.5288679  60.1012736  22.5863376
  35.0253475  60.0642871  21.7731182  35.8219286  61.0105479  22.6460033
  31.7731565  60.1851466  21.5929558  32.6384562  59.9894275  21.2335448
  31.8409074  59.9561818  22.5198915  41.3876695  70.4749047  15.0639752
  40.6106138  70.1360206  14.6194914  42.0668176  70.4801670  14.3894717
  36.2028725  65.5943784  14.9546359  35.8978860  65.9089933  15.8056503
  37.1559167  65.6725204  14.9973692  34.6475156  71.7534008  16.6039313
  34.1196518  71.0186767  16.2912551  34.1462659  72.5308684  16.3579282
  39.6268002  69.9483028  21.7206360  38.9691677  70.6382289  21.8086488
  40.4308402  70.3379460  22.0640346  29.3793884  62.4153674  18.9645925
  29.9537636  62.1928855  18.2319118  29.9664866  62.4842368  19.7174526
  38.4373461  68.3027401  19.7710301  38.9505343  68.9357393  20.2732011
  39.0874685  67.7028596  19.4053661  29.7063471  64.4458135  12.9841810
  28.8700783  64.7832821  13.3051085  29.5668241  64.3107115  12.0468947
  31.6816552  59.2894923  17.6920994  31.0280964  58.9743940  17.0677609
  31.6397026  58.6670663  18.4180817  32.7927757  69.5714218   9.6074286
  31.8854818  69.3403471   9.8065435  33.2898789  68.7751837   9.7948268
  35.6995835  78.2811725  12.5270973  35.0257534  78.5843422  13.1355930
  36.0861657  79.0840805  12.1776430  34.9154292  65.7776856  22.0168642
  33.9976853  65.9991803  21.8590330  35.3314436  65.8523167  21.1580349
  35.6989340  67.1768272  17.1471322  36.4461159  67.6889669  16.8378444
  35.9680929  66.8552325  18.0075716  33.9715990  69.6726813  14.1298276
  33.0627209  69.3885845  14.2270746  34.0011074  70.0925891  13.2701583
  39.2035257  73.2833402  17.8989444  38.7497584  72.4424312  17.9554635
  38.5729224  73.9194801  18.2364224  38.1468177  64.2125388  19.1290111
  37.4090934  63.7002774  19.4600354  38.3994950  63.7725770  18.3173388
  37.6468197  75.1209899  18.8339262  37.9391171  75.6814956  18.1151628
  38.1566817  75.4138460  19.5892421  38.2479804  56.9901640  19.7231881
  38.5538681  56.1299004  19.4357796  38.9732409  57.5819260  19.5230875
  24.5404160  67.3932327  18.1113479  24.3428560  66.8001687  17.3864545
  23.9850824  67.0884537  18.8289417  32.5200884  67.2855433  20.2308072
  32.5749494  66.3329270  20.1550548  31.7092086  67.4414872  20.7149370
  33.6692078  71.2135556  11.4686355  33.2311508  70.4971415  11.0091992
  34.4102519  71.4411671  10.9071446  30.4593244  65.9032493  17.9898451
  29.6461109  66.2026664  18.3963643  30.9552238  65.5088182  18.7072933
  32.6101822  75.8990250  19.9232715  32.5678001  76.1251096  18.9941247
  33.5264521  75.6653625  20.0718517  36.0567456  66.3674317  26.8213345
  36.4116843  66.5945791  27.6807810  36.7039587  66.6992694  26.1990600
  41.7865193  69.4892753  17.5262674  41.6483091  69.6794349  16.5983863
  41.4301411  70.2512136  17.9830725  29.9507319  63.4750849  23.6059686
  30.5906698  63.3339608  22.9082649  29.1184849  63.1885362  23.2298288
  41.8134572  71.5569280  22.5373945  42.2471079  71.4644569  23.3856999
  42.5266153  71.5326781  21.8993961  30.7267623  72.7753279  19.7194678
  31.5208221  72.2803599  19.5177253  30.0159315  72.2471142  19.3562384
  35.5462467  75.1571374  24.0707046  35.5999489  75.7262311  24.8384762
  34.6777248  75.3273260  23.7061083  27.0350386  66.9196361  15.7954431
  26.1047974  66.8580816  16.0124393  27.1307858  66.3972313  14.9991072
  26.9535935  63.4451174  18.3832672  27.2142752  64.3596507  18.2741833
  27.7753107  62.9775616  18.5329285  28.4260860  64.8588931  25.5531497
  29.0983914  64.6506293  24.9044146  27.5990647  64.6611017  25.1136729
  42.6750122  71.5992981  25.0706831  42.8686012  72.5038792  25.3166105
  42.5750740  71.1400400  25.9045416  34.3286432  61.4850872  27.5697158
  33.6814347  62.1840821  27.4761634  35.0987448  61.9187016  27.9373406
  37.7365230  71.7499724  30.6447711  37.5850737  71.5210275  29.7277795
  37.7269910  72.7070325  30.6579056  34.5050567  69.3231637  25.6293978
  35.4342627  69.4742796  25.4562945  34.0841597  69.4115657  24.7742624
  33.3038899  73.3482301  23.3992515  33.1649984  72.9801085  24.2718453
  32.5153495  73.8629940  23.2276473  33.8987051  78.4491397  14.7418052
  34.0738806  77.9779441  15.5563674  33.2119839  79.0757164  14.9699312
  34.8544114  72.7263904  20.7881353  34.5193946  72.6864674  21.6839003
  34.3548059  72.0608620  20.3151763  28.8288358  68.1331534  26.3133934
  28.6908156  67.4011772  26.9145473  29.7393281  68.0440434  26.0318122
  37.7903305  70.0719938  11.0618413  37.1732476  69.3466766  10.9651465
  37.3219794  70.8329298  10.7185487  31.4570658  67.8451493  25.8017614
  32.1670277  67.2044685  25.7604232  31.4139967  68.0964388  26.7243795
  39.4457437  74.7818846  28.7224193  39.3869983  74.0978066  28.0554776
  39.8476955  75.5237836  28.2704819  30.1699592  64.8316711  27.6213253
  29.6336949  64.3807449  28.2734850  29.5816301  64.9662620  26.8783718
  28.4648136  81.5980760  21.5157912  28.7044734  82.2299284  22.1936930
  27.6217332  81.2468800  21.8023271  29.5801851  64.2905362  10.1839717
  28.7031318  64.1694163   9.8201964  30.0559604  63.4991441   9.9318606
  39.4474844  72.7458430  26.9538173  38.5601623  72.4084352  27.0764572
  40.0173395  72.0141461  27.1906938  21.1003991  69.0782522  20.2781224
  21.7875031  68.7644252  19.6902239  20.9452120  69.9823887  20.0048475
  25.9038714  63.9672719  24.7066248  25.8196902  63.3598388  23.9716658
  25.0821420  64.4581737  24.7075744  32.9775998  77.4059883  23.9199416
  32.9046169  78.2114854  24.4318720  32.5353391  77.6051848  23.0947437
  32.7665777  76.6431653  17.4302237  31.9833299  77.1853333  17.5240462
  33.4658523  77.1605632  17.8296479  36.0762427  62.4526282  20.0736443
  36.5731127  61.6996244  19.7537513  35.3049409  62.4890599  19.5079652
  43.9292185  68.1566648  21.7154734  43.9182061  69.0391363  21.3448667
  43.0609564  67.8038198  21.5209271  35.4374681  77.3046717  26.0757575
  36.1502653  77.9394181  26.0033476  34.9464710  77.4010583  25.2597576
  37.1592208  71.2097969  17.6474866  36.2248487  71.3299432  17.4779571
  37.3368877  70.3070436  17.3834876  32.6597396  64.5943665  19.8008127
  32.2895184  64.0414705  20.4889033  33.1556489  63.9901799  19.2483127
  40.5464759  67.0515289  18.1824900  41.0125212  67.8843280  18.1085203
  40.9972260  66.5860270  18.8870159  30.4886595  75.0541160  26.8963145
  31.1896054  75.6877643  27.0492540  30.0181710  75.3955892  26.1358785
  38.6140991  73.3959110  15.1811052  38.8900834  73.2815704  16.0904926
  37.7445489  72.9976595  15.1423225  38.5181422  59.4195876  22.2215802
  37.6044502  59.6500102  22.3898009  38.9474524  59.5034320  23.0729834
  38.2887881  67.6085768  24.7215696  37.6359331  67.8561675  24.0668148
  38.6668261  66.7949906  24.3878173  35.2495055  77.6445461  18.8243866
  35.4317449  76.8267117  19.2871618  36.0728041  77.8613153  18.3868756
  35.5837220  76.5713646  16.0858914  36.1124987  76.0606100  15.4729077
  35.8465440  76.2556176  16.9504448  34.3375454  68.3505579  31.2081733
  33.6616091  68.2499708  31.8784108  35.1603088  68.1944792  31.6717730
  26.0854313  74.5877515  23.8294248  26.6707750  73.8421203  23.9622152
  25.8879151  74.8981472  24.7130912  28.9392968  77.6228763  18.8456690
  28.2703343  78.1074890  18.3620730  28.8005838  77.8697983  19.7600069
  20.6771968  67.1583115  22.5498691  20.7156067  66.6246706  23.3435809
  20.1712260  66.6318321  21.9309668  33.0798237  79.6572506  25.4439349
  33.6316545  79.8204128  26.2088434  33.4204430  80.2476944  24.7719374
  28.0562730  62.0047656  26.0461233  28.1204056  62.8662487  25.6338631
  27.9929850  61.3921658  25.3133592  27.5315002  64.0770788  29.6934268
  28.1587041  63.6947866  30.3071792  26.6742921  63.8584990  30.0589960
  37.9309111  74.4833764  31.2988003  38.4749015  75.0963722  30.8042958
  37.3495956  75.0413342  31.8155016  24.3080545  65.8847218  15.6252623
  24.6033986  64.9757896  15.5719676  23.4068581  65.8634957  15.3033625
  36.2166624  77.6054482  22.4303031  36.0917763  76.8044221  21.9213976
  36.8745715  78.1000675  21.9417001  27.8374792  63.9603214  21.6080171
  27.1161378  64.5739182  21.4687644  28.6268048  64.4960979  21.5296817
  38.2801532  75.4063502  24.0582581  37.3331868  75.2868853  23.9860908
  38.6284305  74.5186000  24.1408842  30.6401106  61.2957641  27.8820823
  31.1635507  61.5419937  28.6447132  30.4213439  62.1277675  27.4623960
  26.0368387  63.5661315  15.7491948  25.7081093  62.6858694  15.5667054
  26.3907757  63.5108984  16.6368337  35.2847966  75.2016218  20.2586933
  35.1372928  74.2732925  20.4394503  36.1101459  75.2236309  19.7744009
  29.1510210  63.8534285  16.1167425  29.4906282  64.3820206  15.3946034
  29.5982330  64.1914691  16.8925992  38.8882087  76.0244777  21.3451806
  39.8128635  75.8187638  21.2076257  38.7197391  75.7761178  22.2541148
  31.8453651  62.2371336  25.5670493  31.5050471  61.4379149  25.9691173
  31.1392657  62.5373047  24.9947327  32.4970123  59.3220648  24.0197816
  33.3196192  58.8481126  23.8976707  32.7408186  60.1011132  24.5196503
  31.1378357  62.3508907  14.3160718  31.8586720  62.7290159  13.8124435
  30.5143661  63.0697783  14.4195696  35.2809480  63.0554056  15.2519051
  35.4973094  63.9378693  14.9507879  34.8003547  62.6640269  14.5224692
  30.0208701  66.0139769  21.8289795  29.8753282  66.3280072  22.7214077
  29.5433905  66.6324669  21.2760694  31.8805084  63.0042317  21.8770685
  31.8666653  62.1083410  21.5402983  32.5977512  63.0112980  22.5108971
  33.7331215  63.4379657  23.9223812  33.4748993  64.3596728  23.9208143
  33.2016255  63.0410091  24.6124276  38.6777404  76.5430444  16.7013897
  38.8514281  75.9776867  15.9487750  39.1706295  77.3431339  16.5193387
  24.4954363  68.5545113  24.7677456  23.9507832  69.3304921  24.8997731
  25.3733713  68.9015918  24.6096578  31.2841980  61.8856697  17.1458255
  31.4057891  60.9573343  17.3449142  30.9944022  61.8995383  16.2336570
  34.1533170  59.5711607  20.2824975  34.1754867  59.6350941  19.3276954
  34.5701229  58.7316116  20.4765481  44.5316795  69.3066867  18.3204197
  44.9747941  68.5574192  17.9223320  43.6543305  69.2977003  17.9377929
  39.6652576  75.8597208  13.8010796  40.3603481  76.4803901  14.0198110
  40.0075726  75.0092560  14.0763174  25.2820385  67.6815009  27.6607613
  24.5402121  67.8297645  28.2472244  24.9613130  67.9423275  26.7974363
  41.5643999  73.3096914  15.3298127  42.0895323  73.6484187  14.6047447
  41.4766352  72.3743929  15.1461261  33.2264048  77.2230988  27.4588003
  33.5351174  76.9780134  28.3310703  34.0239530  77.4277626  26.9706873
  33.2484660  79.3768897  19.6893380  32.8089650  78.8845276  20.3826236
  33.9992777  78.8341865  19.4485455  25.7276999  75.5680438  19.6918008
  26.5535019  75.2684210  19.3116651  25.3771051  74.7988061  20.1407796
  30.6958532  74.9206906  21.7615681  30.0738541  74.2577611  21.4617909
  31.3663399  74.9468038  21.0789329  23.9285604  73.4866765  20.6506941
  23.0917512  73.0588939  20.4690943  23.9009249  73.6799208  21.5877733
  30.7683060  63.3988694  31.3548187  30.8171215  64.2750817  30.9725957
  31.3105574  62.8566087  30.7819831  41.2537905  73.9429818  30.6349324
  40.4633449  73.9253956  30.0953824  41.0171260  74.4818111  31.3898361
  41.3735780  70.7922284  27.9482053  41.4233785  70.6272291  28.8897576
  41.2649704  69.9249543  27.5579934  30.2572039  73.4710830  15.2374142
  30.4060159  74.1546294  14.5840815  31.0638483  73.4515920  15.7523598
  38.6639543  66.7753212  29.2641360  39.5649406  66.6359677  28.9725358
  38.7387517  66.9407667  30.2039537  32.9982348  64.1520067  28.1094546
  32.1285657  64.4453633  27.8377135  33.2341828  64.7360512  28.8301810
  42.8753977  73.2119226  28.1924075  42.5838786  73.5749206  29.0287536
  42.2626108  72.4986234  28.0137407  44.0749660  70.7772105  20.7126645
  44.9096551  71.2161909  20.8764205  44.2108788  70.3010759  19.8934891
  41.1241165  68.3351840  26.6604133  41.5995287  68.5279486  25.8522984
  40.2006731  68.3911026  26.4147516  28.0124672  69.4976007  16.2435211
  27.7670714  68.5938337  16.4415421  28.1820587  69.4993158  15.3014689
  35.7021382  60.3699684  25.6259966  36.2203326  61.1060711  25.3006455
  35.3476515  60.6763677  26.4606726  27.2820320  65.2304365  13.7421372
  26.5889565  65.3048720  13.0861408  27.0372071  64.4664709  14.2642889
  35.9533976  56.7899966  21.1460863  36.2335730  56.1223155  21.7721290
  36.7384583  56.9829062  20.6335527  33.7567445  75.9658960  12.7085889
  33.1841412  76.5849147  12.2556361  34.3300238  76.5158322  13.2425811
  39.8242834  65.2117600  24.8932438  40.7760257  65.3115698  24.9144662
  39.6546285  64.4195869  25.4030523  37.8457214  62.2973183  25.0791839
  37.2507146  62.5778196  24.3838328  37.5606911  62.7867084  25.8508580
  36.9764704  76.2496110  13.8394472  37.9095378  76.1841672  14.0427347
  36.8887917  77.0852377  13.3809004  39.6052721  75.5661981  10.7998419
  39.5266353  75.2321844  11.6934177  40.4262388  76.0583749  10.7989892
  42.3030912  68.4323720  24.0074738  42.2707232  67.4939721  24.1934422
  42.9131536  68.5107757  23.2740563  34.1414243  67.3019773  10.0501942
  35.0873348  67.1725981  10.1190360  33.7628488  66.5634435  10.5271370
  42.4525401  65.2234763  24.0533021  41.9364449  64.4393220  23.8662950
  43.3365349  64.8953480  24.2179540  40.1136128  58.9675779  20.0128834
  39.9160949  58.6590867  20.8972166  40.7235833  59.6937418  20.1426764
  48.1207462  69.4939727  23.1480775  48.8510851  69.2325015  23.7088478
  47.5114408  68.7568449  23.1882843  46.2022759  67.6347589  23.7455226
  45.4755923  67.5003554  23.1371717  45.7870046  67.9424418  24.5511944
  34.0252936  71.3537519  31.5102599  34.9455945  71.5316118  31.7042645
  33.9902519  70.4093564  31.3582298  32.3257160  65.2269749   9.9856827
  31.4188616  64.9302862  10.0619541  32.6033141  64.9299567   9.1191113
  23.2435101  66.5476113  20.4355873  22.9237885  65.6941421  20.1430247
  22.6968529  66.7624691  21.1913841  27.0215008  69.2638554  24.1525380
  27.2401018  70.1955662  24.1713414  27.4340782  68.9046528  24.9380184
  33.9419226  59.7706639  16.1401068  33.1319954  59.4253724  16.5156314
  34.6303643  59.4614183  16.7288680  35.8709774  58.8484686  17.7625365
  36.4240813  59.2680139  18.4215388  36.1079861  57.9220434  17.8048321
  31.8942873  64.8371759  33.5428129  31.7939600  65.7866116  33.4740220
  31.6764416  64.5089998  32.6704199  31.0955945  62.0856685  10.1268806
  31.9575109  62.4111583  10.3864624  31.2806289  61.2988180   9.6141872
  23.1123361  70.1679024  22.4048995  22.4186832  69.7532977  21.8918949
  23.8596352  70.2099561  21.8082414  39.2488581  60.9585211  17.2704029
  38.6687250  61.6170015  16.8882082  38.9824514  60.1362556  16.8591447
  37.6992148  60.3590269  19.4725350  38.1991926  60.4706803  18.6639668
  38.3427756  60.0551322  20.1126158  31.7574144  68.2668898  32.3593191
  31.2741225  69.0669258  32.5657080  31.8435083  68.2776843  31.4060635
  25.0260103  70.0997278  20.2815010  25.0030791  70.1984965  19.3296893
  25.3360740  70.9462429  20.6032176  27.6847481  72.1573433  24.3961624
  28.6390735  72.1257375  24.3291556  27.4860005  71.6964057  25.2111850
  28.2746863  70.7274549  26.9632422  29.0939752  71.2218628  26.9867259
  28.5483671  69.8106517  26.9349990  38.0313459  63.1185301  16.3260378
  37.1439314  63.4034952  16.1080572  38.4467448  62.9579065  15.4787654
  41.3827995  63.1431822  20.0414717  42.1588386  63.6328275  20.3139334
  40.6576130  63.5689877  20.4986586  43.8200554  63.8559442  21.0988657
  44.4145045  63.6155178  20.3881966  43.8927138  63.1366572  21.7262194
  26.0397710  77.6993053  21.4131822  25.9052178  76.9393453  20.8469820
  25.6229772  78.4233952  20.9460611  37.1756673  72.8829976  10.4208398
  37.8792523  73.0879979  11.0366053  36.4519322  73.4506738  10.6857481
  38.0054483  68.6339837  16.5410668  37.9489685  69.0908389  15.7018300
  38.5582826  67.8730522  16.3633510  41.8159289  64.4229569  17.3660787
  41.5596223  64.0226205  18.1968995  41.1912157  65.1373363  17.2410926
  46.1271627  67.1625642  19.8732079  45.5671185  67.2318832  20.6463641
  45.5215130  66.9866627  19.1531575  29.1966836  78.5962370  21.6250265
  29.0799220  79.5407802  21.5228955  28.3759282  78.2935931  22.0136064
  39.0843370  73.3212505  12.4706858  39.9188974  72.8893704  12.2884332
  38.9227713  73.1494519  13.3983752  38.7389262  69.8244619  13.8363197
  38.6838066  69.6588890  12.8951641  38.1135318  70.5320651  13.9925387
  23.5281777  65.0612683  27.6624619  24.1740641  64.5511637  28.1511844
  23.3198929  65.7981365  28.2368044  36.0535170  72.1293530  33.1616760
  36.9226329  72.3034183  32.8003395  35.5741921  72.9487947  33.0392489
  32.0485388  59.3252728  13.4148515  32.0364058  60.2694567  13.5716786
  32.9408810  59.1422873  13.1207976  30.2221350  79.2490631  24.8406193
  31.1248597  79.2814242  25.1572688  29.9958720  78.3191082  24.8552529
  31.9774952  78.0021618  21.5016272  31.0270583  78.0023480  21.3880644
  32.2807438  77.2554353  20.9852307  35.8637507  55.9195504  17.6694452
  35.0969903  55.3653991  17.8151134  36.2748212  55.9917373  18.5308604
  27.8679268  62.2080300  31.7599633  28.7310730  61.8517105  31.9702958
  27.2944679  61.8694195  32.4475038  47.7127645  83.8382156  22.5662034
  48.3506055  83.7188904  21.8625374  47.5948488  84.7863000  22.6249986
  44.5217352  83.7909584  22.5023559  44.1835863  83.6750649  21.6144094
  45.3907120  83.3900750  22.4824565  40.3804167  85.6445061  18.4920450
  39.8169032  85.5534998  17.7236738  40.2656562  84.8244965  18.9722942
  45.0037135  84.9444436  28.4609765  44.9925775  84.5497234  27.5890268
  45.1657774  84.2110509  29.0543536  37.9268599  87.1396252  21.3304670
  38.7189891  86.7987077  20.9150970  38.1665249  87.2491228  22.2506824
  45.9603726  89.3116029  13.8034915  45.3091706  89.8970109  13.4168929
  46.7548089  89.8422223  13.8629952  39.8859353  86.4005166  14.2022049
  40.6590229  85.8534153  14.0634925  40.2384752  87.2649415  14.4136511
  41.7244396  87.7281548  27.4088949  41.4334262  88.6327179  27.2935615
  42.3601380  87.7698076  28.1233018  42.6500603  85.1058397  23.9990308
  43.2464175  84.8814419  23.2847271  42.7075574  84.3643142  24.6015756
  42.2225631  82.5597832  11.8340499  42.4751152  82.0379353  11.0723962
  41.2850190  82.3963977  11.9367183  47.2668914  81.5633610  19.6415242
  48.0532003  81.1453033  19.2905659  47.5307618  82.4679702  19.8096891
  47.4378991  87.0006461  14.3403899  46.8024824  87.0741087  15.0524804
  47.1076398  87.5900059  13.6622978  52.6677341  81.5008843  20.5448221
  53.4002513  80.9308060  20.7786050  51.9116697  81.1130444  20.9854726
  41.9421920  84.4625938  14.0364874  41.8258178  83.7870841  14.7045958
  42.0524180  83.9758312  13.2197027  44.2853461  83.9236085  17.7411563
  43.9211668  83.3966706  18.4524485  45.1420577  83.5334554  17.5678049
  50.1902761  75.2130418  25.0042829  49.8586086  76.0825828  24.7804044
  49.5948375  74.8966702  25.6836860  43.9258948  78.9525985  12.7372912
  44.0933350  79.8206221  13.1043383  43.7356117  79.1153266  11.8134201
  46.6834281  87.4142963  24.4038742  46.3835004  88.3168002  24.2954549
  46.3385340  87.1475147  25.2559895  40.1346762  83.8656760  20.4375447
  39.2097259  83.7332974  20.6453138  40.3831176  84.6450980  20.9345389
  50.0831425  79.9325504  22.0836180  49.1748302  79.8640912  21.7894940
  50.0319020  80.4097449  22.9118005  43.9048169  81.4083642  13.7219579
  43.7847794  81.8540693  14.5605059  43.2100757  81.7568960  13.1633117
  37.4955573  83.5090034  21.2719236  37.6247955  83.7624513  22.1858647
  36.8153025  84.1017742  20.9523891  41.6655061  94.1787284  17.3709710
  41.5879090  95.1295109  17.4498190  41.0616704  93.8333156  18.0284636
  44.1572290  81.3515149  30.0271077  43.3805624  81.9109069  30.0173941
  44.7962853  81.8371932  30.5485947  51.9493071  78.1341942  23.8614053
  51.3067451  78.4274475  23.2153848  51.4448000  78.0194862  24.6667250
  49.6033235  81.8805115  14.5499913  50.5151091  82.1132502  14.3747610
  49.0942882  82.4642159  13.9874991  42.4118663  84.1600603  29.5889044
  43.1533347  84.6985647  29.3123867  41.7055648  84.7866891  29.7460596
  47.8874002  86.3029743  28.1861205  48.2957358  85.8612154  27.4415838
  47.1651264  85.7282371  28.4395398  44.2405072  81.2402350  25.5594762
  45.0866268  81.6641763  25.7029411  44.1803710  80.5835974  26.2533325
  48.2102817  86.8630934  21.9413494  47.5811679  87.0276648  21.2389562
  47.8228479  87.2772543  22.7124458  52.0892049  87.7985372  19.2957858
  51.4043087  88.1784273  18.7454891  52.1735898  88.4080698  20.0289806
  47.3904518  78.9006718  27.2175936  47.1465450  79.6548779  26.6810212
  47.6664448  79.2792066  28.0523183  49.3442980  85.4445331  25.8953201
  49.5559876  86.0877090  25.2187583  49.2972729  84.6107647  25.4275132
  46.9469209  78.0563151  22.7989774  46.0853688  78.3544405  23.0906511
  46.9731644  78.2733550  21.8670806  43.7630779  86.6005342  19.2063579
  44.2269124  86.8793045  18.4168202  43.4987577  85.6988786  19.0236670
  40.6554860  86.1476823  22.1443343  41.2256217  86.5764092  21.5060827
  41.2462972  85.8659408  22.8427528  42.6999665  82.7228494  16.0153144
  43.4023708  83.1749538  16.4827071  42.3680293  82.0812313  16.6433038
  41.1480026  81.3140251  30.3904354  40.5178687  81.9956532  30.6239751
  41.0416114  81.2023332  29.4457492  36.4424999  80.9812047  21.3170278
  35.6524053  81.2369575  20.8410389  36.9336246  81.7960385  21.4222319
  50.4588808  88.3217286  24.0675559  51.2806252  87.9197473  23.7858240
  50.4551211  88.2185520  25.0191675  38.3939744  81.3456626  18.2753755
  37.5970908  81.4575320  18.7937250  38.1665336  81.6843278  17.4094645
  44.2245412  87.8701329  26.2236269  44.2889844  88.3321737  27.0594441
  43.5156336  87.2398694  26.3518579  34.7262702  81.2342537  23.7485269
  34.9770740  82.1189547  24.0142845  35.2622250  81.0547139  22.9760361
  58.5494801  84.6656034  20.4160530  57.7958510  84.0963433  20.2604535
  58.6842343  84.6318699  21.3631165  43.9393430  89.5369437  16.0915250
  43.8039104  90.3820973  16.5200097  44.4803242  89.7388714  15.3281183
  40.4260769  75.6161017  32.7529605  40.0327715  75.0627215  33.4277249
  41.2426909  75.9271595  33.1436122  37.3922827  87.0544875  16.6643175
  37.9047347  87.8488125  16.8148739  38.0445540  86.3571165  16.5976776
  39.2017712  90.1710631  18.7465928  39.3784340  91.0928596  18.5586912
  39.9974545  89.8569050  19.1760308  43.3428730  77.0318896  30.3449861
  44.0838444  77.6326049  30.2654324  43.5746653  76.2896534  29.7867904
  38.4870068  82.2175263  28.6228091  38.3723583  81.3160520  28.9235190
  37.6314586  82.4638960  28.2712908  45.5661906  90.1593003  30.2215592
  45.1225760  89.3729382  29.9036496  46.2279119  90.3472154  29.5559482
  40.3249027  91.6888805  24.7476270  40.8756452  91.5605868  23.9753264
  39.4860503  91.9883694  24.3971163  47.6643144  90.4395803  28.2496993
  47.6461619  91.2604684  27.7577262  48.5863064  90.3149878  28.4747134
  44.1216198  87.9539933  29.0920501  44.6544535  87.1928221  28.8619809
  43.5930279  87.6613585  29.8344656  47.2885893  73.0599999  24.6214143
  46.9450162  73.9501640  24.5453254  47.6564856  72.8701656  23.7583728
  35.3571744  85.3833529  17.4402745  36.1946966  85.7930537  17.2236453
  35.5350011  84.4432971  17.4102939  47.2536176  83.0508610  13.1286578
  46.7382799  83.8213214  13.3674966  46.9813484  82.3773746  13.7519640
  44.8383287  77.8958311  18.1871817  43.9824883  77.5065161  18.0077455
  45.2510239  77.9750271  17.3271602  46.3682433  75.4304654  22.5863376
  45.8647229  75.3934789  21.7731182  46.6613040  76.3397397  22.6460033
  42.6125319  75.5143384  21.5929558  43.4778316  75.3186192  21.2335448
  42.6802828  75.2853735  22.5198915  52.2270450  85.8040964  15.0639752
  51.4499893  85.4652124  14.6194914  52.9061931  85.8093588  14.3894717
  47.0422479  80.9235702  14.9546359  46.7372615  81.2381851  15.8056503
  47.9952921  81.0017122  14.9973692  45.4868911  87.0825925  16.6039313
  44.9590272  86.3478685  16.2912551  44.9856414  87.8600602  16.3579282
  50.4661757  85.2774946  21.7206360  49.8085431  85.9674207  21.8086488
  51.2702156  85.6671378  22.0640346  40.2187638  77.7445591  18.9645925
  40.7931390  77.5220773  18.2319118  40.8058621  77.8134286  19.7174526
  49.2767216  83.6319318  19.7710301  49.7899097  84.2649310  20.2732011
  49.9268440  83.0320514  19.4053661  40.5457226  79.7750053  12.9841810
  39.7094538  80.1124739  13.3051085  40.4061995  79.6399032  12.0468947
  42.5210306  74.6186840  17.6920994  41.8674719  74.3035858  17.0677609
  42.4790780  73.9962581  18.4180817  43.6321511  84.9006135   9.6074286
  42.7248573  84.6695389   9.8065435  44.1292543  84.1043755   9.7948268
  46.5389590  93.6103643  12.5270973  45.8651289  93.9135339  13.1355930
  46.9255412  94.4132723  12.1776430  45.7548047  81.1068774  22.0168642
  44.8370608  81.3283721  21.8590330  46.1708190  81.1815084  21.1580349
  46.5383094  82.5060190  17.1471322  47.2854913  83.0181587  16.8378444
  46.8074684  82.1844242  18.0075716  44.8109744  85.0018730  14.1298276
  43.9020964  84.7177763  14.2270746  44.8404828  85.4217809  13.2701583
  50.0429012  88.6125320  17.8989444  49.5891339  87.7716230  17.9554635
  49.4122979  89.2486718  18.2364224  48.9861931  79.5417306  19.1290111
  48.2484688  79.0294692  19.4600354  49.2388705  79.1017687  18.3173388
  48.4861951  90.4501817  18.8339262  48.7784925  91.0106874  18.1151628
  48.9960572  90.7430378  19.5892421  49.0873559  72.3193558  19.7231881
  49.3932436  71.4590921  19.4357796  49.8126164  72.9111178  19.5230875
  35.3797915  82.7224244  18.1113479  35.1822315  82.1293605  17.3864545
  34.8244579  82.4176455  18.8289417  43.3594638  82.6147351  20.2308072
  43.4143248  81.6621187  20.1550548  42.5485841  82.7706790  20.7149370
  44.5085832  86.5427474  11.4686355  44.0705262  85.8263333  11.0091992
  45.2496273  86.7703589  10.9071446  41.2986998  81.2324411  17.9898451
  40.4854864  81.5318581  18.3963643  41.7945993  80.8380099  18.7072933
  43.4495576  91.2282168  19.9232715  43.4071755  91.4543014  18.9941247
  44.3658275  90.9945542  20.0718517  46.8961210  81.6966235  26.8213345
  47.2510598  81.9237708  27.6807810  47.5433341  82.0284612  26.1990600
  52.6258947  84.8184671  17.5262674  52.4876846  85.0086267  16.5983863
  52.2695166  85.5804054  17.9830725  40.7901073  78.8042766  23.6059686
  41.4300453  78.6631525  22.9082649  39.9578604  78.5177280  23.2298288
  52.6528327  86.8861198  22.5373945  53.0864833  86.7936487  23.3856999
  53.3659907  86.8618699  21.8993961  41.5661377  88.1045197  19.7194678
  42.3601976  87.6095517  19.5177253  40.8553069  87.5763060  19.3562384
  46.3856222  90.4863292  24.0707046  46.4393244  91.0554228  24.8384762
  45.5171003  90.6565177  23.7061083  37.8744141  82.2488278  15.7954431
  36.9441729  82.1872734  16.0124393  37.9701613  81.7264231  14.9991072
  37.7929690  78.7743091  18.3832672  38.0536507  79.6888424  18.2741833
  38.6146862  78.3067534  18.5329285  39.2654615  80.1880848  25.5531497
  39.9377668  79.9798210  24.9044146  38.4384401  79.9902934  25.1136729
  53.5143876  86.9284899  25.0706831  53.7079766  87.8330709  25.3166105
  53.4144494  86.4692318  25.9045416  45.1680187  76.8142789  27.5697158
  44.5208102  77.5132739  27.4761634  45.9381202  77.2478933  27.9373406
  48.5758985  87.0791641  30.6447711  48.4244491  86.8502193  29.7277795
  48.5663664  88.0362243  30.6579056  45.3444321  84.6523554  25.6293978
  46.2736381  84.8034714  25.4562945  44.9235351  84.7407575  24.7742624
  44.1432653  88.6774219  23.3992515  44.0043739  88.3093003  24.2718453
  43.3547249  89.1921858  23.2276473  44.7380805  93.7783315  14.7418052
  44.9132561  93.3071358  15.5563674  44.0513593  94.4049081  14.9699312
  45.6937868  88.0555821  20.7881353  45.3587701  88.0156591  21.6839003
  45.1941814  87.3900537  20.3151763  39.6682112  83.4623451  26.3133934
  39.5301910  82.7303690  26.9145473  40.5787036  83.3732351  26.0318122
  48.6297060  85.4011856  11.0618413  48.0126231  84.6758684  10.9651465
  48.1613548  86.1621216  10.7185487  42.2964413  83.1743411  25.8017614
  43.0064031  82.5336603  25.7604232  42.2533721  83.4256306  26.7243795
  50.2851192  90.1110764  28.7224193  50.2263738  89.4269984  28.0554776
  50.6870710  90.8529754  28.2704819  41.0093347  80.1608629  27.6213253
  40.4730704  79.7099367  28.2734850  40.4210055  80.2954537  26.8783718
  39.3041890  96.9272678  21.5157912  39.5438489  97.5591202  22.1936930
  38.4611087  96.5760718  21.8023271  40.4195606  79.6197280  10.1839717
  39.5425072  79.4986081   9.8201964  40.8953359  78.8283358   9.9318606
  50.2868599  88.0750348  26.9538173  49.3995378  87.7376270  27.0764572
  50.8567150  87.3433379  27.1906938  31.9397746  84.4074440  20.2781224
  32.6268786  84.0936170  19.6902239  31.7845875  85.3115804  20.0048475
  36.7432468  79.2964636  24.7066248  36.6590657  78.6890306  23.9716658
  35.9215174  79.7873655  24.7075744  43.8169752  92.7351800  23.9199416
  43.7439924  93.5406772  24.4318720  43.3747145  92.9343766  23.0947437
  43.6059532  91.9723570  17.4302237  42.8227054  92.5145250  17.5240462
  44.3052277  92.4897550  17.8296479  46.9156182  77.7818200  20.0736443
  47.4124881  77.0288162  19.7537513  46.1443163  77.8182516  19.5079652
  54.7685939  83.4858565  21.7154734  54.7575816  84.3683281  21.3448667
  53.9003319  83.1330116  21.5209271  46.2768436  92.6338634  26.0757575
  46.9896408  93.2686099  26.0033476  45.7858464  92.7302500  25.2597576
  47.9985963  86.5389887  17.6474866  47.0642241  86.6591349  17.4779571
  48.1762631  85.6362354  17.3834876  43.4991151  79.9235583  19.8008127
  43.1288938  79.3706623  20.4889033  43.9950243  79.3193716  19.2483127
  51.3858514  82.3807206  18.1824900  51.8518966  83.2135198  18.1085203
  51.8366014  81.9152188  18.8870159  41.3280349  90.3833078  26.8963145
  42.0289809  91.0169561  27.0492540  40.8575464  90.7247809  26.1358785
  49.4534745  88.7251028  15.1811052  49.7294589  88.6107622  16.0904926
  48.5839244  88.3268512  15.1423225  49.3575177  74.7487793  22.2215802
  48.4438257  74.9792020  22.3898009  49.7868278  74.8326237  23.0729834
  49.1281635  82.9377685  24.7215696  48.4753085  83.1853593  24.0668148
  49.5062015  82.1241823  24.3878173  46.0888809  92.9737378  18.8243866
  46.2711204  92.1559034  19.2871618  46.9121795  93.1905071  18.3868756
  46.4230975  91.9005564  16.0858914  46.9518741  91.3898018  15.4729077
  46.6859194  91.5848094  16.9504448  45.1769208  83.6797496  31.2081733
  44.5009845  83.5791626  31.8784108  45.9996842  83.5236710  31.6717730
  36.9248067  89.9169433  23.8294248  37.5101504  89.1713121  23.9622152
  36.7272906  90.2273390  24.7130912  39.7786723  92.9520680  18.8456690
  39.1097098  93.4366808  18.3620730  39.6399592  93.1989901  19.7600069
  31.5165722  82.4875033  22.5498691  31.5549822  81.9538624  23.3435809
  31.0106015  81.9610239  21.9309668  43.9191991  94.9864424  25.4439349
  44.4710299  95.1496045  26.2088434  44.2598185  95.5768862  24.7719374
  38.8956484  77.3339574  26.0461233  38.9597811  78.1954404  25.6338631
  38.8323605  76.7213575  25.3133592  38.3708757  79.4062706  29.6934268
  38.9980796  79.0239783  30.3071792  37.5136676  79.1876908  30.0589960
  48.7702865  89.8125681  31.2988003  49.3142769  90.4255640  30.8042958
  48.1889710  90.3705260  31.8155016  35.1474300  81.2139135  15.6252623
  35.4427741  80.3049814  15.5719676  34.2462335  81.1926875  15.3033625
  47.0560378  92.9346399  22.4303031  46.9311518  92.1336139  21.9213976
  47.7139470  93.4292593  21.9417001  38.6768547  79.2895132  21.6080171
  37.9555132  79.9031099  21.4687644  39.4661802  79.8252897  21.5296817
  49.1195287  90.7355419  24.0582581  48.1725622  90.6160771  23.9860908
  49.4678060  89.8477917  24.1408842  41.4794860  76.6249558  27.8820823
  42.0029262  76.8711855  28.6447132  41.2607193  77.4569593  27.4623960
  36.8762141  78.8953233  15.7491948  36.5474847  78.0150612  15.5667054
  37.2301512  78.8400902  16.6368337  46.1241720  90.5308136  20.2586933
  45.9766683  89.6024843  20.4394503  46.9495214  90.5528226  19.7744009
  39.9903964  79.1826203  16.1167425  40.3300037  79.7112124  15.3946034
  40.4376085  79.5206609  16.8925992  49.7275842  91.3536694  21.3451806
  50.6522389  91.1479556  21.2076257  49.5591145  91.1053095  22.2541148
  42.6847405  77.5663253  25.5670493  42.3444226  76.7671066  25.9691173
  41.9786411  77.8664964  24.9947327  43.3363877  74.6512566  24.0197816
  44.1589946  74.1773044  23.8976707  43.5801941  75.4303050  24.5196503
  41.9772112  77.6800824  14.3160718  42.6980474  78.0582077  13.8124435
  41.3537416  78.3989701  14.4195696  46.1203234  78.3845973  15.2519051
  46.3366849  79.2670611  14.9507879  45.6397302  77.9932187  14.5224692
  40.8602456  81.3431686  21.8289795  40.7147036  81.6571990  22.7214077
  40.3827659  81.9616587  21.2760694  42.7198839  78.3334234  21.8770685
  42.7060407  77.4375328  21.5402983  43.4371267  78.3404898  22.5108971
  44.5724969  78.7671575  23.9223812  44.3142747  79.6888645  23.9208143
  44.0410010  78.3702009  24.6124276  49.5171158  91.8722362  16.7013897
  49.6908036  91.3068784  15.9487750  50.0100049  92.6723257  16.5193387
  35.3348118  83.8837031  24.7677456  34.7901586  84.6596839  24.8997731
  36.2127468  84.2307835  24.6096578  42.1235735  77.2148615  17.1458255
  42.2451646  76.2865261  17.3449142  41.8337777  77.2287301  16.2336570
  44.9926925  74.9003525  20.2824975  45.0148622  74.9642858  19.3276954
  45.4094984  74.0608034  20.4765481  55.3710549  84.6358785  18.3204197
  55.8141695  83.8866110  17.9223320  54.4937060  84.6268921  17.9377929
  50.5046331  91.1889126  13.8010796  51.1997235  91.8095819  14.0198110
  50.8469481  90.3384477  14.0763174  36.1214140  83.0106927  27.6607613
  35.3795876  83.1589562  28.2472244  35.8006884  83.2715193  26.7974363
  52.4037754  88.6388832  15.3298127  52.9289078  88.9776104  14.6047447
  52.3160106  87.7035847  15.1461261  44.0657802  92.5522905  27.4588003
  44.3744929  92.3072052  28.3310703  44.8633284  92.7569544  26.9706873
  44.0878414  94.7060815  19.6893380  43.6483405  94.2137194  20.3826236
  44.8386531  94.1633783  19.4485455  36.5670753  90.8972356  19.6918008
  37.3928773  90.5976128  19.3116651  36.2164805  90.1279978  20.1407796
  41.5352287  90.2498824  21.7615681  40.9132296  89.5869529  21.4617909
  42.2057154  90.2759956  21.0789329  34.7679359  88.8158682  20.6506941
  33.9311267  88.3880857  20.4690943  34.7403004  89.0091126  21.5877733
  41.6076814  78.7280612  31.3548187  41.6564970  79.6042735  30.9725957
  42.1499328  78.1858005  30.7819831  52.0931660  89.2721735  30.6349324
  51.3027204  89.2545874  30.0953824  51.8565014  89.8110029  31.3898361
  52.2129535  86.1214202  27.9482053  52.2627540  85.9564209  28.8897576
  52.1043458  85.2541461  27.5579934  41.0965794  88.8002747  15.2374142
  41.2453914  89.4838212  14.5840815  41.9032237  88.7807837  15.7523598
  49.5033297  82.1045130  29.2641360  50.4043160  81.9651595  28.9725358
  49.5781272  82.2699585  30.2039537  43.8376103  79.4811984  28.1094546
  42.9679412  79.7745551  27.8377135  44.0735583  80.0652429  28.8301810
  53.7147732  88.5411143  28.1924075  53.4232540  88.9041124  29.0287536
  53.1019863  87.8278151  28.0137407  54.9143414  86.1064023  20.7126645
  55.7490305  86.5453827  20.8764205  55.0502543  85.6302676  19.8934891
  51.9634920  83.6643758  26.6604133  52.4389042  83.8571404  25.8522984
  51.0400485  83.7202944  26.4147516  38.8518427  84.8267925  16.2435211
  38.6064468  83.9230255  16.4415421  39.0214341  84.8285075  15.3014689
  46.5415136  75.6991601  25.6259966  47.0597080  76.4352628  25.3006455
  46.1870269  76.0055595  26.4606726  38.1214074  80.5596283  13.7421372
  37.4283319  80.6340638  13.0861408  37.8765826  79.7956626  14.2642889
  46.7927731  72.1191884  21.1460863  47.0729484  71.4515073  21.7721290
  47.5778338  72.3120980  20.6335527  44.5961199  91.2950878  12.7085889
  44.0235166  91.9141065  12.2556361  45.1693993  91.8450240  13.2425811
  50.6636589  80.5409518  24.8932438  51.6154012  80.6407616  24.9144662
  50.4940039  79.7487786  25.4030523  48.6850968  77.6265101  25.0791839
  48.0900901  77.9070114  24.3838328  48.4000665  78.1159002  25.8508580
  47.8158459  91.5788028  13.8394472  48.7489132  91.5133590  14.0427347
  47.7281672  92.4144295  13.3809004  50.4446476  90.8953898  10.7998419
  50.3660107  90.5613762  11.6934177  51.2656142  91.3875666  10.7989892
  53.1424667  83.7615638  24.0074738  53.1100987  82.8231638  24.1934422
  53.7525290  83.8399674  23.2740563  44.9807998  82.6311691  10.0501942
  45.9267102  82.5017899  10.1190360  44.6022243  81.8926352  10.5271370
  53.2919155  80.5526681  24.0533021  52.7758204  79.7685138  23.8662950
  54.1759104  80.2245398  24.2179540  50.9529882  74.2967697  20.0128834
  50.7554703  73.9882785  20.8972166  51.5629588  75.0229336  20.1426764
  58.9601217  84.8231644  23.1480775  59.6904605  84.5616933  23.7088478
  58.3508162  84.0860366  23.1882843  57.0416514  82.9639507  23.7455226
  56.3149677  82.8295472  23.1371717  56.6263801  83.2716336  24.5511944
  44.8646690  86.6829437  31.5102599  45.7849700  86.8608036  31.7042645
  44.8296273  85.7385482  31.3582298  43.1650915  80.5561667   9.9856827
  42.2582370  80.2594780  10.0619541  43.4426896  80.2591485   9.1191113
  34.0828855  81.8768030  20.4355873  33.7631639  81.0233339  20.1430247
  33.5362283  82.0916609  21.1913841  37.8608763  84.5930471  24.1525380
  38.0794772  85.5247579  24.1713414  38.2734536  84.2338446  24.9380184
  44.7812980  75.0998557  16.1401068  43.9713709  74.7545642  16.5156314
  45.4697397  74.7906100  16.7288680  46.7103529  74.1776604  17.7625365
  47.2634567  74.5972057  18.4215388  46.9473615  73.2512352  17.8048321
  42.7336628  80.1663677  33.5428129  42.6333355  81.1158034  33.4740220
  42.5158170  79.8381916  32.6704199  41.9349699  77.4148602  10.1268806
  42.7968863  77.7403501  10.3864624  42.1200044  76.6280098   9.6141872
  33.9517115  85.4970942  22.4048995  33.2580587  85.0824895  21.8918949
  34.6990106  85.5391478  21.8082414  50.0882336  76.2877129  17.2704029
  49.5081005  76.9461933  16.8882082  49.8218269  75.4654473  16.8591447
  48.5385902  75.6882186  19.4725350  49.0385681  75.7998721  18.6639668
  49.1821510  75.3843239  20.1126158  42.5967898  83.5960816  32.3593191
  42.1134980  84.3961176  32.5657080  42.6828837  83.6068761  31.4060635
  35.8653858  85.4289196  20.2815010  35.8424546  85.5276883  19.3296893
  36.1754494  86.2754346  20.6032176  38.5241236  87.4865351  24.3961624
  39.4784489  87.4549293  24.3291556  38.3253759  87.0255974  25.2111850
  39.1140618  86.0566467  26.9632422  39.9333507  86.5510545  26.9867259
  39.3877425  85.1398435  26.9349990  48.8707214  78.4477219  16.3260378
  47.9833069  78.7326870  16.1080572  49.2861203  78.2870982  15.4787654
  52.2221750  78.4723740  20.0414717  52.9982140  78.9620192  20.3139334
  51.4969884  78.8981794  20.4986586  54.6594309  79.1851359  21.0988657
  55.2538799  78.9447095  20.3881966  54.7320892  78.4658490  21.7262194
  36.8791464  93.0284970  21.4131822  36.7445932  92.2685371  20.8469820
  36.4623527  93.7525870  20.9460611  48.0150427  88.2121894  10.4208398
  48.7186277  88.4171896  11.0366053  47.2913076  88.7798656  10.6857481
  48.8448238  83.9631755  16.5410668  48.7883439  84.4200306  15.7018300
  49.3976580  83.2022440  16.3633510  52.6553044  79.7521487  17.3660787
  52.3989978  79.3518123  18.1968995  52.0305912  80.4665281  17.2410926
  56.9665381  82.4917560  19.8732079  56.4064939  82.5610749  20.6463641
  56.3608885  82.3158545  19.1531575  40.0360590  93.9254287  21.6250265
  39.9192974  94.8699720  21.5228955  39.2153036  93.6227849  22.0136064
  49.9237125  88.6504423  12.4706858  50.7582729  88.2185621  12.2884332
  49.7621468  88.4786437  13.3983752  49.5783017  85.1536536  13.8363197
  49.5231821  84.9880808  12.8951641  48.9529072  85.8612569  13.9925387
  34.3675532  80.3904601  27.6624619  35.0134395  79.8803555  28.1511844
  34.1592683  81.1273282  28.2368044  46.8928924  87.4585448  33.1616760
  47.7620084  87.6326100  32.8003395  46.4135676  88.2779865  33.0392489
  42.8879142  74.6544645  13.4148515  42.8757812  75.5986485  13.5716786
  43.7802564  74.4714791  13.1207976  41.0615104  94.5782549  24.8406193
  41.9642351  94.6106159  25.1572688  40.8352474  93.6483000  24.8552529
  42.8168706  93.3313536  21.5016272  41.8664337  93.3315397  21.3880644
  43.1201192  92.5846270  20.9852307  46.7031262  71.2487422  17.6694452
  45.9363658  70.6945909  17.8151134  47.1141967  71.3209291  18.5308604
  38.7073023  77.5372218  31.7599633  39.5704484  77.1809023  31.9702958
  38.1338434  77.1986112  32.4475038  58.5521400  99.1674074  22.5662034
  59.1899810  99.0480821  21.8625374  58.4342243 100.1154918  22.6249986
  55.3611106  99.1201502  22.5023559  55.0229618  99.0042567  21.6144094
  56.2300874  98.7192667  22.4824565  51.2197922 100.9736979  18.4920450
  50.6562787 100.8826915  17.7236738  51.1050317 100.1536883  18.9722942
  55.8430889 100.2736354  28.4609765  55.8319530  99.8789152  27.5890268
  56.0051529  99.5402426  29.0543536  48.7662354 102.4688170  21.3304670
  49.5583646 102.1278995  20.9150970  49.0059004 102.5783145  22.2506824
  56.7997481 104.6407946  13.8034915  56.1485460 105.2262027  13.4168929
  57.5941843 105.1714141  13.8629952  50.7253108 101.7297083  14.2022049
  51.4983984 101.1826070  14.0634925  51.0778507 102.5941333  14.4136511
  52.5638150 103.0573466  27.4088949  52.2728016 103.9619096  27.2935615
  53.1995135 103.0989993  28.1233018  53.4894357 100.4350314  23.9990308
  54.0857929 100.2106337  23.2847271  53.5469329  99.6935060  24.6015756
  53.0619385  97.8889750  11.8340499  53.3144906  97.3671271  11.0723962
  52.1243945  97.7255895  11.9367183  58.1062668  96.8925528  19.6415242
  58.8925758  96.4744951  19.2905659  58.3701373  97.7971620  19.8096891
  58.2772746 102.3298378  14.3403899  57.6418579 102.4033005  15.0524804
  57.9470152 102.9191977  13.6622978  63.5071095  96.8300761  20.5448221
  64.2396267  96.2599978  20.7786050  62.7510451  96.4422362  20.9854726
  52.7815674  99.7917855  14.0364874  52.6651932  99.1162759  14.7045958
  52.8917934  99.3050229  13.2197027  55.1247215  99.2528003  17.7411563
  54.7605422  98.7258624  18.4524485  55.9814331  98.8626472  17.5678049
  61.0296516  90.5422335  25.0042829  60.6979841  91.4117746  24.7804044
  60.4342129  90.2258619  25.6836860  54.7652702  94.2817902  12.7372912
  54.9327104  95.1498139  13.1043383  54.5749871  94.4445184  11.8134201
  57.5228035 102.7434881  24.4038742  57.2228758 103.6459920  24.2954549
  57.1779095 102.4767064  25.2559895  50.9740517  99.1948678  20.4375447
  50.0491013  99.0624892  20.6453138  51.2224930  99.9742897  20.9345389
  60.9225179  95.2617421  22.0836180  60.0142056  95.1932830  21.7894940
  60.8712775  95.7389366  22.9118005  54.7441923  96.7375560  13.7219579
  54.6241548  97.1832611  14.5605059  54.0494511  97.0860877  13.1633117
  48.3349328  98.8381952  21.2719236  48.4641709  99.0916430  22.1858647
  47.6546779  99.4309660  20.9523891  52.5048815 109.5079202  17.3709710
  52.4272845 110.4587027  17.4498190  51.9010459 109.1625074  18.0284636
  54.9966045  96.6807067  30.0271077  54.2199379  97.2400987  30.0173941
  55.6356608  97.1663850  30.5485947  62.7886826  93.4633860  23.8614053
  62.1461206  93.7566393  23.2153848  62.2841754  93.3486780  24.6667250
  60.4426989  97.2097033  14.5499913  61.3544845  97.4424420  14.3747610
  59.9336636  97.7934077  13.9874991  53.2512417  99.4892520  29.5889044
  53.9927102 100.0277564  29.3123867  52.5449403 100.1158809  29.7460596
  58.7267757 101.6321661  28.1861205  59.1351113 101.1904071  27.4415838
  58.0045018 101.0574288  28.4395398  55.0798827  96.5694268  25.5594762
  55.9260022  96.9933681  25.7029411  55.0197465  95.9127892  26.2533325
  59.0496571 102.1922851  21.9413494  58.4205434 102.3568566  21.2389562
  58.6622234 102.6064461  22.7124458  62.9285803 103.1277289  19.2957858
  62.2436842 103.5076191  18.7454891  63.0129653 103.7372616  20.0289806
  58.2298272  94.2298636  27.2175936  57.9859204  94.9840696  26.6810212
  58.5058203  94.6083984  28.0523183  60.1836735 100.7737248  25.8953201
  60.3953630 101.4169008  25.2187583  60.1366483  99.9399565  25.4275132
  57.7862964  93.3855069  22.7989774  56.9247443  93.6836322  23.0906511
  57.8125399  93.6025468  21.8670806  54.6024533 101.9297259  19.2063579
  55.0662879 102.2084962  18.4168202  54.3381331 101.0280704  19.0236670
  51.4948614 101.4768741  22.1443343  52.0649971 101.9056009  21.5060827
  52.0856726 101.1951326  22.8427528  53.5393419  98.0520412  16.0153144
  54.2417463  98.5041456  16.4827071  53.2074048  97.4104231  16.6433038
  51.9873781  96.6432168  30.3904354  51.3572442  97.3248449  30.6239751
  51.8809869  96.5315250  29.4457492  47.2818753  96.3103965  21.3170278
  46.4917807  96.5661493  20.8410389  47.7730001  97.1252302  21.4222319
  61.2982563 103.6509204  24.0675559  62.1200007 103.2489391  23.7858240
  61.2944966 103.5477438  25.0191675  49.2333499  96.6748544  18.2753755
  48.4364662  96.7867238  18.7937250  49.0059091  97.0135196  17.4094645
  55.0639166 103.1993247  26.2236269  55.1283599 103.6613654  27.0594441
  54.3550090 102.5690612  26.3518579  45.5656456  96.5634455  23.7485269
  45.8164495  97.4481465  24.0142845  46.1016005  96.3839056  22.9760361
  69.3888556  99.9947952  20.4160530  68.6352264  99.4255350  20.2604535
  69.5236097  99.9610617  21.3631165  54.7787184 104.8661354  16.0915250
  54.6432859 105.7112890  16.5200097  55.3196997 105.0680632  15.3281183
  51.2654524  90.9452934  32.7529605  50.8721469  90.3919133  33.4277249
  52.0820664  91.2563513  33.1436122  48.2316581 102.3836793  16.6643175
  48.7441102 103.1780043  16.8148739  48.8839294 101.6863083  16.5976776
  50.0411466 105.5002549  18.7465928  50.2178094 106.4220513  18.5586912
  50.8368300 105.1860968  19.1760308  54.1822485  92.3610813  30.3449861
  54.9232198  92.9617967  30.2654324  54.4140407  91.6188451  29.7867904
  49.3263823  97.5467181  28.6228091  49.2117338  96.6452438  28.9235190
  48.4708340  97.7930877  28.2712908  56.4055660 105.4884921  30.2215592
  55.9619515 104.7021300  29.9036496  57.0672874 105.6764071  29.5559482
  51.1642782 107.0180723  24.7476270  51.7150207 106.8897786  23.9753264
  50.3254257 107.3175612  24.3971163  58.5036898 105.7687721  28.2496993
  58.4855374 106.5896602  27.7577262  59.4256819 105.6441796  28.4747134
  54.9609953 103.2831850  29.0920501  55.4938289 102.5220139  28.8619809
  54.4324034 102.9905502  29.8344656  58.1279648  88.3891916  24.6214143
  57.7843917  89.2793558  24.5453254  58.4958610  88.1993574  23.7583728
  46.1965498 100.7125447  17.4402745  47.0340720 101.1222455  17.2236453
  46.3743766  99.7724889  17.4102939  58.0929930  98.3800527  13.1286578
  57.5776554  99.1505132  13.3674966  57.8207239  97.7065664  13.7519640
  55.6777041  93.2250228  18.1871817  54.8218638  92.8357079  18.0077455
  56.0903993  93.3042189  17.3271602  57.2076188  90.7596572  22.5863376
  56.7040984  90.7226707  21.7731182  57.5006795  91.6689314  22.6460033
  53.4519074  90.8435301  21.5929558  54.3172071  90.6478110  21.2335448
  53.5196583  90.6145653  22.5198915  63.0664204 101.1332882  15.0639752
  62.2893647 100.7944042  14.6194914  63.7455685 101.1385505  14.3894717
  57.8816233  96.2527620  14.9546359  57.5766369  96.5673769  15.8056503
  58.8346676  96.3309039  14.9973692  56.3262665 102.4117843  16.6039313
  55.7984027 101.6770602  16.2912551  55.8250168 103.1892519  16.3579282
  61.3055511 100.6066863  21.7206360  60.6479186 101.2966125  21.8086488
  62.1095911 100.9963295  22.0640346  51.0581393  93.0737509  18.9645925
  51.6325145  92.8512691  18.2319118  51.6452375  93.1426204  19.7174526
  60.1160970  98.9611236  19.7710301  60.6292852  99.5941228  20.2732011
  60.7662194  98.3612432  19.4053661  51.3850980  95.1041970  12.9841810
  50.5488292  95.4416657  13.3051085  51.2455750  94.9690950  12.0468947
  53.3604061  89.9478758  17.6920994  52.7068473  89.6327775  17.0677609
  53.3184535  89.3254499  18.4180817  54.4715266 100.2298053   9.6074286
  53.5642327  99.9987307   9.8065435  54.9686297  99.4335672   9.7948268
  56.5941801  96.4360692  22.0168642  55.6764362  96.6575639  21.8590330
  57.0101945  96.5107002  21.1580349  57.3776849  97.8352107  17.1471322
  58.1248668  98.3473504  16.8378444  57.6468438  97.5136160  18.0075716
  55.6503499 100.3310648  14.1298276  54.7414718 100.0469681  14.2270746
  55.6798583 100.7509727  13.2701583  60.8822766 103.9417238  17.8989444
  60.4285093 103.1008147  17.9554635  60.2516733 104.5778636  18.2364224
  59.8255686  94.8709224  19.1290111  59.0878443  94.3586610  19.4600354
  60.0782459  94.4309605  18.3173388  59.3255706 105.7793734  18.8339262
  59.6178680 106.3398791  18.1151628  59.8354326 106.0722295  19.5892421
  59.9267313  87.6485476  19.7231881  60.2326190  86.7882839  19.4357796
  60.6519918  88.2403096  19.5230875  46.2191669  98.0516162  18.1113479
  46.0216069  97.4585523  17.3864545  45.6638333  97.7468372  18.8289417
  54.1988393  97.9439269  20.2308072  54.2537003  96.9913105  20.1550548
  53.3879595  98.0998708  20.7149370  55.3479587 101.8719392  11.4686355
  54.9099017 101.1555251  11.0091992  56.0890028 102.0995506  10.9071446
  52.1380753  96.5616328  17.9898451  51.3248618  96.8610499  18.3963643
  52.6339747  96.1672017  18.7072933  54.2889331 106.5574085  19.9232715
  54.2465510 106.7834932  18.9941247  55.2052030 106.3237460  20.0718517
  57.7354965  97.0258153  26.8213345  58.0904352  97.2529626  27.6807810
  58.3827096  97.3576530  26.1990600  63.4652702 100.1476589  17.5262674
  63.3270600 100.3378185  16.5983863  63.1088920 100.9095972  17.9830725
  51.6294828  94.1334684  23.6059686  52.2694207  93.9923443  22.9082649
  50.7972358  93.8469197  23.2298288  63.4922081 102.2153116  22.5373945
  63.9258588 102.1228405  23.3856999  64.2053662 102.1910616  21.8993961
  52.4055132 103.4337114  19.7194678  53.1995730 102.9387434  19.5177253
  51.6946824 102.9054977  19.3562384  57.2249976 105.8155210  24.0707046
  57.2786998 106.3846146  24.8384762  56.3564757 105.9857095  23.7061083
  48.7137895  97.5780196  15.7954431  47.7835483  97.5164652  16.0124393
  48.8095367  97.0556149  14.9991072  48.6323444  94.1035009  18.3832672
  48.8930261  95.0180342  18.2741833  49.4540616  93.6359451  18.5329285
  50.1048369  95.5172766  25.5531497  50.7771423  95.3090128  24.9044146
  49.2778156  95.3194852  25.1136729  64.3537631 102.2576816  25.0706831
  64.5473521 103.1622627  25.3166105  64.2538249 101.7984235  25.9045416
  56.0073941  92.1434707  27.5697158  55.3601856  92.8424657  27.4761634
  56.7774957  92.5770851  27.9373406  59.4152739 102.4083559  30.6447711
  59.2638246 102.1794111  29.7277795  59.4057419 103.3654161  30.6579056
  56.1838076  99.9815472  25.6293978  57.1130136 100.1326631  25.4562945
  55.7629106 100.0699493  24.7742624  54.9826408 104.0066136  23.3992515
  54.8437493 103.6384921  24.2718453  54.1941004 104.5213776  23.2276473
  55.5774560 109.1075233  14.7418052  55.7526315 108.6363276  15.5563674
  54.8907348 109.7340999  14.9699312  56.5331623 103.3847739  20.7881353
  56.1981455 103.3448509  21.6839003  56.0335568 102.7192455  20.3151763
  50.5075867  98.7915369  26.3133934  50.3695665  98.0595608  26.9145473
  51.4180790  98.7024269  26.0318122  59.4690814 100.7303773  11.0618413
  58.8519985 100.0050601  10.9651465  59.0007303 101.4913134  10.7185487
  53.1358167  98.5035328  25.8017614  53.8457786  97.8628521  25.7604232
  53.0927476  98.7548223  26.7243795  61.1244946 105.4402682  28.7224193
  61.0657492 104.7561902  28.0554776  61.5264464 106.1821672  28.2704819
  51.8487101  95.4900546  27.6213253  51.3124458  95.0391285  28.2734850
  51.2603810  95.6246455  26.8783718  50.1435645 112.2564596  21.5157912
  50.3832243 112.8883120  22.1936930  49.3004841 111.9052636  21.8023271
  51.2589360  94.9489198  10.1839717  50.3818827  94.8277998   9.8201964
  51.7347113  94.1575276   9.9318606  61.1262353 103.4042266  26.9538173
  60.2389132 103.0668187  27.0764572  61.6960904 102.6725297  27.1906938
  42.7791500  99.7366357  20.2781224  43.4662540  99.4228087  19.6902239
  42.6239629 100.6407722  20.0048475  47.5826223  94.6256554  24.7066248
  47.4984411  94.0182223  23.9716658  46.7608929  95.1165572  24.7075744
  54.6563507 108.0643718  23.9199416  54.5833678 108.8698689  24.4318720
  54.2140900 108.2635684  23.0947437  54.4453286 107.3015488  17.4302237
  53.6620808 107.8437168  17.5240462  55.1446031 107.8189468  17.8296479
  57.7549936  93.1110117  20.0736443  58.2518636  92.3580080  19.7537513
  56.9836918  93.1474434  19.5079652  65.6079694  98.8150483  21.7154734
  65.5969570  99.6975198  21.3448667  64.7397073  98.4622034  21.5209271
  57.1162190 107.9630552  26.0757575  57.8290162 108.5978017  26.0033476
  56.6252219 108.0594418  25.2597576  58.8379717 101.8681805  17.6474866
  57.9035996 101.9883267  17.4779571  59.0156386 100.9654271  17.3834876
  54.3384905  95.2527500  19.8008127  53.9682693  94.6998541  20.4889033
  54.8343998  94.6485634  19.2483127  62.2252268  97.7099124  18.1824900
  62.6912721  98.5427116  18.1085203  62.6759769  97.2444106  18.8870159
  52.1674104 105.7124995  26.8963145  52.8683563 106.3461478  27.0492540
  51.6969219 106.0539727  26.1358785  60.2928500 104.0542945  15.1811052
  60.5688343 103.9399540  16.0904926  59.4232998 103.6560430  15.1423225
  60.1968931  90.0779711  22.2215802  59.2832011  90.3083938  22.3898009
  60.6262033  90.1618155  23.0729834  59.9675390  98.2669603  24.7215696
  59.3146840  98.5145510  24.0668148  60.3455770  97.4533741  24.3878173
  56.9282564 108.3029296  18.8243866  57.1104958 107.4850952  19.2871618
  57.7515550 108.5196988  18.3868756  57.2624729 107.2297481  16.0858914
  57.7912496 106.7189936  15.4729077  57.5252949 106.9140011  16.9504448
  56.0162963  99.0089414  31.2081733  55.3403600  98.9083543  31.8784108
  56.8390597  98.8528628  31.6717730  47.7641822 105.2461350  23.8294248
  48.3495259 104.5005038  23.9622152  47.5666660 105.5565307  24.7130912
  50.6180477 108.2812598  18.8456690  49.9490852 108.7658726  18.3620730
  50.4793347 108.5281818  19.7600069  42.3559477  97.8166951  22.5498691
  42.3943576  97.2830541  23.3435809  41.8499769  97.2902156  21.9309668
  54.7585746 110.3156341  25.4439349  55.3104054 110.4787963  26.2088434
  55.0991939 110.9060779  24.7719374  49.7350239  92.6631491  26.0461233
  49.7991565  93.5246322  25.6338631  49.6717359  92.0505493  25.3133592
  49.2102511  94.7354624  29.6934268  49.8374550  94.3531701  30.3071792
  48.3530430  94.5168826  30.0589960  59.6096620 105.1417599  31.2988003
  60.1536524 105.7547557  30.8042958  59.0283465 105.6997177  31.8155016
  45.9868054  96.5431053  15.6252623  46.2821495  95.6341731  15.5719676
  45.0856090  96.5218792  15.3033625  57.8954133 108.2638317  22.4303031
  57.7705272 107.4628057  21.9213976  58.5533224 108.7584510  21.9417001
  49.5162301  94.6187049  21.6080171  48.7948887  95.2323017  21.4687644
  50.3055557  95.1544814  21.5296817  59.9589041 106.0647337  24.0582581
  59.0119377 105.9452688  23.9860908  60.3071814 105.1769835  24.1408842
  52.3188615  91.9541476  27.8820823  52.8423016  92.2003772  28.6447132
  52.1000948  92.7861511  27.4623960  47.7155896  94.2245151  15.7491948
  47.3868602  93.3442529  15.5667054  48.0695266  94.1692819  16.6368337
  56.9635475 105.8600053  20.2586933  56.8160437 104.9316761  20.4394503
  57.7888968 105.8820144  19.7744009  50.8297719  94.5118120  16.1167425
  51.1693791  95.0404042  15.3946034  51.2769839  94.8498526  16.8925992
  60.5669596 106.6828612  21.3451806  61.4916144 106.4771473  21.2076257
  60.3984900 106.4345013  22.2541148  53.5241160  92.8955171  25.5670493
  53.1837980  92.0962984  25.9691173  52.8180166  93.1956882  24.9947327
  54.1757632  89.9804483  24.0197816  54.9983701  89.5064962  23.8976707
  54.4195695  90.7594967  24.5196503  52.8165866  93.0092742  14.3160718
  53.5374228  93.3873995  13.8124435  52.1931170  93.7281619  14.4195696
  56.9596989  93.7137891  15.2519051  57.1760603  94.5962529  14.9507879
  56.4791056  93.3224104  14.5224692  51.6996210  96.6723604  21.8289795
  51.5540791  96.9863907  22.7214077  51.2221414  97.2908504  21.2760694
  53.5592593  93.6626152  21.8770685  53.5454162  92.7667245  21.5402983
  54.2765021  93.6696816  22.5108971  55.4118724  94.0963492  23.9223812
  55.1536502  95.0180563  23.9208143  54.8803764  93.6993927  24.6124276
  60.3564913 107.2014279  16.7013897  60.5301790 106.6360702  15.9487750
  60.8493804 108.0015174  16.5193387  46.1741872  99.2128948  24.7677456
  45.6295341  99.9888756  24.8997731  47.0521222  99.5599753  24.6096578
  52.9629489  92.5440532  17.1458255  53.0845400  91.6157179  17.3449142
  52.6731531  92.5579218  16.2336570  55.8320679  90.2295443  20.2824975
  55.8542376  90.2934776  19.3276954  56.2488738  89.3899951  20.4765481
  66.2104304  99.9650702  18.3204197  66.6535450  99.2158028  17.9223320
  65.3330814  99.9560839  17.9377929  61.3440085 106.5181044  13.8010796
  62.0390990 107.1387736  14.0198110  61.6863235 105.6676395  14.0763174
  46.9607894  98.3398845  27.6607613  46.2189630  98.4881480  28.2472244
  46.6400639  98.6007110  26.7974363  63.2431508 103.9680749  15.3298127
  63.7682832 104.3068022  14.6047447  63.1553861 103.0327765  15.1461261
  54.9051557 107.8814823  27.4588003  55.2138683 107.6363970  28.3310703
  55.7027039 108.0861461  26.9706873  54.9272169 110.0352733  19.6893380
  54.4877159 109.5429111  20.3826236  55.6780286 109.4925700  19.4485455
  47.4064508 106.2264273  19.6918008  48.2322528 105.9268045  19.3116651
  47.0558560 105.4571896  20.1407796  52.3746041 105.5790742  21.7615681
  51.7526050 104.9161447  21.4617909  53.0450908 105.6051874  21.0789329
  45.6073113 104.1450600  20.6506941  44.7705021 103.7172774  20.4690943
  45.5796758 104.3383043  21.5877733  52.4470569  94.0572530  31.3548187
  52.4958724  94.9334653  30.9725957  52.9893083  93.5149923  30.7819831
  62.9325414 104.6013653  30.6349324  62.1420958 104.5837792  30.0953824
  62.6958769 105.1401947  31.3898361  63.0523289 101.4506119  27.9482053
  63.1021294 101.2856127  28.8897576  62.9437213 100.5833378  27.5579934
  51.9359548 104.1294665  15.2374142  52.0847668 104.8130129  14.5840815
  52.7425991 104.1099755  15.7523598  60.3427052  97.4337047  29.2641360
  61.2436914  97.2943512  28.9725358  60.4175026  97.5991502  30.2039537
  54.6769857  94.8103902  28.1094546  53.8073166  95.1037468  27.8377135
  54.9129337  95.3944347  28.8301810  64.5541486 103.8703061  28.1924075
  64.2626294 104.2333041  29.0287536  63.9413617 103.1570069  28.0137407
  65.7537168 101.4355941  20.7126645  66.5884060 101.8745745  20.8764205
  65.8896297 100.9594594  19.8934891  62.8028674  98.9935676  26.6604133
  63.2782796  99.1863322  25.8522984  61.8794240  99.0494861  26.4147516
  49.6912181 100.1559843  16.2435211  49.4458223  99.2522173  16.4415421
  49.8608096 100.1576993  15.3014689  57.3808891  91.0283519  25.6259966
  57.8990835  91.7644546  25.3006455  57.0264024  91.3347512  26.4606726
  48.9607829  95.8888200  13.7421372  48.2677073  95.9632555  13.0861408
  48.7159580  95.1248544  14.2642889  57.6321485  87.4483802  21.1460863
  57.9123239  86.7806991  21.7721290  58.4172092  87.6412897  20.6335527
  55.4354954 106.6242795  12.7085889  54.8628921 107.2432983  12.2556361
  56.0087747 107.1742157  13.2425811  61.5030343  95.8701436  24.8932438
  62.4547766  95.9699533  24.9144662  61.3333794  95.0779704  25.4030523
  59.5244723  92.9557019  25.0791839  58.9294655  93.2362032  24.3838328
  59.2394420  93.4450920  25.8508580  58.6552213 106.9079946  13.8394472
  59.5882887 106.8425507  14.0427347  58.5675426 107.7436212  13.3809004
  63.9818421  99.0907555  24.0074738  63.9494741  98.1523556  24.1934422
  64.5919045  99.1691592  23.2740563  55.8201752  97.9603608  10.0501942
  56.7660857  97.8309816  10.1190360  55.4415997  97.2218270  10.5271370
  64.1312910  95.8818599  24.0533021  63.6151958  95.0977055  23.8662950
  65.0152858  95.5537315  24.2179540  61.7923637  89.6259614  20.0128834
  61.5948458  89.3174702  20.8972166  62.4023342  90.3521253  20.1426764
  69.7994971 100.1523562  23.1480775  70.5298360  99.8908850  23.7088478
  69.1901917  99.4152284  23.1882843  67.8810268  98.2931425  23.7455226
  67.1543432  98.1587390  23.1371717  67.4657555  98.6008253  24.5511944
  55.7040445 102.0121354  31.5102599  56.6243454 102.1899953  31.7042645
  55.6690028 101.0677400  31.3582298  54.0044669  95.8853585   9.9856827
  53.0976125  95.5886697  10.0619541  54.2820650  95.5883403   9.1191113
  44.9222610  97.2059948  20.4355873  44.6025394  96.3525256  20.1430247
  44.3756038  97.4208526  21.1913841  48.7002517  99.9222389  24.1525380
  48.9188527 100.8539497  24.1713414  49.1128291  99.5630363  24.9380184
  55.6206735  90.4290474  16.1401068  54.8107463  90.0837559  16.5156314
  56.3091152  90.1198018  16.7288680  57.5497283  89.5068521  17.7625365
  58.1028322  89.9263975  18.4215388  57.7867370  88.5804269  17.8048321
  53.5730382  95.4955595  33.5428129  53.4727109  96.4449952  33.4740220
  53.3551925  95.1673834  32.6704199  52.7743454  92.7440520  10.1268806
  53.6362618  93.0695418  10.3864624  52.9593798  91.9572016   9.6141872
  44.7910870 100.8262860  22.4048995  44.0974341 100.4116812  21.8918949
  45.5383861 100.8683396  21.8082414  60.9276090  91.6169046  17.2704029
  60.3474759  92.2753850  16.8882082  60.6612023  90.7946391  16.8591447
  59.3779657  91.0174104  19.4725350  59.8779435  91.1290639  18.6639668
  60.0215265  90.7135157  20.1126158  53.4361653  98.9252734  32.3593191
  52.9528734  99.7253094  32.5657080  53.5222592  98.9360679  31.4060635
  46.7047612 100.7581113  20.2815010  46.6818300 100.8568801  19.3296893
  47.0148249 101.6046264  20.6032176  49.3634990 102.8157268  24.3961624
  50.3178244 102.7841211  24.3291556  49.1647514 102.3547892  25.2111850
  49.9534372 101.3858384  26.9632422  50.7727261 101.8802463  26.9867259
  50.2271180 100.4690353  26.9349990  59.7100968  93.7769137  16.3260378
  58.8226823  94.0618787  16.1080572  60.1254957  93.6162900  15.4787654
  63.0615504  93.8015658  20.0414717  63.8375895  94.2912110  20.3139334
  62.3363639  94.2273712  20.4986586  65.4988063  94.5143277  21.0988657
  66.0932554  94.2739013  20.3881966  65.5714647  93.7950407  21.7262194
  47.7185219 108.3576888  21.4131822  47.5839687 107.5977289  20.8469820
  47.3017281 109.0817788  20.9460611  59.6841992  99.2923673  16.5410668
  59.6277193  99.7492224  15.7018300  60.2370335  98.5314357  16.3633510
  63.4946798  95.0813405  17.3660787  63.2383732  94.6810040  18.1968995
  62.8699666  95.7957198  17.2410926  67.8059136  97.8209478  19.8732079
  67.2458694  97.8902667  20.6463641  67.2002639  97.6450462  19.1531575
  50.8754345 109.2546205  21.6250265  50.7586729 110.1991637  21.5228955
  50.0546791 108.9519766  22.0136064  60.7630879 103.9796341  12.4706858
  61.5976483 103.5477539  12.2884332  60.6015222 103.8078354  13.3983752
  60.4176771 100.4828454  13.8363197  60.3625575 100.3172725  12.8951641
  59.7922827 101.1904487  13.9925387  45.2069286  95.7196518  27.6624619
  45.8528150  95.2095472  28.1511844  44.9986437  96.4565200  28.2368044
  57.7322679 102.7877366  33.1616760  58.6013838 102.9618018  32.8003395
  57.2529430 103.6071783  33.0392489  53.7272897  89.9836563  13.4148515
  53.7151567  90.9278403  13.5716786  54.6196319  89.8006708  13.1207976
  51.9008859 109.9074467  24.8406193  52.8036106 109.9398077  25.1572688
  51.6746229 108.9774918  24.8552529  53.6562461 108.6605453  21.5016272
  52.7058092 108.6607315  21.3880644  53.9594947 107.9138188  20.9852307
  57.5425016  86.5779340  17.6694452  56.7757412  86.0237826  17.8151134
  57.9535721  86.6501208  18.5308604  49.5466777  92.8664135  31.7599633
  50.4098239  92.5100940  31.9702958  48.9732188  92.5278030  32.4475038
  69.3915154 114.4965992  22.5662034  70.0293564 114.3772739  21.8625374
  69.2735997 115.4446836  22.6249986  66.2004861 114.4493420  22.5023559
  65.8623372 114.3334484  21.6144094  67.0694629 114.0484585  22.4824565
  66.6824644 115.6028272  28.4609765  66.6713284 115.2081070  27.5890268
  66.8445283 114.8694344  29.0543536  59.6056108 117.7980088  21.3304670
  60.3977400 117.4570912  20.9150970  59.8452758 117.9075063  22.2506824
  63.4031905 118.3865383  27.4088949  63.1121771 119.2911014  27.2935615
  64.0388889 118.4281911  28.1233018  64.3288112 115.7642232  23.9990308
  64.9251684 115.5398254  23.2847271  64.3863083 115.0226977  24.6015756
  71.8690270 105.8714253  25.0042829  71.5373595 106.7409664  24.7804044
  71.2735884 105.5550537  25.6836860  68.3621790 118.0726799  24.4038742
  68.0622513 118.9751838  24.2954549  68.0172849 117.8058982  25.2559895
  61.8134271 114.5240596  20.4375447  60.8884768 114.3916810  20.6453138
  62.0618684 115.3034815  20.9345389  71.7618934 110.5909339  22.0836180
  70.8535811 110.5224747  21.7894940  71.7106529 111.0681284  22.9118005
  59.1743082 114.1673869  21.2719236  59.3035463 114.4208348  22.1858647
  58.4940534 114.7601577  20.9523891  65.8359799 112.0098985  30.0271077
  65.0593133 112.5692905  30.0173941  66.4750362 112.4955768  30.5485947
  73.6280580 108.7925777  23.8614053  72.9854960 109.0858311  23.2153848
  73.1235509 108.6778698  24.6667250  64.0906172 114.8184438  29.5889044
  64.8320856 115.3569482  29.3123867  63.3843157 115.4450727  29.7460596
  69.5661511 116.9613578  28.1861205  69.9744867 116.5195989  27.4415838
  68.8438773 116.3866206  28.4395398  65.9192581 111.8986185  25.5594762
  66.7653777 112.3225599  25.7029411  65.8591219 111.2419810  26.2533325
  69.0692027 109.5590554  27.2175936  68.8252959 110.3132614  26.6810212
  69.3451957 109.9375901  28.0523183  71.0230489 116.1029166  25.8953201
  71.2347385 116.7460926  25.2187583  70.9760238 115.2691482  25.4275132
  68.6256718 108.7146987  22.7989774  67.7641197 109.0128240  23.0906511
  68.6519153 108.9317385  21.8670806  62.3342369 116.8060659  22.1443343
  62.9043726 117.2347927  21.5060827  62.9250481 116.5243243  22.8427528
  62.8267535 111.9724086  30.3904354  62.1966196 112.6540367  30.6239751
  62.7203623 111.8607168  29.4457492  58.1212508 111.6395882  21.3170278
  57.3311562 111.8953411  20.8410389  58.6123755 112.4544220  21.4222319
  60.0727253 112.0040461  18.2753755  59.2758417 112.1159156  18.7937250
  59.8452845 112.3427114  17.4094645  65.9032921 118.5285165  26.2236269
  65.9677353 118.9905572  27.0594441  65.1943845 117.8982530  26.3518579
  56.4050211 111.8926373  23.7485269  56.6558249 112.7773383  24.0142845
  56.9409759 111.7130974  22.9760361  62.1048278 106.2744852  32.7529605
  61.7115224 105.7211051  33.4277249  62.9214418 106.5855430  33.1436122
  65.0216239 107.6902731  30.3449861  65.7625953 108.2909884  30.2654324
  65.2534162 106.9480369  29.7867904  60.1657577 112.8759098  28.6228091
  60.0511092 111.9744356  28.9235190  59.3102095 113.1222795  28.2712908
  67.2449415 120.8176839  30.2215592  66.8013269 120.0313217  29.9036496
  67.9066628 121.0055989  29.5559482  62.0036536 122.3472640  24.7476270
  62.5543961 122.2189704  23.9753264  61.1648012 122.6467529  24.3971163
  69.3430653 121.0979639  28.2496993  69.3249128 121.9188520  27.7577262
  70.2650573 120.9733714  28.4747134  65.8003707 118.6123768  29.0920501
  66.3332044 117.8512056  28.8619809  65.2717788 118.3197420  29.8344656
  68.9673402 103.7183834  24.6214143  68.6237671 104.6085476  24.5453254
  69.3352365 103.5285492  23.7583728  66.5170796 108.5542146  18.1871817
  65.6612392 108.1648996  18.0077455  66.9297748 108.6334107  17.3271602
  68.0469942 106.0888489  22.5863376  67.5434738 106.0518624  21.7731182
  68.3400549 106.9981232  22.6460033  64.2912828 106.1727219  21.5929558
  65.1565825 105.9770028  21.2335448  64.3590337 105.9437571  22.5198915
  61.8975147 108.4029427  18.9645925  62.4718899 108.1804608  18.2319118
  62.4846130 108.4718121  19.7174526  64.1997815 105.2770676  17.6920994
  63.5462227 104.9619693  17.0677609  64.1578289 104.6546416  18.4180817
  67.4335555 111.7652609  22.0168642  66.5158117 111.9867556  21.8590330
  67.8495699 111.8398920  21.1580349  70.7661068 102.9777393  19.7231881
  71.0719945 102.1174757  19.4357796  71.4913673 103.5695013  19.5230875
  57.0585424 113.3808080  18.1113479  56.8609824 112.7877441  17.3864545
  56.5032088 113.0760290  18.8289417  65.0382147 113.2731186  20.2308072
  65.0930757 112.3205023  20.1550548  64.2273350 113.4290625  20.7149370
  62.9774507 111.8908246  17.9898451  62.1642373 112.1902417  18.3963643
  63.4733502 111.4963935  18.7072933  68.5748719 112.3550071  26.8213345
  68.9298107 112.5821544  27.6807810  69.2220850 112.6868447  26.1990600
  62.4688582 109.4626602  23.6059686  63.1087961 109.3215361  22.9082649
  61.6366113 109.1761115  23.2298288  59.4717199 109.4326927  18.3832672
  59.7324016 110.3472260  18.2741833  60.2934371 108.9651369  18.5329285
  60.9442124 110.8464684  25.5531497  61.6165177 110.6382046  24.9044146
  60.1171910 110.6486770  25.1136729  66.8467696 107.4726625  27.5697158
  66.1995611 108.1716574  27.4761634  67.6168711 107.9062769  27.9373406
  70.2546494 117.7375477  30.6447711  70.1032000 117.5086028  29.7277795
  70.2451173 118.6946078  30.6579056  67.0231830 115.3107390  25.6293978
  67.9523890 115.4618549  25.4562945  66.6022860 115.3991410  24.7742624
  65.8220162 119.3358054  23.3992515  65.6831248 118.9676838  24.2718453
  65.0334758 119.8505693  23.2276473  61.3469621 114.1207287  26.3133934
  61.2089419 113.3887526  26.9145473  62.2574545 114.0316187  26.0318122
  63.9751922 113.8327246  25.8017614  64.6851540 113.1920438  25.7604232
  63.9321230 114.0840141  26.7243795  71.9638701 120.7694599  28.7224193
  71.9051247 120.0853819  28.0554776  72.3658219 121.5113589  28.2704819
  62.6880856 110.8192464  27.6213253  62.1518213 110.3683202  28.2734850
  62.0997564 110.9538373  26.8783718  71.9656108 118.7334183  26.9538173
  71.0782887 118.3960105  27.0764572  72.5354659 118.0017215  27.1906938
  53.6185255 115.0658275  20.2781224  54.3056295 114.7520005  19.6902239
  53.4633384 115.9699640  20.0048475  58.4219977 109.9548472  24.7066248
  58.3378166 109.3474141  23.9716658  57.6002683 110.4457490  24.7075744
  68.5943691 108.4402035  20.0736443  69.0912390 107.6871997  19.7537513
  67.8230672 108.4766352  19.5079652  65.1778660 110.5819418  19.8008127
  64.8076447 110.0290458  20.4889033  65.6737752 109.9777552  19.2483127
  63.0067858 121.0416913  26.8963145  63.7077318 121.6753396  27.0492540
  62.5362973 121.3831645  26.1358785  71.0362686 105.4071629  22.2215802
  70.1225765 105.6375855  22.3898009  71.4655787 105.4910073  23.0729834
  70.8069144 113.5961521  24.7215696  70.1540594 113.8437428  24.0668148
  71.1849524 112.7825659  24.3878173  66.8556717 114.3381332  31.2081733
  66.1797354 114.2375461  31.8784108  67.6784351 114.1820545  31.6717730
  58.6035576 120.5753268  23.8294248  59.1889013 119.8296956  23.9622152
  58.4060415 120.8857225  24.7130912  53.1953231 113.1458868  22.5498691
  53.2337331 112.6122459  23.3435809  52.6893524 112.6194074  21.9309668
  60.5743993 107.9923409  26.0461233  60.6385320 108.8538240  25.6338631
  60.5111114 107.3797411  25.3133592  60.0496266 110.0646541  29.6934268
  60.6768305 109.6823619  30.3071792  59.1924185 109.8460743  30.0589960
  70.4490374 120.4709517  31.2988003  70.9930278 121.0839475  30.8042958
  69.8677219 121.0289095  31.8155016  56.8261809 111.8722971  15.6252623
  57.1215250 110.9633649  15.5719676  55.9249844 111.8510710  15.3033625
  60.3556056 109.9478967  21.6080171  59.6342641 110.5614935  21.4687644
  61.1449311 110.4836732  21.5296817  63.1582369 107.2833394  27.8820823
  63.6816771 107.5295690  28.6447132  62.9394702 108.1153428  27.4623960
  58.5549650 109.5537068  15.7491948  58.2262356 108.6734447  15.5667054
  58.9089021 109.4984737  16.6368337  64.3634914 108.2247089  25.5670493
  64.0231735 107.4254902  25.9691173  63.6573920 108.5248800  24.9947327
  65.0151386 105.3096401  24.0197816  65.8377455 104.8356879  23.8976707
  65.2589450 106.0886885  24.5196503  62.5389965 112.0015522  21.8289795
  62.3934545 112.3155825  22.7214077  62.0615168 112.6200422  21.2760694
  64.3986348 108.9918070  21.8770685  64.3847916 108.0959163  21.5402983
  65.1158776 108.9988734  22.5108971  66.2512478 109.4255410  23.9223812
  65.9930256 110.3472481  23.9208143  65.7197519 109.0285845  24.6124276
  57.0135627 114.5420866  24.7677456  56.4689095 115.3180674  24.8997731
  57.8914977 114.8891671  24.6096578  63.8023244 107.8732450  17.1458255
  63.9239155 106.9449096  17.3449142  63.5125286 107.8871136  16.2336570
  66.6714434 105.5587360  20.2824975  66.6936131 105.6226694  19.3276954
  67.0882493 104.7191869  20.4765481  57.8001649 113.6690762  27.6607613
  57.0583385 113.8173398  28.2472244  57.4794393 113.9299028  26.7974363
  65.7445311 123.2106741  27.4588003  66.0532438 122.9655887  28.3310703
  66.5420793 123.4153379  26.9706873  56.4466868 119.4742518  20.6506941
  55.6098776 119.0464692  20.4690943  56.4190513 119.6674961  21.5877733
  63.2864323 109.3864447  31.3548187  63.3352479 110.2626570  30.9725957
  63.8286837 108.8441840  30.7819831  73.7719169 119.9305571  30.6349324
  72.9814712 119.9129710  30.0953824  73.5352523 120.4693864  31.3898361
  73.8917044 116.7798037  27.9482053  73.9415049 116.6148044  28.8897576
  73.7830967 115.9125296  27.5579934  71.1820806 112.7628965  29.2641360
  72.0830669 112.6235430  28.9725358  71.2568781 112.9283420  30.2039537
  65.5163612 110.1395820  28.1094546  64.6466921 110.4329386  27.8377135
  65.7523092 110.7236265  28.8301810  75.3935241 119.1994979  28.1924075
  75.1020049 119.5624959  29.0287536  74.7807372 118.4861987  28.0137407
  73.6422429 114.3227593  26.6604133  74.1176551 114.5155239  25.8522984
  72.7187994 114.3786779  26.4147516  68.2202645 106.3575437  25.6259966
  68.7384589 107.0936464  25.3006455  67.8657778 106.6639430  26.4606726
  68.4715240 102.7775719  21.1460863  68.7516993 102.1098908  21.7721290
  69.2565846 102.9704815  20.6335527  72.3424098 111.1993353  24.8932438
  73.2941521 111.2991451  24.9144662  72.1727548 110.4071622  25.4030523
  70.3638477 108.2848936  25.0791839  69.7688409 108.5653949  24.3838328
  70.0788174 108.7742837  25.8508580  74.9706664 111.2110516  24.0533021
  74.4545713 110.4268973  23.8662950  75.8546613 110.8829233  24.2179540
  72.6317391 104.9551532  20.0128834  72.4342212 104.6466620  20.8972166
  73.2417097 105.6813171  20.1426764  66.5434199 117.3413272  31.5102599
  67.4637209 117.5191871  31.7042645  66.5083782 116.3969317  31.3582298
  55.7616364 112.5351866  20.4355873  55.4419148 111.6817174  20.1430247
  55.2149792 112.7500444  21.1913841  59.5396272 115.2514307  24.1525380
  59.7582281 116.1831415  24.1713414  59.9522045 114.8922281  24.9380184
  66.4600489 105.7582392  16.1401068  65.6501218 105.4129477  16.5156314
  67.1484906 105.4489936  16.7288680  68.3891038 104.8360439  17.7625365
  68.9422076 105.2555892  18.4215388  68.6261124 103.9096187  17.8048321
  64.4124137 110.8247512  33.5428129  64.3120864 111.7741869  33.4740220
  64.1945679 110.4965751  32.6704199  55.6304624 116.1554777  22.4048995
  54.9368096 115.7408730  21.8918949  56.3777615 116.1975314  21.8082414
  70.2173411 106.3466022  19.4725350  70.7173190 106.4582556  18.6639668
  70.8609019 106.0427075  20.1126158  64.2755407 114.2544651  32.3593191
  63.7922489 115.0545011  32.5657080  64.3616346 114.2652596  31.4060635
  57.5441367 116.0873031  20.2815010  57.5212055 116.1860718  19.3296893
  57.8542003 116.9338182  20.6032176  60.2028744 118.1449186  24.3961624
  61.1571998 118.1133128  24.3291556  60.0041268 117.6839810  25.2111850
  60.7928127 116.7150302  26.9632422  61.6121016 117.2094381  26.9867259
  61.0664934 115.7982270  26.9349990  56.0463041 111.0488436  27.6624619
  56.6921904 110.5387390  28.1511844  55.8380192 111.7857118  28.2368044
  68.5716433 118.1169283  33.1616760  69.4407593 118.2909936  32.8003395
  68.0923185 118.9363700  33.0392489  62.7402613 125.2366384  24.8406193
  63.6429860 125.2689995  25.1572688  62.5139983 124.3066835  24.8552529
  68.3818771 101.9071257  17.6694452  67.6151167 101.3529744  17.8151134
  68.7929476 101.9793126  18.5308604  60.3860532 108.1956053  31.7599633
  61.2491993 107.8392858  31.9702958  59.8125943 107.8569948  32.4475038
  72.9442033 121.6036770  32.7529605  72.5508978 121.0502968  33.4277249
  73.7608173 121.9147348  33.1436122  75.8609994 123.0194649  30.3449861
  76.6019707 123.6201802  30.2654324  76.0927916 122.2772287  29.7867904
  70.8890020 125.3938459  29.6934268  71.5162059 125.0115536  30.3071792
  70.0317939 125.1752661  30.0589960  74.1258078 124.7156365  31.3548187
  74.1746233 125.5918488  30.9725957  74.6680592 124.1733758  30.7819831
  75.2517891 126.1539430  33.5428129  75.1514618 127.1033787  33.4740220
  75.0339433 125.8257669  32.6704199  66.8856795 126.3780354  27.6624619
  67.5315659 125.8679308  28.1511844  66.6773946 127.1149035  28.2368044
  71.2254286 123.5247971  31.7599633  72.0885748 123.1684776  31.9702958
  70.6519697 123.1861866  32.4475038  28.6063684  36.4589051  15.4469500
  28.5476230  35.7748271  14.7800083  29.0083202  37.2008041  14.9950126
  27.0915358  36.1603968  18.0233310  27.6355262  36.7733927  17.5288265
  26.5102203  36.7183547  18.5400323  30.4144152  35.6200023  17.3594631
  29.6239696  35.6024161  16.8199131  30.1777507  36.1588316  18.1143668
  32.0360224  34.8889430  14.9169381  31.7445032  35.2519411  15.7532842
  31.4232355  34.1756439  14.7382713  25.2141416  33.8063735  19.8862066
  26.0832576  33.9804388  19.5248701  24.7348168  34.6258152  19.7637796
  36.8733892  45.5152361   9.2907341  37.5112302  45.3959109   8.5870681
  36.7554735  46.4633205   9.3495293  33.6823598  45.4679789   9.2268866
  33.3442110  45.3520854   8.3389401  34.5513367  45.0670954   9.2069872
  34.1643381  46.6214641  15.1855071  34.1532022  46.2267439  14.3135575
  34.3264021  45.8880714  15.7788843  27.0874846  48.8166457   8.0549977
  27.8796138  48.4757282   7.6396276  27.3271496  48.9261432   8.9752130
  30.8850643  49.4051753  14.1334255  30.5940508  50.3097384  14.0180921
  31.5207627  49.4468281  14.8478325  31.8106849  46.7828601  10.7235615
  32.4070422  46.5584624  10.0092578  31.8681821  46.0413347  11.3261063
  41.8283588  43.1779048   7.2693528  42.5608760  42.6078265   7.5031357
  41.0722943  42.7900649   7.7100033  39.3509008  36.8900622  11.7288136
  39.0192333  37.7596033  11.5049351  38.7554621  36.5736906  12.4082167
  35.8440528  49.0913168  11.1284049  35.5441251  49.9938207  11.0199856
  35.4991587  48.8245352  11.9805202  39.2437671  41.6095709   8.8081486
  38.3354549  41.5411117   8.5140247  39.1925267  42.0867654   9.6363312
  30.8261307  55.8557489   4.0955017  30.7485337  56.8065314   4.1743497
  30.2222951  55.5103361   4.7529943  33.3178537  43.0285354  16.7516383
  32.5411871  43.5879274  16.7419248  33.9569100  43.5142137  17.2731254
  41.1099318  39.8112147  10.5859360  40.4673698  40.1044680   9.9399155
  40.6054246  39.6965067  11.3912557  31.5724909  45.8370808  16.3134350
  32.3139594  46.3755852  16.0369174  30.8661895  46.4637096  16.4705902
  37.0480249  47.9799948  14.9106512  37.4563605  47.5382359  14.1661144
  36.3257511  47.4052576  15.1640705  33.4011319  42.9172555  12.2840069
  34.2472514  43.3411968  12.4274718  33.3409957  42.2606179  12.9778632
  37.3709064  48.5401139   8.6658801  36.7417926  48.7046853   7.9634869
  36.9834726  48.9542748   9.4369765  41.2498296  49.4755576   6.0203165
  40.5649334  49.8554478   5.4700198  41.3342145  50.0850903   6.7535112
  36.5510764  40.5776923  13.9421243  36.3071696  41.3318984  13.4055518
  36.8270695  40.9562271  14.7768490  38.5049227  47.1215536  12.6198508
  38.7166122  47.7647295  11.9432889  38.4578976  46.2877852  12.1520438
  29.8161107  47.8247028   8.8688649  30.3862464  48.2534297   8.2306134
  30.4069219  47.5429613   9.5672835  30.3086273  42.9910456  17.1149660
  29.6784934  43.6726737  17.3485057  30.2022361  42.8793537  16.1702799
  39.6195055  49.9987491  10.7920865  40.4412499  49.5967678  10.5103547
  39.6157458  49.8955725  11.7436981  33.3851659  49.5471534  12.9481576
  33.4496091  50.0091941  13.7839748  32.6762583  48.9168899  13.0763886
  47.7101048  46.3426239   7.1405837  46.9564757  45.7733637   6.9849841
  47.8448589  46.3088904   8.0876472  29.5867016  37.2931222  19.4774911
  29.1933962  36.7397420  20.1522556  30.4033156  37.6041800  19.8681429
  28.3623958  51.8480836   5.4711235  28.5390587  52.7698801   5.2832218
  29.1580792  51.5339255   5.9005614  32.5034977  38.7089101  17.0695168
  33.2444690  39.3096254  16.9899631  32.7352900  37.9666738  16.5113211
  27.6476315  43.8945468  15.3473398  27.5329830  42.9930725  15.6480497
  26.7920833  44.1409165  14.9958214  34.7268153  51.8363208  16.9460898
  34.2832007  51.0499587  16.6281803  35.3885366  52.0242359  16.2804789
  29.4855274  53.3659010  11.4721577  30.0362699  53.2376073  10.6998571
  28.6466750  53.6653899  11.1216470  36.8249391  52.1166008  14.9742300
  36.8067866  52.9374889  14.4822569  37.7469311  51.9920083  15.1992441
  33.2822445  49.6310138  15.8165808  33.8150782  48.8698426  15.5865116
  32.7536526  49.3383789  16.5589962  39.6268004  46.9545151   8.4451666
  38.9691678  47.6444412   8.5331795  40.4308403  47.3441583   8.7885653
  38.4373462  45.3089523   6.4955608  38.9505344  45.9419515   6.9977318
  39.0874686  44.7090719   6.1298968  34.9154293  42.7838979   8.7413949
  33.9976855  43.0053926   8.5835637  35.3314437  42.8585289   7.8825656
  39.2035259  50.2895525   4.6234751  38.7497586  49.4486435   4.6799941
  38.5729225  50.9256923   4.9609531  37.6468198  52.1272021   5.5584569
  37.9391172  52.6877079   4.8396934  38.1566818  52.4200582   6.3137728
  32.6101823  52.9052373   6.6478022  32.5678002  53.1313219   5.7186554
  33.5264522  52.6715747   6.7963823  36.0567457  43.3736440  13.5458651
  36.4116845  43.6007913  14.4053117  36.7039588  43.7054817  12.9235907
  41.7865194  46.4954876   4.2507980  41.6483092  46.6856472   3.3229169
  41.4301413  47.2574259   4.7076031  41.8134573  48.5631403   9.2619252
  42.2471080  48.4706692  10.1102306  42.5266154  48.5388903   8.6239268
  35.5462468  52.1633497  10.7952352  35.5999491  52.7324433  11.5630068
  34.6777250  52.3335382  10.4306390  28.4260862  41.8651053  12.2776804
  29.0983915  41.6568415  11.6289453  27.5990648  41.6673139  11.8382036
  42.6750123  48.6055104  11.7952137  42.8686013  49.5100914  12.0411412
  42.5750741  48.1462523  12.6290722  34.3286434  38.4912994  14.2942465
  33.6814349  39.1902944  14.2006941  35.0987449  38.9249138  14.6618713
  37.7365232  48.7561846  17.3693018  37.5850738  48.5272398  16.4523101
  37.7269911  49.7132448  17.3824363  34.5050568  46.3293759  12.3539284
  35.4342628  46.4804919  12.1808252  34.0841598  46.4177780  11.4987931
  33.3038900  50.3544424  10.1237822  33.1649986  49.9863208  10.9963760
  32.5153496  50.8692063   9.9521780  33.8987052  55.4553520   1.4663358
  34.0738808  54.9841563   2.2808981  33.2119840  56.0819286   1.6944619
  34.8544115  49.7326026   7.5126660  34.5193948  49.6926796   8.4084310
  34.3548061  49.0670742   7.0397070  28.8288359  45.1393656  13.0379241
  28.6908157  44.4073895  13.6390780  29.7393282  45.0502556  12.7563429
  31.4570660  44.8513616  12.5262920  32.1670278  44.2106808  12.4849539
  31.4139968  45.1026510  13.4489101  39.4457438  51.7880969  15.4469500
  39.3869984  51.1040189  14.7800083  39.8476957  52.5299959  14.9950126
  30.1699594  41.8378833  14.3458560  29.6336951  41.3869572  14.9980156
  29.5816302  41.9724742  13.6029024  28.4648137  58.6042883   8.2403219
  28.7044735  59.2361407   8.9182237  27.6217334  58.2530923   8.5268578
  39.4474846  49.7520553  13.6783479  38.5601624  49.4146475  13.8009878
  40.0173397  49.0203584  13.9152245  32.9775999  54.4122005  10.6444723
  32.9046170  55.2176977  11.1564027  32.5353392  54.6113971   9.8192744
  32.7665779  53.6493775   4.1547544  31.9833300  54.1915455   4.2485769
  33.4658524  54.1667755   4.5541785  43.9292186  45.1628770   8.4400041
  43.9182062  46.0453486   8.0693974  43.0609566  44.8100321   8.2454578
  35.4374682  54.3108839  12.8002881  36.1502655  54.9456304  12.7278783
  34.9464711  54.4072705  11.9842883  30.4886596  52.0603283  13.6208452
  31.1896056  52.6939766  13.7737846  30.0181711  52.4018014  12.8604091
  38.2887882  44.6147890  11.4461002  37.6359332  44.8623798  10.7913455
  38.6668262  43.8012028  11.1123480  35.2495056  54.6507583   5.5489173
  35.4317450  53.8329239   6.0116925  36.0728042  54.8675276   5.1114063
  35.5837221  53.5775768   2.8104221  36.1124988  53.0668223   2.1974383
  35.8465441  53.2618299   3.6749754  34.3375455  45.3567701  17.9327039
  33.6616092  45.2561831  18.6029415  35.1603089  45.2006915  18.3963037
  26.0854314  51.5939638  10.5539555  26.6707751  50.8483326  10.6867459
  25.8879153  51.9043594  11.4376219  28.9392969  54.6290885   5.5701997
  28.2703345  55.1137013   5.0866037  28.8005839  54.8760106   6.4845376
  33.0798238  56.6634629  12.1684655  33.6316546  56.8266250  12.9333741
  33.4204431  57.2539066  11.4964680  27.5315004  41.0832911  16.4179574
  28.1587042  40.7009988  17.0317099  26.6742923  40.8647113  16.7835267
  37.9309112  51.4895886  18.0233310  38.4749016  52.1025844  17.5288265
  37.3495957  52.0475465  18.5400323  36.2166625  54.6116604   9.1548338
  36.0917765  53.8106344   8.6459283  36.8745716  55.1062798   8.6662308
  38.2801534  52.4125624  10.7827888  37.3331869  52.2930975  10.7106214
  38.6284307  51.5248122  10.8654149  30.6401107  38.3019763  14.6066130
  31.1635509  38.5482060  15.3692439  30.4213440  39.1339798  14.1869267
  35.2847967  52.2078340   6.9832240  35.1372929  51.2795048   7.1639810
  36.1101460  52.2298431   6.4989315  38.8882089  53.0306899   8.0697113
  39.8128636  52.8249761   7.9321564  38.7197392  52.7823300   8.9786454
  31.8453652  39.2433458  12.2915800  31.5050472  38.4441271  12.6936480
  31.1392658  39.5435169  11.7192633  33.7331216  40.4441780  10.6469119
  33.4748994  41.3658850  10.6453449  33.2016257  40.0472214  11.3369583
  38.6777405  53.5492567   3.4259204  38.8514282  52.9838989   2.6733057
  39.1706296  54.3493462   3.2438694  24.4954365  45.5607236  11.4922763
  23.9507833  46.3367044  11.6243037  25.3733715  45.9078040  11.3341884
  44.5316796  46.3128990   5.0449504  44.9747942  45.5636315   4.6468627
  43.6543306  46.3039126   4.6623236  39.6652577  52.8659331   0.5256102
  40.3603482  53.4866024   0.7443417  40.0075728  52.0154682   0.8008480
  25.2820387  44.6877132  14.3852920  24.5402123  44.8359767  14.9717550
  24.9613131  44.9485398  13.5219669  41.5644001  50.3159037   2.0543433
  42.0895325  50.6546309   1.3292753  41.4766353  49.3806052   1.8706568
  33.2264049  54.2293110  14.1833310  33.5351176  53.9842257  15.0556009
  34.0239531  54.4339749  13.6952180  33.2484661  56.3831020   6.4138686
  32.8089652  55.8907399   7.1071543  33.9992778  55.8403988   6.1730762
  25.7277000  52.5742561   6.4163314  26.5535020  52.2746333   6.0361958
  25.3771052  51.8050183   6.8653103  30.6958533  51.9269029   8.4860988
  30.0738543  51.2639734   8.1863216  31.3663400  51.9530161   7.8034636
  30.7683061  40.4050817  18.0793494  30.8171216  41.2812940  17.6971264
  31.3105575  39.8628210  17.5065137  41.2537907  50.9491940  17.3594631
  40.4633450  50.9316079  16.8199131  41.0171261  51.4880234  18.1143668
  41.3735782  47.7984407  14.6727360  41.4233787  47.6334414  15.6142882
  41.2649705  46.9311666  14.2825240  38.6639544  43.7815335  15.9886666
  39.5649407  43.6421799  15.6970664  38.7387519  43.9469789  16.9284844
  32.9982349  41.1582189  14.8339853  32.1285659  41.4515755  14.5622441
  33.2341830  41.7422634  15.5547116  42.8753978  50.2181348  14.9169381
  42.5838787  50.5811329  15.7532842  42.2626110  49.5048356  14.7382713
  44.0749661  47.7834228   7.4371951  44.9096552  48.2224032   7.6009512
  44.2108790  47.3072881   6.6180197  41.1241167  45.3413963  13.3849439
  41.5995288  45.5341609  12.5768291  40.2006732  45.3973149  13.1392823
  35.7021383  37.3761806  12.3505273  36.2203327  38.1122833  12.0251762
  35.3476516  37.6825800  13.1852032  39.8242836  42.2179723  11.6177745
  40.7760259  42.3177821  11.6389969  39.6546286  41.4257991  12.1275829
  37.8457215  39.3035306  11.8037146  37.2507147  39.5840319  11.1083634
  37.5606912  39.7929207  12.5753887  42.3030913  45.4385843  10.7320044
  42.2707234  44.5001843  10.9179728  42.9131537  45.5169879   9.9985869
  42.4525402  42.2296886  10.7778328  41.9364451  41.4455343  10.5908256
  43.3365350  41.9015603  10.9424847  48.1207463  46.5001849   9.8726081
  48.8510852  46.2387138  10.4333785  47.5114409  45.7630571   9.9128149
  46.2022760  44.6409712  10.4700532  45.4755924  44.5065677   9.8617024
  45.7870047  44.9486541  11.2757250  34.0252937  48.3599642  18.2347905
  34.9455946  48.5378241  18.4287952  33.9902520  47.4155687  18.0827605
  27.0215009  46.2700676  10.8770687  27.2401019  47.2017784  10.8958720
  27.4340783  45.9108651  11.6625490  31.8942875  41.8433882  20.2673436
  31.7939602  42.7928239  20.1985527  31.6764417  41.5152121  19.3949506
  31.7574145  45.2731021  19.0838497  31.2741227  46.0731381  19.2902386
  31.8435084  45.2838966  18.1305941  27.6847482  49.1635556  11.1206931
  28.6390736  49.1319498  11.0536863  27.4860006  48.7026179  11.9357157
  28.2746864  47.7336672  13.6877729  29.0939753  48.2280750  13.7112566
  28.5483672  46.8168640  13.6595296  43.8200555  40.8621564   7.8233964
  44.4145046  40.6217300   7.1127272  43.8927139  40.1428695   8.4507500
  26.0397711  54.7055175   8.1377129  25.9052179  53.9455576   7.5715127
  25.6229773  55.4296075   7.6705918  46.1271628  44.1687765   6.5977385
  45.5671186  44.2380954   7.3708947  45.5215131  43.9928750   5.8776881
  29.1966837  55.6024492   8.3495572  29.0799221  56.5469925   8.2474262
  28.3759283  55.2998054   8.7381371  23.5281779  42.0674806  14.3869926
  24.1740642  41.5573759  14.8757151  23.3198930  42.8043487  14.9613351
  36.0535171  49.1355653  19.8862066  36.9226330  49.3096305  19.5248701
  35.5741922  49.9550070  19.7637796  30.2221351  56.2552754  11.5651500
  31.1248598  56.2876364  11.8817995  29.9958721  55.3253205  11.5797836
  31.9774953  55.0083741   8.2261579  31.0270584  55.0085602   8.1125951
  32.2807439  54.2616475   7.7097613  27.8679270  39.2142423  18.4844940
  28.7310731  38.8579227  18.6948265  27.2944680  38.8756317  19.1720344
  47.7127647  60.8444279   9.2907341  48.3506057  60.7251026   8.5870681
  47.5948489  61.7925123   9.3495293  44.5217353  60.7971707   9.2268866
  44.1835864  60.6812772   8.3389401  45.3907121  60.3962872   9.2069872
  40.3804169  62.6507183   5.2165757  39.8169034  62.5597120   4.4482044
  40.2656564  61.8307088   5.6968249  45.0037136  61.9506559  15.1855071
  44.9925777  61.5559357  14.3135575  45.1657775  61.2172631  15.7788843
  37.9268600  64.1458375   8.0549977  38.7189892  63.8049200   7.6396276
  38.1665251  64.2553350   8.9752130  45.9603727  66.3178151   0.5280222
  45.3091707  66.9032232   0.1414235  46.7548090  66.8484346   0.5875259
  39.8859354  63.4067288   0.9267356  40.6590230  62.8596275   0.7880232
  40.2384753  64.2711538   1.1381817  41.7244397  64.7343671  14.1334255
  41.4334263  65.6389301  14.0180921  42.3601381  64.7760198  14.8478325
  42.6500604  62.1120519  10.7235615  43.2464176  61.8876541  10.0092578
  42.7075575  61.3705265  11.3261063  42.2225632  59.5659954  -1.4414194
  42.4751153  59.0441476  -2.2030731  41.2850191  59.4026100  -1.3387511
  47.2668915  58.5695733   6.3660549  48.0532004  58.1515156   6.0150966
  47.5307619  59.4741825   6.5342197  47.4378992  64.0068583   1.0649206
  46.8024825  64.0803210   1.7770110  47.1076399  64.5962182   0.3868285
  52.6677342  58.5070966   7.2693528  53.4002514  57.9370183   7.5031357
  51.9116698  58.1192566   7.7100033  41.9421921  61.4688060   0.7610181
  41.8258179  60.7932964   1.4291265  42.0524181  60.9820434  -0.0557666
  44.2853462  60.9298207   4.4656870  43.9211669  60.4028828   5.1769791
  45.1420578  60.5396677   4.2923355  50.1902763  52.2192540  11.7288136
  49.8586087  53.0887951  11.5049351  49.5948376  51.9028824  12.4082167
  43.9258949  55.9588107  -0.5381782  44.0933351  56.8268344  -0.1711310
  43.7356118  56.1215389  -1.4620492  46.6834282  64.4205086  11.1284049
  46.3835005  65.3230125  11.0199856  46.3385342  64.1537269  11.9805202
  40.1346764  60.8718883   7.1620753  39.2097260  60.7395097   7.3698445
  40.3831177  61.6513102   7.6590696  50.0831426  56.9387626   8.8081486
  49.1748303  56.8703035   8.5140247  50.0319022  57.4159571   9.6363312
  43.9048170  58.4145765   0.4464885  43.7847795  58.8602815   1.2850366
  43.2100758  58.7631082  -0.1121577  37.4955575  60.5152156   7.9964542
  37.6247956  60.7686635   8.9103954  36.8153026  61.1079864   7.6769197
  41.6655062  71.1849406   4.0955017  41.5879092  72.1357232   4.1743497
  41.0616705  70.8395279   4.7529943  44.1572292  58.3577272  16.7516383
  43.3805626  58.9171192  16.7419248  44.7962855  58.8434055  17.2731254
  51.9493072  55.1404065  10.5859360  51.3067453  55.4336598   9.9399155
  51.4448001  55.0256985  11.3912557  49.6033236  58.8867238   1.2745219
  50.5151092  59.1194625   1.0992917  49.0942883  59.4704282   0.7120298
  42.4118664  61.1662725  16.3134350  43.1533348  61.7047769  16.0369174
  41.7055649  61.7929014  16.4705902  47.8874004  63.3091866  14.9106512
  48.2957360  62.8674276  14.1661144  47.1651265  62.7344493  15.1640705
  44.2405074  58.2464472  12.2840069  45.0866269  58.6703886  12.4274718
  44.1803711  57.5898097  12.9778632  48.2102818  63.8693056   8.6658801
  47.5811681  64.0338770   7.9634869  47.8228480  64.2834666   9.4369765
  52.0892050  64.8047494   6.0203165  51.4043088  65.1846396   5.4700198
  52.1735899  65.4142821   6.7535112  47.3904519  55.9068841  13.9421243
  47.1465451  56.6610901  13.4055518  47.6664449  56.2854188  14.7768490
  49.3442982  62.4507453  12.6198508  49.5559877  63.0939213  11.9432889
  49.2972730  61.6169770  12.1520438  46.9469211  55.0625274   9.5235080
  46.0853690  55.3606527   9.8151818  46.9731645  55.2795673   8.5916113
  43.7630780  63.6067464   5.9308886  44.2269126  63.8855167   5.1413508
  43.4987578  62.7050909   5.7481977  40.6554861  63.1538946   8.8688649
  41.2256218  63.5826214   8.2306134  41.2462973  62.8721531   9.5672835
  42.6999666  59.7290617   2.7398451  43.4023710  60.1811660   3.2072377
  42.3680295  59.0874436   3.3678344  41.1480028  58.3202373  17.1149660
  40.5178688  59.0018654  17.3485057  41.0416116  58.2085455  16.1702799
  36.4425000  57.9874169   8.0415585  35.6524054  58.2431698   7.5655695
  36.9336248  58.8022507   8.1467625  50.4588810  65.3279409  10.7920865
  51.2806253  64.9259596  10.5103547  50.4551213  65.2247643  11.7436981
  38.3939746  58.3518749   4.9999061  37.5970909  58.4637443   5.5182557
  38.1665338  58.6905401   4.1339952  44.2245413  64.8763452  12.9481576
  44.2889846  65.3383859  13.7839748  43.5156337  64.2460817  13.0763886
  34.7262703  58.2404660  10.4730575  34.9770742  59.1251670  10.7388151
  35.2622252  58.0609261   9.7005667  58.5494803  61.6718157   7.1405837
  57.7958511  61.1025555   6.9849841  58.6842344  61.6380822   8.0876472
  43.9393431  66.5431559   2.8160556  43.8039106  67.3883095   3.2445404
  44.4803243  66.7450837   2.0526490  40.4260770  52.6223139  19.4774911
  40.0327716  52.0689338  20.1522556  41.2426911  52.9333718  19.8681429
  37.3922828  64.0606997   3.3888481  37.9047349  64.8550248   3.5394046
  38.0445541  63.3633288   3.3222083  39.2017713  67.1772754   5.4711235
  39.3784341  68.0990718   5.2832218  39.9974546  66.8631173   5.9005614
  43.3428731  54.0381018  17.0695168  44.0838445  54.6388171  16.9899631
  43.5746654  53.2958656  16.5113211  38.4870069  59.2237386  15.3473398
  38.3723585  58.3222643  15.6480497  37.6314587  59.4701082  14.9958214
  45.5661907  67.1655126  16.9460898  45.1225761  66.3791504  16.6281803
  46.2279121  67.3534276  16.2804789  40.3249028  68.6950927  11.4721577
  40.8756453  68.5667991  10.6998571  39.4860504  68.9945817  11.1216470
  47.6643145  67.4457926  14.9742300  47.6461621  68.2666807  14.4822569
  48.5863065  67.3212001  15.1992441  44.1216199  64.9602055  15.8165808
  44.6544536  64.1990343  15.5865116  43.5930280  64.6675707  16.5589962
  47.2885894  50.0662121  11.3459450  46.9450164  50.9563763  11.2698560
  47.6564857  49.8763779  10.4829035  35.3571745  62.3895652   4.1648052
  36.1946967  62.7992660   3.9481760  35.5350013  61.4495094   4.1348246
  47.2536177  60.0570732  -0.1468115  46.7382801  60.8275337   0.0920272
  46.9813486  59.3835869   0.4764946  44.8383288  54.9020433   4.9117123
  43.9824884  54.5127284   4.7322762  45.2510240  54.9812394   4.0516909
  46.3682435  52.4366776   9.3108683  45.8647230  52.3996912   8.4976488
  46.6613042  53.3459519   9.3705340  42.6125321  52.5205506   8.3174865
  43.4778317  52.3248315   7.9580754  42.6802830  52.2915858   9.2444221
  52.2270451  62.8103087   1.7885058  51.4499894  62.4714247   1.3440220
  52.9061932  62.8155710   1.1140023  47.0422480  57.9297824   1.6791666
  46.7372616  58.2443974   2.5301809  47.9952922  58.0079244   1.7218999
  45.4868912  64.0888048   3.3284620  44.9590274  63.3540807   3.0157857
  44.9856415  64.8662724   3.0824588  50.4661758  62.2837068   8.4451666
  49.8085433  62.9736330   8.5331795  51.2702157  62.6733500   8.7885653
  40.2187640  54.7507714   5.6891232  40.7931392  54.5282896   4.9564424
  40.8058622  54.8196409   6.4419833  49.2767217  60.6381441   6.4955608
  49.7899099  61.2711433   6.9977318  49.9268441  60.0382636   6.1298968
  40.5457227  56.7812175  -0.2912883  39.7094539  57.1186862   0.0296392
  40.4061996  56.6461155  -1.2285746  42.5210307  51.6248963   4.4166301
  41.8674720  51.3097980   3.7922916  42.4790782  51.0024703   5.1426124
  43.6321512  61.9068258  -3.6680407  42.7248574  61.6757512  -3.4689258
  44.1292544  61.1105877  -3.4806425  46.5389591  70.6165765  -0.7483721
  45.8651290  70.9197462  -0.1398763  46.9255413  71.4194846  -1.0978264
  45.7548048  58.1130897   8.7413949  44.8370609  58.3345844   8.5835637
  46.1708191  58.1877207   7.8825656  46.5383096  59.5122312   3.8716629
  47.2854914  60.0243709   3.5623751  46.8074685  59.1906365   4.7321022
  44.8109746  62.0080853   0.8543583  43.9020965  61.7239886   0.9516053
  44.8404830  62.4279931  -0.0053110  50.0429013  65.6187442   4.6234751
  49.5891340  64.7778352   4.6799941  49.4122980  66.2548841   4.9609531
  48.9861933  56.5479428   5.8535418  48.2484689  56.0356815   6.1845661
  49.2388706  56.1079810   5.0418695  48.4861952  67.4563939   5.5584569
  48.7784927  68.0168996   4.8396934  48.9960573  67.7492500   6.3137728
  49.0873560  49.3255680   6.4477187  49.3932437  48.4653044   6.1603102
  49.8126165  49.9173301   6.2476181  35.3797916  59.7286367   4.8358785
  35.1822316  59.1355728   4.1109852  34.8244580  59.4238577   5.5534724
  43.3594640  59.6209474   6.9553378  43.4143250  58.6683310   6.8795855
  42.5485842  59.7768913   7.4394677  44.5085834  63.5489597  -1.8068338
  44.0705263  62.8325456  -2.2662701  45.2496274  63.7765711  -2.3683247
  41.2987000  58.2386533   4.7143757  40.4854865  58.5380704   5.1208949
  41.7945994  57.8442222   5.4318240  43.4495578  68.2344290   6.6478022
  43.4071756  68.4605137   5.7186554  44.3658276  68.0007665   6.7963823
  46.8961211  58.7028358  13.5458651  47.2510599  58.9299831  14.4053117
  47.5433343  59.0346735  12.9235907  52.6258948  61.8246794   4.2507980
  52.4876847  62.0148390   3.3229169  52.2695167  62.5866176   4.7076031
  40.7901074  55.8104889  10.3304992  41.4300454  55.6693648   9.6327956
  39.9578605  55.5239402   9.9543594  52.6528328  63.8923321   9.2619252
  53.0864835  63.7998610  10.1102306  53.3659909  63.8680821   8.6239268
  41.5661378  65.1107319   6.4439985  42.3601977  64.6157639   6.2422560
  40.8553071  64.5825182   6.0807690  46.3856223  67.4925415  10.7952352
  46.4393245  68.0616351  11.5630068  45.5171004  67.6627300  10.4306390
  37.8744142  59.2550401   2.5199737  36.9441730  59.1934856   2.7369700
  37.9701614  58.7326354   1.7236379  37.7929691  55.7805214   5.1077979
  38.0536508  56.6950547   4.9987140  38.6146863  55.3129656   5.2574592
  39.2654616  57.1942971  12.2776804  39.9377670  56.9860333  11.6289453
  38.4384403  56.9965057  11.8382036  53.5143877  63.9347021  11.7952137
  53.7079768  64.8392832  12.0411412  53.4144496  63.4754440  12.6290722
  45.1680188  53.8204912  14.2942465  44.5208103  54.5194862  14.2006941
  45.9381204  54.2541056  14.6618713  48.5758986  64.0853764  17.3693018
  48.4244493  63.8564316  16.4523101  48.5663666  65.0424365  17.3824363
  45.3444323  61.6585677  12.3539284  46.2736383  61.8096836  12.1808252
  44.9235353  61.7469698  11.4987931  44.1432654  65.6836341  10.1237822
  44.0043740  65.3155126  10.9963760  43.3547251  66.1983981   9.9521780
  44.7380806  70.7845438   1.4663358  44.9132562  70.3133481   2.2808981
  44.0513594  71.4111204   1.6944619  45.6937869  65.0617944   7.5126660
  45.3587702  65.0218714   8.4084310  45.1941815  64.3962660   7.0397070
  39.6682113  60.4685574  13.0379241  39.5301911  59.7365813  13.6390780
  40.5787037  60.3794474  12.7563429  48.6297061  62.4073978  -2.2136281
  48.0126232  61.6820806  -2.3103228  48.1613550  63.1683339  -2.5569206
  42.2964414  60.1805533  12.5262920  43.0064033  59.5398725  12.4849539
  42.2533722  60.4318428  13.4489101  50.2851193  67.1172887  15.4469500
  50.2263739  66.4332107  14.7800083  50.6870711  67.8591877  14.9950126
  41.0093348  57.1670751  14.3458560  40.4730705  56.7161490  14.9980156
  40.4210057  57.3016660  13.6029024  39.3041892  73.9334800   8.2403219
  39.5438490  74.5653325   8.9182237  38.4611088  73.5822840   8.5268578
  50.2868600  65.0812471  13.6783479  49.3995379  64.7438392  13.8009878
  50.8567151  64.3495502  13.9152245  31.9397747  61.4136562   7.0026531
  32.6268787  61.0998292   6.4147546  31.7845876  62.3177927   6.7293782
  36.7432469  56.3026759  11.4311554  36.6590658  55.6952428  10.6961964
  35.9215176  56.7935777  11.4321051  43.8169753  69.7413923  10.6444723
  43.7439925  70.5468894  11.1564027  43.3747147  69.9405889   9.8192744
  43.6059533  68.9785693   4.1547544  42.8227055  69.5207373   4.2485769
  44.3052278  69.4959673   4.5541785  46.9156183  54.7880322   6.7981749
  47.4124883  54.0350285   6.4782820  46.1443165  54.8244639   6.2324959
  54.7685941  60.4920688   8.4400041  54.7575817  61.3745403   8.0693974
  53.9003320  60.1392239   8.2454578  46.2768437  69.6400757  12.8002881
  46.9896409  70.2748222  12.7278783  45.7858466  69.7364623  11.9842883
  47.9985964  63.5452010   4.3720173  47.0642243  63.6653472   4.2024877
  48.1762632  62.6424476   4.1080183  43.4991152  56.9297705   6.5253434
  43.1288939  56.3768746   7.2134340  43.9950244  56.3255839   5.9728434
  51.3858515  59.3869329   4.9070207  51.8518967  60.2197320   4.8330510
  51.8366016  58.9214310   5.6115465  41.3280351  67.3895200  13.6208452
  42.0289810  68.0231683  13.7737846  40.8575466  67.7309932  12.8604091
  49.4534746  65.7313150   1.9056359  49.7294590  65.6169745   2.8150233
  48.5839245  65.3330635   1.8668532  49.3575178  51.7549916   8.9461108
  48.4438258  51.9854143   9.1143315  49.7868279  51.8388360   9.7975141
  49.1281636  59.9439808  11.4461002  48.4753087  60.1915715  10.7913455
  49.5062016  59.1303946  11.1123480  46.0888810  69.9799501   5.5489173
  46.2711205  69.1621157   6.0116925  46.9121796  70.1967193   5.1114063
  46.4230976  68.9067686   2.8104221  46.9518742  68.3960141   2.1974383
  46.6859195  68.5910216   3.6749754  45.1769209  60.6859619  17.9327039
  44.5009847  60.5853748  18.6029415  45.9996843  60.5298833  18.3963037
  36.9248069  66.9231555  10.5539555  37.5101505  66.1775243  10.6867459
  36.7272907  67.2335512  11.4376219  39.7786724  69.9582803   5.5701997
  39.1097099  70.4428930   5.0866037  39.6399593  70.2052023   6.4845376
  31.5165723  59.4937156   9.2743998  31.5549823  58.9600746  10.0681116
  31.0106016  58.9672361   8.6554975  43.9191992  71.9926546  12.1684655
  44.4710300  72.1558168  12.9333741  44.2598186  72.5830984  11.4964680
  38.8956486  54.3401696  12.7706540  38.9597812  55.2016527  12.3583938
  38.8323606  53.7275698  12.0378899  38.3708758  56.4124829  16.4179574
  38.9980797  56.0301906  17.0317099  37.5136677  56.1939031  16.7835267
  48.7702867  66.8187804  18.0233310  49.3142771  67.4317762  17.5288265
  48.1889712  67.3767382  18.5400323  35.1474301  58.2201258   2.3497929
  35.4427742  57.3111936   2.2964983  34.2462337  58.1988997   2.0278932
  47.0560380  69.9408522   9.1548338  46.9311519  69.1398262   8.6459283
  47.7139471  70.4354715   8.6662308  38.6768548  56.2957254   8.3325478
  37.9555134  56.9093222   8.1932951  39.4661804  56.8315019   8.2542124
  49.1195288  67.7417542  10.7827888  48.1725624  67.6222893  10.7106214
  49.4678061  66.8540040  10.8654149  41.4794861  53.6311681  14.6066130
  42.0029263  53.8773977  15.3692439  41.2607195  54.4631716  14.1869267
  36.8762142  55.9015355   2.4737254  36.5474849  55.0212734   2.2912360
  37.2301513  55.8463024   3.3613644  46.1241721  67.5370258   6.9832240
  45.9766684  66.6086966   7.1639810  46.9495215  67.5590349   6.4989315
  39.9903966  56.1888325   2.8412732  40.3300038  56.7174246   2.1191340
  40.4376086  56.5268731   3.6171299  49.7275843  68.3598817   8.0697113
  50.6522391  68.1541678   7.9321564  49.5591147  68.1115218   8.9786454
  42.6847406  54.5725376  12.2915800  42.3444227  53.7733189  12.6936480
  41.9786413  54.8727087  11.7192633  43.3363878  51.6574688  10.7443123
  44.1589948  51.1835167  10.6222013  43.5801942  52.4365172  11.2441809
  41.9772113  54.6862947   1.0406025  42.6980475  55.0644200   0.5369742
  41.3537417  55.4051824   1.1441003  46.1203236  55.3908096   1.9764357
  46.3366850  56.2732734   1.6753185  45.6397303  54.9994309   1.2469999
  40.8602457  58.3493809   8.5535102  40.7147038  58.6634112   9.4459383
  40.3827661  58.9678709   8.0006000  42.7198840  55.3396357   8.6015991
  42.7060409  54.4437450   8.2648289  43.4371268  55.3467021   9.2354277
  44.5724971  55.7733697  10.6469119  44.3142748  56.6950768  10.6453449
  44.0410011  55.3764132  11.3369583  49.5171159  68.8784484   3.4259204
  49.6908037  68.3130907   2.6733057  50.0100051  69.6785379   3.2438694
  35.3348119  60.8899153  11.4922763  34.7901587  61.6658961  11.6243037
  36.2127469  61.2369958  11.3341884  42.1235736  54.2210737   3.8703561
  42.2451647  53.2927383   4.0694449  41.8337778  54.2349423   2.9581877
  44.9926926  51.9065648   7.0070281  45.0148623  51.9704981   6.0522261
  45.4094985  51.0670156   7.2010787  55.3710551  61.6420907   5.0449504
  55.8141697  60.8928232   4.6468627  54.4937061  61.6331044   4.6623236
  50.5046332  68.1951249   0.5256102  51.1997237  68.8157941   0.7443417
  50.8469482  67.3446600   0.8008480  36.1214141  60.0169050  14.3852920
  35.3795877  60.1651685  14.9717550  35.8006885  60.2777315  13.5219669
  52.4037755  65.6450954   2.0543433  52.9289079  65.9838227   1.3292753
  52.3160108  64.7097970   1.8706568  44.0657804  69.5585028  14.1833310
  44.3744930  69.3134175  15.0556009  44.8633286  69.7631666  13.6952180
  44.0878416  71.7122938   6.4138686  43.6483406  71.2199316   7.1071543
  44.8386533  71.1695905   6.1730762  36.5670755  67.9034478   6.4163314
  37.3928775  67.6038250   6.0361958  36.2164807  67.1342101   6.8653103
  41.5352288  67.2560947   8.4860988  40.9132297  66.5931652   8.1863216
  42.2057155  67.2822079   7.8034636  34.7679360  65.8220805   7.3752248
  33.9311268  65.3942979   7.1936249  34.7403005  66.0153248   8.3123039
  41.6076815  55.7342735  18.0793494  41.6564971  56.6104857  17.6971264
  42.1499330  55.1920128  17.5065137  52.0931661  66.2783858  17.3594631
  51.3027205  66.2607997  16.8199131  51.8565016  66.8172152  18.1143668
  52.2129536  63.1276324  14.6727360  52.2627541  62.9626332  15.6142882
  52.1043459  62.2603583  14.2825240  41.0965795  65.8064870   1.9619449
  41.2453915  66.4900334   1.3086121  41.9032238  65.7869960   2.4768904
  49.5033299  59.1107252  15.9886666  50.4043161  58.9713717  15.6970664
  49.5781273  59.2761707  16.9284844  43.8376104  56.4874107  14.8339853
  42.9679413  56.7807673  14.5622441  44.0735584  57.0714552  15.5547116
  53.7147733  65.5473266  14.9169381  53.4232541  65.9103246  15.7532842
  53.1019864  64.8340274  14.7382713  54.9143415  63.1126146   7.4371951
  55.7490307  63.5515950   7.6009512  55.0502544  62.6364799   6.6180197
  51.9634921  60.6705880  13.3849439  52.4389043  60.8633527  12.5768291
  51.0400487  60.7265066  13.1392823  38.8518428  61.8330048   2.9680517
  38.6064470  60.9292378   3.1660728  39.0214342  61.8347198   2.0259995
  46.5415138  52.7053724  12.3505273  47.0597082  53.4414751  12.0251762
  46.1870270  53.0117717  13.1852032  38.1214075  57.5658405   0.4666679
  37.4283320  57.6402760  -0.1893285  37.8765827  56.8018749   0.9888196
  46.7927732  49.1254007   7.8706170  47.0729486  48.4577196   8.4966596
  47.5778339  49.3183102   7.3580834  44.5961200  68.3013000  -0.5668804
  44.0235167  68.9203188  -1.0198332  45.1693994  68.8512362  -0.0328882
  50.6636590  57.5471641  11.6177745  51.6154013  57.6469738  11.6389969
  50.4940041  56.7549909  12.1275829  48.6850970  54.6327224  11.8037146
  48.0900902  54.9132236  11.1083634  48.4000666  55.1221125  12.5753887
  47.8158460  68.5850151   0.5639778  48.7489133  68.5195712   0.7672654
  47.7281673  69.4206417   0.1054311  50.4446477  67.9016021  -2.4756274
  50.3660108  67.5675885  -1.5820516  51.2656144  68.3937789  -2.4764802
  53.1424668  60.7677760  10.7320044  53.1100988  59.8293761  10.9179728
  53.7525292  60.8461797   9.9985869  44.9807999  59.6373813  -3.2252752
  45.9267104  59.5080021  -3.1564333  44.6022244  58.8988475  -2.7483323
  53.2919156  57.5588804  10.7778328  52.7758205  56.7747260  10.5908256
  54.1759105  57.2307520  10.9424847  50.9529883  51.3029819   6.7374140
  50.7554705  50.9944907   7.6217472  51.5629589  52.0291458   6.8672070
  58.9601218  61.8293767   9.8726081  59.6904606  61.5679055  10.4333785
  58.3508163  61.0922489   9.9128149  57.0416515  59.9701630  10.4700532
  56.3149679  59.8357595   9.8617024  56.6263802  60.2778458  11.2757250
  44.8646691  63.6891559  18.2347905  45.7849701  63.8670158  18.4287952
  44.8296274  62.7447605  18.0827605  34.0828856  58.8830153   7.1601180
  33.7631641  58.0295461   6.8675554  33.5362285  59.0978731   7.9159147
  37.8608764  61.5992594  10.8770687  38.0794774  62.5309702  10.8958720
  38.2734538  61.2400568  11.6625490  44.7812982  52.1060679   2.8646375
  43.9713710  51.7607764   3.2401621  45.4697399  51.7968223   3.4533987
  46.7103530  51.1838726   4.4870672  47.2634569  51.6034180   5.1460695
  46.9473616  50.2574474   4.5293628  42.7336629  57.1725800  20.2673436
  42.6333356  58.1220157  20.1985527  42.5158171  56.8444039  19.3949506
  33.9517116  62.5033064   9.1294302  33.2580588  62.0887017   8.6164256
  34.6990107  62.5453601   8.5327721  50.0882337  53.2939251   3.9949336
  49.5081006  53.9524055   3.6127388  49.8218270  52.4716596   3.5836753
  48.5385903  52.6944309   6.1970656  49.0385682  52.8060843   5.3884975
  49.1821511  52.3905362   6.8371465  42.5967899  60.6022939  19.0838497
  42.1134981  61.4023299  19.2902386  42.6828838  60.6130883  18.1305941
  35.8653859  62.4351318   7.0060317  35.8424547  62.5339006   6.0542200
  36.1754495  63.2816469   7.3277483  38.5241237  64.4927473  11.1206931
  39.4784490  64.4611416  11.0536863  38.3253760  64.0318097  11.9357157
  39.1140619  63.0628589  13.6877729  39.9333508  63.5572668  13.7112566
  39.3877427  62.1460557  13.6595296  48.8707215  55.4539342   3.0505684
  47.9833070  55.7388992   2.8325879  49.2861204  55.2933105   2.2032961
  52.2221751  55.4785863   6.7660023  52.9982141  55.9682315   7.0384640
  51.4969885  55.9043917   7.2231893  54.6594310  56.1913482   7.8233964
  55.2538801  55.9509218   7.1127272  54.7320894  55.4720612   8.4507500
  36.8791466  70.0347093   8.1377129  36.7445933  69.2747494   7.5715127
  36.4623528  70.7587993   7.6705918  48.0150429  65.2184016  -2.8546296
  48.7186279  65.4234019  -2.2388640  47.2913077  65.7860778  -2.5897212
  48.8448239  60.9693878   3.2655974  48.7883440  61.4262429   2.4263607
  49.3976581  60.2084562   3.0878817  52.6553045  56.7583609   4.0906094
  52.3989979  56.3580245   4.9214302  52.0305913  57.4727403   3.9656233
  56.9665383  59.4979683   6.5977385  56.4064941  59.5672872   7.3708947
  56.3608886  59.3220667   5.8776881  40.0360591  70.9316410   8.3495572
  39.9192976  71.8761842   8.2474262  39.2153038  70.6289971   8.7381371
  49.9237126  65.6566546  -0.8047836  50.7582730  65.2247744  -0.9870361
  49.7621469  65.4848559   0.1229059  49.5783018  62.1598659   0.5608504
  49.5231822  61.9942930  -0.3803052  48.9529073  62.8674692   0.7170693
  34.3675533  57.3966723  14.3869926  35.0134397  56.8865677  14.8757151
  34.1592684  58.1335405  14.9613351  46.8928925  64.4647571  19.8862066
  47.7620085  64.6388223  19.5248701  46.4135677  65.2841988  19.7637796
  42.8879144  51.6606768   0.1393822  42.8757813  52.6048608   0.2962093
  43.7802565  51.4776913  -0.1546717  41.0615106  71.5844672  11.5651500
  41.9642352  71.6168282  11.8817995  40.8352476  70.6545123  11.5797836
  42.8168708  70.3375658   8.2261579  41.8664339  70.3377520   8.1125951
  43.1201194  69.5908393   7.7097613  46.7031263  48.2549544   4.3939759
  45.9363659  47.7008031   4.5396441  47.1141968  48.3271413   5.2553910
  38.7073024  54.5434340  18.4844940  39.5704486  54.1871145  18.6948265
  38.1338435  54.2048235  19.1720344  58.5521401  76.1736197   9.2907341
  59.1899811  76.0542944   8.5870681  58.4342244  77.1217041   9.3495293
  55.3611107  76.1263625   9.2268866  55.0229619  76.0104689   8.3389401
  56.2300876  75.7254790   9.2069872  51.2197923  77.9799101   5.2165757
  50.6562788  77.8889038   4.4482044  51.1050318  77.1599006   5.6968249
  55.8430890  77.2798476  15.1855071  55.8319531  76.8851275  14.3135575
  56.0051530  76.5464549  15.7788843  48.7662355  79.4750293   8.0549977
  49.5583647  79.1341117   7.6396276  49.0059005  79.5845268   8.9752130
  56.7997482  81.6470069   0.5280222  56.1485462  82.2324149   0.1414235
  57.5941845  82.1776264   0.5875259  50.7253109  78.7359206   0.9267356
  51.4983985  78.1888193   0.7880232  51.0778508  79.6003455   1.1381817
  52.5638151  80.0635588  14.1334255  52.2728017  80.9681219  14.0180921
  53.1995136  80.1052116  14.8478325  53.4894358  77.4412437  10.7235615
  54.0857931  77.2168459  10.0092578  53.5469330  76.6997182  11.3261063
  53.0619387  74.8951872  -1.4414194  53.3144907  74.3733393  -2.2030731
  52.1243946  74.7318018  -1.3387511  58.1062670  73.8987650   6.3660549
  58.8925759  73.4807074   6.0150966  58.3701374  74.8033743   6.5342197
  58.2772747  79.3360501   1.0649206  57.6418580  79.4095127   1.7770110
  57.9470153  79.9254100   0.3868285  63.5071097  73.8362884   7.2693528
  64.2396269  73.2662100   7.5031357  62.7510452  73.4484484   7.7100033
  52.7815675  76.7979978   0.7610181  52.6651934  76.1224881   1.4291265
  52.8917935  76.3112352  -0.0557666  55.1247216  76.2590125   4.4656870
  54.7605424  75.7320746   5.1769791  55.9814332  75.8688594   4.2923355
  61.0296517  67.5484458  11.7288136  60.6979842  68.4179869  11.5049351
  60.4342130  67.2320742  12.4082167  54.7652703  71.2880025  -0.5381782
  54.9327106  72.1560261  -0.1711310  54.5749872  71.4507307  -1.4620492
  57.5228037  79.7497004  11.1284049  57.2228760  80.6522043  11.0199856
  57.1779096  79.4829187  11.9805202  50.9740518  76.2010801   7.1620753
  50.0491015  76.0687015   7.3698445  51.2224931  76.9805020   7.6590696
  60.9225180  72.2679544   8.8081486  60.0142058  72.1994952   8.5140247
  60.8712776  72.7451489   9.6363312  54.7441924  73.7437682   0.4464885
  54.6241549  74.1894733   1.2850366  54.0494513  74.0923000  -0.1121577
  48.3349329  75.8444074   7.9964542  48.4641710  76.0978553   8.9103954
  47.6546780  76.4371782   7.6769197  52.5048816  86.5141324   4.0955017
  52.4272846  87.4649149   4.1743497  51.9010460  86.1687197   4.7529943
  54.9966046  73.6869190  16.7516383  54.2199380  74.2463110  16.7419248
  55.6356609  74.1725973  17.2731254  62.7886827  70.4695982  10.5859360
  62.1461207  70.7628516   9.9399155  62.2841755  70.3548903  11.3912557
  60.4426990  74.2159156   1.2745219  61.3544847  74.4486542   1.0992917
  59.9336637  74.7996200   0.7120298  53.2512418  76.4954643  16.3134350
  53.9927103  77.0339687  16.0369174  52.5449404  77.1220932  16.4705902
  58.7267758  78.6383783  14.9106512  59.1351114  78.1966194  14.1661144
  58.0045020  78.0636411  15.1640705  55.0798828  73.5756390  12.2840069
  55.9260023  73.9995804  12.4274718  55.0197466  72.9190014  12.9778632
  59.0496573  79.1984974   8.6658801  58.4205435  79.3630688   7.9634869
  58.6622235  79.6126584   9.4369765  62.9285805  80.1339412   6.0203165
  62.2436843  80.5138313   5.4700198  63.0129654  80.7434738   6.7535112
  58.2298273  71.2360758  13.9421243  57.9859205  71.9902819  13.4055518
  58.5058204  71.6146106  14.7768490  60.1836736  77.7799371  12.6198508
  60.3953631  78.4231131  11.9432889  60.1366484  76.9461687  12.1520438
  57.7862965  70.3917192   9.5235080  56.9247444  70.6898445   9.8151818
  57.8125400  70.6087590   8.5916113  54.6024535  78.9359382   5.9308886
  55.0662880  79.2147085   5.1413508  54.3381333  78.0342827   5.7481977
  51.4948616  78.4830864   8.8688649  52.0649973  78.9118132   8.2306134
  52.0856728  78.2013448   9.5672835  53.5393421  75.0582534   2.7398451
  54.2417464  75.5103578   3.2072377  53.2074049  74.4166353   3.3678344
  51.9873782  73.6494291  17.1149660  51.3572443  74.3310572  17.3485057
  51.8809870  73.5377373  16.1702799  47.2818755  73.3166087   8.0415585
  46.4917809  73.5723616   7.5655695  47.7730002  74.1314425   8.1467625
  61.2982564  80.6571326  10.7920865  62.1200008  80.2551514  10.5103547
  61.2944967  80.5539560  11.7436981  49.2333500  73.6810666   4.9999061
  48.4364663  73.7929361   5.5182557  49.0059092  74.0197319   4.1339952
  55.0639168  80.2055370  12.9481576  55.1283600  80.6675777  13.7839748
  54.3550092  79.5752734  13.0763886  45.5656458  73.5696578  10.4730575
  45.8164496  74.4543587  10.7388151  46.1016006  73.3901179   9.7005667
  69.3888557  77.0010075   7.1405837  68.6352266  76.4317473   6.9849841
  69.5236098  76.9672739   8.0876472  54.7787185  81.8723477   2.8160556
  54.6432860  82.7175013   3.2445404  55.3196998  82.0742755   2.0526490
  51.2654525  67.9515057  19.4774911  50.8721470  67.3981255  20.1522556
  52.0820665  68.2625635  19.8681429  48.2316583  79.3898915   3.3888481
  48.7441103  80.1842165   3.5394046  48.8839296  78.6925206   3.3222083
  50.0411467  82.5064671   5.4711235  50.2178096  83.4282636   5.2832218
  50.8368301  82.1923091   5.9005614  54.1822486  69.3672936  17.0695168
  54.9232199  69.9680089  16.9899631  54.4140409  68.6250574  16.5113211
  49.3263824  74.5529303  15.3473398  49.2117339  73.6514561  15.6480497
  48.4708342  74.7993000  14.9958214  56.4055662  82.4947044  16.9460898
  55.9619516  81.7083422  16.6281803  57.0672875  82.6826194  16.2804789
  51.1642783  84.0242845  11.4721577  51.7150208  83.8959909  10.6998571
  50.3254259  84.3237734  11.1216470  58.5036900  82.7749844  14.9742300
  58.4855375  83.5958725  14.4822569  59.4256820  82.6503919  15.1992441
  54.9609954  80.2893973  15.8165808  55.4938291  79.5282261  15.5865116
  54.4324035  79.9967625  16.5589962  58.1279649  65.3954039  11.3459450
  57.7843918  66.2855681  11.2698560  58.4958611  65.2055697  10.4829035
  46.1965499  77.7187569   4.1648052  47.0340721  78.1284578   3.9481760
  46.3743767  76.7787012   4.1348246  58.0929932  75.3862650  -0.1468115
  57.5776555  76.1567255   0.0920272  57.8207240  74.7127786   0.4764946
  55.6777043  70.2312351   4.9117123  54.8218639  69.8419201   4.7322762
  56.0903994  70.3104312   4.0516909  57.2076189  67.7658694   9.3108683
  56.7040985  67.7288829   8.4976488  57.5006796  68.6751437   9.3705340
  53.4519075  67.8497424   8.3174865  54.3172072  67.6540233   7.9580754
  53.5196584  67.6207776   9.2444221  63.0664206  78.1395005   1.7885058
  62.2893648  77.8006164   1.3440220  63.7455687  78.1447628   1.1140023
  57.8816235  73.2589742   1.6791666  57.5766370  73.5735891   2.5301809
  58.8346677  73.3371162   1.7218999  56.3262667  79.4179965   3.3284620
  55.7984028  78.6832725   3.0157857  55.8250169  80.1954642   3.0824588
  61.3055513  77.6128986   8.4451666  60.6479187  78.3028247   8.5331795
  62.1095912  78.0025418   8.7885653  51.0581394  70.0799632   5.6891232
  51.6325146  69.8574813   4.9564424  51.6452377  70.1488326   6.4419833
  60.1160971  75.9673359   6.4955608  60.6292853  76.6003350   6.9977318
  60.7662195  75.3674554   6.1298968  51.3850981  72.1104093  -0.2912883
  50.5488294  72.4478779   0.0296392  51.2455751  71.9753073  -1.2285746
  53.3604062  66.9540881   4.4166301  52.7068474  66.6389898   3.7922916
  53.3184536  66.3316621   5.1426124  54.4715267  77.2360176  -3.6680407
  53.5642329  77.0049429  -3.4689258  54.9686299  76.4397795  -3.4806425
  56.5941802  73.4422814   8.7413949  55.6764364  73.6637761   8.5835637
  57.0101946  73.5169125   7.8825656  57.3776850  74.8414230   3.8716629
  58.1248669  75.3535627   3.5623751  57.6468440  74.5198283   4.7321022
  55.6503500  77.3372771   0.8543583  54.7414719  77.0531803   0.9516053
  55.6798584  77.7571849  -0.0053110  60.8822768  80.9479360   4.6234751
  60.4285095  80.1070270   4.6799941  60.2516734  81.5840758   4.9609531
  59.8255687  71.8771346   5.8535418  59.0878444  71.3648732   6.1845661
  60.0782461  71.4371728   5.0418695  59.3255707  82.7855857   5.5584569
  59.6178681  83.3460914   4.8396934  59.8354327  83.0784418   6.3137728
  59.9267315  64.6547598   6.4477187  60.2326191  63.7944962   6.1603102
  60.6519919  65.2465218   6.2476181  46.2191671  75.0578285   4.8358785
  46.0216070  74.4647645   4.1109852  45.6638335  74.7530495   5.5534724
  54.1988394  74.9501391   6.9553378  54.2537004  73.9975228   6.8795855
  53.3879596  75.1060830   7.4394677  55.3479588  78.8781514  -1.8068338
  54.9099018  78.1617373  -2.2662701  56.0890029  79.1057629  -2.3683247
  52.1380754  73.5678451   4.7143757  51.3248620  73.8672622   5.1208949
  52.6339748  73.1734140   5.4318240  54.2889332  83.5636208   6.6478022
  54.2465511  83.7897054   5.7186554  55.2052031  83.3299582   6.7963823
  57.7354966  74.0320275  13.5458651  58.0904354  74.2591749  14.4053117
  58.3827097  74.3638652  12.9235907  63.4652703  77.1538711   4.2507980
  63.3270601  77.3440307   3.3229169  63.1088922  77.9158094   4.7076031
  51.6294829  71.1396806  10.3304992  52.2694208  70.9985566   9.6327956
  50.7972359  70.8531320   9.9543594  63.4922082  79.2215238   9.2619252
  63.9258589  79.1290527  10.1102306  64.2053663  79.1972739   8.6239268
  52.4055133  80.4399237   6.4439985  53.1995731  79.9449557   6.2422560
  51.6946825  79.9117100   6.0807690  57.2249977  82.8217332  10.7952352
  57.2787000  83.3908269  11.5630068  56.3564759  82.9919217  10.4306390
  48.7137896  74.5842319   2.5199737  47.7835484  74.5226774   2.7369700
  48.8095368  74.0618271   1.7236379  48.6323445  71.1097131   5.1077979
  48.8930263  72.0242465   4.9987140  49.4540618  70.6421574   5.2574592
  50.1048371  72.5234889  12.2776804  50.7771424  72.3152251  11.6289453
  49.2778157  72.3256975  11.8382036  64.3537632  79.2638939  11.7952137
  64.5473522  80.1684749  12.0411412  64.2538250  78.8046358  12.6290722
  56.0073943  69.1496830  14.2942465  55.3601858  69.8486779  14.2006941
  56.7774958  69.5832973  14.6618713  59.4152741  79.4145682  17.3693018
  59.2638247  79.1856233  16.4523101  59.4057420  80.3716283  17.3824363
  56.1838077  76.9877594  12.3539284  57.1130137  77.1388754  12.1808252
  55.7629107  77.0761615  11.4987931  54.9826409  81.0128259  10.1237822
  54.8437495  80.6447043  10.9963760  54.1941005  81.5275898   9.9521780
  55.5774561  86.1137355   1.4663358  55.7526316  85.6425399   2.2808981
  54.8907349  86.7403122   1.6944619  56.5331624  80.3909862   7.5126660
  56.1981457  80.3510632   8.4084310  56.0335570  79.7254577   7.0397070
  50.5075868  75.7977492  13.0379241  50.3695666  75.0657730  13.6390780
  51.4180791  75.7086392  12.7563429  59.4690816  77.7365896  -2.2136281
  58.8519986  77.0112724  -2.3103228  59.0007304  78.4975256  -2.5569206
  53.1358169  75.5097451  12.5262920  53.8457787  74.8690643  12.4849539
  53.0927477  75.7610346  13.4489101  61.1244947  82.4464804  15.4469500
  61.0657493  81.7624024  14.7800083  61.5264466  83.1883794  14.9950126
  51.8487103  72.4962669  14.3458560  51.3124460  72.0453407  14.9980156
  51.2603811  72.6308578  13.6029024  50.1435646  89.2626718   8.2403219
  50.3832244  89.8945242   8.9182237  49.3004843  88.9114758   8.5268578
  51.2589362  71.9551320  -3.0914976  50.3818828  71.8340121  -3.4552730
  51.7347115  71.1637399  -3.3436088  61.1262355  80.4104388  13.6783479
  60.2389133  80.0730310  13.8009878  61.6960906  79.6787419  13.9152245
  42.7791502  76.7428480   7.0026531  43.4662542  76.4290210   6.4147546
  42.6239630  77.6469845   6.7293782  47.5826224  71.6318677  11.4311554
  47.4984413  71.0244346  10.6961964  46.7608930  72.1227695  11.4321051
  54.6563508  85.0705841  10.6444723  54.5833679  85.8760812  11.1564027
  54.2140901  85.2697806   9.8192744  54.4453288  84.3077611   4.1547544
  53.6620809  84.8499291   4.2485769  55.1446033  84.8251590   4.5541785
  57.7549938  70.1172240   6.7981749  58.2518637  69.3642202   6.4782820
  56.9836919  70.1536557   6.2324959  65.6079695  75.8212606   8.4400041
  65.5969571  76.7037321   8.0693974  64.7397075  75.4684156   8.2454578
  57.1162191  84.9692675  12.8002881  57.8290164  85.6040139  12.7278783
  56.6252220  85.0656541  11.9842883  58.8379718  78.8743927   4.3720173
  57.9035997  78.9945390   4.2024877  59.0156387  77.9716394   4.1080183
  54.3384906  72.2589623   6.5253434  53.9682694  71.7060663   7.2134340
  54.8343999  71.6547757   5.9728434  62.2252270  74.7161247   4.9070207
  62.6912722  75.5489238   4.8330510  62.6759770  74.2506228   5.6115465
  52.1674105  82.7187118  13.6208452  52.8683564  83.3523601  13.7737846
  51.6969220  83.0601850  12.8604091  60.2928501  81.0605068   1.9056359
  60.5688345  80.9461662   2.8150233  59.4233000  80.6622553   1.8668532
  60.1968932  67.0841834   8.9461108  59.2832012  67.3146060   9.1143315
  60.6262034  67.1680278   9.7975141  59.9675391  75.2731725  11.4461002
  59.3146841  75.5207633  10.7913455  60.3455771  74.4595864  11.1123480
  56.9282565  85.3091419   5.5489173  57.1104959  84.4913075   6.0116925
  57.7515551  85.5259111   5.1114063  57.2624730  84.2359604   2.8104221
  57.7912497  83.7252058   2.1974383  57.5252950  83.9202134   3.6749754
  56.0162964  76.0151537  17.9327039  55.3403601  75.9145666  18.6029415
  56.8390598  75.8590750  18.3963037  47.7641823  82.2523473  10.5539555
  48.3495260  81.5067161  10.6867459  47.5666662  82.5627430  11.4376219
  50.6180478  85.2874720   5.5701997  49.9490854  85.7720848   5.0866037
  50.4793348  85.5343941   6.4845376  42.3559478  74.8229073   9.2743998
  42.3943577  74.2892664  10.0681116  41.8499771  74.2964279   8.6554975
  54.7585747  87.3218464  12.1684655  55.3104055  87.4850086  12.9333741
  55.0991940  87.9122902  11.4964680  49.7350240  69.6693614  12.7706540
  49.7991567  70.5308445  12.3583938  49.6717360  69.0567615  12.0378899
  49.2102513  71.7416746  16.4179574  49.8374551  71.3593824  17.0317099
  48.3530431  71.5230948  16.7835267  59.6096621  82.1479722  18.0233310
  60.1536525  82.7609680  17.5288265  59.0283466  82.7059300  18.5400323
  45.9868055  73.5493175   2.3497929  46.2821496  72.6403854   2.2964983
  45.0856091  73.5280915   2.0278932  57.8954134  85.2700440   9.1548338
  57.7705274  84.4690179   8.6459283  58.5533225  85.7646633   8.6662308
  49.5162302  71.6249172   8.3325478  48.7948888  72.2385140   8.1932951
  50.3055558  72.1606937   8.2542124  59.9589043  83.0709460  10.7827888
  59.0119378  82.9514811  10.7106214  60.3071816  82.1831958  10.8654149
  52.3188616  68.9603599  14.6066130  52.8423018  69.2065895  15.3692439
  52.1000949  69.7923633  14.1869267  47.7155897  71.2307273   2.4737254
  47.3868603  70.3504652   2.2912360  48.0695268  71.1754942   3.3613644
  56.9635476  82.8662176   6.9832240  56.8160438  81.9378883   7.1639810
  57.7888969  82.8882267   6.4989315  50.8297720  71.5180243   2.8412732
  51.1693793  72.0466164   2.1191340  51.2769841  71.8560649   3.6171299
  60.5669598  83.6890735   8.0697113  61.4916145  83.4833596   7.9321564
  60.3984901  83.4407136   8.9786454  53.5241161  69.9017294  12.2915800
  53.1837981  69.1025107  12.6936480  52.8180167  70.2019004  11.7192633
  54.1757633  66.9866606  10.7443123  54.9983702  66.5127084  10.6222013
  54.4195696  67.7657090  11.2441809  52.8165867  70.0154865   1.0406025
  53.5374230  70.3936117   0.5369742  52.1931171  70.7343741   1.1441003
  56.9596990  70.7200013   1.9764357  57.1760605  71.6024651   1.6753185
  56.4791057  70.3286227   1.2469999  51.6996212  73.6785727   8.5535102
  51.5540792  73.9926030   9.4459383  51.2221415  74.2970627   8.0006000
  53.5592594  70.6688275   8.6015991  53.5454163  69.7729368   8.2648289
  54.2765023  70.6758938   9.2354277  55.4118725  71.1025615  10.6469119
  55.1536503  72.0242686  10.6453449  54.8803765  70.7056049  11.3369583
  60.3564914  84.2076402   3.4259204  60.5301791  83.6422824   2.6733057
  60.8493805  85.0077297   3.2438694  46.1741874  76.2191071  11.4922763
  45.6295342  76.9950879  11.6243037  47.0521224  76.5661876  11.3341884
  52.9629490  69.5502655   3.8703561  53.0845402  68.6219301   4.0694449
  52.6731533  69.5641341   2.9581877  55.8320681  67.2357565   7.0070281
  55.8542378  67.2996898   6.0522261  56.2488740  66.3962074   7.2010787
  66.2104305  76.9712825   5.0449504  66.6535451  76.2220150   4.6468627
  65.3330815  76.9622961   4.6623236  61.3440086  83.5243166   0.5256102
  62.0390991  84.1449859   0.7443417  61.6863237  82.6738518   0.8008480
  46.9607896  75.3460967  14.3852920  46.2189632  75.4943603  14.9717550
  46.6400640  75.6069233  13.5219669  63.2431509  80.9742872   2.0543433
  63.7682834  81.3130145   1.3292753  63.1553862  80.0389887   1.8706568
  54.9051558  84.8876946  14.1833310  55.2138685  84.6426092  15.0556009
  55.7027040  85.0923584  13.6952180  54.9272170  87.0414855   6.4138686
  54.4877161  86.5491234   7.1071543  55.6780287  86.4987823   6.1730762
  47.4064509  83.2326396   6.4163314  48.2322529  82.9330168   6.0361958
  47.0558561  82.4634019   6.8653103  52.3746042  82.5852864   8.4860988
  51.7526052  81.9223569   8.1863216  53.0450909  82.6113996   7.8034636
  45.6073114  81.1512723   7.3752248  44.7705023  80.7234897   7.1936249
  45.5796760  81.3445166   8.3123039  52.4470570  71.0634652  18.0793494
  52.4958725  71.9396775  17.6971264  52.9893084  70.5212045  17.5065137
  62.9325416  81.6075776  17.3594631  62.1420959  81.5899914  16.8199131
  62.6958770  82.1464069  18.1143668  63.0523291  78.4568242  14.6727360
  63.1021296  78.2918249  15.6142882  62.9437214  77.5895501  14.2825240
  51.9359549  81.1356788   1.9619449  52.0847670  81.8192252   1.3086121
  52.7425993  81.1161878   2.4768904  60.3427053  74.4399170  15.9886666
  61.2436916  74.3005635  15.6970664  60.4175028  74.6053625  16.9284844
  54.6769858  71.8166025  14.8339853  53.8073168  72.1099591  14.5622441
  54.9129339  72.4006470  15.5547116  64.5541487  80.8765183  14.9169381
  64.2626296  81.2395164  15.7532842  63.9413619  80.1632192  14.7382713
  65.7537170  78.4418063   7.4371951  66.5884061  78.8807867   7.6009512
  65.8896299  77.9656716   6.6180197  62.8028676  75.9997798  13.3849439
  63.2782797  76.1925444  12.5768291  61.8794241  76.0556984  13.1392823
  49.6912182  77.1621965   2.9680517  49.4458224  76.2584295   3.1660728
  49.8608097  77.1639116   2.0259995  57.3808892  68.0345642  12.3505273
  57.8990836  68.7706669  12.0251762  57.0264025  68.3409635  13.1852032
  48.9607830  72.8950323   0.4666679  48.2677075  72.9694678  -0.1893285
  48.7159582  72.1310667   0.9888196  57.6321486  64.4545924   7.8706170
  57.9123240  63.7869113   8.4966596  58.4172093  64.6475020   7.3580834
  55.4354955  83.6304918  -0.5668804  54.8628922  84.2495105  -1.0198332
  56.0087748  84.1804280  -0.0328882  61.5030345  72.8763558  11.6177745
  62.4547768  72.9761656  11.6389969  61.3333795  72.0841827  12.1275829
  59.5244724  69.9619141  11.8037146  58.9294656  70.2424154  11.1083634
  59.2394421  70.4513042  12.5753887  58.6552215  83.9142068   0.5639778
  59.5882888  83.8487630   0.7672654  58.5675427  84.7498335   0.1054311
  63.9818422  76.0969678  10.7320044  63.9494743  75.1585679  10.9179728
  64.5919046  76.1753715   9.9985869  55.8201753  74.9665731  -3.2252752
  56.7660858  74.8371939  -3.1564333  55.4415998  74.2280393  -2.7483323
  64.1312911  72.8880721  10.7778328  63.6151960  72.1039178  10.5908256
  65.0152859  72.5599438  10.9424847  61.7923638  66.6321737   6.7374140
  61.5948459  66.3236825   7.6217472  62.4023343  67.3583376   6.8672070
  69.7994972  77.1585685   9.8726081  70.5298361  76.8970973  10.4333785
  69.1901918  76.4214407   9.9128149  67.8810269  75.2993547  10.4700532
  67.1543433  75.1649512   9.8617024  67.4657556  75.6070376  11.2757250
  55.7040446  79.0183477  18.2347905  56.6243455  79.1962076  18.4287952
  55.6690029  78.0739522  18.0827605  54.0044670  72.8915707  -3.2897866
  53.0976126  72.5948820  -3.2135153  54.2820651  72.5945525  -4.1563580
  44.9222611  74.2122071   7.1601180  44.6025395  73.3587379   6.8675554
  44.3756039  74.4270649   7.9159147  48.7002518  76.9284512  10.8770687
  48.9188528  77.8601619  10.8958720  49.1128292  76.5692486  11.6625490
  55.6206736  67.4352597   2.8646375  54.8107465  67.0899682   3.2401621
  56.3091153  67.1260141   3.4533987  57.5497284  66.5130644   4.4870672
  58.1028323  66.9326097   5.1460695  57.7867371  65.5866392   4.5293628
  53.5730384  72.5017717  20.2673436  53.4727111  73.4512074  20.1985527
  53.3551926  72.1735956  19.3949506  52.7743455  69.7502642  -3.1485887
  53.6362619  70.0757541  -2.8890070  52.9593799  68.9634138  -3.6612821
  44.7910871  77.8324982   9.1294302  44.0974342  77.4178935   8.6164256
  45.5383862  77.8745519   8.5327721  60.9276092  68.6231169   3.9949336
  60.3474761  69.2815973   3.6127388  60.6612024  67.8008514   3.5836753
  59.3779658  68.0236227   6.1970656  59.8779436  68.1352761   5.3884975
  60.0215266  67.7197279   6.8371465  53.4361654  75.9314856  19.0838497
  52.9528735  76.7315216  19.2902386  53.5222593  75.9422801  18.1305941
  46.7047613  77.7643236   7.0060317  46.6818301  77.8630923   6.0542200
  47.0148250  78.6108387   7.3277483  49.3634991  79.8219391  11.1206931
  50.3178245  79.7903333  11.0536863  49.1647515  79.3610015  11.9357157
  49.9534373  78.3920507  13.6877729  50.7727262  78.8864586  13.7112566
  50.2271181  77.4752475  13.6595296  59.7100970  70.7831259   3.0505684
  58.8226825  71.0680910   2.8325879  60.1254959  70.6225023   2.2032961
  63.0615506  70.8077780   6.7660023  63.8375896  71.2974233   7.0384640
  62.3363640  71.2335834   7.2231893  65.4988064  71.5205400   7.8233964
  66.0932555  71.2801135   7.1127272  65.5714648  70.8012530   8.4507500
  47.7185220  85.3639010   8.1377129  47.5839688  84.6039411   7.5715127
  47.3017282  86.0879910   7.6705918  59.6841993  76.2985795   3.2655974
  59.6277195  76.7554347   2.4263607  60.2370336  75.5376480   3.0878817
  63.4946799  72.0875527   4.0906094  63.2383733  71.6872163   4.9214302
  62.8699667  72.8019321   3.9656233  67.8059137  74.8271600   6.5977385
  67.2458695  74.8964790   7.3708947  67.2002640  74.6512585   5.8776881
  50.8754346  86.2608327   8.3495572  50.7586730  87.2053760   8.2474262
  50.0546792  85.9581889   8.7381371  60.7630880  80.9858463  -0.8047836
  61.5976484  80.5539662  -0.9870361  60.6015223  80.8140477   0.1229059
  60.4176773  77.4890576   0.5608504  60.3625576  77.3234848  -0.3803052
  59.7922828  78.1966609   0.7170693  45.2069288  72.7258641  14.3869926
  45.8528151  72.2157595  14.8757151  44.9986439  73.4627323  14.9613351
  57.7322680  79.7939488  19.8862066  58.6013839  79.9680141  19.5248701
  57.2529431  80.6133905  19.7637796  53.7272898  66.9898685   0.1393822
  53.7151568  67.9340525   0.2962093  54.6196320  66.8068831  -0.1546717
  51.9008860  86.9136589  11.5651500  52.8036107  86.9460200  11.8817995
  51.6746230  85.9837040  11.5797836  53.6562462  85.6667576   8.2261579
  52.7058093  85.6669438   8.1125951  53.9594948  84.9200310   7.7097613
  57.5425018  63.5841462   4.3939759  56.7757413  63.0299949   4.5396441
  57.9535723  63.6563331   5.2553910  49.5466779  69.8726258  18.4844940
  50.4098240  69.5163063  18.6948265  48.9732189  69.5340153  19.1720344
  69.3915156  91.5028114   9.2907341  70.0293566  91.3834862   8.5870681
  69.2735998  92.4508958   9.3495293  66.2004862  91.4555542   9.2268866
  65.8623373  91.3396607   8.3389401  67.0694630  91.0546707   9.2069872
  66.6824645  92.6090394  15.1855071  66.6713286  92.2143192  14.3135575
  66.8445284  91.8756467  15.7788843  59.6056109  94.8042210   8.0549977
  60.3977401  94.4633035   7.6396276  59.8452760  94.9137185   8.9752130
  63.4031906  95.3927506  14.1334255  63.1121772  96.2973137  14.0180921
  64.0388890  95.4344034  14.8478325  64.3288113  92.7704354  10.7235615
  64.9251685  92.5460377  10.0092578  64.3863084  92.0289100  11.3261063
  71.8690272  82.8776375  11.7288136  71.5373596  83.7471786  11.5049351
  71.2735885  82.5612659  12.4082167  68.3621791  95.0788921  11.1284049
  68.0622514  95.9813960  11.0199856  68.0172851  94.8121105  11.9805202
  61.8134273  91.5302718   7.1620753  60.8884769  91.3978932   7.3698445
  62.0618686  92.3096938   7.6590696  71.7618935  87.5971462   8.8081486
  70.8535812  87.5286870   8.5140247  71.7106531  88.0743407   9.6363312
  59.1743084  91.1735992   7.9964542  59.3035465  91.4270471   8.9103954
  58.4940535  91.7663700   7.6769197  65.8359801  89.0161107  16.7516383
  65.0593135  89.5755027  16.7419248  66.4750364  89.5017890  17.2731254
  73.6280581  85.7987900  10.5859360  72.9854961  86.0920433   9.9399155
  73.1235510  85.6840820  11.3912557  64.0906173  91.8246561  16.3134350
  64.8320857  92.3631605  16.0369174  63.3843158  92.4512849  16.4705902
  69.5661513  93.9675701  14.9106512  69.9744869  93.5258112  14.1661144
  68.8438774  93.3928329  15.1640705  65.9192583  88.9048308  12.2840069
  66.7653778  89.3287721  12.4274718  65.8591220  88.2481932  12.9778632
  69.0692028  86.5652676  13.9421243  68.8252960  87.3194737  13.4055518
  69.3451958  86.9438024  14.7768490  71.0230491  93.1091289  12.6198508
  71.2347386  93.7523048  11.9432889  70.9760239  92.2753605  12.1520438
  68.6256720  85.7209109   9.5235080  67.7641199  86.0190363   9.8151818
  68.6519154  85.9379508   8.5916113  62.3342370  93.8122781   8.8688649
  62.9043727  94.2410050   8.2306134  62.9250482  93.5305366   9.5672835
  62.8267537  88.9786209  17.1149660  62.1966197  89.6602490  17.3485057
  62.7203625  88.8669290  16.1702799  58.1212509  88.6458005   8.0415585
  57.3311563  88.9015533   7.5655695  58.6123756  89.4606343   8.1467625
  60.0727254  89.0102584   4.9999061  59.2758418  89.1221278   5.5182557
  59.8452847  89.3489236   4.1339952  65.9032922  95.5347287  12.9481576
  65.9677355  95.9967694  13.7839748  65.1943846  94.9044652  13.0763886
  56.4050212  88.8988495  10.4730575  56.6558251  89.7835505  10.7388151
  56.9409760  88.7193097   9.7005667  62.1048279  83.2806975  19.4774911
  61.7115225  82.7273173  20.1522556  62.9214420  83.5917553  19.8681429
  65.0216240  84.6964854  17.0695168  65.7625954  85.2972007  16.9899631
  65.2534163  83.9542491  16.5113211  60.1657578  89.8821221  15.3473398
  60.0511094  88.9806478  15.6480497  59.3102096  90.1284918  14.9958214
  67.2449416  97.8238961  16.9460898  66.8013270  97.0375340  16.6281803
  67.9066630  98.0118112  16.2804789  62.0036537  99.3534763  11.4721577
  62.5543962  99.2251826  10.6998571  61.1648013  99.6529652  11.1216470
  69.3430654  98.1041761  14.9742300  69.3249130  98.9250642  14.4822569
  70.2650574  97.9795836  15.1992441  65.8003708  95.6185891  15.8165808
  66.3332045  94.8574179  15.5865116  65.2717789  95.3259542  16.5589962
  68.9673403  80.7245957  11.3459450  68.6237673  81.6147598  11.2698560
  69.3352366  80.5347614  10.4829035  66.5170797  85.5604269   4.9117123
  65.6612393  85.1711119   4.7322762  66.9297749  85.6396229   4.0516909
  68.0469944  83.0950612   9.3108683  67.5434739  83.0580747   8.4976488
  68.3400551  84.0043354   9.3705340  64.2912830  83.1789342   8.3174865
  65.1565826  82.9832150   7.9580754  64.3590339  82.9499693   9.2444221
  61.8975149  85.4091549   5.6891232  62.4718901  85.1866731   4.9564424
  62.4846131  85.4780244   6.4419833  64.1997816  82.2832798   4.4166301
  63.5462229  81.9681816   3.7922916  64.1578291  81.6608539   5.1426124
  67.4335557  88.7714732   8.7413949  66.5158118  88.9929679   8.5835637
  67.8495700  88.8461042   7.8825656  70.7661069  79.9839516   6.4477187
  71.0719946  79.1236879   6.1603102  71.4913674  80.5757136   6.2476181
  57.0585425  90.3870202   4.8358785  56.8609825  89.7939563   4.1109852
  56.5032089  90.0822413   5.5534724  65.0382149  90.2793309   6.9553378
  65.0930759  89.3267145   6.8795855  64.2273351  90.4352748   7.4394677
  62.9774509  88.8970369   4.7143757  62.1642374  89.1964539   5.1208949
  63.4733503  88.5026057   5.4318240  68.5748720  89.3612193  13.5458651
  68.9298108  89.5883666  14.4053117  69.2220852  89.6930570  12.9235907
  62.4688583  86.4688724  10.3304992  63.1087963  86.3277483   9.6327956
  61.6366114  86.1823238   9.9543594  59.4717200  86.4389049   5.1077979
  59.7324017  87.3534382   4.9987140  60.2934372  85.9713492   5.2574592
  60.9442125  87.8526806  12.2776804  61.6165179  87.6444168  11.6289453
  60.1171912  87.6548892  11.8382036  66.8467697  84.4788747  14.2942465
  66.1995612  85.1778697  14.2006941  67.6168713  84.9124891  14.6618713
  70.2546495  94.7437599  17.3693018  70.1032002  94.5148151  16.4523101
  70.2451175  95.7008201  17.3824363  67.0231832  92.3169512  12.3539284
  67.9523892  92.4680672  12.1808252  66.6022862  92.4053533  11.4987931
  65.8220163  96.3420177  10.1237822  65.6831249  95.9738961  10.9963760
  65.0334760  96.8567816   9.9521780  61.3469622  91.1269409  13.0379241
  61.2089420  90.3949648  13.6390780  62.2574546  91.0378309  12.7563429
  63.9751923  90.8389369  12.5262920  64.6851542  90.1982561  12.4849539
  63.9321231  91.0902263  13.4489101  71.9638702  97.7756722  15.4469500
  71.9051248  97.0915942  14.7800083  72.3658220  98.5175712  14.9950126
  62.6880857  87.8254586  14.3458560  62.1518214  87.3745325  14.9980156
  62.0997566  87.9600495  13.6029024  71.9656109  95.7396306  13.6783479
  71.0782888  95.4022228  13.8009878  72.5354660  95.0079337  13.9152245
  53.6185256  92.0720398   7.0026531  54.3056296  91.7582128   6.4147546
  53.4633385  92.9761762   6.7293782  58.4219978  86.9610594  11.4311554
  58.3378167  86.3536264  10.6961964  57.6002685  87.4519612  11.4321051
  68.5943692  85.4464158   6.7981749  69.0912392  84.6934120   6.4782820
  67.8230674  85.4828474   6.2324959  65.1778661  87.5881541   6.5253434
  64.8076448  87.0352581   7.2134340  65.6737753  86.9839674   5.9728434
  63.0067859  98.0479036  13.6208452  63.7077319  98.6815519  13.7737846
  62.5362974  98.3893767  12.8604091  71.0362687  82.4133751   8.9461108
  70.1225767  82.6437978   9.1143315  71.4655788  82.4972195   9.7975141
  70.8069145  90.6023643  11.4461002  70.1540596  90.8499551  10.7913455
  71.1849525  89.7887781  11.1123480  66.8556718  91.3443454  17.9327039
  66.1797355  91.2437584  18.6029415  67.6784352  91.1882668  18.3963037
  58.6035578  97.5815391  10.5539555  59.1889014  96.8359079  10.6867459
  58.4060416  97.8919347  11.4376219  53.1953232  90.1520991   9.2743998
  53.2337332  89.6184582  10.0681116  52.6893525  89.6256196   8.6554975
  60.5743995  84.9985531  12.7706540  60.6385321  85.8600362  12.3583938
  60.5111115  84.3859533  12.0378899  60.0496267  87.0708664  16.4179574
  60.6768306  86.6885741  17.0317099  59.1924186  86.8522866  16.7835267
  70.4490376  97.4771639  18.0233310  70.9930280  98.0901597  17.5288265
  69.8677221  98.0351218  18.5400323  56.8261810  88.8785093   2.3497929
  57.1215251  87.9695772   2.2964983  55.9249846  88.8572833   2.0278932
  60.3556057  86.9541090   8.3325478  59.6342643  87.5677057   8.1932951
  61.1449313  87.4898855   8.2542124  63.1582370  84.2895516  14.6066130
  63.6816772  84.5357813  15.3692439  62.9394704  85.1215551  14.1869267
  58.5549651  86.5599191   2.4737254  58.2262358  85.6796570   2.2912360
  58.9089022  86.5046859   3.3613644  64.3634915  85.2309211  12.2915800
  64.0231736  84.4317024  12.6936480  63.6573922  85.5310922  11.7192633
  65.0151387  82.3158524  10.7443123  65.8377457  81.8419002  10.6222013
  65.2589451  83.0949007  11.2441809  62.5389966  89.0077644   8.5535102
  62.3934547  89.3217947   9.4459383  62.0615170  89.6262545   8.0006000
  64.3986349  85.9980192   8.6015991  64.3847918  85.1021286   8.2648289
  65.1158777  86.0050856   9.2354277  66.2512480  86.4317533  10.6469119
  65.9930257  87.3534603  10.6453449  65.7197520  86.0347967  11.3369583
  57.0135628  91.5482989  11.4922763  56.4689096  92.3242797  11.6243037
  57.8914978  91.8953793  11.3341884  63.8023245  84.8794573   3.8703561
  63.9239156  83.9511219   4.0694449  63.5125287  84.8933259   2.9581877
  66.6714435  82.5649483   7.0070281  66.6936132  82.6288816   6.0522261
  67.0882494  81.7253992   7.2010787  57.8001650  90.6752885  14.3852920
  57.0583386  90.8235520  14.9717550  57.4794394  90.9361151  13.5219669
  65.7445313 100.2168863  14.1833310  66.0532439  99.9718010  15.0556009
  66.5420795 100.4215502  13.6952180  56.4466869  96.4804640   7.3752248
  55.6098777  96.0526815   7.1936249  56.4190514  96.6737084   8.3123039
  63.2864324  86.3926570  18.0793494  63.3352480  87.2688693  17.6971264
  63.8286839  85.8503963  17.5065137  73.7719170  96.9367693  17.3594631
  72.9814714  96.9191832  16.8199131  73.5352525  97.4755987  18.1143668
  73.8917045  93.7860160  14.6727360  73.9415050  93.6210167  15.6142882
  73.7830968  92.9187419  14.2825240  71.1820807  89.7691088  15.9886666
  72.0830670  89.6297553  15.6970664  71.2568782  89.9345543  16.9284844
  65.5163613  87.1457942  14.8339853  64.6466922  87.4391508  14.5622441
  65.7523093  87.7298387  15.5547116  75.3935242  96.2057101  14.9169381
  75.1020050  96.5687082  15.7532842  74.7807373  95.4924109  14.7382713
  73.6422430  91.3289716  13.3849439  74.1176552  91.5217362  12.5768291
  72.7187996  91.3848902  13.1392823  68.2202647  83.3637559  12.3505273
  68.7384591  84.0998586  12.0251762  67.8657779  83.6701553  13.1852032
  68.4715241  79.7837842   7.8706170  68.7516995  79.1161031   8.4966596
  69.2565848  79.9766937   7.3580834  72.3424099  88.2055476  11.6177745
  73.2941522  88.3053574  11.6389969  72.1727550  87.4133744  12.1275829
  70.3638479  85.2911059  11.8037146  69.7688411  85.5716072  11.1083634
  70.0788175  85.7804960  12.5753887  74.9706665  88.2172639  10.7778328
  74.4545714  87.4331096  10.5908256  75.8546614  87.8891356  10.9424847
  72.6317392  81.9613655   6.7374140  72.4342213  81.6528743   7.6217472
  73.2417098  82.6875293   6.8672070  66.5434200  94.3475395  18.2347905
  67.4637210  94.5253994  18.4287952  66.5083783  93.4031440  18.0827605
  55.7616365  89.5413988   7.1601180  55.4419150  88.6879297   6.8675554
  55.2149794  89.7562566   7.9159147  59.5396273  92.2576429  10.8770687
  59.7582283  93.1893537  10.8958720  59.9522047  91.8984404  11.6625490
  66.4600491  82.7644515   2.8646375  65.6501219  82.4191600   3.2401621
  67.1484908  82.4552058   3.4533987  68.3891039  81.8422561   4.4870672
  68.9422078  82.2618015   5.1460695  68.6261125  80.9158310   4.5293628
  64.4124138  87.8309635  20.2673436  64.3120865  88.7803992  20.1985527
  64.1945680  87.5027874  19.3949506  55.6304625  93.1616900   9.1294302
  54.9368097  92.7470853   8.6164256  56.3777616  93.2037436   8.5327721
  70.2173412  83.3528144   6.1970656  70.7173191  83.4644679   5.3884975
  70.8609020  83.0489197   6.8371465  64.2755408  91.2606774  19.0838497
  63.7922490  92.0607134  19.2902386  64.3616347  91.2714719  18.1305941
  57.5441368  93.0935154   7.0060317  57.5212056  93.1922841   6.0542200
  57.8542004  93.9400304   7.3277483  60.2028746  95.1511309  11.1206931
  61.1571999  95.1195251  11.0536863  60.0041269  94.6901932  11.9357157
  60.7928128  93.7212425  13.6877729  61.6121017  94.2156503  13.7112566
  61.0664936  92.8044393  13.6595296  56.0463042  88.0550559  14.3869926
  56.6921906  87.5449513  14.8757151  55.8380193  88.7919240  14.9613351
  68.5716434  95.1231406  19.8862066  69.4407594  95.2972058  19.5248701
  68.0923186  95.9425823  19.7637796  62.7402615 102.2428507  11.5651500
  63.6429861 102.2752117  11.8817995  62.5139985 101.3128958  11.5797836
  68.3818772  78.9133380   4.3939759  67.6151168  78.3591867   4.5396441
  68.7929477  78.9855249   5.2553910  60.3860533  85.2018176  18.4844940
  61.2491995  84.8454980  18.6948265  59.8125944  84.8632070  19.1720344
  72.9442034  98.6098892  19.4774911  72.5508979  98.0565091  20.1522556
  73.7608174  98.9209471  19.8681429  75.8609995 100.0256771  17.0695168
  76.6019708 100.6263924  16.9899631  76.0927918  99.2834409  16.5113211
  70.8890022 102.4000582  16.4179574  71.5162060 102.0177659  17.0317099
  70.0317940 102.1814784  16.7835267  74.1258079 101.7218488  18.0793494
  74.1746234 102.5980610  17.6971264  74.6680593 101.1795881  17.5065137
  75.2517893 103.1601553  20.2673436  75.1514620 104.1095910  20.1985527
  75.0339435 102.8319792  19.3949506  66.8856797 103.3842476  14.3869926
  67.5315660 102.8741430  14.8757151  66.6773948 104.1211158  14.9613351
  71.2254288 100.5310093  18.4844940  72.0885749 100.1746898  18.6948265
  70.6519698 100.1923988  19.1720344  50.2851194  44.1235009   2.1714806
  50.2263740  43.4394229   1.5045389  50.6870712  44.8653999   1.7195432
  48.7702868  43.8249926   4.7478617  49.3142772  44.4379885   4.2533571
  48.1889713  44.3829505   5.2645630  52.0931662  43.2845981   4.0839938
  51.3027206  43.2670119   3.5444437  51.8565017  43.8234274   4.8388974
  53.7147734  42.5535388   1.6414688  53.4232543  42.9165369   2.4778149
  53.1019865  41.8402397   1.4628020  46.8928927  41.4709693   6.6107373
  47.7620086  41.6450346   6.2494008  46.4135678  42.2904110   6.4883102
  58.5521402  53.1798319  -3.9847352  59.1899812  53.0605067  -4.6884012
  58.4342245  54.1279163  -3.9259400  55.3611109  53.1325747  -4.0485828
  55.0229620  53.0166812  -4.9365293  56.2300877  52.7316912  -4.0684822
  55.8430892  54.2860599   1.9100378  55.8319532  53.8913397   1.0380881
  56.0051531  53.5526672   2.5034149  48.7662356  56.4812415  -5.2204716
  49.5583648  56.1403240  -5.6358417  49.0059006  56.5907390  -4.3002563
  52.5638153  57.0697711   0.8579562  52.2728019  57.9743342   0.7426228
  53.1995137  57.1114238   1.5723631  53.4894360  54.4474559  -2.5519079
  54.0857932  54.2230582  -3.2662116  53.5469331  53.7059305  -1.9493631
  63.5071098  50.8425006  -6.0061166  64.2396270  50.2724223  -5.7723336
  62.7510454  50.4546607  -5.5654660  61.0296518  44.5546580  -1.5466557
  60.6979843  45.4241991  -1.7705342  60.4342132  44.2382864  -0.8672527
  57.5228038  56.7559126  -2.1470645  57.2228761  57.6584165  -2.2554837
  57.1779097  56.4891310  -1.2949492  60.9225182  49.2741667  -4.4673207
  60.0142059  49.2057075  -4.7614446  60.8712777  49.7513611  -3.6391382
  52.5048818  63.5203447  -9.1799677  52.4272847  64.4711272  -9.1011196
  51.9010461  63.1749319  -8.5224751  54.9966047  50.6931312   3.4761690
  54.2199381  51.2525232   3.4664555  55.6356610  51.1788095   3.9976560
  62.7886828  47.4758105  -2.6895333  62.1461208  47.7690638  -3.3355539
  62.2841757  47.3611025  -1.8842137  53.2512420  53.5016765   3.0379657
  53.9927104  54.0401809   2.7614481  52.5449405  54.1283054   3.1951209
  58.7267759  55.6445906   1.6351819  59.1351115  55.2028316   0.8906451
  58.0045021  55.0698533   1.8886011  55.0798829  50.5818513  -0.9914624
  55.9260025  51.0057926  -0.8479975  55.0197467  49.9252137  -0.2976061
  59.0496574  56.2047097  -4.6095893  58.4205436  56.3692811  -5.3119825
  58.6622236  56.6188706  -3.8384929  62.9285806  57.1401534  -7.2551529
  62.2436844  57.5200436  -7.8054495  63.0129655  57.7496861  -6.5219581
  58.2298275  48.2422881   0.6666549  57.9859207  48.9964942   0.1300825
  58.5058205  48.6208229   1.5013796  60.1836737  54.7861493  -0.6556185
  60.3953633  55.4293253  -1.3321804  60.1366486  53.9523810  -1.1234255
  51.4948617  55.4892986  -4.4066044  52.0649974  55.9180255  -5.0448560
  52.0856729  55.2075571  -3.7081859  51.9873783  50.6556414   3.8394967
  51.3572444  51.3372695   4.0730364  51.8809871  50.5439495   2.8948105
  61.2982565  57.6633449  -2.4833828  62.1200009  57.2613636  -2.7651146
  61.2944968  57.5601683  -1.5317712  55.0639169  57.2117492  -0.3273117
  55.1283601  57.6737899   0.5085054  54.3550093  56.5814857  -0.1990808
  69.3888558  54.0072197  -6.1348856  68.6352267  53.4379595  -6.2904852
  69.5236100  53.9734862  -5.1878222  51.2654526  44.9577180   6.2020218
  50.8721472  44.4043378   6.8767862  52.0820666  45.2687758   6.5926736
  50.0411469  59.5126794  -7.8043459  50.2178097  60.4344759  -7.9922475
  50.8368302  59.1985213  -7.3749079  54.1822487  46.3735059   3.7940475
  54.9232201  46.9742212   3.7144937  54.4140410  45.6312696   3.2358517
  49.3263825  51.5591426   2.0718704  49.2117340  50.6576683   2.3725803
  48.4708343  51.8055123   1.7203521  56.4055663  59.5009166   3.6706205
  55.9619517  58.7145545   3.3527109  57.0672876  59.6888317   3.0050096
  51.1642784  61.0304968  -1.8033117  51.7150209  60.9022031  -2.5756123
  50.3254260  61.3299857  -2.1538224  58.5036901  59.7811966   1.6987606
  58.4855376  60.6020847   1.2067875  59.4256821  59.6566041   1.9237747
  54.9609955  57.2956096   2.5411115  55.4938292  56.5344384   2.3110423
  54.4324036  57.0029747   3.2835269  61.3055514  54.6191109  -4.8303027
  60.6479188  55.3090370  -4.7422898  62.1095913  55.0087540  -4.4869041
  60.1160973  52.9735481  -6.7799085  60.6292854  53.6065473  -6.2777376
  60.7662197  52.3736677  -7.1455725  56.5941804  50.4484937  -4.5340745
  55.6764365  50.6699884  -4.6919057  57.0101947  50.5231247  -5.3929037
  60.8822769  57.9541483  -8.6519943  60.4285096  57.1132393  -8.5954752
  60.2516736  58.5902881  -8.3145163  59.3255708  59.7917979  -7.7170125
  59.6178682  60.3523036  -8.4357759  59.8354329  60.0846540  -6.9616965
  54.2889333  60.5698330  -6.6276671  54.2465512  60.7959177  -7.5568139
  55.2052032  60.3361705  -6.4790870  57.7354967  51.0382398   0.2703958
  58.0904355  51.2653871   1.1298424  58.3827098  51.3700775  -0.3518787
  63.4652704  54.1600834  -9.0246713  63.3270603  54.3502430  -9.9525524
  63.1088923  54.9220217  -8.5678662  63.4922084  56.2277361  -4.0135442
  63.9258590  56.1352650  -3.1652388  64.2053664  56.2034861  -4.6515426
  57.2249979  59.8279455  -2.4802341  57.2787001  60.3970391  -1.7124625
  56.3564760  59.9981340  -2.8448304  50.1048372  49.5297011  -0.9977890
  50.7771425  49.3214373  -1.6465241  49.2778158  49.3319097  -1.4372657
  64.3537633  56.2701062  -1.4802556  64.5473523  57.1746872  -1.2343281
  64.2538251  55.8108481  -0.6463971  56.0073944  46.1558952   1.0187771
  55.3601859  46.8548902   0.9252248  56.7774959  46.5895096   1.3864019
  59.4152742  56.4207804   4.0938324  59.2638248  56.1918356   3.1768408
  59.4057421  57.3778406   4.1069669  56.1838078  53.9939717  -0.9215409
  57.1130138  54.1450877  -1.0946442  55.7629108  54.0823738  -1.7766763
  54.9826410  58.0190381  -3.1516872  54.8437496  57.6509166  -2.2790933
  54.1941006  58.5338021  -3.3232914  55.5774562  63.1199478 -11.8091335
  55.7526318  62.6487521 -10.9945712  54.8907350  63.7465244 -11.5810074
  56.5331625  57.3971984  -5.7628034  56.1981458  57.3572754  -4.8670384
  56.0335571  56.7316700  -6.2357624  50.5075869  52.8039614  -0.2375453
  50.3695667  52.0719853   0.3636086  51.4180793  52.7148514  -0.5191265
  53.1358170  52.5159574  -0.7491773  53.8457788  51.8752766  -0.7905154
  53.0927478  52.7672468   0.1734408  61.1244949  59.4526927   2.1714806
  61.0657495  58.7686147   1.5045389  61.5264467  60.1945917   1.7195432
  51.8487104  49.5024791   1.0703867  51.3124461  49.0515530   1.7225463
  51.2603812  49.6370700   0.3274331  50.1435647  66.2688841  -5.0351475
  50.3832246  66.9007365  -4.3572456  49.3004844  65.9176881  -4.7486116
  61.1262356  57.4166511   0.4028786  60.2389135  57.0792433   0.5255185
  61.6960907  56.6849542   0.6397551  54.6563509  62.0767963  -2.6309971
  54.5833681  62.8822935  -2.1190666  54.2140902  62.2759929  -3.4561949
  54.4453289  61.3139733  -9.1207149  53.6620811  61.8561413  -9.0268925
  55.1446034  61.8313713  -8.7212908  65.6079696  52.8274728  -4.8354652
  65.5969573  53.7099444  -5.2060719  64.7397076  52.4746279  -5.0300115
  57.1162193  61.9754797  -0.4751812  57.8290165  62.6102262  -0.5475911
  56.6252221  62.0718663  -1.2911810  52.1674106  59.7249241   0.3453759
  52.8683566  60.3585724   0.4983153  51.6969221  60.0663972  -0.4150602
  59.9675392  52.2793848  -1.8293691  59.3146842  52.5269756  -2.4841238
  60.3455772  51.4657986  -2.1631214  56.9282566  62.3153541  -7.7265521
  57.1104961  61.4975197  -7.2637768  57.7515552  62.5321234  -8.1640631
  57.2624732  61.2421726 -10.4650472  57.7912498  60.7314181 -11.0780310
  57.5252951  60.9264257  -9.6004939  56.0162965  53.0213659   4.6572346
  55.3403602  52.9207788   5.3274721  56.8390599  52.8652873   5.1208343
  47.7641824  59.2585596  -2.7215139  48.3495261  58.5129284  -2.5887234
  47.5666663  59.5689552  -1.8378475  50.6180480  62.2936843  -7.7052696
  49.9490855  62.7782971  -8.1888656  50.4793349  62.5406064  -6.7909318
  54.7585748  64.3280587  -1.1070038  55.3104056  64.4912208  -0.3420953
  55.0991942  64.9185024  -1.7790013  49.2102514  48.7478869   3.1424881
  49.8374553  48.3655946   3.7562405  48.3530433  48.5293071   3.5080574
  59.6096622  59.1541844   4.7478617  60.1536526  59.7671802   4.2533571
  59.0283467  59.7121423   5.2645630  57.8954135  62.2762562  -4.1206356
  57.7705275  61.4752302  -4.6295410  58.5533227  62.7708755  -4.6092386
  59.9589044  60.0771582  -2.4926806  59.0119379  59.9576933  -2.5648479
  60.3071817  59.1894080  -2.4100544  52.3188617  45.9665721   1.3311436
  52.8423019  46.2128018   2.0937746  52.1000950  46.7985756   0.9114574
  56.9635477  59.8724298  -6.2922453  56.8160440  58.9441006  -6.1114883
  57.7888971  59.8944389  -6.7765378  60.5669599  60.6952857  -5.2057581
  61.4916146  60.4895719  -5.3433130  60.3984902  60.4469258  -4.2968239
  53.5241162  46.9079416  -0.9838893  53.1837983  46.1087229  -0.5818213
  52.8180168  47.2081127  -1.5562060  55.4118726  48.1087737  -2.6285575
  55.1536504  49.0304808  -2.6301244  54.8803767  47.7118172  -1.9385110
  60.3564915  61.2138525  -9.8495489  60.5301793  60.6484947 -10.6021637
  60.8493806  62.0139419 -10.0315999  46.1741875  53.2253194  -1.7831930
  45.6295343  54.0013002  -1.6511656  47.0521225  53.5723998  -1.9412809
  66.2104306  53.9774948  -8.2305190  66.6535452  53.2282273  -8.6286066
  65.3330817  53.9685084  -8.6131458  61.3440088  60.5305289 -12.7498591
  62.0390992  61.1511982 -12.5311276  61.6863238  59.6800640 -12.4746213
  46.9607897  52.3523090   1.1098226  46.2189633  52.5005725   1.6962857
  46.6400641  52.6131356   0.2464976  63.2431511  57.9804995 -11.2211260
  63.7682835  58.3192267 -11.9461940  63.1553863  57.0452010 -11.4048126
  54.9051559  61.8939068   0.9078616  55.2138686  61.6488215   1.7801316
  55.7027041  62.0985707   0.4197487  54.9272171  64.0476978  -6.8616007
  54.4877162  63.5553357  -6.1683150  55.6780288  63.5049945  -7.1023932
  47.4064510  60.2388519  -6.8591379  48.2322530  59.9392291  -7.2392735
  47.0558562  59.4696141  -6.4101590  52.3746044  59.5914987  -4.7893705
  51.7526053  58.9285692  -5.0891477  53.0450911  59.6176119  -5.4720058
  52.4470571  48.0696775   4.8038801  52.4958727  48.9458898   4.4216570
  52.9893085  47.5274168   4.2310444  62.9325417  58.6137898   4.0839938
  62.1420961  58.5962037   3.5444437  62.6958771  59.1526192   4.8388974
  63.0523292  55.4630365   1.3972666  63.1021297  55.2980372   2.3388189
  62.9437215  54.5957624   1.0070547  60.3427054  51.4461293   2.7131973
  61.2436917  51.3067757   2.4215971  60.4175029  51.6115747   3.6530150
  54.6769860  48.8228147   1.5585159  53.8073169  49.1161713   1.2867748
  54.9129340  49.4068592   2.2792423  64.5541489  57.8827306   1.6414688
  64.2626297  58.2457287   2.4778149  63.9413620  57.1694314   1.4628020
  65.7537171  55.4480186  -5.8382742  66.5884062  55.8869990  -5.6745182
  65.8896300  54.9718839  -6.6574496  62.8028677  53.0059921   0.1094746
  63.2782799  53.1987567  -0.6986403  61.8794242  53.0619107  -0.1361871
  57.3808893  45.0407764  -0.9249420  57.8990837  45.7768791  -1.2502932
  57.0264026  45.3471758  -0.0902661  61.5030346  49.8825681  -1.6576949
  62.4547769  49.9823778  -1.6364725  61.3333796  49.0903949  -1.1478864
  59.5244725  46.9681264  -1.4717548  58.9294658  47.2486277  -2.1671059
  59.2394422  47.4575165  -0.7000807  63.9818424  53.1031800  -2.5434649
  63.9494744  52.1647801  -2.3574965  64.5919047  53.1815837  -3.2768824
  64.1312912  49.8942844  -2.4976366  63.6151961  49.1101301  -2.6846437
  65.0152861  49.5661561  -2.3329846  69.7994974  54.1647807  -3.4028612
  70.5298362  53.9033095  -2.8420909  69.1901919  53.4276529  -3.3626544
  67.8810271  52.3055670  -2.8054161  67.1543434  52.1711635  -3.4137669
  67.4657558  52.6132499  -1.9997443  55.7040447  56.0245600   4.9593212
  56.6243457  56.2024199   5.1533259  55.6690030  55.0801645   4.8072911
  48.7002520  53.9346634  -2.3984007  48.9188529  54.8663742  -2.3795973
  49.1128293  53.5754609  -1.6129203  53.5730385  49.5079840   6.9918742
  53.4727112  50.4574197   6.9230833  53.3551927  49.1798079   6.1194812
  53.4361655  52.9376979   5.8083804  52.9528737  53.7377339   6.0147693
  53.5222594  52.9484924   4.8551248  49.3634993  56.8281514  -2.1547762
  50.3178246  56.7965456  -2.2217831  49.1647516  56.3672137  -1.3397536
  49.9534375  55.3982630   0.4123035  50.7727264  55.8926708   0.4357873
  50.2271182  54.4814598   0.3840603  65.4988066  48.5267522  -5.4520729
  66.0932556  48.2863258  -6.1627421  65.5714649  47.8074653  -4.8247193
  47.7185221  62.3701133  -5.1377565  47.5839689  61.6101534  -5.7039566
  47.3017284  63.0942033  -5.6048776  67.8059138  51.8333723  -6.6777308
  67.2458696  51.9026912  -5.9045746  67.2002642  51.6574708  -7.3977812
  50.8754347  63.2670450  -4.9259122  50.7586731  64.2115883  -5.0280432
  50.0546793  62.9644012  -4.5373323  45.2069289  49.7320763   1.1115232
  45.8528152  49.2219717   1.6002458  44.9986440  50.4689445   1.6858658
  57.7322681  56.8001611   6.6107373  58.6013841  56.9742263   6.2494008
  57.2529433  57.6196028   6.4883102  51.9008861  63.9198712  -1.7103193
  52.8036108  63.9522322  -1.3936698  51.6746231  62.9899163  -1.6956858
  53.6562463  62.6729698  -5.0493115  52.7058094  62.6731560  -5.1628743
  53.9594949  61.9262433  -5.5657080  49.5466780  46.8788381   5.2090247
  50.4098241  46.5225185   5.4193571  48.9732191  46.5402275   5.8965651
  69.3915157  68.5090237  -3.9847352  70.0293567  68.3896984  -4.6884012
  69.2736000  69.4571081  -3.9259400  66.2004863  68.4617665  -4.0485828
  65.8623375  68.3458730  -4.9365293  67.0694631  68.0608830  -4.0684822
  66.6824646  69.6152517   1.9100378  66.6713287  69.2205315   1.0380881
  66.8445286  68.8818589   2.5034149  59.6056111  71.8104333  -5.2204716
  60.3977403  71.4695158  -5.6358417  59.8452761  71.9199308  -4.3002563
  63.4031907  72.3989629   0.8579562  63.1121773  73.3035259   0.7426228
  64.0388892  72.4406156   1.5723631  64.3288114  69.7766477  -2.5519079
  64.9251686  69.5522499  -3.2662116  64.3863086  69.0351223  -1.9493631
  71.8690273  59.8838498  -1.5466557  71.5373598  60.7533909  -1.7705342
  71.2735886  59.5674782  -0.8672527  68.3621792  72.0851044  -2.1470645
  68.0622515  72.9876083  -2.2554837  68.0172852  71.8183227  -1.2949492
  61.8134274  68.5364841  -6.1133940  60.8884770  68.4041055  -5.9056248
  62.0618687  69.3159060  -5.6163998  71.7618936  64.6033584  -4.4673207
  70.8535813  64.5348993  -4.7614446  71.7106532  65.0805529  -3.6391382
  59.1743085  68.1798114  -5.2790151  59.3035466  68.4332593  -4.3650739
  58.4940536  68.7725822  -5.5985496  65.8359802  66.0223230   3.4761690
  65.0593136  66.5817150   3.4664555  66.4750365  66.5080013   3.9976560
  73.6280583  62.8050023  -2.6895333  72.9854963  63.0982556  -3.3355539
  73.1235511  62.6902943  -1.8842137  64.0906174  68.8308683   3.0379657
  64.8320859  69.3693727   2.7614481  63.3843160  69.4574972   3.1951209
  69.5661514  70.9737824   1.6351819  69.9744870  70.5320234   0.8906451
  68.8438775  70.3990451   1.8886011  65.9192584  65.9110430  -0.9914624
  66.7653779  66.3349844  -0.8479975  65.8591222  65.2544055  -0.2976061
  69.0692029  63.5714799   0.6666549  68.8252961  64.3256859   0.1300825
  69.3451960  63.9500146   1.5013796  71.0230492  70.1153411  -0.6556185
  71.2347387  70.7585171  -1.3321804  70.9760240  69.2815728  -1.1234255
  68.6256721  62.7271232  -3.7519613  67.7641200  63.0252485  -3.4602876
  68.6519156  62.9441631  -4.6838580  62.3342371  70.8184904  -4.4066044
  62.9043728  71.2472172  -5.0448560  62.9250483  70.5367489  -3.7081859
  62.8267538  65.9848331   3.8394967  62.1966199  66.6664612   4.0730364
  62.7203626  65.8731413   2.8948105  58.1212510  65.6520127  -5.2339109
  57.3311564  65.9077656  -5.7098998  58.6123758  66.4668465  -5.1287068
  60.0727256  66.0164707  -8.2755632  59.2758419  66.1283401  -7.7572136
  59.8452848  66.3551359  -9.1414742  65.9032923  72.5409410  -0.3273117
  65.9677356  73.0029817   0.5085054  65.1943847  71.9106775  -0.1990808
  56.4050213  65.9050618  -2.8024118  56.6558252  66.7897628  -2.5366542
  56.9409762  65.7255219  -3.5749026  62.1048281  60.2869097   6.2020218
  61.7115226  59.7335296   6.8767862  62.9214421  60.5979676   6.5926736
  65.0216242  61.7026976   3.7940475  65.7625955  62.3034129   3.7144937
  65.2534164  60.9604614   3.2358517  60.1657580  66.8883344   2.0718704
  60.0511095  65.9868601   2.3725803  59.3102097  67.1347040   1.7203521
  67.2449417  74.8301084   3.6706205  66.8013272  74.0437462   3.3527109
  67.9066631  75.0180234   3.0050096  62.0036539  76.3596885  -1.8033117
  62.5543964  76.2313949  -2.5756123  61.1648014  76.6591774  -2.1538224
  69.3430655  75.1103884   1.6987606  69.3249131  75.9312765   1.2067875
  70.2650576  74.9857959   1.9237747  65.8003710  72.6248013   2.5411115
  66.3332046  71.8636301   2.3110423  65.2717791  72.3321665   3.2835269
  68.9673405  57.7308079  -1.9295244  68.6237674  58.6209721  -2.0056133
  69.3352367  57.5409737  -2.7925659  66.5170798  62.5666391  -8.3637570
  65.6612395  62.1773242  -8.5431931  66.9297750  62.6458352  -9.2237785
  68.0469945  60.1012734  -3.9646010  67.5434741  60.0642870  -4.7778205
  68.3400552  61.0105477  -3.9049354  64.2912831  60.1851464  -4.9579829
  65.1565828  59.9894273  -5.3173939  64.3590340  59.9561816  -4.0310472
  61.8975150  62.4153672  -7.5863462  62.4718902  62.1928854  -8.3190269
  62.4846132  62.4842367  -6.8334861  64.1997818  59.2894921  -8.8588392
  63.5462230  58.9743938  -9.4831778  64.1578292  58.6670661  -8.1328569
  67.4335558  65.7776854  -4.5340745  66.5158119  65.9991801  -4.6919057
  67.8495702  65.8523165  -5.3929037  70.7661070  56.9901638  -6.8277506
  71.0719947  56.1299002  -7.1151591  71.4913675  57.5819259  -7.0278512
  57.0585426  67.3932325  -8.4395908  56.8609826  66.8001686  -9.1644841
  56.5032090  67.0884535  -7.7219969  65.0382150  67.2855431  -6.3201315
  65.0930760  66.3329268  -6.3958838  64.2273352  67.4414871  -5.8360016
  62.9774510  65.9032491  -8.5610936  62.1642375  66.2026662  -8.1545744
  63.4733504  65.5088180  -7.8436454  68.5748722  66.3674316   0.2703958
  68.9298109  66.5945789   1.1298424  69.2220853  66.6992692  -0.3518787
  62.4688585  63.4750847  -2.9449701  63.1087964  63.3339606  -3.6426738
  61.6366115  63.1885360  -3.3211099  59.4717201  63.4451172  -8.1676714
  59.7324018  64.3596505  -8.2767554  60.2934373  62.9775614  -8.0180101
  60.9442126  64.8588929  -0.9977890  61.6165180  64.6506291  -1.6465241
  60.1171913  64.6611015  -1.4372657  66.8467698  61.4850870   1.0187771
  66.1995613  62.1840819   0.9252248  67.6168714  61.9187014   1.3864019
  70.2546496  71.7499722   4.0938324  70.1032003  71.5210274   3.1768408
  70.2451176  72.7070323   4.1069669  67.0231833  69.3231635  -0.9215409
  67.9523893  69.4742794  -1.0946442  66.6022863  69.4115656  -1.7766763
  65.8220165  73.3482299  -3.1516872  65.6831250  72.9801084  -2.2790933
  65.0334761  73.8629939  -3.3232914  61.3469624  68.1331532  -0.2375453
  61.2089422  67.4011771   0.3636086  62.2574547  68.0440432  -0.5191265
  63.9751924  67.8451491  -0.7491773  64.6851543  67.2044683  -0.7905154
  63.9321233  68.0964386   0.1734408  71.9638703  74.7818845   2.1714806
  71.9051249  74.0978065   1.5045389  72.3658221  75.5237835   1.7195432
  62.6880858  64.8316709   1.0703867  62.1518215  64.3807448   1.7225463
  62.0997567  64.9662618   0.3274331  71.9656110  72.7458428   0.4028786
  71.0782889  72.4084350   0.5255185  72.5354661  72.0141460   0.6397551
  53.6185257  69.0782520  -6.2728163  54.3056297  68.7644250  -6.8607147
  53.4633386  69.9823885  -6.5460911  58.4219980  63.9672717  -1.8443139
  58.3378168  63.3598386  -2.5792729  57.6002686  64.4581735  -1.8433643
  68.5943693  62.4526280  -6.4772944  69.0912393  61.6996243  -6.7971874
  67.8230675  62.4890597  -7.0429735  65.1778662  64.5943663  -6.7501259
  64.8076450  64.0414704  -6.0620354  65.6737755  63.9901797  -7.3026259
  63.0067861  75.0541158   0.3453759  63.7077320  75.6877641   0.4983153
  62.5362976  75.3955890  -0.4150602  71.0362688  59.4195874  -4.3293585
  70.1225768  59.6500101  -4.1611378  71.4655790  59.5034318  -3.4779553
  70.8069147  67.6085766  -1.8293691  70.1540597  67.8561673  -2.4841238
  71.1849527  66.7949904  -2.1631214  66.8556720  68.3505577   4.6572346
  66.1797357  68.2499706   5.3274721  67.6784354  68.1944791   5.1208343
  58.6035579  74.5877513  -2.7215139  59.1889016  73.8421201  -2.5887234
  58.4060417  74.8981470  -1.8378475  53.1953234  67.1583114  -4.0010696
  53.2337333  66.6246704  -3.2073577  52.6893526  66.6318319  -4.6199718
  60.5743996  62.0047654  -0.5048153  60.6385322  62.8662485  -0.9170756
  60.5111116  61.3921656  -1.2375795  60.0496268  64.0770787   3.1424881
  60.6768307  63.6947864   3.7562405  59.1924187  63.8584989   3.5080574
  70.4490377  74.4833762   4.7478617  70.9930281  75.0963720   4.2533571
  69.8677222  75.0413340   5.2645630  56.8261811  65.8847216 -10.9256764
  57.1215252  64.9757894 -10.9789710  55.9249847  65.8634955 -11.2475762
  60.3556058  63.9603212  -4.9429216  59.6342644  64.5739180  -5.0821742
  61.1449314  64.4960977  -5.0212570  63.1582372  61.2957639   1.3311436
  63.6816773  61.5419935   2.0937746  62.9394705  62.1277674   0.9114574
  58.5549653  63.5661313 -10.8017439  58.2262359  62.6858692 -10.9842333
  58.9089023  63.5108982  -9.9141050  64.3634917  62.2371334  -0.9838893
  64.0231737  61.4379147  -0.5818213  63.6573923  62.5373045  -1.5562060
  65.0151389  59.3220646  -2.5311570  65.8377458  58.8481125  -2.6532680
  65.2589452  60.1011130  -2.0312884  62.5389967  66.0139767  -4.7219592
  62.3934548  66.3280070  -3.8295310  62.0615171  66.6324667  -5.2748693
  64.3986350  63.0042315  -4.6738702  64.3847919  62.1083408  -5.0106404
  65.1158778  63.0112979  -4.0400416  66.2512481  63.4379655  -2.6285575
  65.9930259  64.3596726  -2.6301244  65.7197521  63.0410090  -1.9385110
  57.0135629  68.5545111  -1.7831930  56.4689098  69.3304919  -1.6511656
  57.8914979  68.9015916  -1.9412809  63.8023246  61.8856695  -9.4051132
  63.9239157  60.9573341  -9.2060244  63.5125288  61.8995381 -10.3172816
  66.6714436  59.5711606  -6.2684412  66.6936133  59.6350939  -7.2232433
  67.0882495  58.7316114  -6.0743906  57.8001651  67.6815008   1.1098226
  57.0583387  67.8297643   1.6962857  57.4794396  67.9423273   0.2464976
  65.7445314  77.2230986   0.9078616  66.0532440  76.9780133   1.7801316
  66.5420796  77.4277624   0.4197487  56.4466870  73.4866763  -5.9002445
  55.6098778  73.0588937  -6.0818444  56.4190515  73.6799206  -4.9631654
  63.2864326  63.3988693   4.8038801  63.3352481  64.2750815   4.4216570
  63.8286840  62.8566086   4.2310444  73.7719171  73.9429816   4.0839938
  72.9814715  73.9253955   3.5444437  73.5352526  74.4818110   4.8388974
  73.8917046  70.7922282   1.3972666  73.9415051  70.6272290   2.3388189
  73.7830970  69.9249541   1.0070547  71.1820809  66.7753210   2.7131973
  72.0830671  66.6359675   2.4215971  71.2568783  66.9407665   3.6530150
  65.5163614  64.1520065   1.5585159  64.6466923  64.4453631   1.2867748
  65.7523094  64.7360510   2.2792423  75.3935243  73.2119224   1.6414688
  75.1020051  73.5749204   2.4778149  74.7807374  72.4986232   1.4628020
  73.6422431  68.3351838   0.1094746  74.1176553  68.5279485  -0.6986403
  72.7187997  68.3911024  -0.1361871  68.2202648  60.3699682  -0.9249420
  68.7384592  61.1060709  -1.2502932  67.8657781  60.6763675  -0.0902661
  68.4715242  56.7899964  -5.4048524  68.7516996  56.1223154  -4.7788097
  69.2565849  56.9829060  -5.9173860  72.3424100  65.2117598  -1.6576949
  73.2941523  65.3115696  -1.6364725  72.1727551  64.4195867  -1.1478864
  70.3638480  62.2973182  -1.4717548  69.7688412  62.5778194  -2.1671059
  70.0788177  62.7867083  -0.7000807  74.9706667  65.2234762  -2.4976366
  74.4545715  64.4393218  -2.6846437  75.8546615  64.8953478  -2.3329846
  72.6317394  58.9675777  -6.5380553  72.4342215  58.6590865  -5.6537221
  73.2417099  59.6937416  -6.4082623  66.5434202  71.3537517   4.9593212
  67.4637211  71.5316116   5.1533259  66.5083785  70.4093563   4.8072911
  55.7616367  66.5476111  -6.1153513  55.4419151  65.6941419  -6.4079139
  55.2149795  66.7624689  -5.3595546  59.5396274  69.2638552  -2.3984007
  59.7582284  70.1955660  -2.3795973  59.9522048  68.9046526  -1.6129203
  66.4600492  59.7706637 -10.4108318  65.6501220  59.4253722 -10.0353072
  67.1484909  59.4614181  -9.8220707  68.3891040  58.8484684  -8.7884022
  68.9422079  59.2680137  -8.1293999  68.6261127  57.9220432  -8.7461066
  64.4124139  64.8371758   6.9918742  64.3120866  65.7866115   6.9230833
  64.1945682  64.5089997   6.1194812  55.6304627  70.1679022  -4.1460392
  54.9368098  69.7532975  -4.6590437  56.3777618  70.2099559  -4.7426973
  70.2173414  60.3590267  -7.0784037  70.7173192  60.4706801  -7.8869718
  70.8609022  60.0551320  -6.4383229  64.2755410  68.2668897   5.8083804
  63.7922491  69.0669257   6.0147693  64.3616349  68.2776841   4.8551248
  57.5441369  70.0997276  -6.2694377  57.5212057  70.1984963  -7.2212494
  57.8542006  70.9462427  -5.9477211  60.2028747  72.1573431  -2.1547762
  61.1572001  72.1257374  -2.2217831  60.0041271  71.6964055  -1.3397536
  60.7928129  70.7274547   0.4123035  61.6121018  71.2218626   0.4357873
  61.0664937  69.8106515   0.3840603  56.0463043  65.0612681   1.1115232
  56.6921907  64.5511635   1.6002458  55.8380194  65.7981363   1.6858658
  68.5716436  72.1293529   6.6107373  69.4407595  72.3034181   6.2494008
  68.0923187  72.9487945   6.4883102  62.7402616  79.2490630  -1.7103193
  63.6429863  79.2814240  -1.3936698  62.5139986  78.3191081  -1.6956858
  68.3818773  55.9195502  -8.8814935  67.6151169  55.3653989  -8.7358252
  68.7929478  55.9917371  -8.0200783  60.3860534  62.2080298   5.2090247
  61.2491996  61.8517103   5.4193571  59.8125945  61.8694193   5.8965651
  72.9442035  75.6161015   6.2020218  72.5508981  75.0627213   6.8767862
  73.7608175  75.9271593   6.5926736  75.8609996  77.0318894   3.7940475
  76.6019710  77.6326047   3.7144937  76.0927919  76.2896532   3.2358517
  70.8890023  79.4062704   3.1424881  71.5162062  79.0239782   3.7562405
  70.0317942  79.1876906   3.5080574  74.1258080  78.7280610   4.8038801
  74.1746236  79.6042733   4.4216570  74.6680594  78.1858003   4.2310444
  75.2517894  80.1663675   6.9918742  75.1514621  81.1158032   6.9230833
  75.0339436  79.8381914   6.1194812  66.8856798  80.3904599   1.1115232
  67.5315661  79.8803553   1.6002458  66.6773949  81.1273280   1.6858658
  71.2254289  77.5372216   5.2090247  72.0885750  77.1809021   5.4193571
  70.6519700  77.1986111   5.8965651  71.9638704  51.7880967 -11.1039887
  71.9051250  51.1040187 -11.7709304  72.3658223  52.5299957 -11.5559261
  70.4490378  51.4895884  -8.5276077  70.9930282  52.1025843  -9.0221122
  69.8677223  52.0475463  -8.0109064  73.7719173  50.9491938  -9.1914756
  72.9814716  50.9316077  -9.7310256  73.5352527  51.4880232  -8.4365719
  75.3935244  50.2181346 -11.6340006  75.1020053  50.5811327 -10.7976545
  74.7807376  49.5048355 -11.8126673  68.5716437  49.1355651  -6.6647320
  69.4407596  49.3096304  -7.0260686  68.0923188  49.9550068  -6.7871591
  72.9442036  52.6223137  -7.0734475  72.5508982  52.0689336  -6.3986831
  73.7608177  52.9333716  -6.6827958  75.8609997  54.0381017  -9.4814219
  76.6019711  54.6388170  -9.5609756  76.0927920  53.2958654 -10.0396176
  70.8890024  56.4124827 -10.1329812  71.5162063  56.0301904  -9.5192288
  70.0317943  56.1939029  -9.7674120  74.1258081  55.7342733  -8.4715893
  74.1746237  56.6104856  -8.8538123  74.6680596  55.1920126  -9.0444249
  75.2517895  57.1725798  -6.2835951  75.1514622  58.1220155  -6.3523860
  75.0339437  56.8444037  -7.1559881  66.8856799  57.3966721 -12.1639461
  67.5315663  56.8865675 -11.6752236  66.6773950  58.1335403 -11.5896036
  71.2254290  54.5434338  -8.0664447  72.0885752  54.1871143  -7.8561122
  70.6519701  54.2048233  -7.3789043   4.3526027  99.9947954  46.9669914
   3.5989735  99.4255352  46.8113918   4.4873568  99.9610618  47.9140549
   0.7174639 101.4355942  47.2636028   1.5521530 101.8745747  47.4273589
   0.8533768 100.9594596  46.4444274   4.7632442 100.1523564  49.6990158
   5.4935830  99.8908852  50.2597862   4.1539387  99.4152286  49.7392226
   2.8447739  98.2931426  50.2964609   2.1180902  98.1587391  49.6881101
   2.4295026  98.6008255  51.1021327   0.4625534  94.5143279  47.6498041
   1.0570024  94.2739015  46.9391349   0.5352117  93.7950409  48.2771577
   2.7696606  97.8209480  46.4241462   2.2096164  97.8902669  47.1973024
   2.1640110  97.6450464  45.7040958   3.9310873 103.7183836  51.1723527
   3.5875142 104.6085477  51.0962637   4.2989835 103.5285493  50.3093112
   5.7298538 102.9777395  46.2741264   6.0357415 102.1174758  45.9867179
   6.4551143 103.5695015  46.0740258   3.4352710 102.7775721  47.6970247
   3.7154464 102.1098910  48.3230673   4.2203317 102.9704817  47.1844911
   7.5954862 104.9551534  46.5638217   7.3979683 104.6466622  47.4481549
   8.2054567 105.6813173  46.6936147   3.3456241 101.9071259  44.2203836
   2.5788637 101.3529746  44.3660518   3.7566946 101.9793128  45.0817987
   4.3526028  77.0010077  33.6915221   3.5989736  76.4317475  33.5359225
   4.4873569  76.9672741  34.6385855   0.7174640  78.4418065  33.9881335
   1.5521532  78.8807869  34.1518895   0.8533769  77.9656718  33.1689581
   4.7632443  77.1585687  36.4235465   5.4935831  76.8970975  36.9843168
   4.1539388  76.4214408  36.4637533   2.8447740  75.2993549  37.0209916
   2.1180904  75.1649514  36.4126408   2.4295027  75.6070378  37.8266634
   0.4625535  71.5205401  34.3743348   1.0570026  71.2801137  33.6636656
   0.5352119  70.8012532  35.0016884   2.7696608  74.8271602  33.1486769
   2.2096166  74.8964791  33.9218331   2.1640111  74.6512587  32.4286265
   4.3552626  91.5028116  35.8416725   4.9931036  91.3834863  35.1380065
   4.2373469  92.4508960  35.9004677   1.1642332  91.4555544  35.7778249
   0.8260844  91.3396609  34.8898784   2.0332101  91.0546709  35.7579255
   1.6462115  92.6090396  41.7364455   1.6350756  92.2143194  40.8644958
   1.8082755  91.8756469  42.3298226   3.9093895  89.2279570  32.9169933
   4.6956984  88.8098993  32.5660350   4.1732599  90.1325662  33.0851581
   9.3102322  89.1654803  33.8202911  10.0427494  88.5954020  34.0540741
   8.5541677  88.7776404  34.2609417   0.9278441  91.5882045  31.0166254
   0.5636649  91.0612666  31.7279175   1.7845557  91.1980514  30.8432739
   6.8327742  82.8776377  38.2797520   6.5011067  83.7471788  38.0558735
   6.2373355  82.5612661  38.9591550   3.3259262  95.0788923  37.6793432
   3.0259985  95.9813962  37.5709240   2.9810321  94.8121106  38.5314585
   6.7256405  87.5971463  35.3590870   5.8173283  87.5286872  35.0649631
   6.6744001  88.0743408  36.1872695   8.5918052  85.7987902  37.1368744
   7.9492432  86.0920435  36.4908538   8.0872980  85.6840822  37.9421940
   6.2458215  89.5451075  27.8254603   7.1576072  89.7778462  27.6502301
   5.7367863  90.1288119  27.2629682   4.5298983  93.9675703  41.4615896
   4.9382339  93.5258113  40.7170528   3.8076245  93.3928330  41.7150088
   0.8830053  88.9048310  38.8349453   1.7291248  89.3287723  38.9784102
   0.8228691  88.2481934  39.5288016   4.8527798  94.5276893  35.2168184
   4.2236660  94.6922608  34.5144252   4.4653460  94.9418503  35.9879148
   8.7317030  95.4631331  32.5712548   8.0468068  95.8430233  32.0209582
   8.8160879  96.0726658  33.3044496   4.0329498  86.5652678  40.4930626
   3.7890430  87.3194738  39.9564902   4.3089429  86.9438026  41.3277873
   5.9867961  93.1091290  39.1707892   6.1984857  93.7523050  38.4942273
   5.9397710  92.2753607  38.7029822   3.5894190  85.7209111  36.0744464
   2.7278669  86.0190365  36.3661201   3.6156625  85.9379510  35.1425497
   7.1013789  95.9863246  37.3430249   7.9231233  95.5843433  37.0612931
   7.0976192  95.8831480  38.2946365  15.1919782  92.3301994  33.6915221
  14.4383491  91.7609392  33.5359225  15.3267323  92.2964659  34.6385855
   2.2086887  97.8238963  43.4970282   1.7650741  97.0375342  43.1791186
   2.8704100  98.0118114  42.8314173   4.3068125  98.1041763  41.5251683
   4.2886600  98.9250644  41.0331952   5.2288045  97.9795838  41.7501824
   3.9310874  80.7245958  37.8968833   3.5875143  81.6147600  37.8207944
   4.2989836  80.5347616  37.0338418   1.4808268  85.5604270  31.4626507
   0.6249864  85.1711121  31.2832146   1.8935219  85.6396231  30.6026292
   3.0107414  83.0950614  35.8618067   2.5072210  83.0580749  35.0485872
   3.3038021  84.0043356  35.9214723   8.8695431  93.4686924  28.3394442
   8.0924874  93.1298084  27.8949604   9.5486912  93.4739547  27.6649407
   3.6847460  88.5881662  28.2301050   3.3797595  88.9027811  29.0811193
   4.6377902  88.6663081  28.2728383   7.1086738  92.9420905  34.9961050
   6.4510412  93.6320167  35.0841179   7.9127137  93.3317337  35.3395036
   5.9192196  91.2965278  33.0464992   6.4324078  91.9295270  33.5486701
   6.5693420  90.6966474  32.6808352   2.3973027  88.7714734  35.2923332
   1.4795589  88.9929681  35.1345020   2.8133171  88.8461044  34.4335040
   3.1808075  90.1706149  30.4226012   3.9279894  90.6827547  30.1133135
   3.4499665  89.8490202  31.2830406   6.6853993  96.2771280  31.1744134
   6.2316320  95.4362189  31.2309325   6.0547959  96.9132678  31.5118914
   5.6286912  87.2063266  32.4044802   4.8909669  86.6940652  32.7355044
   5.8813686  86.7663647  31.5928079   5.1286932  98.1147776  32.1093952
   5.4209906  98.6752833  31.3906318   5.6385552  98.4076337  32.8647112
   5.7298540  79.9839518  32.9986571   6.0357416  79.1236881  32.7112486
   6.4551144  80.5757138  32.7985565   3.5386191  89.3612195  40.0968035
   3.8935579  89.5883668  40.9562501   4.1858322  89.6930572  39.4745290
   9.2683928  92.4830631  30.8017364   9.1301826  92.6732227  29.8738553
   8.9120147  93.2450014  31.2585415   9.2953307  94.5507158  35.8128635
   9.7289814  94.4582447  36.6611689  10.0084888  94.5264658  35.1748651
   3.0281202  98.1509252  37.3461736   3.0818225  98.7200188  38.1139452
   2.1595984  98.3211137  36.9815773  10.1568857  94.5930858  38.3461521
  10.3504747  95.4976669  38.5920796  10.0569475  94.1338278  39.1800106
   1.8105168  84.4788749  40.8451848   1.1633083  85.1778699  40.7516325
   2.5806183  84.9124893  41.2128096   5.2183966  94.7437601  43.9202401
   5.0669472  94.5148153  43.0032485   5.2088645  95.7008203  43.9333746
   1.9869302  92.3169514  38.9048668   2.9161362  92.4680674  38.7317635
   1.5660332  92.4053535  38.0497314   2.3362849  95.7201781  34.0636043
   2.0012682  95.6802551  34.9593693   1.8366795  95.0546497  33.5906454
   6.9276172  97.7756724  41.9978883   6.8688718  97.0915944  41.3309466
   7.3295691  98.5175714  41.5459509   6.9293580  95.7396308  40.2292863
   6.0420358  95.4022229  40.3519262   7.4992131  95.0079339  40.4661628
   3.5581163  85.4464159  33.3491133   4.0549862  84.6934122  33.0292203
   2.7868144  85.4828476  32.7834342  11.4110920  91.1504525  34.9909425
  11.4000796  92.0329240  34.6203358  10.5428300  90.7976076  34.7963962
   2.9193417 100.2984594  39.3512265   3.6321389 100.9332059  39.2788166
   2.4283445 100.3948460  38.5352267   4.6410943  94.2035847  30.9229557
   3.7067222  94.3237309  30.7534261   4.8187612  93.3008313  30.6589566
   8.0283495  90.0453166  31.4579591   8.4943947  90.8781158  31.3839893
   8.4790995  89.5798148  32.1624849   6.0959726  96.3896987  28.4565743
   6.3719570  96.2753582  29.3659617   5.2264225  95.9914472  28.4177916
   6.0000158  82.4133753  35.4970492   5.0863237  82.6437980  35.6652699
   6.4293259  82.4972197  36.3484524   5.7706616  90.6023645  37.9970386
   5.1178066  90.8499552  37.3422839   6.1486996  89.7887783  37.6632863
   1.8194189  91.3443456  44.4836423   1.1434826  91.2437585  45.1538798
   2.6421823  91.1882670  44.9472420   0.5616972 102.6510383  38.7194039
   1.1135280 102.8142005  39.4843124   0.9023165 103.2414821  38.0474064
   5.4127846  97.4771641  44.5742694   5.9567750  98.0901599  44.0797648
   4.8314691  98.0351219  45.0909707   3.6985359 100.5992359  35.7057721
   3.5736499  99.7982099  35.1968667   4.3564450 101.0938552  35.2171691
   5.7620268  98.4001379  37.3337271   4.8150603  98.2806730  37.2615598
   6.1103041  97.5123877  37.4163533   2.7666701  98.1954095  33.5341624
   2.6191663  97.2670803  33.7149194   3.5920194  98.2174186  33.0498699
   6.3700823  99.0182654  34.6206496   7.2947370  98.8125515  34.4830947
   6.2016126  98.7699055  35.5295838   2.7628215  86.0491933  28.5273741
   2.9791830  86.9316571  28.2262569   2.2822282  85.6578146  27.7979383
   1.2149950  86.4317534  37.1978502   0.9567728  87.3534605  37.1962833
   0.6834991  86.0347969  37.8878967   6.1596139  99.5368321  29.9768588
   6.3333016  98.9714744  29.2242440   6.6525030 100.3369216  29.7948078
   1.6351906  82.5649485  33.5579665   1.6573603  82.6288818  32.6031644
   2.0519965  81.7253994  33.7520171  12.0135530  92.3004744  31.5958888
  12.4566676  91.5512070  31.1978011  11.1362040  92.2914881  31.2132619
   9.0462735  96.3034791  28.6052817   9.5714059  96.6422064  27.8802137
   8.9585087  95.3681807  28.4215951   0.7082783 100.2168865  40.7342693
   1.0169910  99.9718012  41.6065393   1.5058265 100.4215504  40.2461564
   8.7356641  96.9367695  43.9104015   7.9452184  96.9191834  43.3708514
   8.4989995  97.4755989  44.6653051   8.8554516  93.7860161  41.2236743
   8.9052521  93.6210169  42.1652266   8.7468439  92.9187420  40.8334624
   6.1458278  89.7691089  42.5396050   7.0468141  89.6297554  42.2480048
   6.2206253  89.9345544  43.4794227  10.3572712  96.2057103  41.4678765
  10.0657521  96.5687083  42.3042226   9.7444844  95.4924111  41.2892097
  11.5568395  93.7709983  33.9881335  12.3915286  94.2099787  34.1518895
  11.6927524  93.2948636  33.1689581   8.6059901  91.3289718  39.9358823
   9.0814022  91.5217364  39.1277674   7.6825466  91.3848903  39.6902206
   3.1840117  83.3637561  38.9014657   3.7022061  84.0998588  38.5761145
   2.8295250  83.6701554  39.7361416   3.4352711  79.7837844  34.4215553
   3.7154465  79.1161033  35.0475980   4.2203318  79.9766939  33.9090217
   7.3061570  88.2055478  38.1687128   8.2578993  88.3053575  38.1899352
   7.1365020  87.4133746  38.6785213   5.3275949  85.2911061  38.3546529
   4.7325881  85.5716074  37.6593018   5.0425646  85.7804962  39.1263270
   9.7849647  91.4261597  37.2829428   9.7525968  90.4877598  37.4689112
  10.3950271  91.5045634  36.5495253   9.9344136  88.2172641  37.3287711
   9.4183185  87.4331097  37.1417640  10.8184085  87.8891357  37.4934231
   7.5954863  81.9613656  33.2883524   7.3979684  81.6528745  34.1726856
   8.2054568  82.6875295  33.4181454  15.6026197  92.4877604  36.4235465
  16.3329586  92.2262892  36.9843168  14.9933143  91.7506326  36.4637533
  13.6841494  90.6285467  37.0209916  12.9574658  90.4941432  36.4126408
  13.2688781  90.9362295  37.8266634   1.5071671  94.3475396  44.7857289
   2.4274680  94.5253995  44.9797336   1.4721254  93.4031442  44.6336988
   1.4237961  82.7644516  29.4155759   0.6138690  82.4191601  29.7911005
   2.1122378  82.4552060  30.0043370   3.3528510  81.8422563  31.0380055
   3.9059548  82.2618017  31.6970078   3.5898596  80.9158311  31.0803011
   6.7307317  83.9523088  30.5458720   6.1505986  84.6107892  30.1636772
   6.4643249  83.1300433  30.1346137   5.1810883  83.3528146  32.7480040
   5.6810661  83.4644681  31.9394359   5.8246491  83.0489199  33.3880848
   5.5132195  86.1123179  29.6015068   4.6258050  86.3972829  29.3835263
   5.9286184  85.9516942  28.7542345   8.8646731  86.1369700  33.3169407
   9.6407121  86.6266152  33.5894024   8.1394865  86.5627754  33.7741277
  11.3019289  86.8497319  34.3743348  11.8963780  86.6093055  33.6636656
  11.3745873  86.1304450  35.0016884   5.4873218  91.6277715  29.8165358
   5.4308420  92.0846266  28.9772990   6.0401561  90.8668399  29.6388201
   9.2978024  87.4167447  30.6415477   9.0414959  87.0164082  31.4723685
   8.6730892  88.1311241  30.5165617  13.6090362  90.1563520  33.1486769
  13.0489920  90.2256709  33.9218331  13.0033866  89.9804504  32.4286265
   6.2207998  92.8182496  27.1117887   6.1656801  92.6526767  26.1706331
   5.5954053  93.5258529  27.2680077   3.5353905  95.1231408  46.4371450
   4.4045064  95.2972060  46.0758085   3.0560656  95.9425825  46.3147179
   3.3456243  78.9133382  30.9449142   2.5788638  78.3591868  31.0905825
   3.7566948  78.9855250  31.8063294  15.1946381 106.8320034  35.8416725
  15.8324791 106.7126781  35.1380065  15.0767223 107.7800878  35.9004677
  12.0036087 106.7847462  35.7778249  11.6654598 106.6688527  34.8898784
  12.8725855 106.3838627  35.7579255  12.4855870 107.9382314  41.7364455
  12.4744511 107.5435112  40.8644958  12.6476509 107.2048386  42.3298226
  14.7487649 104.5571488  32.9169933  15.5350738 104.1390911  32.5660350
  15.0126353 105.4617580  33.0851581  20.1496076 104.4946721  33.8202911
  20.8821248 103.9245938  34.0540741  19.3935432 104.1068321  34.2609417
  11.7672196 106.9173962  31.0166254  11.4030403 106.3904583  31.7279175
  12.6239312 106.5272431  30.8432739  17.6721497  98.2068295  38.2797520
  17.3404821  99.0763706  38.0558735  17.0767110  97.8904579  38.9591550
  17.5650160 102.9263381  35.3590870  16.6567037 102.8578790  35.0649631
  17.5137756 103.4035326  36.1872695  11.6391026 104.3453027  43.3025767
  10.8624360 104.9046947  43.2928632  12.2781589 104.8309810  43.8240637
  19.4311806 101.1279819  37.1368744  18.7886187 101.4212353  36.4908538
  18.9266735 101.0132740  37.9421940  17.0851970 104.8742993  27.8254603
  17.9969826 105.1070379  27.6502301  16.5761617 105.4580037  27.2629682
  11.7223808 104.2340227  38.8349453  12.5685003 104.6579641  38.9784102
  11.6622445 103.5773852  39.5288016  14.8723253 101.8944596  40.4930626
  14.6284185 102.6486656  39.9564902  15.1483183 102.2729943  41.3277873
  16.8261716 108.4383208  39.1707892  17.0378611 109.0814968  38.4942273
  16.7791464 107.6045525  38.7029822  14.4287945 101.0501029  36.0744464
  13.5672424 101.3482282  36.3661201  14.4550379 101.2671428  35.1425497
   8.6298762 104.3078128  43.6659044   7.9997422 104.9894409  43.8994441
   8.5234850 104.1961210  42.7212182  26.0313537 107.6593912  33.6915221
  25.2777245 107.0901310  33.5359225  26.1661078 107.6256576  34.6385855
   7.9079504  98.6098894  46.0284295   7.5146450  98.0565093  46.7031939
   8.7245645  98.9209473  46.4190813  10.8247465 100.0256773  43.6204552
  11.5657179 100.6263926  43.5409014  11.0565388  99.2834411  43.0622594
  14.7704628  96.0537876  37.8968833  14.4268898  96.9439518  37.8207944
  15.1383591  95.8639534  37.0338418  12.3202022 100.8896188  31.4626507
  11.4643618 100.5003038  31.2832146  12.7328974 100.9688149  30.6026292
  13.8501169  98.4242531  35.8618067  13.3465964  98.3872666  35.0485872
  14.1431776  99.3335274  35.9214723  10.0944055  98.5081261  34.8684248
  10.9597051  98.3124070  34.5090138  10.1621564  98.2791613  35.7953605
  19.7089185 108.7978842  28.3394442  18.9318628 108.4590001  27.8949604
  20.3880666 108.8031465  27.6649407  14.5241214 103.9173579  28.2301050
  14.2191350 104.2319728  29.0811193  15.4771656 103.9954999  28.2728383
  17.9480492 108.2712823  34.9961050  17.2904167 108.9612084  35.0841179
  18.7520891 108.6609255  35.3395036   7.7006374 100.7383469  32.2400615
   8.2750126 100.5158650  31.5073808   8.2877356 100.8072163  32.9929216
  16.7585951 106.6257196  33.0464992  17.2717833 107.2587188  33.5486701
  17.4087175 106.0258391  32.6808352  10.0029041  97.6124718  30.9675685
   9.3493454  97.2973735  30.3432299   9.9609516  96.9900458  31.6935508
  13.2366782 104.1006651  35.2923332  12.3189343 104.3221598  35.1345020
  13.6526925 104.1752962  34.4335040  14.0201830 105.4998067  30.4226012
  14.7673649 106.0119464  30.1133135  14.2893419 105.1782120  31.2830406
  16.4680667 102.5355183  32.4044802  15.7303424 102.0232569  32.7355044
  16.7207440 102.0955565  31.5928079  16.5692294  95.3131435  32.9986571
  16.8751171  94.4528799  32.7112486  17.2944899  95.9049055  32.7985565
  10.8413374 105.6085228  33.5062762  10.8961984 104.6559065  33.4305239
  10.0304576 105.7644667  33.9904061   8.7805734 104.2262288  31.2653141
   7.9673599 104.5256459  31.6718333   9.2764728 103.8317977  31.9827623
  14.3779945 104.6904113  40.0968035  14.7329333 104.9175586  40.9562501
  15.0252077 105.0222489  39.4745290  20.1077682 107.8122548  30.8017364
  19.9695581 108.0024144  29.8738553  19.7513901 108.5741931  31.2585415
   8.2719808 101.7980644  36.8814376   8.9119188 101.6569403  36.1837339
   7.4397339 101.5115157  36.5052978  20.1347062 109.8799075  35.8128635
  20.5683569 109.7874365  36.6611689  20.8478643 109.8556576  35.1748651
   5.2748425 101.7680969  31.6587363   5.5355242 102.6826302  31.5496523
   6.0965597 101.3005411  31.8083976   6.7473350 103.1818726  38.8286187
   7.4196404 102.9736088  38.1798836   5.9203137 102.9840812  38.3891420
  20.9962611 109.9222776  38.3461521  21.1898502 110.8268587  38.5920796
  20.8963230 109.4630195  39.1800106  12.6498922  99.8080667  40.8451848
  12.0026837 100.5070616  40.7516325  13.4199938 100.2416811  41.2128096
  12.8263057 107.6461432  38.9048668  13.7555117 107.7972591  38.7317635
  12.4054087 107.7345452  38.0497314   9.7783148 106.1681288  39.0772304
  10.4882767 105.5274480  39.0358923   9.7352456 106.4194183  39.9998485
   8.4912082 103.1546506  40.8967944   7.9549439 102.7037244  41.5489540
   7.9028791 103.2892415  40.1538408   4.2251203 102.2902514  37.9820938
   4.1409392 101.6828183  37.2471348   3.4033910 102.7811532  37.9830434
  14.3974917 100.7756077  33.3491133  14.8943617 100.0226039  33.0292203
  13.6261899 100.8120394  32.7834342  22.2504675 106.4796443  34.9909425
  22.2394551 107.3621158  34.6203358  21.3822054 106.1267994  34.7963962
  10.9809886 102.9173460  33.0762818  10.6107673 102.3644501  33.7643723
  11.4768978 102.3131594  32.5237818  18.8677249 105.3745084  31.4579591
  19.3337701 106.2073075  31.3839893  19.3184750 104.9090065  32.1624849
  16.8393912  97.7425671  35.4970492  15.9256992  97.9729898  35.6652699
  17.2687013  97.8264115  36.3484524  16.6100370 105.9315563  37.9970386
  15.9571821 106.1791470  37.3422839  16.9880750 105.1179701  37.6632863
  12.6587944 106.6735374  44.4836423  11.9828581 106.5729503  45.1538798
  13.4815577 106.5174587  44.9472420   6.3775220 100.3277451  39.3215924
   6.4416546 101.1892282  38.9093321   6.3142340  99.7151453  38.5888282
   5.8527492 102.4000583  42.9688958   6.4799531 102.0177661  43.5826482
   4.9955411 102.1814785  43.3344651   6.1587282 102.2833009  34.8834861
   5.4373868 102.8968977  34.7442335   6.9480538 102.8190774  34.8051507
   8.9613595  99.6187436  41.1575513   9.4847997  99.8649732  41.9201823
   8.7425929 100.4507470  40.7378651  10.1666140 100.5601131  38.8425184
   9.8262961  99.7608944  39.2445864   9.4605147 100.8602842  38.2702017
  10.8182612  97.6450443  37.2952507  11.6408682  97.1710921  37.1731397
  11.0620676  98.4240927  37.7951193  13.6021970 101.3783851  28.5273741
  13.8185584 102.2608488  28.2262569  13.1216037 100.9870064  27.7979383
   8.3421191 104.3369564  35.1044485   8.1965772 104.6509867  35.9968767
   7.8646395 104.9554464  34.5515384  10.2017574 101.3272112  35.1525375
  10.1879143 100.4313205  34.8157673  10.9190002 101.3342776  35.7863661
  12.0543705 101.7609452  37.1978502  11.7961482 102.6826523  37.1962833
  11.5228745 101.3639887  37.8878967   9.6054470 100.2086492  30.4212945
   9.7270381  99.2803138  30.6203833   9.3156512 100.2225178  29.5091261
  12.4745660  97.8941403  33.5579665  12.4967357  97.9580736  32.6031644
  12.8913719  97.0545911  33.7520171  22.8529285 107.6296662  31.5958888
  23.2960431 106.8803987  31.1978011  21.9755795 107.6206798  31.2132619
   9.0895549 101.7218489  44.6302878   9.1383705 102.5980612  44.2480647
   9.6318064 101.1795883  44.0574521  19.6948270 109.1152079  41.2236743
  19.7446275 108.9502087  42.1652266  19.5862193 108.2479338  40.8334624
  16.9852033 105.0983007  42.5396050  17.8861895 104.9589472  42.2480048
  17.0600007 105.2637462  43.4794227  11.3194838 102.4749862  41.3849236
  10.4498147 102.7683428  41.1131825  11.5554318 103.0590307  42.1056500
  22.3962149 109.1001900  33.9881335  23.2309041 109.5391704  34.1518895
  22.5321278 108.6240554  33.1689581  19.4453655 106.6581635  39.9358823
  19.9207777 106.8509282  39.1277674  18.5219221 106.7140821  39.6902206
  14.0233872  98.6929479  38.9014657  14.5415816  99.4290506  38.5761145
  13.6689004  98.9993472  39.7361416  14.2746466  95.1129761  34.4215553
  14.5548220  94.4452950  35.0475980  15.0597073  95.3058857  33.9090217
  18.1455324 103.5347395  38.1687128  19.0972747 103.6345493  38.1899352
  17.9758775 102.7425664  38.6785213  16.1669704 100.6202979  38.3546529
  15.5719636 100.9007991  37.6593018  15.8819400 101.1096879  39.1263270
  20.6243402 106.7553515  37.2829428  20.5919722 105.8169516  37.4689112
  21.2344026 106.8337552  36.5495253  20.7737890 103.5464558  37.3287711
  20.2576939 102.7623015  37.1417640  21.6577839 103.2183275  37.4934231
  18.4348617  97.2905574  33.2883524  18.2373439  96.9820662  34.1726856
  19.0448323  98.0167213  33.4181454  26.4419952 107.8169522  36.4235465
  27.1723340 107.5554810  36.9843168  25.8326897 107.0798244  36.4637533
  24.5235249 105.9577384  37.0209916  23.7968413 105.8233349  36.4126408
  24.1082536 106.2654213  37.8266634  12.2631716  98.0936434  29.4155759
  11.4532444  97.7483519  29.7911005  12.9516133  97.7843978  30.0043370
  14.1922264  97.1714481  31.0380055  14.7453303  97.5909934  31.6970078
  14.4292350  96.2450229  31.0803011  10.2155363 103.1601555  46.8182819
  10.1152090 104.1095911  46.7494910   9.9976905 102.8319793  45.9458889
  17.5701071  99.2815006  30.5458720  16.9899740  99.9399810  30.1636772
  17.3037004  98.4592351  30.1346137  16.0204637  98.6820064  32.7480040
  16.5204416  98.7936598  31.9394359  16.6640245  98.3781117  33.3880848
  16.3525949 101.4415096  29.6015068  15.4651804 101.7264747  29.3835263
  16.7679938 101.2808860  28.7542345  19.7040485 101.4661617  33.3169407
  20.4800875 101.9558070  33.5894024  18.9788619 101.8919672  33.7741277
  22.1413044 102.1789237  34.3743348  22.7357535 101.9384973  33.6636656
  22.2139628 101.4596367  35.0016884  16.3266973 106.9569632  29.8165358
  16.2702174 107.4138184  28.9772990  16.8795315 106.1960317  29.6388201
  20.1371779 102.7459364  30.6415477  19.8808713 102.3456000  31.4723685
  19.5124647 103.4603158  30.5165617  24.4484117 105.4855437  33.1486769
  23.8883675 105.5548627  33.9218331  23.8427620 105.3096422  32.4286265
  17.0601752 108.1474414  27.1117887  17.0050556 107.9818685  26.1706331
  16.4347807 108.8550447  27.2680077   1.8494267 103.3842478  40.9379309
   2.4953131 102.8741432  41.4266535   1.6411418 104.1211160  41.5122735
  10.3697878  97.6482523  26.6903206  10.3576547  98.5924363  26.8471476
  11.2621300  97.4652668  26.3962667  14.1849997  94.2425299  30.9449142
  13.4182393  93.6883786  31.0905825  14.5960702  94.3147168  31.8063294
   6.1891758 100.5310095  45.0354324   7.0523220 100.1746900  45.2457648
   5.6157169 100.1923990  45.7229728  25.6098383 111.3829794  37.8968833
  25.2662652 112.2731435  37.8207944  25.9777345 111.1931451  37.0338418
  27.4086049 110.6423353  32.9986571  27.7144925 109.7820716  32.7112486
  28.1338653 111.2340973  32.7985565  25.1140220 110.4421679  34.4215553
  25.3941974 109.7744868  35.0475980  25.8990827 110.6350775  33.9090217
  29.2742372 112.6197492  33.2883524  29.0767193 112.3112580  34.1726856
  29.8842077 113.3459131  33.4181454  25.0243752 109.5717217  30.9449142
  24.2576147 109.0175704  31.0905825  25.4354457 109.6439086  31.8063294
   4.3526029  54.0072199  20.4160527   3.5989737  53.4379597  20.2604532
   4.4873570  53.9734864  21.3631162   0.7174642  55.4480188  20.7126642
   1.5521533  55.8869992  20.8764202   0.8533770  54.9718841  19.8934887
   4.7632444  54.1647809  23.1480772   5.4935833  53.9033097  23.7088475
   4.1539390  53.4276531  23.1882839   2.8447741  52.3055672  23.7455223
   2.1180905  52.1711637  23.1371714   2.4295028  52.6132500  24.5511941
   0.4625536  48.5267524  21.0988654   1.0570027  48.2863260  20.3881963
   0.5352120  47.8074654  21.7262191   2.7696609  51.8333725  19.8732076
   2.2096167  51.9026914  20.6463638   2.1640112  51.6574709  19.1531572
   4.3552627  68.5090239  22.5662031   4.9931037  68.3896986  21.8625371
   4.2373470  69.4571083  22.6249983   1.1642334  68.4617667  22.5023556
   0.8260845  68.3458731  21.6144091   2.0332102  68.0608832  22.4824562
   1.6462117  69.6152518  28.4609761   1.6350757  69.2205317  27.5890265
   1.8082756  68.8818591  29.0543533   3.9093896  66.2341693  19.6415239
   4.6956985  65.8161116  19.2905656   4.1732600  67.1387785  19.8096888
   9.3102323  66.1716926  20.5448218  10.0427495  65.6016143  20.7786047
   8.5541679  65.7838526  20.9854723   0.9278443  68.5944167  17.7411560
   0.5636650  68.0674788  18.4524482   1.7845559  68.2042636  17.5678046
   6.8327743  59.8838500  25.0042826   6.5011068  60.7533911  24.7804041
   6.2373357  59.5674784  25.6836857   3.3259263  72.0851046  24.4038739
   3.0259986  72.9876085  24.2954546   2.9810322  71.8183229  25.2559892
   6.7256407  64.6033586  22.0836176   5.8173284  64.5348994  21.7894937
   6.6744002  65.0805531  22.9118002   8.5918053  62.8050024  23.8614050
   7.9492433  63.0982558  23.2153845   8.0872982  62.6902945  24.6667247
   6.2458217  66.5513198  14.5499910   7.1576073  66.7840584  14.3747607
   5.7367864  67.1350242  13.9874988   4.5298984  70.9737825  28.1861202
   4.9382340  70.5320236  27.4415835   3.8076246  70.3990453  28.4395395
   0.8830054  65.9110432  25.5594759   1.7291250  66.3349846  25.7029408
   0.8228692  65.2544056  26.2533322   4.8527799  71.5339016  21.9413491
   4.2236661  71.6984730  21.2389559   4.4653461  71.9480626  22.7124455
   8.7317031  72.4693454  19.2957855   8.0468069  72.8492355  18.7454888
   8.8160880  73.0788781  20.0289803   4.0329500  63.5714801  27.2175933
   3.7890432  64.3256861  26.6810208   4.3089430  63.9500148  28.0523180
   5.9867963  70.1153413  25.8953198   6.1984858  70.7585173  25.2187579
   5.9397711  69.2815729  25.4275128   3.5894191  62.7271234  22.7989771
   2.7278671  63.0252487  23.0906508   3.6156626  62.9441632  21.8670803
   7.1013790  72.9925368  24.0675556   7.9231234  72.5905556  23.7858237
   7.0976193  72.8893603  25.0191672  15.1919784  69.3364117  20.4160527
  14.4383492  68.7671515  20.2604532  15.3267325  69.3026781  21.3631162
   2.2086888  74.8301086  30.2215589   1.7650742  74.0437464  29.9036493
   2.8704102  75.0180236  29.5559479   4.3068126  75.1103886  28.2496990
   4.2886601  75.9312767  27.7577259   5.2288046  74.9857961  28.4747131
   3.9310875  57.7308081  24.6214140   3.5875145  58.6209723  24.5453251
   4.2989838  57.5409739  23.7583725   1.4808269  62.5666393  18.1871814
   0.6249865  62.1773243  18.0077452   1.8935221  62.6458354  17.3271599
   3.0107416  60.1012736  22.5863373   2.5072211  60.0642871  21.7731179
   3.3038022  61.0105479  22.6460030   8.8695432  70.4749047  15.0639749
   8.0924875  70.1360206  14.6194911   9.5486913  70.4801670  14.3894714
   3.6847461  65.5943784  14.9546356   3.3797597  65.9089933  15.8056499
   4.6377903  65.6725204  14.9973689   7.1086739  69.9483028  21.7206357
   6.4510413  70.6382289  21.8086485   7.9127138  70.3379460  22.0640343
   5.9192198  68.3027401  19.7710298   6.4324079  68.9357393  20.2732008
   6.5693422  67.7028596  19.4053658   2.3973029  65.7776856  22.0168639
   1.4795590  65.9991803  21.8590327   2.8133172  65.8523167  21.1580346
   3.1808076  67.1768272  17.1471319   3.9279895  67.6889669  16.8378441
   3.4499666  66.8552325  18.0075713   6.6853994  73.2833402  17.8989441
   6.2316321  72.4424312  17.9554631   6.0547961  73.9194801  18.2364221
   5.6286913  64.2125388  19.1290108   4.8909670  63.7002774  19.4600351
   5.8813687  63.7725770  18.3173385   5.1286933  75.1209899  18.8339259
   5.4209908  75.6814956  18.1151625   5.6385554  75.4138460  19.5892418
   5.7298541  56.9901640  19.7231878   6.0357418  56.1299004  19.4357793
   6.4551146  57.5819260  19.5230872   3.5386192  66.3674317  26.8213342
   3.8935580  66.5945791  27.6807807   4.1858323  66.6992694  26.1990597
   9.2683929  69.4892753  17.5262671   9.1301828  69.6794349  16.5983860
   8.9120148  70.2512136  17.9830722   9.2953309  71.5569280  22.5373942
   9.7289815  71.4644569  23.3856996  10.0084889  71.5326781  21.8993958
   3.0281204  75.1571374  24.0707043   3.0818226  75.7262311  24.8384759
   2.1595985  75.3273260  23.7061080  10.1568858  71.5992981  25.0706827
  10.3504748  72.5038792  25.3166102  10.0569476  71.1400400  25.9045412
   1.8105169  61.4850872  27.5697155   1.1633084  62.1840821  27.4761631
   2.5806184  61.9187016  27.9373403   5.2183967  71.7499724  30.6447708
   5.0669473  71.5210275  29.7277792   5.2088646  72.7070325  30.6579053
   1.9869303  69.3231637  25.6293975   2.9161363  69.4742796  25.4562942
   1.5660333  69.4115657  24.7742621   2.3362850  72.7263904  20.7881350
   2.0012683  72.6864674  21.6839000   1.8366796  72.0608620  20.3151760
   6.9276174  74.7818846  28.7224190   6.8688720  74.0978066  28.0554773
   7.3295692  75.5237836  28.2704816   6.9293581  72.7458430  26.9538170
   6.0420360  72.4084352  27.0764568   7.4992132  72.0141461  27.1906935
   3.5581164  62.4526282  20.0736440   4.0549864  61.6996244  19.7537510
   2.7868145  62.4890599  19.5079649  11.4110921  68.1566648  21.7154731
  11.4000798  69.0391363  21.3448664  10.5428301  67.8038198  21.5209268
   2.9193418  77.3046717  26.0757571   3.6321390  77.9394181  26.0033473
   2.4283446  77.4010583  25.2597573   4.6410945  71.2097969  17.6474863
   3.7067223  71.3299432  17.4779567   4.8187613  70.3070436  17.3834873
   8.0283496  67.0515289  18.1824897   8.4943948  67.8843280  18.1085200
   8.4790997  66.5860270  18.8870156   6.0959727  73.3959110  15.1811049
   6.3719571  73.2815704  16.0904923   5.2264226  72.9976595  15.1423222
   6.0000159  59.4195876  22.2215799   5.0863239  59.6500102  22.3898006
   6.4293260  59.5034320  23.0729831   5.7706617  67.6085768  24.7215693
   5.1178067  67.8561675  24.0668145   6.1486997  66.7949906  24.3878170
   1.8194190  68.3505579  31.2081730   1.1434827  68.2499708  31.8784105
   2.6421824  68.1944792  31.6717727   0.5616973  79.6572506  25.4439346
   1.1135281  79.8204128  26.2088431   0.9023167  80.2476944  24.7719371
   5.4127847  74.4833764  31.2988000   5.9567751  75.0963722  30.8042955
   4.8314692  75.0413342  31.8155013   3.6985360  77.6054482  22.4303028
   3.5736500  76.8044221  21.9213973   4.3564452  78.1000675  21.9416998
   5.7620269  75.4063502  24.0582578   4.8150604  75.2868853  23.9860905
   6.1103042  74.5186000  24.1408839   2.7666702  75.2016218  20.2586930
   2.6191665  74.2732925  20.4394500   3.5920196  75.2236309  19.7744005
   6.3700824  76.0244777  21.3451803   7.2947371  75.8187638  21.2076254
   6.2016127  75.7761178  22.2541144   2.7628216  63.0554056  15.2519047
   2.9791831  63.9378693  14.9507876   2.2822284  62.6640269  14.5224689
   1.2149951  63.4379657  23.9223809   0.9567729  64.3596728  23.9208139
   0.6834992  63.0410091  24.6124273   6.1596140  76.5430444  16.7013894
   6.3333018  75.9776867  15.9487747   6.6525031  77.3431339  16.5193384
   1.6351907  59.5711607  20.2824972   1.6573604  59.6350941  19.3276951
   2.0519966  58.7316116  20.4765478  12.0135531  69.3066867  18.3204194
  12.4566677  68.5574192  17.9223317  11.1362042  69.2977003  17.9377926
   9.0462736  73.3096914  15.3298123   9.5714060  73.6484187  14.6047443
   8.9585088  72.3743929  15.1461258   0.7082784  77.2230988  27.4588000
   1.0169911  76.9780134  28.3310700   1.5058267  77.4277626  26.9706870
   8.7356642  73.9429818  30.6349321   7.9452186  73.9253956  30.0953821
   8.4989996  74.4818111  31.3898358   8.8554517  70.7922284  27.9482050
   8.9052522  70.6272291  28.8897573   8.7468440  69.9249543  27.5579931
   6.1458279  66.7753212  29.2641357   7.0468142  66.6359677  28.9725354
   6.2206254  66.9407667  30.2039534  10.3572714  73.2119226  28.1924071
  10.0657522  73.5749206  29.0287532   9.7444845  72.4986234  28.0137404
  11.5568396  70.7772105  20.7126642  12.3915287  71.2161909  20.8764202
  11.6927525  70.3010759  19.8934887   8.6059902  68.3351840  26.6604129
   9.0814024  68.5279486  25.8522981   7.6825467  68.3911026  26.4147513
   3.1840118  60.3699684  25.6259963   3.7022062  61.1060711  25.3006452
   2.8295251  60.6763677  26.4606722   3.4352713  56.7899966  21.1460860
   3.7154466  56.1223155  21.7721286   4.2203320  56.9829062  20.6335524
   7.3061571  65.2117600  24.8932435   8.2578994  65.3115698  24.9144659
   7.1365021  64.4195869  25.4030519   5.3275950  62.2973183  25.0791836
   4.7325883  62.5778196  24.3838325   5.0425647  62.7867084  25.8508577
   9.7849649  68.4323720  24.0074735   9.7525969  67.4939721  24.1934419
  10.3950272  68.5107757  23.2740560   9.9344137  65.2234763  24.0533018
   9.4183186  64.4393220  23.8662947  10.8184086  64.8953480  24.2179537
   7.5954864  58.9675779  20.0128831   7.3979685  58.6590867  20.8972163
   8.2054570  59.6937418  20.1426760  15.6026199  69.4939727  23.1480772
  16.3329587  69.2325015  23.7088475  14.9933144  68.7568449  23.1882839
  13.6841496  67.6347589  23.7455223  12.9574659  67.5003554  23.1371714
  13.2688783  67.9424418  24.5511941   1.5071672  71.3537519  31.5102596
   2.4274682  71.5316118  31.7042642   1.4721255  70.4093564  31.3582295
   1.4237962  59.7706639  16.1401065   0.6138691  59.4253724  16.5156311
   2.1122379  59.4614183  16.7288677   3.3528511  58.8484686  17.7625362
   3.9059549  59.2680139  18.4215385   3.5898597  57.9220434  17.8048318
   6.7307318  60.9585211  17.2704026   6.1505987  61.6170015  16.8882079
   6.4643251  60.1362556  16.8591444   5.1810884  60.3590269  19.4725347
   5.6810663  60.4706803  18.6639665   5.8246492  60.0551322  20.1126155
   5.5132196  63.1185301  16.3260374   4.6258051  63.4034952  16.1080569
   5.9286185  62.9579065  15.4787651   8.8646732  63.1431822  20.0414714
   9.6407122  63.6328275  20.3139331   8.1394866  63.5689877  20.4986583
  11.3019291  63.8559442  21.0988654  11.8963781  63.6155178  20.3881963
  11.3745874  63.1366572  21.7262191   5.4873220  68.6339837  16.5410665
   5.4308421  69.0908389  15.7018297   6.0401562  67.8730522  16.3633507
   9.2978026  64.4229569  17.3660784   9.0414960  64.0226205  18.1968992
   8.6730894  65.1373363  17.2410923  13.6090363  67.1625642  19.8732076
  13.0489921  67.2318832  20.6463638  13.0033867  66.9866627  19.1531572
   6.2207999  69.8244619  13.8363194   6.1656803  69.6588890  12.8951638
   5.5954054  70.5320651  13.9925383   3.5353906  72.1293530  33.1616757
   4.4045066  72.3034183  32.8003391   3.0560658  72.9487947  33.0392486
   3.3456244  55.9195504  17.6694449   2.5788640  55.3653991  17.8151131
   3.7566949  55.9917373  18.5308601  15.1946382  83.8382156  22.5662031
  15.8324792  83.7188904  21.8625371  15.0767225  84.7863000  22.6249983
  12.0036088  83.7909584  22.5023556  11.6654600  83.6750649  21.6144091
  12.8725856  83.3900750  22.4824562  12.4855871  84.9444436  28.4609761
  12.4744512  84.5497234  27.5890265  12.6476511  84.2110509  29.0543533
   9.2063132  87.7281548  27.4088945   8.9152998  88.6327179  27.2935612
   9.8420117  87.7698076  28.1233015  10.1319339  85.1058397  23.9990305
  10.7282911  84.8814419  23.2847268  10.1894311  84.3643142  24.6015753
  14.7487650  81.5633610  19.6415239  15.5350740  81.1453033  19.2905656
  15.0126355  82.4679702  19.8096888  20.1496077  81.5008843  20.5448218
  20.8821249  80.9308060  20.7786047  19.3935433  81.1130444  20.9854723
  11.7672197  83.9236085  17.7411560  11.4030404  83.3966706  18.4524482
  12.6239313  83.5334554  17.5678046  17.6721498  75.2130418  25.0042826
  17.3404823  76.0825828  24.7804041  17.0767111  74.8966702  25.6836857
  14.1653017  87.4142963  24.4038739  13.8653740  88.3168002  24.2954546
  13.8204077  87.1475147  25.2559892   7.6165499  83.8656760  20.4375444
   6.6915995  83.7332974  20.6453135   7.8649912  84.6450980  20.9345386
  17.5650161  79.9325504  22.0836176  16.6567038  79.8640912  21.7894937
  17.5137757  80.4097449  22.9118002  11.6391027  81.3515149  30.0271074
  10.8624361  81.9109069  30.0173938  12.2781590  81.8371932  30.5485944
  19.4311808  78.1341942  23.8614050  18.7886188  78.4274475  23.2153845
  18.9266736  78.0194862  24.6667247  17.0851971  81.8805115  14.5499910
  17.9969827  82.1132502  14.3747607  16.5761618  82.4642159  13.9874988
   9.8937399  84.1600603  29.5889041  10.6352084  84.6985647  29.3123864
   9.1874385  84.7866891  29.7460593  15.3692739  86.3029743  28.1861202
  15.7776095  85.8612154  27.4415835  14.6470000  85.7282371  28.4395395
  11.7223809  81.2402350  25.5594759  12.5685004  81.6641763  25.7029408
  11.6622447  80.5835974  26.2533322  15.6921554  86.8630934  21.9413491
  15.0630416  87.0276648  21.2389559  15.3047216  87.2772543  22.7124455
  19.5710785  87.7985372  19.2957855  18.8861824  88.1784273  18.7454888
  19.6554635  88.4080698  20.0289803  14.8723254  78.9006718  27.2175933
  14.6284186  79.6548779  26.6810208  15.1483185  79.2792066  28.0523180
  16.8261717  85.4445331  25.8953198  17.0378612  86.0877090  25.2187579
  16.7791465  84.6107647  25.4275128  14.4287946  78.0563151  22.7989771
  13.5672425  78.3544405  23.0906508  14.4550381  78.2733550  21.8670803
  11.2449515  86.6005342  19.2063576  11.7087861  86.8793045  18.4168199
  10.9806313  85.6988786  19.0236667   8.1373596  86.1476823  22.1443339
   8.7074954  86.5764092  21.5060824   8.7281708  85.8659408  22.8427525
   8.6298763  81.3140251  30.3904351   7.9997424  81.9956532  30.6239748
   8.5234851  81.2023332  29.4457489  17.9407545  88.3217286  24.0675556
  18.7624989  87.9197473  23.7858237  17.9369948  88.2185520  25.0191672
  11.7064148  87.8701329  26.2236266  11.7708581  88.3321737  27.0594438
  10.9975072  87.2398694  26.3518576   2.2081438  81.2342537  23.7485266
   2.4589477  82.1189547  24.0142842   2.7440987  81.0547139  22.9760358
  26.0313538  84.6656034  20.4160527  25.2777246  84.0963433  20.2604532
  26.1661079  84.6318699  21.3631162   7.9079506  75.6161017  32.7529602
   7.5146451  75.0627215  33.4277246   8.7245646  75.9271595  33.1436119
  10.8247467  77.0318896  30.3449858  11.5657180  77.6326049  30.2654321
  11.0565390  76.2896534  29.7867901   5.9688805  82.2175263  28.6228088
   5.8542320  81.3160520  28.9235187   5.1133322  82.4638960  28.2712905
  13.0480642  90.1593003  30.2215589  12.6044497  89.3729382  29.9036493
  13.7097856  90.3472154  29.5559479   7.8067764  91.6888805  24.7476267
   8.3575189  91.5605868  23.9753261   6.9679240  91.9883694  24.3971160
  15.1461881  90.4395803  28.2496990  15.1280356  91.2604684  27.7577259
  16.0681801  90.3149878  28.4747131  11.6034935  87.9539933  29.0920498
  12.1363271  87.1928221  28.8619806  11.0749016  87.6613585  29.8344653
  14.7704630  73.0599999  24.6214140  14.4268899  73.9501640  24.5453251
  15.1383592  72.8701656  23.7583725  12.3202023  77.8958311  18.1871814
  11.4643620  77.5065161  18.0077452  12.7328975  77.9750271  17.3271599
  13.8501170  75.4304654  22.5863373  13.3465966  75.3934789  21.7731179
  14.1431777  76.3397397  22.6460030  10.0944056  75.5143384  21.5929555
  10.9597053  75.3186192  21.2335444  10.1621565  75.2853735  22.5198912
  19.7089186  85.8040964  15.0639749  18.9318629  85.4652124  14.6194911
  20.3880667  85.8093588  14.3894714  14.5241216  80.9235702  14.9546356
  14.2191351  81.2381851  15.8056499  15.4771658  81.0017122  14.9973689
  17.9480493  85.2774946  21.7206357  17.2904168  85.9674207  21.8086485
  18.7520893  85.6671378  22.0640343   7.7006375  77.7445591  18.9645922
   8.2750127  77.5220773  18.2319115   8.2877357  77.8134286  19.7174523
  16.7585952  83.6319318  19.7710298  17.2717834  84.2649310  20.2732008
  17.4087176  83.0320514  19.4053658  10.0029043  74.6186840  17.6920991
   9.3493455  74.3035858  17.0677606   9.9609517  73.9962581  18.4180814
  13.2366783  81.1068774  22.0168639  12.3189344  81.3283721  21.8590327
  13.6526927  81.1815084  21.1580346  14.0201831  82.5060190  17.1471319
  14.7673650  83.0181587  16.8378441  14.2893420  82.1844242  18.0075713
  17.5247748  88.6125320  17.8989441  17.0710076  87.7716230  17.9554631
  16.8941715  89.2486718  18.2364221  16.4680668  79.5417306  19.1290108
  15.7303425  79.0294692  19.4600351  16.7207442  79.1017687  18.3173385
  15.9680688  90.4501817  18.8339259  16.2603662  91.0106874  18.1151625
  16.4779308  90.7430378  19.5892418  16.5692295  72.3193558  19.7231878
  16.8751172  71.4590921  19.4357793  17.2944900  72.9111178  19.5230872
  10.8413375  82.6147351  20.2308069  10.8961985  81.6621187  20.1550545
  10.0304577  82.7706790  20.7149367   8.7805735  81.2324411  17.9898448
   7.9673600  81.5318581  18.3963640   9.2764729  80.8380099  18.7072930
  14.3779947  81.6966235  26.8213342  14.7329334  81.9237708  27.6807807
  15.0252078  82.0284612  26.1990597  20.1077684  84.8184671  17.5262671
  19.9695582  85.0086267  16.5983860  19.7513902  85.5804054  17.9830722
   8.2719810  78.8042766  23.6059683   8.9119189  78.6631525  22.9082646
   7.4397340  78.5177280  23.2298285  20.1347063  86.8861198  22.5373942
  20.5683570  86.7936487  23.3856996  20.8478644  86.8618699  21.8993958
  13.8674958  90.4863292  24.0707043  13.9211980  91.0554228  24.8384759
  12.9989739  90.6565177  23.7061080   5.2748426  78.7743091  18.3832669
   5.5355243  79.6888424  18.2741830   6.0965598  78.3067534  18.5329282
   6.7473351  80.1880848  25.5531494   7.4196405  79.9798210  24.9044143
   5.9203138  79.9902934  25.1136726  20.9962613  86.9284899  25.0706827
  21.1898503  87.8330709  25.3166102  20.8963231  86.4692318  25.9045412
  12.6498923  76.8142789  27.5697155  12.0026839  77.5132739  27.4761631
  13.4199939  77.2478933  27.9373403  16.0577721  87.0791641  30.6447708
  15.9063228  86.8502193  29.7277792  16.0482401  88.0362243  30.6579053
  12.8263058  84.6523554  25.6293975  13.7555118  84.8034714  25.4562942
  12.4054088  84.7407575  24.7742621  11.6251390  88.6774219  23.3992512
  11.4862475  88.3093003  24.2718450  10.8365986  89.1921858  23.2276470
  13.1756605  88.0555821  20.7881350  12.8406437  88.0156591  21.6839000
  12.6760550  87.3900537  20.3151760   7.1500849  83.4623451  26.3133931
   7.0120647  82.7303690  26.9145470   8.0605772  83.3732351  26.0318119
   9.7783149  83.1743411  25.8017611  10.4882768  82.5336603  25.7604229
   9.7352458  83.4256306  26.7243791  17.7669928  90.1110764  28.7224190
  17.7082474  89.4269984  28.0554773  18.1689446  90.8529754  28.2704816
   8.4912083  80.1608629  27.6213250   7.9549440  79.7099367  28.2734847
   7.9028792  80.2954537  26.8783715  17.7687335  88.0750348  26.9538170
  16.8814114  87.7376270  27.0764568  18.3385886  87.3433379  27.1906935
   4.2251205  79.2964636  24.7066245   4.1409393  78.6890306  23.9716655
   3.4033911  79.7873655  24.7075741  11.2988489  92.7351800  23.9199413
  11.2258660  93.5406772  24.4318717  10.8565882  92.9343766  23.0947434
  14.3974918  77.7818200  20.0736440  14.8943618  77.0288162  19.7537510
  13.6261900  77.8182516  19.5079649  22.2504676  83.4858565  21.7154731
  22.2394552  84.3683281  21.3448664  21.3822055  83.1330116  21.5209268
  13.7587172  92.6338634  26.0757571  14.4715144  93.2686099  26.0033473
  13.2677201  92.7302500  25.2597573  15.4804699  86.5389887  17.6474863
  14.5460978  86.6591349  17.4779567  15.6581368  85.6362354  17.3834873
  10.9809887  79.9235583  19.8008124  10.6107675  79.3706623  20.4889030
  11.4768980  79.3193716  19.2483124  18.8677251  82.3807206  18.1824897
  19.3337703  83.2135198  18.1085200  19.3184751  81.9152188  18.8870156
   8.8099086  90.3833078  26.8963142   9.5108545  91.0169561  27.0492537
   8.3394201  90.7247809  26.1358782  16.9353482  88.7251028  15.1811049
  17.2113326  88.6107622  16.0904923  16.0657980  88.3268512  15.1423222
  16.8393913  74.7487793  22.2215799  15.9256993  74.9792020  22.3898006
  17.2687015  74.8326237  23.0729831  16.6100372  82.9377685  24.7215693
  15.9571822  83.1853593  24.0668145  16.9880752  82.1241823  24.3878170
  12.6587945  83.6797496  31.2081730  11.9828582  83.5791626  31.8784105
  13.4815579  83.5236710  31.6717727  11.4010728  94.9864424  25.4439346
  11.9529036  95.1496045  26.2088431  11.7416921  95.5768862  24.7719371
   6.3775221  77.3339574  26.0461230   6.4416547  78.1954404  25.6338628
   6.3142341  76.7213575  25.3133589   5.8527493  79.4062706  29.6934265
   6.4799532  79.0239783  30.3071789   4.9955412  79.1876908  30.0589957
  16.2521602  89.8125681  31.2988000  16.7961506  90.4255640  30.8042955
  15.6708447  90.3705260  31.8155013  14.5379115  92.9346399  22.4303028
  14.4130254  92.1336139  21.9213973  15.1958206  93.4292593  21.9416998
   6.1587283  79.2895132  21.6080168   5.4373869  79.9031099  21.4687641
   6.9480539  79.8252897  21.5296814  16.6014023  90.7355419  24.0582578
  15.6544359  90.6160771  23.9860905  16.9496796  89.8477917  24.1408839
   8.9613597  76.6249558  27.8820820   9.4847998  76.8711855  28.6447129
   8.7425930  77.4569593  27.4623957  13.6060457  90.5308136  20.2586930
  13.4585419  89.6024843  20.4394500  14.4313950  90.5528226  19.7744005
  17.2094578  91.3536694  21.3451803  18.1341126  91.1479556  21.2076254
  17.0409882  91.1053095  22.2541144  10.1666142  77.5663253  25.5670490
   9.8262962  76.7671066  25.9691170   9.4605148  77.8664964  24.9947324
  10.8182614  74.6512566  24.0197813  11.6408683  74.1773044  23.8976704
  11.0620677  75.4303050  24.5196500  13.6021971  78.3845973  15.2519047
  13.8185585  79.2670611  14.9507876  13.1216038  77.9932187  14.5224689
   8.3421192  81.3431686  21.8289792   8.1965773  81.6571990  22.7214074
   7.8646396  81.9616587  21.2760691  10.2017575  78.3334234  21.8770682
  10.1879144  77.4375328  21.5402980  10.9190003  78.3404898  22.5108968
  12.0543706  78.7671575  23.9223809  11.7961484  79.6888645  23.9208139
  11.5228746  78.3702009  24.6124273  16.9989895  91.8722362  16.7013894
  17.1726772  91.3068784  15.9487747  17.4918786  92.6723257  16.5193384
   2.8166854  83.8837031  24.7677453   2.2720323  84.6596839  24.8997728
   3.6946204  84.2307835  24.6096575   9.6054471  77.2148615  17.1458252
   9.7270382  76.2865261  17.3449139   9.3156513  77.2287301  16.2336567
  12.4745662  74.9003525  20.2824972  12.4967358  74.9642858  19.3276951
  12.8913721  74.0608034  20.4765478  22.8529286  84.6358785  18.3204194
  23.2960432  83.8866110  17.9223317  21.9755796  84.6268921  17.9377926
   3.6032876  83.0106927  27.6607610   2.8614612  83.1589562  28.2472240
   3.2825621  83.2715193  26.7974359  19.8856490  88.6388832  15.3298123
  20.4107814  88.9776104  14.6047443  19.7978843  87.7035847  15.1461258
  11.5476539  92.5522905  27.4588000  11.8563665  92.3072052  28.3310700
  12.3452021  92.7569544  26.9706870   9.0895551  78.7280612  31.3548184
   9.1383706  79.6042735  30.9725954   9.6318065  78.1858005  30.7819828
  19.5750396  89.2721735  30.6349321  18.7845940  89.2545874  30.0953821
  19.3383751  89.8110029  31.3898358  19.6948271  86.1214202  27.9482050
  19.7446276  85.9564209  28.8897573  19.5862195  85.2541461  27.5579931
  16.9852034  82.1045130  29.2641357  17.8861897  81.9651595  28.9725354
  17.0600008  82.2699585  30.2039534  11.3194839  79.4811984  28.1094543
  10.4498149  79.7745551  27.8377132  11.5554319  80.0652429  28.8301807
  21.1966468  88.5411143  28.1924071  20.9051277  88.9041124  29.0287532
  20.5838599  87.8278151  28.0137404  22.3962151  86.1064023  20.7126642
  23.2309042  86.5453827  20.8764202  22.5321279  85.6302676  19.8934887
  19.4453656  83.6643758  26.6604129  19.9207778  83.8571404  25.8522981
  18.5219222  83.7202944  26.4147513  14.0233873  75.6991601  25.6259963
  14.5415817  76.4352628  25.3006452  13.6689006  76.0055595  26.4606722
  14.2746467  72.1191884  21.1460860  14.5548221  71.4515073  21.7721286
  15.0597074  72.3120980  20.6335524  18.1455325  80.5409518  24.8932435
  19.0972748  80.6407616  24.9144659  17.9758776  79.7487786  25.4030519
  16.1669705  77.6265101  25.0791836  15.5719637  77.9070114  24.3838325
  15.8819402  78.1159002  25.8508577  20.6243403  83.7615638  24.0074735
  20.5919723  82.8231638  24.1934419  21.2344027  83.8399674  23.2740560
  20.7737892  80.5526681  24.0533018  20.2576940  79.7685138  23.8662947
  21.6577840  80.2245398  24.2179537  18.4348619  74.2967697  20.0128831
  18.2373440  73.9882785  20.8972163  19.0448324  75.0229336  20.1426760
  26.4419953  84.8231644  23.1480772  27.1723342  84.5616933  23.7088475
  25.8326899  84.0860366  23.1882839  24.5235250  82.9639507  23.7455223
  23.7968414  82.8295472  23.1371714  24.1082537  83.2716336  24.5511941
  12.3465427  86.6829437  31.5102596  13.2668436  86.8608036  31.7042642
  12.3115010  85.7385482  31.3582295   5.3427499  84.5930471  24.1525377
   5.5613509  85.5247579  24.1713411   5.7553273  84.2338446  24.9380181
  12.2631717  75.0998557  16.1401065  11.4532445  74.7545642  16.5156311
  12.9516134  74.7906100  16.7288677  14.1922265  74.1776604  17.7625362
  14.7453304  74.5972057  18.4215385  14.4292352  73.2512352  17.8048318
  10.2155365  80.1663677  33.5428126  10.1152091  81.1158034  33.4740217
   9.9976907  79.8381916  32.6704196  17.5701072  76.2877129  17.2704026
  16.9899741  76.9461933  16.8882079  17.3037005  75.4654473  16.8591444
  16.0204639  75.6882186  19.4725347  16.5204417  75.7998721  18.6639665
  16.6640247  75.3843239  20.1126155  10.0786635  83.5960816  32.3593187
   9.5953716  84.3961176  32.5657077  10.1647574  83.6068761  31.4060631
   6.0059972  87.4865351  24.3961621   6.9603226  87.4549293  24.3291553
   5.8072496  87.0255974  25.2111847   6.5959354  86.0566467  26.9632419
   7.4152243  86.5510545  26.9867256   6.8696162  85.1398435  26.9349986
  16.3525950  78.4477219  16.3260374  15.4651805  78.7326870  16.1080569
  16.7679939  78.2870982  15.4787651  19.7040487  78.4723740  20.0414714
  20.4800877  78.9620192  20.3139331  18.9788621  78.8981794  20.4986583
  22.1413045  79.1851359  21.0988654  22.7357536  78.9447095  20.3881963
  22.2139629  78.4658490  21.7262191  16.3266974  83.9631755  16.5410665
  16.2702176  84.4200306  15.7018297  16.8795317  83.2022440  16.3633507
  20.1371780  79.7521487  17.3660784  19.8808714  79.3518123  18.1968992
  19.5124648  80.4665281  17.2410923  24.4484118  82.4917560  19.8732076
  23.8883676  82.5610749  20.6463638  23.8427621  82.3158545  19.1531572
  17.0601753  85.1536536  13.8363194  17.0050557  84.9880808  12.8951638
  16.4347809  85.8612569  13.9925383   1.8494268  80.3904601  27.6624616
   2.4953132  79.8803555  28.1511841   1.6411420  81.1273282  28.2368041
  14.3747661  87.4585448  33.1616757  15.2438820  87.6326100  32.8003391
  13.8954412  88.2779865  33.0392486  10.3697879  74.6544645  13.4148512
  10.3576549  75.5986485  13.5716783  11.2621301  74.4714791  13.1207973
   8.5433841  94.5782549  24.8406190   9.4461088  94.6106159  25.1572685
   8.3171211  93.6483000  24.8552526  14.1849998  71.2487422  17.6694449
  13.4182394  70.6945909  17.8151131  14.5960703  71.3209291  18.5308601
   6.1891759  77.5372218  31.7599630   7.0523221  77.1809023  31.9702955
   5.6157170  77.1986112  32.4475034  26.0340136  99.1674074  22.5662031
  26.6718546  99.0480821  21.8625371  25.9160979 100.1154918  22.6249983
  22.8429843  99.1201502  22.5023556  22.5048354  99.0042567  21.6144091
  23.7119611  98.7192667  22.4824562  23.3249626 100.2736354  28.4609761
  23.3138266  99.8789152  27.5890265  23.4870265  99.5402426  29.0543533
  20.0456887 103.0573466  27.4088945  19.7546753 103.9619096  27.2935612
  20.6813871 103.0989993  28.1233015  20.9713094 100.4350314  23.9990305
  21.5676666 100.2106337  23.2847268  21.0288065  99.6935060  24.6015753
  25.5881405  96.8925528  19.6415239  26.3744494  96.4744951  19.2905656
  25.8520109  97.7971620  19.8096888  30.9889832  96.8300761  20.5448218
  31.7215004  96.2599978  20.7786047  30.2329188  96.4422362  20.9854723
  22.6065952  99.2528003  17.7411560  22.2424159  98.7258624  18.4524482
  23.4633068  98.8626472  17.5678046  28.5115252  90.5422335  25.0042826
  28.1798577  91.4117746  24.7804041  27.9160866  90.2258619  25.6836857
  25.0046772 102.7434881  24.4038739  24.7047495 103.6459920  24.2954546
  24.6597831 102.4767064  25.2559892  18.4559253  99.1948678  20.4375444
  17.5309750  99.0624892  20.6453135  18.7043667  99.9742897  20.9345386
  28.4043916  95.2617421  22.0836176  27.4960793  95.1932830  21.7894937
  28.3531511  95.7389366  22.9118002  22.4784781  96.6807067  30.0271074
  21.7018115  97.2400987  30.0173938  23.1175344  97.1663850  30.5485944
  30.2705562  93.4633860  23.8614050  29.6279942  93.7566393  23.2153845
  29.7660491  93.3486780  24.6667247  27.9245726  97.2097033  14.5499910
  28.8363582  97.4424420  14.3747607  27.4155373  97.7934077  13.9874988
  20.7331154  99.4892520  29.5889041  21.4745838 100.0277564  29.3123864
  20.0268139 100.1158809  29.7460593  26.2086493 101.6321661  28.1861202
  26.6169849 101.1904071  27.4415835  25.4863755 101.0574288  28.4395395
  22.5617563  96.5694268  25.5594759  23.4078759  96.9933681  25.7029408
  22.5016201  95.9127892  26.2533322  26.5315308 102.1922851  21.9413491
  25.9024170 102.3568566  21.2389559  26.1440970 102.6064461  22.7124455
  30.4104540 103.1277289  19.2957855  29.7255578 103.5076191  18.7454888
  30.4948389 103.7372616  20.0289803  25.7117009  94.2298636  27.2175933
  25.4677941  94.9840696  26.6810208  25.9876939  94.6083984  28.0523180
  27.6655472 100.7737248  25.8953198  27.8772367 101.4169008  25.2187579
  27.6185220  99.9399565  25.4275128  25.2681700  93.3855069  22.7989771
  24.4066179  93.6836322  23.0906508  25.2944135  93.6025468  21.8670803
  22.0843270 101.9297259  19.2063576  22.5481615 102.2084962  18.4168199
  21.8200068 101.0280704  19.0236667  18.9767351 101.4768741  22.1443339
  19.5468708 101.9056009  21.5060824  19.5675463 101.1951326  22.8427525
  19.4692517  96.6432168  30.3904351  18.8391178  97.3248449  30.6239748
  19.3628605  96.5315250  29.4457489  28.7801299 103.6509204  24.0675556
  29.6018743 103.2489391  23.7858237  28.7763702 103.5477438  25.0191672
  22.5457903 103.1993247  26.2236266  22.6102335 103.6613654  27.0594438
  21.8368827 102.5690612  26.3518576  13.0475193  96.5634455  23.7485266
  13.2983231  97.4481465  24.0142842  13.5834741  96.3839056  22.9760358
  36.8707293  99.9947952  20.4160527  36.1171001  99.4255350  20.2604532
  37.0054834  99.9610617  21.3631162  18.7473260  90.9452934  32.7529602
  18.3540206  90.3919133  33.4277246  19.5639401  91.2563513  33.1436119
  21.6641221  92.3610813  30.3449858  22.4050935  92.9617967  30.2654321
  21.8959144  91.6188451  29.7867901  16.8082559  97.5467181  28.6228088
  16.6936074  96.6452438  28.9235187  15.9527077  97.7930877  28.2712905
  23.8874397 105.4884921  30.2215589  23.4438251 104.7021300  29.9036493
  24.5491611 105.6764071  29.5559479  18.6461518 107.0180723  24.7476267
  19.1968943 106.8897786  23.9753261  17.8072994 107.3175612  24.3971160
  25.9855635 105.7687721  28.2496990  25.9674110 106.5896602  27.7577259
  26.9075555 105.6441796  28.4747131  22.4428689 103.2831850  29.0920498
  22.9757026 102.5220139  28.8619806  21.9142770 102.9905502  29.8344653
  25.6098384  88.3891916  24.6214140  25.2662654  89.2793558  24.5453251
  25.9777347  88.1993574  23.7583725  23.1595778  93.2250228  18.1871814
  22.3037374  92.8357079  18.0077452  23.5722730  93.3042189  17.3271599
  24.6894925  90.7596572  22.5863373  24.1859720  90.7226707  21.7731179
  24.9825531  91.6689314  22.6460030  20.9337810  90.8435301  21.5929555
  21.7990807  90.6478110  21.2335444  21.0015319  90.6145653  22.5198912
  30.5482941 101.1332882  15.0639749  29.7712384 100.7944042  14.6194911
  31.2274422 101.1385505  14.3894714  25.3634970  96.2527620  14.9546356
  25.0585106  96.5673769  15.8056499  26.3165412  96.3309039  14.9973689
  28.7874248 100.6066863  21.7206357  28.1297922 101.2966125  21.8086485
  29.5914647 100.9963295  22.0640343  18.5400129  93.0737509  18.9645922
  19.1143881  92.8512691  18.2319115  19.1271112  93.1426204  19.7174523
  27.5979707  98.9611236  19.7710298  28.1111588  99.5941228  20.2732008
  28.2480931  98.3612432  19.4053658  20.8422797  89.9478758  17.6920991
  20.1887210  89.6327775  17.0677606  20.8003271  89.3254499  18.4180814
  24.0760538  96.4360692  22.0168639  23.1583099  96.6575639  21.8590327
  24.4920681  96.5107002  21.1580346  24.8595585  97.8352107  17.1471319
  25.6067404  98.3473504  16.8378441  25.1287175  97.5136160  18.0075713
  28.3641503 103.9417238  17.8989441  27.9103830 103.1008147  17.9554631
  27.7335470 104.5778636  18.2364221  27.3074422  94.8709224  19.1290108
  26.5697179  94.3586610  19.4600351  27.5601196  94.4309605  18.3173385
  26.8074442 105.7793734  18.8339259  27.0997417 106.3398791  18.1151625
  27.3173063 106.0722295  19.5892418  27.4086050  87.6485476  19.7231878
  27.7144927  86.7882839  19.4357793  28.1338655  88.2403096  19.5230872
  21.6807130  97.9439269  20.2308069  21.7355739  96.9913105  20.1550545
  20.8698332  98.0998708  20.7149367  19.6199489  96.5616328  17.9898448
  18.8067355  96.8610499  18.3963640  20.1158484  96.1672017  18.7072930
  25.2173701  97.0258153  26.8213342  25.5723089  97.2529626  27.6807807
  25.8645832  97.3576530  26.1990597  30.9471438 100.1476589  17.5262671
  30.8089337 100.3378185  16.5983860  30.5907657 100.9095972  17.9830722
  19.1113564  94.1334684  23.6059683  19.7512944  93.9923443  22.9082646
  18.2791095  93.8469197  23.2298285  30.9740818 102.2153116  22.5373942
  31.4077324 102.1228405  23.3856996  31.6872398 102.1910616  21.8993958
  24.7068713 105.8155210  24.0707043  24.7605735 106.3846146  24.8384759
  23.8383494 105.9857095  23.7061080  16.1142181  94.1035009  18.3832669
  16.3748998  95.0180342  18.2741830  16.9359353  93.6359451  18.5329282
  17.5867106  95.5172766  25.5531494  18.2590159  95.3090128  24.9044143
  16.7596892  95.3194852  25.1136726  31.8356367 102.2576816  25.0706827
  32.0292257 103.1622627  25.3166102  31.7356985 101.7984235  25.9045412
  23.4892678  92.1434707  27.5697155  22.8420593  92.8424657  27.4761631
  24.2593693  92.5770851  27.9373403  26.8971476 102.4083559  30.6447708
  26.7456982 102.1794111  29.7277792  26.8876155 103.3654161  30.6579053
  23.6656812  99.9815472  25.6293975  24.5948872 100.1326631  25.4562942
  23.2447842 100.0699493  24.7742621  22.4645144 104.0066136  23.3992512
  22.3256230 103.6384921  24.2718450  21.6759740 104.5213776  23.2276470
  24.0150359 103.3847739  20.7881350  23.6800192 103.3448509  21.6839000
  23.5154305 102.7192455  20.3151760  17.9894603  98.7915369  26.3133931
  17.8514401  98.0595608  26.9145470  18.8999527  98.7024269  26.0318119
  20.6176904  98.5035328  25.8017611  21.3276522  97.8628521  25.7604229
  20.5746212  98.7548223  26.7243791  28.6063683 105.4402682  28.7224190
  28.5476229 104.7561902  28.0554773  29.0083201 106.1821672  28.2704816
  19.3305838  95.4900546  27.6213250  18.7943195  95.0391285  28.2734847
  18.7422546  95.6246455  26.8783715  28.6081090 103.4042266  26.9538170
  27.7207869 103.0668187  27.0764568  29.1779641 102.6725297  27.1906935
  15.0644959  94.6256554  24.7066245  14.9803148  94.0182223  23.9716655
  14.2427665  95.1165572  24.7075741  22.1382243 108.0643718  23.9199413
  22.0652415 108.8698689  24.4318717  21.6959636 108.2635684  23.0947434
  25.2368673  93.1110117  20.0736440  25.7337372  92.3580080  19.7537510
  24.4655654  93.1474434  19.5079649  33.0898430  98.8150483  21.7154731
  33.0788307  99.6975198  21.3448664  32.2215810  98.4622034  21.5209268
  24.5980927 107.9630552  26.0757571  25.3108899 108.5978017  26.0033473
  24.1070955 108.0594418  25.2597573  26.3198454 101.8681805  17.6474863
  25.3854732 101.9883267  17.4779567  26.4975122 100.9654271  17.3834873
  21.8203642  95.2527500  19.8008124  21.4501429  94.6998541  20.4889030
  22.3162734  94.6485634  19.2483124  29.7071005  97.7099124  18.1824897
  30.1731457  98.5427116  18.1085200  30.1578505  97.2444106  18.8870156
  19.6492840 105.7124995  26.8963142  20.3502300 106.3461478  27.0492537
  19.1787955 106.0539727  26.1358782  27.7747236 104.0542945  15.1811049
  28.0507080 103.9399540  16.0904923  26.9051735 103.6560430  15.1423222
  27.6787668  90.0779711  22.2215799  26.7650748  90.3083938  22.3898006
  28.1080769  90.1618155  23.0729831  27.4494126  98.2669603  24.7215693
  26.7965576  98.5145510  24.0668145  27.8274506  97.4533741  24.3878170
  23.4981699  99.0089414  31.2081730  22.8222336  98.9083543  31.8784105
  24.3209333  98.8528628  31.6717727  22.2404482 110.3156341  25.4439346
  22.7922790 110.4787963  26.2088431  22.5810676 110.9060779  24.7719371
  17.2168975  92.6631491  26.0461230  17.2810302  93.5246322  25.6338628
  17.1536096  92.0505493  25.3133589  16.6921248  94.7354624  29.6934265
  17.3193287  94.3531701  30.3071789  15.8349167  94.5168826  30.0589957
  27.0915356 105.1417599  31.2988000  27.6355260 105.7547557  30.8042955
  26.5102201 105.6997177  31.8155013  25.3772869 108.2638317  22.4303028
  25.2524009 107.4628057  21.9213973  26.0351961 108.7584510  21.9416998
  16.9981038  94.6187049  21.6080168  16.2767623  95.2323017  21.4687641
  17.7874293  95.1544814  21.5296814  27.4407778 106.0647337  24.0582578
  26.4938113 105.9452688  23.9860905  27.7890551 105.1769835  24.1408839
  19.8007351  91.9541476  27.8820820  20.3241753  92.2003772  28.6447129
  19.5819684  92.7861511  27.4623957  24.4454211 105.8600053  20.2586930
  24.2979174 104.9316761  20.4394500  25.2707705 105.8820144  19.7744005
  28.0488333 106.6828612  21.3451803  28.9734880 106.4771473  21.2076254
  27.8803636 106.4345013  22.2541144  21.0059896  92.8955171  25.5670490
  20.6656717  92.0962984  25.9691170  20.2998902  93.1956882  24.9947324
  21.6576368  89.9804483  24.0197813  22.4802437  89.5064962  23.8976704
  21.9014432  90.7594967  24.5196500  24.4415725  93.7137891  15.2519047
  24.6579340  94.5962529  14.9507876  23.9609793  93.3224104  14.5224689
  19.1814947  96.6723604  21.8289792  19.0359528  96.9863907  22.7214074
  18.7040150  97.2908504  21.2760691  21.0411330  93.6626152  21.8770682
  21.0272898  92.7667245  21.5402980  21.7583758  93.6696816  22.5108968
  22.8937460  94.0963492  23.9223809  22.6355238  95.0180563  23.9208139
  22.3622501  93.6993927  24.6124273  27.8383649 107.2014279  16.7013894
  28.0120527 106.6360702  15.9487747  28.3312540 108.0015174  16.5193384
  13.6560609  99.2128948  24.7677453  13.1114077  99.9888756  24.8997728
  14.5339959  99.5599753  24.6096575  20.4448226  92.5440532  17.1458252
  20.5664137  91.6157179  17.3449139  20.1550268  92.5579218  16.2336567
  23.3139416  90.2295443  20.2824972  23.3361113  90.2934776  19.3276951
  23.7307475  89.3899951  20.4765478  33.6923040  99.9650702  18.3204194
  34.1354186  99.2158028  17.9223317  32.8149551  99.9560839  17.9377926
  14.4426631  98.3398845  27.6607610  13.7008367  98.4881480  28.2472240
  14.1219375  98.6007110  26.7974359  30.7250245 103.9680749  15.3298123
  31.2501569 104.3068022  14.6047443  30.6372597 103.0327765  15.1461258
  22.3870293 107.8814823  27.4588000  22.6957420 107.6363970  28.3310700
  23.1845775 108.0861461  26.9706870  19.9289305  94.0572530  31.3548184
  19.9777461  94.9334653  30.9725954  20.4711819  93.5149923  30.7819828
  30.4144151 104.6013653  30.6349321  29.6239695 104.5837792  30.0953821
  30.1777505 105.1401947  31.3898358  30.5342026 101.4506119  27.9482050
  30.5840031 101.2856127  28.8897573  30.4255949 100.5833378  27.5579931
  27.8245788  97.4337047  29.2641357  28.7255651  97.2943512  28.9725354
  27.8993763  97.5991502  30.2039534  22.1588594  94.8103902  28.1094543
  21.2891903  95.1037468  27.8377132  22.3948074  95.3944347  28.8301807
  32.0360223 103.8703061  28.1924071  31.7445031 104.2333041  29.0287532
  31.4232354 103.1570069  28.0137404  33.2355905 101.4355941  20.7126642
  34.0702796 101.8745745  20.8764202  33.3715034 100.9594594  19.8934887
  30.2847411  98.9935676  26.6604129  30.7601533  99.1863322  25.8522981
  29.3612976  99.0494861  26.4147513  24.8627627  91.0283519  25.6259963
  25.3809571  91.7644546  25.3006452  24.5082760  91.3347512  26.4606722
  25.1140222  87.4483802  21.1460860  25.3941975  86.7806991  21.7721286
  25.8990829  87.6412897  20.6335524  28.9849080  95.8701436  24.8932435
  29.9366503  95.9699533  24.9144659  28.8152530  95.0779704  25.4030519
  27.0063459  92.9557019  25.0791836  26.4113392  93.2362032  24.3838325
  26.7213156  93.4450920  25.8508577  31.4637158  99.0907555  24.0074735
  31.4313478  98.1523556  24.1934419  32.0737781  99.1691592  23.2740560
  31.6131646  95.8818599  24.0533018  31.0970695  95.0977055  23.8662947
  32.4971595  95.5537315  24.2179537  29.2742373  89.6259614  20.0128831
  29.0767194  89.3174702  20.8972163  29.8842079  90.3521253  20.1426760
  37.2813708 100.1523562  23.1480772  38.0117096  99.8908850  23.7088475
  36.6720653  99.4152284  23.1882839  35.3629005  98.2931425  23.7455223
  34.6362168  98.1587390  23.1371714  34.9476292  98.6008253  24.5511941
  23.1859181 102.0121354  31.5102596  24.1062191 102.1899953  31.7042642
  23.1508764 101.0677400  31.3582295  16.1821254  99.9222389  24.1525377
  16.4007263 100.8539497  24.1713411  16.5947028  99.5630363  24.9380181
  23.1025471  90.4290474  16.1401065  22.2926200  90.0837559  16.5156311
  23.7909888  90.1198018  16.7288677  25.0316020  89.5068521  17.7625362
  25.5847058  89.9263975  18.4215385  25.2686106  88.5804269  17.8048318
  21.0549119  95.4955595  33.5428126  20.9545846  96.4449952  33.4740217
  20.8370661  95.1673834  32.6704196  28.4094827  91.6169046  17.2704026
  27.8293496  92.2753850  16.8882079  28.1430760  90.7946391  16.8591444
  26.8598393  91.0174104  19.4725347  27.3598172  91.1290639  18.6639665
  27.5034001  90.7135157  20.1126155  20.9180389  98.9252734  32.3593187
  20.4347471  99.7253094  32.5657077  21.0041328  98.9360679  31.4060631
  16.8453727 102.8157268  24.3961621  17.7996980 102.7841211  24.3291553
  16.6466250 102.3547892  25.2111847  17.4353109 101.3858384  26.9632419
  18.2545998 101.8802463  26.9867256  17.7089916 100.4690353  26.9349986
  27.1919705  93.7769137  16.3260374  26.3045560  94.0618787  16.1080569
  27.6073694  93.6162900  15.4787651  30.5434241  93.8015658  20.0414714
  31.3194631  94.2912110  20.3139331  29.8182375  94.2273712  20.4986583
  32.9806800  94.5143277  21.0988654  33.5751290  94.2739013  20.3881963
  33.0533383  93.7950407  21.7262191  27.1660729  99.2923673  16.5410665
  27.1095930  99.7492224  15.7018297  27.7189071  98.5314357  16.3633507
  30.9765535  95.0813405  17.3660784  30.7202469  94.6810040  18.1968992
  30.3518403  95.7957198  17.2410923  35.2877872  97.8209478  19.8732076
  34.7277430  97.8902667  20.6463638  34.6821376  97.6450462  19.1531572
  27.8995508 100.4828454  13.8363194  27.8444312 100.3172725  12.8951638
  27.2741563 101.1904487  13.9925383  12.6888023  95.7196518  27.6624616
  13.3346887  95.2095472  28.1511841  12.4805174  96.4565200  28.2368041
  25.2141415 102.7877366  33.1616757  26.0832575 102.9618018  32.8003391
  24.7348167 103.6071783  33.0392486  21.2091633  89.9836563  13.4148512
  21.1970303  90.9278403  13.5716783  22.1015055  89.8006708  13.1207973
  19.3827595 109.9074467  24.8406190  20.2854842 109.9398077  25.1572685
  19.1564965 108.9774918  24.8552526  25.0243753  86.5779340  17.6694449
  24.2576149  86.0237826  17.8151131  25.4354458  86.6501208  18.5308601
  17.0285514  92.8664135  31.7599630  17.8916975  92.5100940  31.9702955
  16.4550925  92.5278030  32.4475034  36.8733891 114.4965992  22.5662031
  37.5112301 114.3772739  21.8625371  36.7554734 115.4446836  22.6249983
  33.6823597 114.4493420  22.5023556  33.3442109 114.3334484  21.6144091
  34.5513365 114.0484585  22.4824562  34.1643380 115.6028272  28.4609761
  34.1532021 115.2081070  27.5890265  34.3264020 114.8694344  29.0543533
  36.4275159 112.2217446  19.6415239  37.2138249 111.8036869  19.2905656
  36.6913864 113.1263538  19.8096888  41.8283586 112.1592679  20.5448218
  42.5608758 111.5891896  20.7786047  41.0722942 111.7714279  20.9854723
  33.4459706 114.5819920  17.7411560  33.0817913 114.0550541  18.4524482
  34.3026822 114.1918389  17.5678046  39.3509007 105.8714253  25.0042826
  39.0192332 106.7409664  24.7804041  38.7554620 105.5550537  25.6836857
  39.2437670 110.5909339  22.0836176  38.3354547 110.5224747  21.7894937
  39.1925266 111.0681284  22.9118002  33.3178536 112.0098985  30.0271074
  32.5411870 112.5692905  30.0173938  33.9569099 112.4955768  30.5485944
  41.1099317 108.7925777  23.8614050  40.4673697 109.0858311  23.2153845
  40.6054245 108.6778698  24.6667247  38.7639480 112.5388951  14.5499910
  39.6757336 112.7716337  14.3747607  38.2549127 113.1225995  13.9874988
  33.4011318 111.8986185  25.5594759  34.2472513 112.3225599  25.7029408
  33.3409956 111.2419810  26.2533322  36.5510763 109.5590554  27.2175933
  36.3071695 110.3132614  26.6810208  36.8270694 109.9375901  28.0523180
  38.5049226 116.1029166  25.8953198  38.7166121 116.7460926  25.2187579
  38.4578974 115.2691482  25.4275128  36.1075455 108.7146987  22.7989771
  35.2459934 109.0128240  23.0906508  36.1337890 108.9317385  21.8670803
  30.3086272 111.9724086  30.3904351  29.6784933 112.6540367  30.6239748
  30.2022360 111.8607168  29.4457489  47.7101047 115.3239870  20.4160527
  46.9564755 114.7547268  20.2604532  47.8448588 115.2902534  21.3631162
  29.5867015 106.2744852  32.7529602  29.1933960 105.7211051  33.4277246
  30.4033155 106.5855430  33.1436119  32.5034976 107.6902731  30.3449858
  33.2444689 108.2909884  30.2654321  32.7352898 106.9480369  29.7867901
  36.4492139 103.7183834  24.6214140  36.1056408 104.6085476  24.5453251
  36.8171101 103.5285492  23.7583725  33.9989532 108.5542146  18.1871814
  33.1431129 108.1648996  18.0077452  34.4116484 108.6334107  17.3271599
  35.5288679 106.0888489  22.5863373  35.0253475 106.0518624  21.7731179
  35.8219286 106.9981232  22.6460030  31.7731565 106.1727219  21.5929555
  32.6384562 105.9770028  21.2335444  31.8409074 105.9437571  22.5198912
  41.3876695 116.4624800  15.0639749  40.6106138 116.1235959  14.6194911
  42.0668176 116.4677423  14.3894714  36.2028725 111.5819537  14.9546356
  35.8978860 111.8965686  15.8056499  37.1559167 111.6600957  14.9973689
  39.6268002 115.9358781  21.7206357  38.9691677 116.6258042  21.8086485
  40.4308402 116.3255213  22.0640343  29.3793884 108.4029427  18.9645922
  29.9537636 108.1804608  18.2319115  29.9664866 108.4718121  19.7174523
  38.4373461 114.2903154  19.7710298  38.9505343 114.9233146  20.2732008
  39.0874685 113.6904349  19.4053658  31.6816552 105.2770676  17.6920991
  31.0280964 104.9619693  17.0677606  31.6397026 104.6546416  18.4180814
  34.9154292 111.7652609  22.0168639  33.9976853 111.9867556  21.8590327
  35.3314436 111.8398920  21.1580346  35.6989340 113.1644025  17.1471319
  36.4461159 113.6765422  16.8378441  35.9680929 112.8428078  18.0075713
  38.1468177 110.2001141  19.1290108  37.4090934 109.6878527  19.4600351
  38.3994950 109.7601523  18.3173385  38.2479804 102.9777393  19.7231878
  38.5538681 102.1174757  19.4357793  38.9732409 103.5695013  19.5230872
  32.5200884 113.2731186  20.2308069  32.5749494 112.3205023  20.1550545
  31.7092086 113.4290625  20.7149367  30.4593244 111.8908246  17.9898448
  29.6461109 112.1902417  18.3963640  30.9552238 111.4963935  18.7072930
  36.0567456 112.3550071  26.8213342  36.4116843 112.5821544  27.6807807
  36.7039587 112.6868447  26.1990597  41.7865193 115.4768506  17.5262671
  41.6483091 115.6670102  16.5983860  41.4301411 116.2387889  17.9830722
  29.9507319 109.4626602  23.6059683  30.5906698 109.3215361  22.9082646
  29.1184849 109.1761115  23.2298285  41.8134572 117.5445033  22.5373942
  42.2471079 117.4520322  23.3856996  42.5266153 117.5202534  21.8993958
  26.9535935 109.4326927  18.3832669  27.2142752 110.3472260  18.2741830
  27.7753107 108.9651369  18.5329282  28.4260860 110.8464684  25.5531494
  29.0983914 110.6382046  24.9044143  27.5990647 110.6486770  25.1136726
  42.6750122 117.5868734  25.0706827  42.8686012 118.4914545  25.3166102
  42.5750740 117.1276153  25.9045412  34.3286432 107.4726625  27.5697155
  33.6814347 108.1716574  27.4761631  35.0987448 107.9062769  27.9373403
  34.5050567 115.3107390  25.6293975  35.4342627 115.4618549  25.4562942
  34.0841597 115.3991410  24.7742621  31.4570658 113.8327246  25.8017611
  32.1670277 113.1920438  25.7604229  31.4139967 114.0840141  26.7243791
  30.1699592 110.8192464  27.6213250  29.6336949 110.3683202  28.2734847
  29.5816301 110.9538373  26.8783715  25.9038714 109.9548472  24.7066245
  25.8196902 109.3474141  23.9716655  25.0821420 110.4457490  24.7075741
  36.0762427 108.4402035  20.0736440  36.5731127 107.6871997  19.7537510
  35.3049409 108.4766352  19.5079649  43.9292185 114.1442401  21.7154731
  43.9182061 115.0267116  21.3448664  43.0609564 113.7913951  21.5209268
  32.6597396 110.5819418  19.8008124  32.2895184 110.0290458  20.4889030
  33.1556489 109.9777552  19.2483124  40.5464759 113.0391042  18.1824897
  41.0125212 113.8719033  18.1085200  40.9972260 112.5736023  18.8870156
  38.5181422 105.4071629  22.2215799  37.6044502 105.6375855  22.3898006
  38.9474524 105.4910073  23.0729831  38.2887881 113.5961521  24.7215693
  37.6359331 113.8437428  24.0668145  38.6668261 112.7825659  24.3878170
  34.3375454 114.3381332  31.2081730  33.6616091 114.2375461  31.8784105
  35.1603088 114.1820545  31.6717727  28.0562730 107.9923409  26.0461230
  28.1204056 108.8538240  25.6338628  27.9929850 107.3797411  25.3133589
  27.5315002 110.0646541  29.6934265  28.1587041 109.6823619  30.3071789
  26.6742921 109.8460743  30.0589957  27.8374792 109.9478967  21.6080168
  27.1161378 110.5614935  21.4687641  28.6268048 110.4836732  21.5296814
  30.6401106 107.2833394  27.8820820  31.1635507 107.5295690  28.6447129
  30.4213439 108.1153428  27.4623957  31.8453651 108.2247089  25.5670490
  31.5050471 107.4254902  25.9691170  31.1392657 108.5248800  24.9947324
  32.4970123 105.3096401  24.0197813  33.3196192 104.8356879  23.8976704
  32.7408186 106.0886885  24.5196500  35.2809480 109.0429809  15.2519047
  35.4973094 109.9254446  14.9507876  34.8003547 108.6516022  14.5224689
  30.0208701 112.0015522  21.8289792  29.8753282 112.3155825  22.7214074
  29.5433905 112.6200422  21.2760691  31.8805084 108.9918070  21.8770682
  31.8666653 108.0959163  21.5402980  32.5977512 108.9988734  22.5108968
  33.7331215 109.4255410  23.9223809  33.4748993 110.3472481  23.9208139
  33.2016255 109.0285845  24.6124273  31.2841980 107.8732450  17.1458252
  31.4057891 106.9449096  17.3449139  30.9944022 107.8871136  16.2336567
  34.1533170 105.5587360  20.2824972  34.1754867 105.6226694  19.3276951
  34.5701229 104.7191869  20.4765478  44.5316795 115.2942620  18.3204194
  44.9747941 114.5449945  17.9223317  43.6543305 115.2852756  17.9377926
  30.7683060 109.3864447  31.3548184  30.8171215 110.2626570  30.9725954
  31.3105574 108.8441840  30.7819828  41.3735780 116.7798037  27.9482050
  41.4233785 116.6148044  28.8897573  41.2649704 115.9125296  27.5579931
  38.6639543 112.7628965  29.2641357  39.5649406 112.6235430  28.9725354
  38.7387517 112.9283420  30.2039534  32.9982348 110.1395820  28.1094543
  32.1285657 110.4329386  27.8377132  33.2341828 110.7236265  28.8301807
  44.0749660 116.7647858  20.7126642  44.9096551 117.2037662  20.8764202
  44.2108788 116.2886512  19.8934887  41.1241165 114.3227593  26.6604129
  41.5995287 114.5155239  25.8522981  40.2006731 114.3786779  26.4147513
  35.7021382 106.3575437  25.6259963  36.2203326 107.0936464  25.3006452
  35.3476515 106.6639430  26.4606722  35.9533976 102.7775719  21.1460860
  36.2335730 102.1098908  21.7721286  36.7384583 102.9704815  20.6335524
  39.8242834 111.1993353  24.8932435  40.7760257 111.2991451  24.9144659
  39.6546285 110.4071622  25.4030519  37.8457214 108.2848936  25.0791836
  37.2507146 108.5653949  24.3838325  37.5606911 108.7742837  25.8508577
  42.3030912 114.4199473  24.0074735  42.2707232 113.4815474  24.1934419
  42.9131536 114.4983510  23.2740560  42.4525401 111.2110516  24.0533018
  41.9364449 110.4268973  23.8662947  43.3365349 110.8829233  24.2179537
  40.1136128 104.9551532  20.0128831  39.9160949 104.6466620  20.8972163
  40.7235833 105.6813171  20.1426760  48.1207462 115.4815480  23.1480772
  48.8510851 115.2200768  23.7088475  47.5114408 114.7444202  23.1882839
  46.2022759 113.6223342  23.7455223  45.4755923 113.4879307  23.1371714
  45.7870046 113.9300171  24.5511941  33.9419226 105.7582392  16.1401065
  33.1319954 105.4129477  16.5156311  34.6303643 105.4489936  16.7288677
  35.8709774 104.8360439  17.7625362  36.4240813 105.2555892  18.4215385
  36.1079861 103.9096187  17.8048318  31.8942873 110.8247512  33.5428126
  31.7939600 111.7741869  33.4740217  31.6764416 110.4965751  32.6704196
  39.2488581 106.9460964  17.2704026  38.6687250 107.6045768  16.8882079
  38.9824514 106.1238309  16.8591444  37.6992148 106.3466022  19.4725347
  38.1991926 106.4582556  18.6639665  38.3427756 106.0427075  20.1126155
  38.0313459 109.1061054  16.3260374  37.1439314 109.3910705  16.1080569
  38.4467448 108.9454818  15.4787651  41.3827995 109.1307575  20.0414714
  42.1588386 109.6204028  20.3139331  40.6576130 109.5565630  20.4986583
  43.8200554 109.8435195  21.0988654  44.4145045 109.6030931  20.3881963
  43.8927138 109.1242325  21.7262191  38.0054483 114.6215590  16.5410665
  37.9489685 115.0784142  15.7018297  38.5582826 113.8606275  16.3633507
  41.8159289 110.4105322  17.3660784  41.5596223 110.0101958  18.1968992
  41.1912157 111.1249116  17.2410923  46.1271627 113.1501395  19.8732076
  45.5671185 113.2194585  20.6463638  45.5215130 112.9742380  19.1531572
  38.7389262 115.8120372  13.8363194  38.6838066 115.6464643  12.8951638
  38.1135318 116.5196404  13.9925383  23.5281777 111.0488436  27.6624616
  24.1740641 110.5387390  28.1511841  23.3198929 111.7857118  28.2368041
  32.0485388 105.3128481  13.4148512  32.0364058 106.2570320  13.5716783
  32.9408810 105.1298626  13.1207973  35.8637507 101.9071257  17.6694449
  35.0969903 101.3529744  17.8151131  36.2748212 101.9793126  18.5308601
  27.8679268 108.1956053  31.7599630  28.7310730 107.8392858  31.9702955
  27.2944679 107.8569948  32.4475034  47.2885893 119.0475752  24.6214140
  46.9450162 119.9377393  24.5453251  47.6564856 118.8577409  23.7583725
  49.0873559 118.3069311  19.7231878  49.3932436 117.4466674  19.4357793
  49.8126164 118.8986931  19.5230872  46.7927731 118.1067637  21.1460860
  47.0729484 117.4390826  21.7721286  47.5778338 118.2996733  20.6335524
  50.9529882 120.2843450  20.0128831  50.7554703 119.9758538  20.8972163
  51.5629588 121.0105089  20.1426760  46.7031262 117.2363175  17.6694449
  45.9363658 116.6821662  17.8151131  47.1141967 117.3085044  18.5308601
   6.9276175  51.7880969  15.4469497   6.8688721  51.1040189  14.7800080
   7.3295693  52.5299959  14.9950123   5.4127849  51.4895886  18.0233307
   5.9567753  52.1025844  17.5288262   4.8314694  52.0475465  18.5400320
   8.7356643  50.9491940  17.3594628   7.9452187  50.9316079  16.8199127
   8.4989998  51.4880234  18.1143665  10.3572715  50.2181348  14.9169378
  10.0657523  50.5811329  15.7532839   9.7444846  49.5048356  14.7382710
   3.5353907  49.1355653  19.8862063   4.4045067  49.3096305  19.5248698
   3.0560659  49.9550070  19.7637793  15.1946383  60.8444279   9.2907338
  15.8324793  60.7251026   8.5870678  15.0767226  61.7925123   9.3495290
  12.0036089  60.7971707   9.2268863  11.6654601  60.6812772   8.3389397
  12.8725858  60.3962872   9.2069869  12.4855872  61.9506559  15.1855068
  12.4744513  61.5559357  14.3135572  12.6476512  61.2172631  15.7788840
   9.2063134  64.7343671  14.1334252   8.9153000  65.6389301  14.0180918
   9.8420118  64.7760198  14.8478322  10.1319340  62.1120519  10.7235612
  10.7282913  61.8876541  10.0092575  10.1894312  61.3705265  11.3261060
  20.1496079  58.5070966   7.2693524  20.8821251  57.9370183   7.5031354
  19.3935434  58.1192566   7.7100030  17.6721499  52.2192540  11.7288133
  17.3404824  53.0887951  11.5049348  17.0767112  51.9028824  12.4082163
  14.1653019  64.4205086  11.1284046  13.8653742  65.3230125  11.0199853
  13.8204078  64.1537269  11.9805199  17.5650162  56.9387626   8.8081483
  16.6567040  56.8703035   8.5140244  17.5137758  57.4159571   9.6363309
  11.6391028  58.3577272  16.7516380  10.8624362  58.9171192  16.7419245
  12.2781591  58.8434055  17.2731250  19.4311809  55.1404065  10.5859357
  18.7886189  55.4336598   9.9399152  18.9266737  55.0256985  11.3912554
   9.8937400  61.1662725  16.3134347  10.6352085  61.7047769  16.0369171
   9.1874386  61.7929014  16.4705899  15.3692740  63.3091866  14.9106509
  15.7776096  62.8674276  14.1661141  14.6470002  62.7344493  15.1640702
  11.7223810  58.2464472  12.2840066  12.5685005  58.6703886  12.4274715
  11.6622448  57.5898097  12.9778629  15.6921555  63.8693056   8.6658798
  15.0630417  64.0338770   7.9634866  15.3047217  64.2834666   9.4369762
  19.5710787  64.8047494   6.0203161  18.8861825  65.1846396   5.4700195
  19.6554636  65.4142821   6.7535109  14.8723256  55.9068841  13.9421239
  14.6284187  56.6610901  13.4055515  15.1483186  56.2854188  14.7768486
  16.8261718  62.4507453  12.6198505  17.0378614  63.0939213  11.9432886
  16.7791467  61.6169770  12.1520435   8.1373598  63.1538946   8.8688646
   8.7074955  63.5826214   8.2306131   8.7281710  62.8721531   9.5672832
   8.6298764  58.3202373  17.1149657   7.9997425  59.0018654  17.3485054
   8.5234852  58.2085455  16.1702796  17.9407546  65.3279409  10.7920862
  18.7624990  64.9259596  10.5103544  17.9369949  65.2247643  11.7436978
  11.7064150  64.8763452  12.9481573  11.7708582  65.3383859  13.7839745
  10.9975074  64.2460817  13.0763883  26.0313539  61.6718157   7.1405834
  25.2777248  61.1025555   6.9849838  26.1661080  61.6380822   8.0876469
   7.9079507  52.6223139  19.4774908   7.5146453  52.0689338  20.1522553
   8.7245647  52.9333718  19.8681426  10.8247468  54.0381018  17.0695165
  11.5657181  54.6388171  16.9899627  11.0565391  53.2958656  16.5113208
   5.9688806  59.2237386  15.3473395   5.8542321  58.3222643  15.6480494
   5.1133324  59.4701082  14.9958211  13.0480644  67.1655126  16.9460895
  12.6044498  66.3791504  16.6281800  13.7097857  67.3534276  16.2804786
   7.8067765  68.6950927  11.4721574   8.3575190  68.5667991  10.6998568
   6.9679241  68.9945817  11.1216467  15.1461882  67.4457926  14.9742297
  15.1280357  68.2666807  14.4822566  16.0681802  67.3212001  15.1992438
  11.6034936  64.9602055  15.8165805  12.1363273  64.1990343  15.5865113
  11.0749017  64.6675707  16.5589959  17.9480495  62.2837068   8.4451663
  17.2904169  62.9736330   8.5331792  18.7520894  62.6733500   8.7885650
  16.7585953  60.6381441   6.4955605  17.2717835  61.2711433   6.9977315
  17.4087177  60.0382636   6.1298965  13.2366784  58.1130897   8.7413945
  12.3189346  58.3345844   8.5835634  13.6526928  58.1877207   7.8825653
  17.5247750  65.6187442   4.6234748  17.0710077  64.7778352   4.6799938
  16.8941716  66.2548841   4.9609528  15.9680689  67.4563939   5.5584566
  16.2603663  68.0168996   4.8396931  16.4779309  67.7492500   6.3137725
  14.3779948  58.7028358  13.5458648  14.7329336  58.9299831  14.4053114
  15.0252079  59.0346735  12.9235903  20.1077685  61.8246794   4.2507977
  19.9695583  62.0148390   3.3229166  19.7513904  62.5866176   4.7076028
  20.1347064  63.8923321   9.2619249  20.5683571  63.7998610  10.1102303
  20.8478645  63.8680821   8.6239265  13.8674959  67.4925415  10.7952349
  13.9211982  68.0616351  11.5630065  12.9989741  67.6627300  10.4306386
   6.7473353  57.1942971  12.2776801   7.4196406  56.9860333  11.6289449
   5.9203139  56.9965057  11.8382033  20.9962614  63.9347021  11.7952134
  21.1898504  64.8392832  12.0411409  20.8963232  63.4754440  12.6290719
  12.6498925  53.8204912  14.2942461  12.0026840  54.5194862  14.2006938
  13.4199940  54.2541056  14.6618710  16.0577723  64.0853764  17.3693015
  15.9063229  63.8564316  16.4523098  16.0482402  65.0424365  17.3824360
  12.8263059  61.6585677  12.3539281  13.7555119  61.8096836  12.1808248
  12.4054089  61.7469698  11.4987928  11.6251391  65.6836341  10.1237819
  11.4862477  65.3155126  10.9963757  10.8365987  66.1983981   9.9521777
  13.1756606  65.0617944   7.5126657  12.8406439  65.0218714   8.4084306
  12.6760552  64.3962660   7.0397067   7.1500850  60.4685574  13.0379238
   7.0120648  59.7365813  13.6390777   8.0605773  60.3794474  12.7563425
   9.7783151  60.1805533  12.5262917  10.4882769  59.5398725  12.4849536
   9.7352459  60.4318428  13.4489098  17.7669929  67.1172887  15.4469497
  17.7082475  66.4332107  14.7800080  18.1689448  67.8591877  14.9950123
   8.4912085  57.1670751  14.3458557   7.9549442  56.7161490  14.9980153
   7.9028793  57.3016660  13.6029021  17.7687337  65.0812471  13.6783476
  16.8814115  64.7438392  13.8009875  18.3385888  64.3495502  13.9152242
  11.2988490  69.7413923  10.6444719  11.2258661  70.5468894  11.1564024
  10.8565883  69.9405889   9.8192741  22.2504677  60.4920688   8.4400038
  22.2394553  61.3745403   8.0693971  21.3822057  60.1392239   8.2454575
  13.7587174  69.6400757  12.8002878  14.4715146  70.2748222  12.7278780
  13.2677202  69.7364623  11.9842880   8.8099087  67.3895200  13.6208449
   9.5108547  68.0231683  13.7737843   8.3394202  67.7309932  12.8604088
  16.6100373  59.9439808  11.4460999  15.9571823  60.1915715  10.7913452
  16.9880753  59.1303946  11.1123477  12.6587946  60.6859619  17.9327036
  11.9828583  60.5853748  18.6029412  13.4815580  60.5298833  18.3963034
  11.4010729  71.9926546  12.1684652  11.9529037  72.1558168  12.9333738
  11.7416922  72.5830984  11.4964677   5.8527495  56.4124829  16.4179571
   6.4799533  56.0301906  17.0317096   4.9955414  56.1939031  16.7835264
  16.2521603  66.8187804  18.0233307  16.7961507  67.4317762  17.5288262
  15.6708448  67.3767382  18.5400320  14.5379116  69.9408522   9.1548335
  14.4130256  69.1398262   8.6459280  15.1958207  70.4354715   8.6662304
  16.6014025  67.7417542  10.7827885  15.6544360  67.6222893  10.7106211
  16.9496798  66.8540040  10.8654146   8.9613598  53.6311681  14.6066127
   9.4848000  53.8773977  15.3692436   8.7425931  54.4631716  14.1869264
  13.6060458  67.5370258   6.9832237  13.4585420  66.6086966   7.1639807
  14.4313951  67.5590349   6.4989312  17.2094580  68.3598817   8.0697110
  18.1341127  68.1541678   7.9321561  17.0409883  68.1115218   8.9786451
  10.1666143  54.5725376  12.2915797   9.8262963  53.7733189  12.6936477
   9.4605149  54.8727087  11.7192630  12.0543707  55.7733697  10.6469116
  11.7961485  56.6950768  10.6453446  11.5228748  55.3764132  11.3369580
  16.9989896  68.8784484   3.4259201  17.1726773  68.3130907   2.6733054
  17.4918787  69.6785379   3.2438691   2.8166856  60.8899153  11.4922760
   2.2720324  61.6658961  11.6243034   3.6946206  61.2369958  11.3341881
  22.8529287  61.6420907   5.0449501  23.2960433  60.8928232   4.6468624
  21.9755797  61.6331044   4.6623233   3.6032878  60.0169050  14.3852917
   2.8614614  60.1651685  14.9717547   3.2825622  60.2777315  13.5219666
  19.8856492  65.6450954   2.0543430  20.4107816  65.9838227   1.3292750
  19.7978844  64.7097970   1.8706565  11.5476540  69.5585028  14.1833307
  11.8563667  69.3134175  15.0556006  12.3452022  69.7631666  13.6952177
   9.0895552  55.7342735  18.0793491   9.1383707  56.6104857  17.6971261
   9.6318066  55.1920128  17.5065134  19.5750398  66.2783858  17.3594628
  18.7845941  66.2607997  16.8199127  19.3383752  66.8172152  18.1143665
  19.6948273  63.1276324  14.6727357  19.7446278  62.9626332  15.6142879
  19.5862196  62.2603583  14.2825237  16.9852035  59.1107252  15.9886663
  17.8861898  58.9713717  15.6970661  17.0600010  59.2761707  16.9284841
  11.3194840  56.4874107  14.8339850  10.4498150  56.7807673  14.5622438
  11.5554321  57.0714552  15.5547113  21.1966469  65.5473266  14.9169378
  20.9051278  65.9103246  15.7532839  20.5838601  64.8340274  14.7382710
  22.3962152  63.1126146   7.4371948  23.2309043  63.5515950   7.6009509
  22.5321281  62.6364799   6.6180194  19.4453658  60.6705880  13.3849436
  19.9207779  60.8633527  12.5768287  18.5219223  60.7265066  13.1392820
  14.0233874  52.7053724  12.3505270  14.5415818  53.4414751  12.0251759
  13.6689007  53.0117717  13.1852029  18.1455327  57.5471641  11.6177742
  19.0972750  57.6469738  11.6389966  17.9758777  56.7549909  12.1275826
  16.1669706  54.6327224  11.8037143  15.5719638  54.9132236  11.1083631
  15.8819403  55.1221125  12.5753884  20.6243405  60.7677760  10.7320041
  20.5919725  59.8293761  10.9179725  21.2344028  60.8461797   9.9985866
  20.7737893  57.5588804  10.7778325  20.2576942  56.7747260  10.5908253
  21.6577842  57.2307520  10.9424844  26.4419954  61.8293767   9.8726078
  27.1723343  61.5679055  10.4333781  25.8326900  61.0922489   9.9128146
  24.5235251  59.9701630  10.4700529  23.7968415  59.8357595   9.8617021
  24.1082538  60.2778458  11.2757247  12.3465428  63.6891559  18.2347902
  13.2668437  63.8670158  18.4287949  12.3115011  62.7447605  18.0827602
   5.3427500  61.5992594  10.8770684   5.5613510  62.5309702  10.8958717
   5.7553274  61.2400568  11.6625487  10.2155366  57.1725800  20.2673432
  10.1152093  58.1220157  20.1985524   9.9976908  56.8444039  19.3949503
  10.0786636  60.6022939  19.0838494   9.5953718  61.4023299  19.2902383
  10.1647575  60.6130883  18.1305938   6.0059973  64.4927473  11.1206928
   6.9603227  64.4611416  11.0536859   5.8072497  64.0318097  11.9357154
   6.5959355  63.0628589  13.6877726   7.4152244  63.5572668  13.7112563
   6.8696163  62.1460557  13.6595293  22.1413046  56.1913482   7.8233961
  22.7357537  55.9509218   7.1127269  22.2139630  55.4720612   8.4507497
  24.4484119  59.4979683   6.5977382  23.8883677  59.5672872   7.3708944
  23.8427623  59.3220667   5.8776878   1.8494270  57.3966723  14.3869923
   2.4953133  56.8865677  14.8757148   1.6411421  58.1335405  14.9613348
  14.3747662  64.4647571  19.8862063  15.2438822  64.6388223  19.5248698
  13.8954413  65.2841988  19.7637793   8.5433842  71.5844672  11.5651497
   9.4461089  71.6168282  11.8817992   8.3171212  70.6545123  11.5797833
   6.1891761  54.5434340  18.4844937   7.0523222  54.1871145  18.6948261
   5.6157171  54.2048235  19.1720341  26.0340138  76.1736197   9.2907338
  26.6718548  76.0542944   8.5870678  25.9160980  77.1217041   9.3495290
  22.8429844  76.1263625   9.2268863  22.5048355  76.0104689   8.3389397
  23.7119612  75.7254790   9.2069869  23.3249627  77.2798476  15.1855068
  23.3138268  76.8851275  14.3135572  23.4870266  76.5464549  15.7788840
  20.0456888  80.0635588  14.1334252  19.7546754  80.9681219  14.0180918
  20.6813872  80.1052116  14.8478322  20.9713095  77.4412437  10.7235612
  21.5676667  77.2168459  10.0092575  21.0288066  76.6997182  11.3261060
  25.5881406  73.8987650   6.3660546  26.3744495  73.4807074   6.0150963
  25.8520110  74.8033743   6.5342194  30.9889833  73.8362884   7.2693524
  31.7215005  73.2662100   7.5031354  30.2329189  73.4484484   7.7100030
  22.6065953  76.2590125   4.4656867  22.2424160  75.7320746   5.1769788
  23.4633069  75.8688594   4.2923352  28.5115254  67.5484458  11.7288133
  28.1798578  68.4179869  11.5049348  27.9160867  67.2320742  12.4082163
  25.0046773  79.7497004  11.1284046  24.7047496  80.6522043  11.0199853
  24.6597833  79.4829187  11.9805199  18.4559255  76.2010801   7.1620750
  17.5309751  76.0687015   7.3698442  18.7043668  76.9805020   7.6590693
  28.4043917  72.2679544   8.8081483  27.4960794  72.1994952   8.5140244
  28.3531513  72.7451489   9.6363309  22.4784783  73.6869190  16.7516380
  21.7018117  74.2463110  16.7419245  23.1175346  74.1725973  17.2731250
  30.2705563  70.4695982  10.5859357  29.6279944  70.7628516   9.9399152
  29.7660492  70.3548903  11.3912554  27.9245727  74.2159156   1.2745216
  28.8363583  74.4486542   1.0992914  27.4155374  74.7996200   0.7120295
  20.7331155  76.4954643  16.3134347  21.4745839  77.0339687  16.0369171
  20.0268140  77.1220932  16.4705899  26.2086495  78.6383783  14.9106509
  26.6169851  78.1966194  14.1661141  25.4863756  78.0636411  15.1640702
  22.5617565  73.5756390  12.2840066  23.4078760  73.9995804  12.4274715
  22.5016202  72.9190014  12.9778629  26.5315309  79.1984974   8.6658798
  25.9024172  79.3630688   7.9634866  26.1440971  79.6126584   9.4369762
  30.4104541  80.1339412   6.0203161  29.7255579  80.5138313   5.4700195
  30.4948390  80.7434738   6.7535109  25.7117010  71.2360758  13.9421239
  25.4677942  71.9902819  13.4055515  25.9876941  71.6146106  14.7768486
  27.6655473  77.7799371  12.6198505  27.8772368  78.4231131  11.9432886
  27.6185221  76.9461687  12.1520435  25.2681702  70.3917192   9.5235077
  24.4066181  70.6898445   9.8151815  25.2944136  70.6087590   8.5916110
  22.0843271  78.9359382   5.9308883  22.5481617  79.2147085   5.1413505
  21.8200069  78.0342827   5.7481974  18.9767352  78.4830864   8.8688646
  19.5468709  78.9118132   8.2306131  19.5675464  78.2013448   9.5672832
  19.4692519  73.6494291  17.1149657  18.8391179  74.3310572  17.3485054
  19.3628607  73.5377373  16.1702796  28.7801301  80.6571326  10.7920862
  29.6018744  80.2551514  10.5103544  28.7763704  80.5539560  11.7436978
  22.5457904  80.2055370  12.9481573  22.6102337  80.6675777  13.7839745
  21.8368828  79.5752734  13.0763883  13.0475194  73.5696578  10.4730572
  13.2983233  74.4543587  10.7388148  13.5834743  73.3901179   9.7005664
  36.8707294  77.0010075   7.1405834  36.1171002  76.4317473   6.9849838
  37.0054835  76.9672739   8.0876469  18.7473261  67.9515057  19.4774908
  18.3540207  67.3981255  20.1522553  19.5639402  68.2625635  19.8681426
  21.6641222  69.3672936  17.0695165  22.4050936  69.9680089  16.9899627
  21.8959145  68.6250574  16.5113208  16.8082560  74.5529303  15.3473395
  16.6936076  73.6514561  15.6480494  15.9527078  74.7993000  14.9958211
  23.8874398  82.4947044  16.9460895  23.4438252  81.7083422  16.6281800
  24.5491612  82.6826194  16.2804786  18.6461519  84.0242845  11.4721574
  19.1968944  83.8959909  10.6998568  17.8072995  84.3237734  11.1216467
  25.9855636  82.7749844  14.9742297  25.9674112  83.5958725  14.4822566
  26.9075556  82.6503919  15.1992438  22.4428690  80.2893973  15.8165805
  22.9757027  79.5282261  15.5865113  21.9142772  79.9967625  16.5589959
  25.6098385  65.3954039  11.3459447  25.2662655  66.2855681  11.2698557
  25.9777348  65.2055697  10.4829032  23.1595779  70.2312351   4.9117120
  22.3037375  69.8419201   4.7322759  23.5722731  70.3104312   4.0516906
  24.6894926  67.7658694   9.3108680  24.1859721  67.7288829   8.4976485
  24.9825533  68.6751437   9.3705337  20.9337812  67.8497424   8.3174862
  21.7990808  67.6540233   7.9580751  21.0015321  67.6207776   9.2444218
  30.5482942  78.1395005   1.7885055  29.7712385  77.8006164   1.3440217
  31.2274423  78.1447628   1.1140020  25.3634971  73.2589742   1.6791663
  25.0585107  73.5735891   2.5301806  26.3165413  73.3371162   1.7218996
  28.7874249  77.6128986   8.4451663  28.1297924  78.3028247   8.5331792
  29.5914648  78.0025418   8.7885650  18.5400131  70.0799632   5.6891228
  19.1143883  69.8574813   4.9564421  19.1271113  70.1488326   6.4419830
  27.5979708  75.9673359   6.4955605  28.1111590  76.6003350   6.9977315
  28.2480932  75.3674554   6.1298965  20.8422798  66.9540881   4.4166298
  20.1887211  66.6389898   3.7922913  20.8003273  66.3316621   5.1426121
  24.0760539  73.4422814   8.7413945  23.1583100  73.6637761   8.5835634
  24.4920682  73.5169125   7.8825653  24.8595587  74.8414230   3.8716626
  25.6067406  75.3535627   3.5623748  25.1287176  74.5198283   4.7321019
  28.3641504  80.9479360   4.6234748  27.9103831  80.1070270   4.6799938
  27.7335471  81.5840758   4.9609528  27.3074424  71.8771346   5.8535415
  26.5697181  71.3648732   6.1845658  27.5601197  71.4371728   5.0418692
  26.8074443  82.7855857   5.5584566  27.0997418  83.3460914   4.8396931
  27.3173064  83.0784418   6.3137725  27.4086051  64.6547598   6.4477184
  27.7144928  63.7944962   6.1603099  28.1338656  65.2465218   6.2476178
  21.6807131  74.9501391   6.9553375  21.7355741  73.9975228   6.8795852
  20.8698333  75.1060830   7.4394674  19.6199491  73.5678451   4.7143754
  18.8067356  73.8672622   5.1208946  20.1158485  73.1734140   5.4318237
  25.2173702  74.0320275  13.5458648  25.5723090  74.2591749  14.4053114
  25.8645834  74.3638652  12.9235903  30.9471439  77.1538711   4.2507977
  30.8089338  77.3440307   3.3229166  30.5907658  77.9158094   4.7076028
  19.1113565  71.1396806  10.3304989  19.7512945  70.9985566   9.6327953
  18.2791096  70.8531320   9.9543591  30.9740819  79.2215238   9.2619249
  31.4077326  79.1290527  10.1102303  31.6872400  79.1972739   8.6239265
  24.7068714  82.8217332  10.7952349  24.7605736  83.3908269  11.5630065
  23.8383495  82.9919217  10.4306386  16.1142182  71.1097131   5.1077976
  16.3748999  72.0242465   4.9987136  16.9359354  70.6421574   5.2574589
  17.5867107  72.5234889  12.2776801  18.2590161  72.3152251  11.6289449
  16.7596894  72.3256975  11.8382033  31.8356368  79.2638939  11.7952134
  32.0292259  80.1684749  12.0411409  31.7356987  78.8046358  12.6290719
  23.4892679  69.1496830  14.2942461  22.8420594  69.8486779  14.2006938
  24.2593695  69.5832973  14.6618710  26.8971477  79.4145682  17.3693015
  26.7456984  79.1856233  16.4523098  26.8876157  80.3716283  17.3824360
  23.6656814  76.9877594  12.3539281  24.5948874  77.1388754  12.1808248
  23.2447844  77.0761615  11.4987928  22.4645145  81.0128259  10.1237819
  22.3256231  80.6447043  10.9963757  21.6759742  81.5275898   9.9521777
  24.0150361  80.3909862   7.5126657  23.6800193  80.3510632   8.4084306
  23.5154306  79.7254577   7.0397067  17.9894604  75.7977492  13.0379238
  17.8514402  75.0657730  13.6390777  18.8999528  75.7086392  12.7563425
  20.6176905  75.5097451  12.5262917  21.3276524  74.8690643  12.4849536
  20.5746213  75.7610346  13.4489098  28.6063684  82.4464804  15.4469497
  28.5476230  81.7624024  14.7800080  29.0083202  83.1883794  14.9950123
  19.3305839  72.4962669  14.3458557  18.7943196  72.0453407  14.9980153
  18.7422548  72.6308578  13.6029021  28.6081091  80.4104388  13.6783476
  27.7207870  80.0730310  13.8009875  29.1779642  79.6787419  13.9152242
  15.0644960  71.6318677  11.4311551  14.9803149  71.0244346  10.6961961
  14.2427667  72.1227695  11.4321048  22.1382244  85.0705841  10.6444719
  22.0652416  85.8760812  11.1564024  21.6959638  85.2697806   9.8192741
  25.2368674  70.1172240   6.7981746  25.7337374  69.3642202   6.4782817
  24.4655656  70.1536557   6.2324956  33.0898432  75.8212606   8.4400038
  33.0788308  76.7037321   8.0693971  32.2215811  75.4684156   8.2454575
  24.5980928  84.9692675  12.8002878  25.3108900  85.6040139  12.7278780
  24.1070957  85.0656541  11.9842880  26.3198455  78.8743927   4.3720170
  25.3854734  78.9945390   4.2024874  26.4975123  77.9716394   4.1080180
  21.8203643  72.2589623   6.5253431  21.4501430  71.7060663   7.2134337
  22.3162735  71.6547757   5.9728431  29.7071006  74.7161247   4.9070204
  30.1731458  75.5489238   4.8330507  30.1578507  74.2506228   5.6115462
  19.6492842  82.7187118  13.6208449  20.3502301  83.3523601  13.7737843
  19.1787957  83.0601850  12.8604088  27.7747237  81.0605068   1.9056356
  28.0507081  80.9461662   2.8150230  26.9051736  80.6622553   1.8668529
  27.6787669  67.0841834   8.9461105  26.7650749  67.3146060   9.1143312
  28.1080770  67.1680278   9.7975138  27.4494128  75.2731725  11.4460999
  26.7965578  75.5207633  10.7913452  27.8274507  74.4595864  11.1123477
  23.4981701  76.0151537  17.9327036  22.8222338  75.9145666  18.6029412
  24.3209334  75.8590750  18.3963034  22.2404483  87.3218464  12.1684652
  22.7922791  87.4850086  12.9333738  22.5810677  87.9122902  11.4964677
  17.2168977  69.6693614  12.7706537  17.2810303  70.5308445  12.3583935
  17.1536097  69.0567615  12.0378896  16.6921249  71.7416746  16.4179571
  17.3193288  71.3593824  17.0317096  15.8349168  71.5230948  16.7835264
  27.0915358  82.1479722  18.0233307  27.6355262  82.7609680  17.5288262
  26.5102203  82.7059300  18.5400320  25.3772871  85.2700440   9.1548335
  25.2524010  84.4690179   8.6459280  26.0351962  85.7646633   8.6662304
  16.9981039  71.6249172   8.3325475  16.2767625  72.2385140   8.1932948
  17.7874295  72.1606937   8.2542121  27.4407779  83.0709460  10.7827885
  26.4938115  82.9514811  10.7106211  27.7890552  82.1831958  10.8654146
  19.8007352  68.9603599  14.6066127  20.3241754  69.2065895  15.3692436
  19.5819686  69.7923633  14.1869264  24.4454212  82.8662176   6.9832237
  24.2979175  81.9378883   7.1639807  25.2707706  82.8882267   6.4989312
  28.0488334  83.6890735   8.0697110  28.9734882  83.4833596   7.9321561
  27.8803638  83.4407136   8.9786451  21.0059897  69.9017294  12.2915797
  20.6656718  69.1025107  12.6936477  20.2998904  70.2019004  11.7192630
  21.6576369  66.9866606  10.7443120  22.4802439  66.5127084  10.6222010
  21.9014433  67.7657090  11.2441806  24.4415727  70.7200013   1.9764354
  24.6579341  71.6024651   1.6753182  23.9609794  70.3286227   1.2469996
  19.1814948  73.6785727   8.5535099  19.0359529  73.9926030   9.4459380
  18.7040152  74.2970627   8.0005997  21.0411331  70.6688275   8.6015988
  21.0272900  69.7729368   8.2648286  21.7583759  70.6758938   9.2354274
  22.8937462  71.1025615  10.6469116  22.6355239  72.0242686  10.6453446
  22.3622502  70.7056049  11.3369580  27.8383650  84.2076402   3.4259201
  28.0120528  83.6422824   2.6733054  28.3312542  85.0077297   3.2438691
  13.6560610  76.2191071  11.4922760  13.1114078  76.9950879  11.6243034
  14.5339960  76.5661876  11.3341881  20.4448227  69.5502655   3.8703558
  20.5664138  68.6219301   4.0694446  20.1550269  69.5641341   2.9581874
  23.3139417  67.2357565   7.0070278  23.3361114  67.2996898   6.0522258
  23.7307476  66.3962074   7.2010784  33.6923042  76.9712825   5.0449501
  34.1354188  76.2220150   4.6468624  32.8149552  76.9622961   4.6623233
  14.4426632  75.3460967  14.3852917  13.7008368  75.4943603  14.9717547
  14.1219376  75.6069233  13.5219666  30.7250246  80.9742872   2.0543430
  31.2501570  81.3130145   1.3292750  30.6372599  80.0389887   1.8706565
  22.3870295  84.8876946  14.1833307  22.6957421  84.6426092  15.0556006
  23.1845777  85.0923584  13.6952177  19.9289306  71.0634652  18.0793491
  19.9777462  71.9396775  17.6971261  20.4711821  70.5212045  17.5065134
  30.4144152  81.6075776  17.3594628  29.6239696  81.5899914  16.8199127
  30.1777507  82.1464069  18.1143665  30.5342027  78.4568242  14.6727357
  30.5840032  78.2918249  15.6142879  30.4255950  77.5895501  14.2825237
  27.8245790  74.4399170  15.9886663  28.7255652  74.3005635  15.6970661
  27.8993764  74.6053625  16.9284841  22.1588595  71.8166025  14.8339850
  21.2891904  72.1099591  14.5622438  22.3948075  72.4006470  15.5547113
  32.0360224  80.8765183  14.9169378  31.7445032  81.2395164  15.7532839
  31.4232355  80.1632192  14.7382710  33.2355906  78.4418063   7.4371948
  34.0702798  78.8807867   7.6009509  33.3715035  77.9656716   6.6180194
  30.2847412  75.9997798  13.3849436  30.7601534  76.1925444  12.5768287
  29.3612978  76.0556984  13.1392820  24.8627629  68.0345642  12.3505270
  25.3809573  68.7706669  12.0251759  24.5082761  68.3409635  13.1852029
  25.1140223  64.4545924   7.8706167  25.3941977  63.7869113   8.4966593
  25.8990830  64.6475020   7.3580830  28.9849081  72.8763558  11.6177742
  29.9366504  72.9761656  11.6389966  28.8152532  72.0841827  12.1275826
  27.0063461  69.9619141  11.8037143  26.4113393  70.2424154  11.1083631
  26.7213157  70.4513042  12.5753884  31.4637159  76.0969678  10.7320041
  31.4313479  75.1585679  10.9179725  32.0737783  76.1753715   9.9985866
  31.6131647  72.8880721  10.7778325  31.0970696  72.1039178  10.5908253
  32.4971596  72.5599438  10.9424844  29.2742374  66.6321737   6.7374137
  29.0767196  66.3236825   7.6217469  29.8842080  67.3583376   6.8672067
  37.2813709  77.1585685   9.8726078  38.0117097  76.8970973  10.4333781
  36.6720654  76.4214407   9.9128146  35.3629006  75.2993547  10.4700529
  34.6362170  75.1649512   9.8617021  34.9476293  75.6070376  11.2757247
  23.1859182  79.0183477  18.2347902  24.1062192  79.1962076  18.4287949
  23.1508765  78.0739522  18.0827602  16.1821255  76.9284512  10.8770684
  16.4007265  77.8601619  10.8958717  16.5947029  76.5692486  11.6625487
  23.1025473  67.4352597   2.8646372  22.2926201  67.0899682   3.2401618
  23.7909890  67.1260141   3.4533983  25.0316021  66.5130644   4.4870669
  25.5847060  66.9326097   5.1460692  25.2686107  65.5866392   4.5293625
  21.0549120  72.5017717  20.2673432  20.9545847  73.4512074  20.1985524
  20.8370662  72.1735956  19.3949503  28.4094828  68.6231169   3.9949333
  27.8293497  69.2815973   3.6127385  28.1430761  67.8008514   3.5836750
  26.8598394  68.0236227   6.1970653  27.3598173  68.1352761   5.3884972
  27.5034002  67.7197279   6.8371462  20.9180390  75.9314856  19.0838494
  20.4347472  76.7315216  19.2902383  21.0041329  75.9422801  18.1305938
  16.8453728  79.8219391  11.1206928  17.7996981  79.7903333  11.0536859
  16.6466251  79.3610015  11.9357154  17.4353110  78.3920507  13.6877726
  18.2545999  78.8864586  13.7112563  17.7089918  77.4752475  13.6595293
  27.1919706  70.7831259   3.0505681  26.3045561  71.0680910   2.8325876
  27.6073695  70.6225023   2.2032958  30.5434242  70.8077780   6.7660020
  31.3194632  71.2974233   7.0384637  29.8182376  71.2335834   7.2231890
  32.9806801  71.5205400   7.8233961  33.5751292  71.2801135   7.1127269
  33.0533385  70.8012530   8.4507497  27.1660730  76.2985795   3.2655971
  27.1095931  76.7554347   2.4263604  27.7189072  75.5376480   3.0878814
  30.9765536  72.0875527   4.0906091  30.7202470  71.6872163   4.9214298
  30.3518404  72.8019321   3.9656230  35.2877874  74.8271600   6.5977382
  34.7277432  74.8964790   7.3708944  34.6821377  74.6512585   5.8776878
  27.8995509  77.4890576   0.5608500  27.8444313  77.3234848  -0.3803055
  27.2741564  78.1966609   0.7170690  12.6888024  72.7258641  14.3869923
  13.3346888  72.2157595  14.8757148  12.4805175  73.4627323  14.9613348
  25.2141416  79.7939488  19.8862063  26.0832576  79.9680141  19.5248698
  24.7348168  80.6133905  19.7637793  21.2091635  66.9898685   0.1393819
  21.1970304  67.9340525   0.2962090  22.1015057  66.8068831  -0.1546720
  19.3827597  86.9136589  11.5651497  20.2854843  86.9460200  11.8817992
  19.1564967  85.9837040  11.5797833  25.0243754  63.5841462   4.3939756
  24.2576150  63.0299949   4.5396438  25.4354459  63.6563331   5.2553907
  17.0285515  69.8726258  18.4844937  17.8916977  69.5163063  18.6948261
  16.4550926  69.5340153  19.1720341  36.8733892  91.5028114   9.2907338
  37.5112302  91.3834862   8.5870678  36.7554735  92.4508958   9.3495290
  33.6823598  91.4555542   9.2268863  33.3442110  91.3396607   8.3389397
  34.5513367  91.0546707   9.2069869  34.1643381  92.6090394  15.1855068
  34.1532022  92.2143192  14.3135572  34.3264021  91.8756467  15.7788840
  30.8850643  95.3927506  14.1334252  30.5940508  96.2973137  14.0180918
  31.5207627  95.4344034  14.8478322  31.8106849  92.7704354  10.7235612
  32.4070422  92.5460377  10.0092575  31.8681821  92.0289100  11.3261060
  36.4275161  89.2279568   6.3660546  37.2138250  88.8098991   6.0150963
  36.6913865  90.1325660   6.5342194  41.8283588  89.1654801   7.2693524
  42.5608760  88.5954018   7.5031354  41.0722943  88.7776402   7.7100030
  33.4459707  91.5882043   4.4656867  33.0817915  91.0612664   5.1769788
  34.3026823  91.1980512   4.2923352  39.3509008  82.8776375  11.7288133
  39.0192333  83.7471786  11.5049348  38.7554621  82.5612659  12.4082163
  35.8440528  95.0788921  11.1284046  35.5441251  95.9813960  11.0199853
  35.4991587  94.8121105  11.9805199  29.2953009  91.5302718   7.1620750
  28.3703506  91.3978932   7.3698442  29.5437422  92.3096938   7.6590693
  39.2437671  87.5971462   8.8081483  38.3354549  87.5286870   8.5140244
  39.1925267  88.0743407   9.6363309  33.3178537  89.0161107  16.7516380
  32.5411871  89.5755027  16.7419245  33.9569100  89.5017890  17.2731250
  41.1099318  85.7987900  10.5859357  40.4673698  86.0920433   9.9399152
  40.6054246  85.6840820  11.3912554  38.7639481  89.5451073   1.2745216
  39.6757338  89.7778460   1.0992914  38.2549129  90.1288117   0.7120295
  31.5724909  91.8246561  16.3134347  32.3139594  92.3631605  16.0369171
  30.8661895  92.4512849  16.4705899  37.0480249  93.9675701  14.9106509
  37.4563605  93.5258112  14.1661141  36.3257511  93.3928329  15.1640702
  33.4011319  88.9048308  12.2840066  34.2472514  89.3287721  12.4274715
  33.3409957  88.2481932  12.9778629  37.3709064  94.5276892   8.6658798
  36.7417926  94.6922606   7.9634866  36.9834726  94.9418501   9.4369762
  41.2498296  95.4631330   6.0203161  40.5649334  95.8430231   5.4700195
  41.3342145  96.0726656   6.7535109  36.5510764  86.5652676  13.9421239
  36.3071696  87.3194737  13.4055515  36.8270695  86.9438024  14.7768486
  38.5049227  93.1091289  12.6198505  38.7166122  93.7523048  11.9432886
  38.4578976  92.2753605  12.1520435  36.1075456  85.7209109   9.5235077
  35.2459935  86.0190363   9.8151815  36.1337891  85.9379508   8.5916110
  32.9237026  94.2651300   5.9308883  33.3875371  94.5439003   5.1413505
  32.6593824  93.3634744   5.7481974  29.8161107  93.8122781   8.8688646
  30.3862464  94.2410050   8.2306131  30.4069219  93.5305366   9.5672832
  30.3086273  88.9786209  17.1149657  29.6784934  89.6602490  17.3485054
  30.2022361  88.8669290  16.1702796  39.6195055  95.9863244  10.7920862
  40.4412499  95.5843431  10.5103544  39.6157458  95.8831478  11.7436978
  33.3851659  95.5347287  12.9481573  33.4496091  95.9967694  13.7839745
  32.6762583  94.9044652  13.0763883  23.8868949  88.8988495  10.4730572
  24.1376987  89.7835505  10.7388148  24.4228497  88.7193097   9.7005664
  47.7101048  92.3301992   7.1405834  46.9564757  91.7609391   6.9849838
  47.8448589  92.2964657   8.0876469  29.5867016  83.2806975  19.4774908
  29.1933962  82.7273173  20.1522553  30.4033156  83.5917553  19.8681426
  32.5034977  84.6964854  17.0695165  33.2444690  85.2972007  16.9899627
  32.7352900  83.9542491  16.5113208  27.6476315  89.8821221  15.3473395
  27.5329830  88.9806478  15.6480494  26.7920833  90.1284918  14.9958211
  34.7268153  97.8238961  16.9460895  34.2832007  97.0375340  16.6281800
  35.3885366  98.0118112  16.2804786  29.4855274  99.3534763  11.4721574
  30.0362699  99.2251826  10.6998568  28.6466750  99.6529652  11.1216467
  36.8249391  98.1041761  14.9742297  36.8067866  98.9250642  14.4822566
  37.7469311  97.9795836  15.1992438  33.2822445  95.6185891  15.8165805
  33.8150782  94.8574179  15.5865113  32.7536526  95.3259542  16.5589959
  36.4492140  80.7245957  11.3459447  36.1056409  81.6147598  11.2698557
  36.8171102  80.5347614  10.4829032  33.9989534  85.5604269   4.9117120
  33.1431130  85.1711119   4.7322759  34.4116485  85.6396229   4.0516906
  35.5288680  83.0950612   9.3108680  35.0253476  83.0580747   8.4976485
  35.8219287  84.0043354   9.3705337  31.7731566  83.1789342   8.3174862
  32.6384563  82.9832150   7.9580751  31.8409075  82.9499693   9.2444218
  41.3876697  93.4686922   1.7885055  40.6106139  93.1298082   1.3440217
  42.0668178  93.4739546   1.1140020  36.2028726  88.5881660   1.6791663
  35.8978861  88.9027809   2.5301806  37.1559168  88.6663080   1.7218996
  39.6268004  92.9420904   8.4451663  38.9691678  93.6320165   8.5331792
  40.4308403  93.3317336   8.7885650  29.3793885  85.4091549   5.6891228
  29.9537637  85.1866731   4.9564421  29.9664868  85.4780244   6.4419830
  38.4373462  91.2965276   6.4955605  38.9505344  91.9295268   6.9977315
  39.0874686  90.6966472   6.1298965  31.6816553  82.2832798   4.4166298
  31.0280965  81.9681816   3.7922913  31.6397027  81.6608539   5.1426121
  34.9154293  88.7714732   8.7413945  33.9976855  88.9929679   8.5835634
  35.3314437  88.8461042   7.8825653  35.6989341  90.1706148   3.8716626
  36.4461160  90.6827545   3.5623748  35.9680931  89.8490200   4.7321019
  39.2035259  96.2771278   4.6234748  38.7497586  95.4362188   4.6799938
  38.5729225  96.9132676   4.9609528  38.1468178  87.2063264   5.8535415
  37.4090935  86.6940650   6.1845658  38.3994952  86.7663645   5.0418692
  37.6468198  98.1147774   5.5584566  37.9391172  98.6752832   4.8396931
  38.1566818  98.4076335   6.3137725  38.2479806  79.9839516   6.4477184
  38.5538682  79.1236879   6.1603099  38.9732410  80.5757136   6.2476178
  32.5200885  90.2793309   6.9553375  32.5749495  89.3267145   6.8795852
  31.7092087  90.4352748   7.4394674  30.4593245  88.8970369   4.7143754
  29.6461111  89.1964539   5.1208946  30.9552239  88.5026057   5.4318237
  36.0567457  89.3612193  13.5458648  36.4116845  89.5883666  14.4053114
  36.7039588  89.6930570  12.9235903  41.7865194  92.4830629   4.2507977
  41.6483092  92.6732225   3.3229166  41.4301413  93.2450012   4.7076028
  29.9507320  86.4688724  10.3304989  30.5906699  86.3277483   9.6327953
  29.1184850  86.1823238   9.9543591  41.8134573  94.5507156   9.2619249
  42.2471080  94.4582445  10.1102303  42.5266154  94.5264656   8.6239265
  35.5462468  98.1509250  10.7952349  35.5999491  98.7200186  11.5630065
  34.6777250  98.3211135  10.4306386  26.9535936  86.4389049   5.1077976
  27.2142754  87.3534382   4.9987136  27.7753109  85.9713492   5.2574589
  28.4260862  87.8526806  12.2776801  29.0983915  87.6444168  11.6289449
  27.5990648  87.6548892  11.8382033  42.6750123  94.5930857  11.7952134
  42.8686013  95.4976667  12.0411409  42.5750741  94.1338276  12.6290719
  34.3286434  84.4788747  14.2942461  33.6814349  85.1778697  14.2006938
  35.0987449  84.9124891  14.6618710  37.7365232  94.7437599  17.3693015
  37.5850738  94.5148151  16.4523098  37.7269911  95.7008201  17.3824360
  34.5050568  92.3169512  12.3539281  35.4342628  92.4680672  12.1808248
  34.0841598  92.4053533  11.4987928  33.3038900  96.3420177  10.1237819
  33.1649986  95.9738961  10.9963757  32.5153496  96.8567816   9.9521777
  34.8544115  95.7201779   7.5126657  34.5193948  95.6802549   8.4084306
  34.3548061  95.0546495   7.0397067  28.8288359  91.1269409  13.0379238
  28.6908157  90.3949648  13.6390777  29.7393282  91.0378309  12.7563425
  31.4570660  90.8389369  12.5262917  32.1670278  90.1982561  12.4849536
  31.4139968  91.0902263  13.4489098  39.4457438  97.7756722  15.4469497
  39.3869984  97.0915942  14.7800080  39.8476957  98.5175712  14.9950123
  30.1699594  87.8254586  14.3458557  29.6336951  87.3745325  14.9980153
  29.5816302  87.9600495  13.6029021  39.4474846  95.7396306  13.6783476
  38.5601624  95.4022228  13.8009875  40.0173397  95.0079337  13.9152242
  25.9038715  86.9610594  11.4311551  25.8196904  86.3536264  10.6961961
  25.0821421  87.4519612  11.4321048  32.9775999 100.3997758  10.6444719
  32.9046170 101.2052730  11.1564024  32.5353392 100.5989724   9.8192741
  36.0762429  85.4464158   6.7981746  36.5731128  84.6934120   6.4782817
  35.3049410  85.4828474   6.2324956  43.9292186  91.1504523   8.4400038
  43.9182062  92.0329239   8.0693971  43.0609566  90.7976074   8.2454575
  35.4374682 100.2984592  12.8002878  36.1502655 100.9332057  12.7278780
  34.9464711 100.3948458  11.9842880  37.1592209  94.2035845   4.3720170
  36.2248488  94.3237307   4.2024874  37.3368878  93.3008312   4.1080180
  32.6597397  87.5881541   6.5253431  32.2895185  87.0352581   7.2134337
  33.1556490  86.9839674   5.9728431  40.5464761  90.0453164   4.9070204
  41.0125213  90.8781156   4.8330507  40.9972261  89.5798146   5.6115462
  30.4886596  98.0479036  13.6208449  31.1896056  98.6815519  13.7737843
  30.0181711  98.3893767  12.8604088  38.6140992  96.3896986   1.9056356
  38.8900836  96.2753580   2.8150230  37.7445491  95.9914470   1.8668529
  38.5181423  82.4133751   8.9461105  37.6044503  82.6437978   9.1143312
  38.9474525  82.4972195   9.7975138  38.2887882  90.6023643  11.4460999
  37.6359332  90.8499551  10.7913452  38.6668262  89.7887781  11.1123477
  34.3375455  91.3443454  17.9327036  33.6616092  91.2437584  18.6029412
  35.1603089  91.1882668  18.3963034  33.0798238 102.6510382  12.1684652
  33.6316546 102.8142003  12.9333738  33.4204431 103.2414820  11.4964677
  28.0562731  84.9985531  12.7706537  28.1204058  85.8600362  12.3583935
  27.9929851  84.3859533  12.0378896  27.5315004  87.0708664  16.4179571
  28.1587042  86.6885741  17.0317096  26.6742923  86.8522866  16.7835264
  37.9309112  97.4771639  18.0233307  38.4749016  98.0901597  17.5288262
  37.3495957  98.0351218  18.5400320  36.2166625 100.5992357   9.1548335
  36.0917765  99.7982097   8.6459280  36.8745716 101.0938551   8.6662304
  27.8374793  86.9541090   8.3325475  27.1161379  87.5677057   8.1932948
  28.6268049  87.4898855   8.2542121  38.2801534  98.4001377  10.7827885
  37.3331869  98.2806728  10.7106211  38.6284307  97.5123875  10.8654146
  30.6401107  84.2895516  14.6066127  31.1635509  84.5357813  15.3692436
  30.4213440  85.1215551  14.1869264  35.2847967  98.1954094   6.9832237
  35.1372929  97.2670801   7.1639807  36.1101460  98.2174184   6.4989312
  38.8882089  99.0182652   8.0697110  39.8128636  98.8125514   7.9321561
  38.7197392  98.7699053   8.9786451  31.8453652  85.2309211  12.2915797
  31.5050472  84.4317024  12.6936477  31.1392658  85.5310922  11.7192630
  32.4970124  82.3158524  10.7443120  33.3196193  81.8419002  10.6222010
  32.7408187  83.0949007  11.2441806  35.2809481  86.0491931   1.9764354
  35.4973096  86.9316569   1.6753182  34.8003548  85.6578145   1.2469996
  30.0208703  89.0077644   8.5535099  29.8753283  89.3217947   9.4459380
  29.5433906  89.6262545   8.0005997  31.8805085  85.9980192   8.6015988
  31.8666654  85.1021286   8.2648286  32.5977514  86.0050856   9.2354274
  33.7331216  86.4317533  10.6469116  33.4748994  87.3534603  10.6453446
  33.2016257  86.0347967  11.3369580  38.6777405  99.5368320   3.4259201
  38.8514282  98.9714742   2.6733054  39.1706296 100.3369215   3.2438691
  24.4954365  91.5482989  11.4922760  23.9507833  92.3242797  11.6243034
  25.3733715  91.8953793  11.3341881  31.2841981  84.8794573   3.8703558
  31.4057893  83.9511219   4.0694446  30.9944024  84.8933259   2.9581874
  34.1533172  82.5649483   7.0070278  34.1754869  82.6288816   6.0522258
  34.5701231  81.7253992   7.2010784  44.5316796  92.3004743   5.0449501
  44.9747942  91.5512068   4.6468624  43.6543306  92.2914879   4.6623233
  25.2820387  90.6752885  14.3852917  24.5402123  90.8235520  14.9717547
  24.9613131  90.9361151  13.5219666  41.5644001  96.3034790   2.0543430
  42.0895325  96.6422062   1.3292750  41.4766353  95.3681805   1.8706565
  33.2264049 100.2168863  14.1833307  33.5351176  99.9718010  15.0556006
  34.0239531 100.4215502  13.6952177  30.7683061  86.3926570  18.0793491
  30.8171216  87.2688693  17.6971261  31.3105575  85.8503963  17.5065134
  41.2537907  96.9367693  17.3594628  40.4633450  96.9191832  16.8199127
  41.0171261  97.4755987  18.1143665  41.3735782  93.7860160  14.6727357
  41.4233787  93.6210167  15.6142879  41.2649705  92.9187419  14.2825237
  38.6639544  89.7691088  15.9886663  39.5649407  89.6297553  15.6970661
  38.7387519  89.9345543  16.9284841  32.9982349  87.1457942  14.8339850
  32.1285659  87.4391508  14.5622438  33.2341830  87.7298387  15.5547113
  42.8753978  96.2057101  14.9169378  42.5838787  96.5687082  15.7532839
  42.2626110  95.4924109  14.7382710  44.0749661  93.7709981   7.4371948
  44.9096552  94.2099785   7.6009509  44.2108790  93.2948634   6.6180194
  41.1241167  91.3289716  13.3849436  41.5995288  91.5217362  12.5768287
  40.2006732  91.3848902  13.1392820  35.7021383  83.3637559  12.3505270
  36.2203327  84.0998586  12.0251759  35.3476516  83.6701553  13.1852029
  35.9533977  79.7837842   7.8706167  36.2335731  79.1161031   8.4966593
  36.7384584  79.9766937   7.3580830  39.8242836  88.2055476  11.6177742
  40.7760259  88.3053574  11.6389966  39.6546286  87.4133744  12.1275826
  37.8457215  85.2911059  11.8037143  37.2507147  85.5716072  11.1083631
  37.5606912  85.7804960  12.5753884  42.3030913  91.4261596  10.7320041
  42.2707234  90.4877596  10.9179725  42.9131537  91.5045632   9.9985866
  42.4525402  88.2172639  10.7778325  41.9364451  87.4331096  10.5908253
  43.3365350  87.8891356  10.9424844  40.1136129  81.9613655   6.7374137
  39.9160950  81.6528743   7.6217469  40.7235834  82.6875293   6.8672067
  48.1207463  92.4877602   9.8726078  48.8510852  92.2262891  10.4333781
  47.5114409  91.7506324   9.9128146  46.2022760  90.6285465  10.4700529
  45.4755924  90.4941430   9.8617021  45.7870047  90.9362294  11.2757247
  34.0252937  94.3475395  18.2347902  34.9455946  94.5253994  18.4287949
  33.9902520  93.4031440  18.0827602  27.0215009  92.2576429  10.8770684
  27.2401019  93.1893537  10.8958717  27.4340783  91.8984404  11.6625487
  33.9419227  82.7644515   2.8646372  33.1319956  82.4191600   3.2401618
  34.6303644  82.4552058   3.4533983  35.8709776  81.8422561   4.4870669
  36.4240814  82.2618015   5.1460692  36.1079862  80.9158310   4.5293625
  31.8942875  87.8309635  20.2673432  31.7939602  88.7803992  20.1985524
  31.6764417  87.5027874  19.3949503  39.2488583  83.9523087   3.9949333
  38.6687252  84.6107891   3.6127385  38.9824515  83.1300431   3.5836750
  37.6992149  83.3528144   6.1970653  38.1991927  83.4644679   5.3884972
  38.3427757  83.0489197   6.8371462  31.7574145  91.2606774  19.0838494
  31.2741227  92.0607134  19.2902383  31.8435084  91.2714719  18.1305938
  27.6847482  95.1511309  11.1206928  28.6390736  95.1195251  11.0536859
  27.4860006  94.6901932  11.9357154  28.2746864  93.7212425  13.6877726
  29.0939753  94.2156503  13.7112563  28.5483672  92.8044393  13.6595293
  38.0313461  86.1123177   3.0505681  37.1439316  86.3972828   2.8325876
  38.4467450  85.9516940   2.2032958  41.3827997  86.1369698   6.7660020
  42.1588387  86.6266150   7.0384637  40.6576131  86.5627752   7.2231890
  43.8200555  86.8497317   7.8233961  44.4145046  86.6093053   7.1127269
  43.8927139  86.1304448   8.4507497  38.0054484  91.6277713   3.2655971
  37.9489686  92.0846264   2.4263604  38.5582827  90.8668398   3.0878814
  41.8159290  87.4167445   4.0906091  41.5596225  87.0164080   4.9214298
  41.1912158  88.1311239   3.9656230  46.1271628  90.1563518   6.5977382
  45.5671186  90.2256707   7.3708944  45.5215131  89.9804503   5.8776878
  38.7389264  92.8182494   0.5608500  38.6838067  92.6526766  -0.3803055
  38.1135319  93.5258527   0.7170690  23.5281779  88.0550559  14.3869923
  24.1740642  87.5449513  14.8757148  23.3198930  88.7919240  14.9613348
  36.0535171  95.1231406  19.8862063  36.9226330  95.2972058  19.5248698
  35.5741922  95.9425823  19.7637793  32.0485389  82.3190603   0.1393819
  32.0364059  83.2632443   0.2962090  32.9408811  82.1360749  -0.1546720
  30.2221351 102.2428507  11.5651497  31.1248598 102.2752117  11.8817992
  29.9958721 101.3128958  11.5797833  35.8637509  78.9133380   4.3939756
  35.0969904  78.3591867   4.5396438  36.2748214  78.9855249   5.2553907
  27.8679270  85.2018176  18.4844937  28.7310731  84.8454980  18.6948261
  27.2944680  84.8632070  19.1720341  47.7127647 106.8320032   9.2907338
  48.3506057 106.7126779   8.5870678  47.5948489 107.7800876   9.3495290
  44.5217353 106.7847460   9.2268863  44.1835864 106.6688525   8.3389397
  45.3907121 106.3838625   9.2069869  45.0037136 107.9382312  15.1855068
  44.9925777 107.5435110  14.3135572  45.1657775 107.2048384  15.7788840
  41.7244397 110.7219424  14.1334252  41.4334263 111.6265054  14.0180918
  42.3601381 110.7635951  14.8478322  42.6500604 108.0996272  10.7235612
  43.2464176 107.8752295  10.0092575  42.7075575 107.3581018  11.3261060
  50.1902763  98.2068293  11.7288133  49.8586087  99.0763704  11.5049348
  49.5948376  97.8904577  12.4082163  46.6834282 110.4080839  11.1284046
  46.3835005 111.3105878  11.0199853  46.3385342 110.1413022  11.9805199
  40.1346764 106.8594636   7.1620750  39.2097260 106.7270850   7.3698442
  40.3831177 107.6388855   7.6590693  50.0831426 102.9263379   8.8081483
  49.1748303 102.8578788   8.5140244  50.0319022 103.4035324   9.6363309
  44.1572292 104.3453025  16.7516380  43.3805626 104.9046945  16.7419245
  44.7962855 104.8309808  17.2731250  51.9493072 101.1279818  10.5859357
  51.3067453 101.4212351   9.9399152  51.4448001 101.0132738  11.3912554
  42.4118664 107.1538478  16.3134347  43.1533348 107.6923522  16.0369171
  41.7055649 107.7804767  16.4705899  47.8874004 109.2967619  14.9106509
  48.2957360 108.8550029  14.1661141  47.1651265 108.7220246  15.1640702
  44.2405074 104.2340225  12.2840066  45.0866269 104.6579639  12.4274715
  44.1803711 103.5773850  12.9778629  47.3904519 101.8944594  13.9421239
  47.1465451 102.6486654  13.4055515  47.6664449 102.2729941  14.7768486
  49.3442982 108.4383206  12.6198505  49.5559877 109.0814966  11.9432886
  49.2972730 107.6045523  12.1520435  46.9469211 101.0501027   9.5235077
  46.0853690 101.3482280   9.8151815  46.9731645 101.2671426   8.5916110
  40.6554861 109.1414699   8.8688646  41.2256218 109.5701967   8.2306131
  41.2462973 108.8597284   9.5672832  41.1480028 104.3078126  17.1149657
  40.5178688 104.9894407  17.3485054  41.0416116 104.1961208  16.1702796
  44.2245413 110.8639205  12.9481573  44.2889846 111.3259612  13.7839745
  43.5156337 110.2336570  13.0763883  34.7262703 104.2280413  10.4730572
  34.9770742 105.1127423  10.7388148  35.2622252 104.0485014   9.7005664
  40.4260770  98.6098892  19.4774908  40.0327716  98.0565091  20.1522553
  41.2426911  98.9209471  19.8681426  43.3428731 100.0256771  17.0695165
  44.0838445 100.6263924  16.9899627  43.5746654  99.2834409  16.5113208
  38.4870069 105.2113139  15.3473395  38.3723585 104.3098396  15.6480494
  37.6314587 105.4576835  14.9958211  45.5661907 113.1530879  16.9460895
  45.1225761 112.3667257  16.6281800  46.2279121 113.3410029  16.2804786
  40.3249028 114.6826681  11.4721574  40.8756453 114.5543744  10.6998568
  39.4860504 114.9821570  11.1216467  47.6643145 113.4333679  14.9742297
  47.6461621 114.2542560  14.4822566  48.5863065 113.3087754  15.1992438
  44.1216199 110.9477808  15.8165805  44.6544536 110.1866097  15.5865113
  43.5930280 110.6551460  16.5589959  47.2885894  96.0537874  11.3459447
  46.9450164  96.9439516  11.2698557  47.6564857  95.8639532  10.4829032
  44.8383288 100.8896186   4.9117120  43.9824884 100.5003037   4.7322759
  45.2510240 100.9688147   4.0516906  46.3682435  98.4242529   9.3108680
  45.8647230  98.3872665   8.4976485  46.6613042  99.3335272   9.3705337
  42.6125321  98.5081259   8.3174862  43.4778317  98.3124068   7.9580751
  42.6802830  98.2791611   9.2444218  40.2187640 100.7383467   5.6891228
  40.7931392 100.5158649   4.9564421  40.8058622 100.8072162   6.4419830
  42.5210307  97.6124716   4.4166298  41.8674720  97.2973733   3.7922913
  42.4790782  96.9900456   5.1426121  45.7548048 104.1006650   8.7413945
  44.8370609 104.3221597   8.5835634  46.1708191 104.1752960   7.8825653
  49.0873560  95.3131433   6.4477184  49.3932437  94.4528797   6.1603099
  49.8126165  95.9049054   6.2476178  43.3594640 105.6085227   6.9553375
  43.4143250 104.6559063   6.8795852  42.5485842 105.7644666   7.4394674
  41.2987000 104.2262286   4.7143754  40.4854865 104.5256457   5.1208946
  41.7945994 103.8317975   5.4318237  46.8961211 104.6904111  13.5458648
  47.2510599 104.9175584  14.4053114  47.5433343 105.0222488  12.9235903
  40.7901074 101.7980642  10.3304989  41.4300454 101.6569401   9.6327953
  39.9578605 101.5115155   9.9543591  37.7929691 101.7680967   5.1077976
  38.0536508 102.6826300   4.9987136  38.6146863 101.3005409   5.2574589
  39.2654616 103.1818724  12.2776801  39.9377670 102.9736086  11.6289449
  38.4384403 102.9840810  11.8382033  45.1680188  99.8080665  14.2942461
  44.5208103 100.5070615  14.2006938  45.9381204 100.2416809  14.6618710
  48.5758986 110.0729517  17.3693015  48.4244493 109.8440069  16.4523098
  48.5663666 111.0300118  17.3824360  45.3444323 107.6461430  12.3539281
  46.2736383 107.7972589  12.1808248  44.9235353 107.7345451  11.4987928
  44.1432654 111.6712094  10.1237819  44.0043740 111.3030879  10.9963757
  43.3547251 112.1859734   9.9521777  39.6682113 106.4561327  13.0379238
  39.5301911 105.7241566  13.6390777  40.5787037 106.3670227  12.7563425
  42.2964414 106.1681286  12.5262917  43.0064033 105.5274478  12.4849536
  42.2533722 106.4194181  13.4489098  50.2851193 113.1048640  15.4469497
  50.2263739 112.4207860  14.7800080  50.6870711 113.8467630  14.9950123
  41.0093348 103.1546504  14.3458557  40.4730705 102.7037243  14.9980153
  40.4210057 103.2892413  13.6029021  50.2868600 111.0688224  13.6783476
  49.3995379 110.7314145  13.8009875  50.8567151 110.3371255  13.9152242
  36.7432469 102.2902512  11.4311551  36.6590658 101.6828181  10.6961961
  35.9215176 102.7811530  11.4321048  46.9156183 100.7756075   6.7981746
  47.4124883 100.0226038   6.4782817  46.1443165 100.8120392   6.2324956
  43.4991152 102.9173458   6.5253431  43.1288939 102.3644499   7.2134337
  43.9950244 102.3131592   5.9728431  41.3280351 113.3770953  13.6208449
  42.0289810 114.0107436  13.7737843  40.8575466 113.7185685  12.8604088
  49.3575178  97.7425669   8.9461105  48.4438258  97.9729896   9.1143312
  49.7868279  97.8264113   9.7975138  49.1281636 105.9315561  11.4460999
  48.4753087 106.1791468  10.7913452  49.5062016 105.1179699  11.1123477
  45.1769209 106.6735372  17.9327036  44.5009847 106.5729501  18.6029412
  45.9996843 106.5174586  18.3963034  38.8956486 100.3277449  12.7706537
  38.9597812 101.1892280  12.3583935  38.8323606  99.7151451  12.0378896
  38.3708758 102.4000582  16.4179571  38.9980797 102.0177659  17.0317096
  37.5136677 102.1814784  16.7835264  48.7702867 112.8063557  18.0233307
  49.3142771 113.4193515  17.5288262  48.1889712 113.3643135  18.5400320
  38.6768548 102.2833007   8.3325475  37.9555134 102.8968975   8.1932948
  39.4661804 102.8190772   8.2542121  41.4794861  99.6187434  14.6066127
  42.0029263  99.8649730  15.3692436  41.2607195 100.4507469  14.1869264
  42.6847406 100.5601129  12.2915797  42.3444227  99.7608942  12.6936477
  41.9786413 100.8602840  11.7192630  43.3363878  97.6450441  10.7443120
  44.1589948  97.1710920  10.6222010  43.5801942  98.4240925  11.2441806
  40.8602457 104.3369562   8.5535099  40.7147038 104.6509865   9.4459380
  40.3827661 104.9554462   8.0005997  42.7198840 101.3272110   8.6015988
  42.7060409 100.4313203   8.2648286  43.4371268 101.3342774   9.2354274
  44.5724971 101.7609450  10.6469116  44.3142748 102.6826521  10.6453446
  44.0410011 101.3639885  11.3369580  35.3348119 106.8774906  11.4922760
  34.7901587 107.6534714  11.6243034  36.2127469 107.2245711  11.3341881
  42.1235736 100.2086490   3.8703558  42.2451647  99.2803137   4.0694446
  41.8337778 100.2225176   2.9581874  44.9926926  97.8941401   7.0070278
  45.0148623  97.9580734   6.0522258  45.4094985  97.0545909   7.2010784
  36.1214141 106.0044803  14.3852917  35.3795877 106.1527438  14.9717547
  35.8006885 106.2653068  13.5219666  44.0657804 115.5460781  14.1833307
  44.3744930 115.3009928  15.0556006  44.8633286 115.7507419  13.6952177
  41.6076815 101.7218488  18.0793491  41.6564971 102.5980610  17.6971261
  42.1499330 101.1795881  17.5065134  52.0931661 112.2659611  17.3594628
  51.3027205 112.2483750  16.8199127  51.8565016 112.8047905  18.1143665
  52.2129536 109.1152077  14.6727357  52.2627541 108.9502085  15.6142879
  52.1043459 108.2479336  14.2825237  49.5033299 105.0983005  15.9886663
  50.4043161 104.9589470  15.6970661  49.5781273 105.2637460  16.9284841
  43.8376104 102.4749860  14.8339850  42.9679413 102.7683426  14.5622438
  44.0735584 103.0590305  15.5547113  53.7147733 111.5349019  14.9169378
  53.4232541 111.8978999  15.7532839  53.1019864 110.8216027  14.7382710
  51.9634921 106.6581633  13.3849436  52.4389043 106.8509280  12.5768287
  51.0400487 106.7140819  13.1392820  46.5415138  98.6929477  12.3505270
  47.0597082  99.4290504  12.0251759  46.1870270  98.9993470  13.1852029
  46.7927732  95.1129760   7.8706167  47.0729486  94.4452949   8.4966593
  47.5778339  95.3058855   7.3580830  50.6636590 103.5347394  11.6177742
  51.6154013 103.6345491  11.6389966  50.4940041 102.7425662  12.1275826
  48.6850970 100.6202977  11.8037143  48.0900902 100.9007989  11.1083631
  48.4000666 101.1096878  12.5753884  53.2919156 103.5464557  10.7778325
  52.7758205 102.7623013  10.5908253  54.1759105 103.2183273  10.9424844
  50.9529883  97.2905572   6.7374137  50.7554705  96.9820660   7.6217469
  51.5629589  98.0167211   6.8672067  44.8646691 109.6767312  18.2347902
  45.7849701 109.8545911  18.4287949  44.8296274 108.7323358  18.0827602
  37.8608764 107.5868347  10.8770684  38.0794774 108.5185455  10.8958717
  38.2734538 107.2276321  11.6625487  44.7812982  98.0936432   2.8646372
  43.9713710  97.7483517   3.2401618  45.4697399  97.7843976   3.4533983
  46.7103530  97.1714479   4.4870669  47.2634569  97.5909933   5.1460692
  46.9473616  96.2450227   4.5293625  42.7336629 103.1601553  20.2673432
  42.6333356 104.1095910  20.1985524  42.5158171 102.8319792  19.3949503
  48.5385903  98.6820062   6.1970653  49.0385682  98.7936597   5.3884972
  49.1821511  98.3781115   6.8371462  42.5967899 106.5898692  19.0838494
  42.1134981 107.3899052  19.2902383  42.6828838 106.6006636  18.1305938
  38.5241237 110.4803226  11.1206928  39.4784490 110.4487169  11.0536859
  38.3253760 110.0193850  11.9357154  39.1140619 109.0504342  13.6877726
  39.9333508 109.5448421  13.7112563  39.3877427 108.1336310  13.6595293
  34.3675533 103.3842476  14.3869923  35.0134397 102.8741430  14.8757148
  34.1592684 104.1211158  14.9613348  46.8928925 110.4523324  19.8862063
  47.7620085 110.6263976  19.5248698  46.4135677 111.2717741  19.7637793
  41.0615106 117.5720425  11.5651497  41.9642352 117.6044035  11.8817992
  40.8352476 116.6420876  11.5797833  46.7031263  94.2425297   4.3939756
  45.9363659  93.6883784   4.5396438  47.1141968  94.3147166   5.2553907
  38.7073024 100.5310093  18.4844937  39.5704486 100.1746898  18.6948261
  38.1338435 100.1923988  19.1720341  51.2654525 113.9390810  19.4774908
  50.8721470 113.3857009  20.1522553  52.0820665 114.2501388  19.8681426
  54.1822486 115.3548689  17.0695165  54.9232199 115.9555842  16.9899627
  54.4140409 114.6126327  16.5113208  49.2102513 117.7292499  16.4179571
  49.8374551 117.3469577  17.0317096  48.3530431 117.5106701  16.7835264
  52.4470570 117.0510405  18.0793491  52.4958725 117.9272528  17.6971261
  52.9893084 116.5087798  17.5065134  53.5730384 118.4893470  20.2673432
  53.4727111 119.4387827  20.1985524  53.3551926 118.1611709  19.3949503
  45.2069288 118.7134394  14.3869923  45.8528151 118.2033348  14.8757148
  44.9986439 119.4503076  14.9613348  49.5466779 115.8602011  18.4844937
  50.4098240 115.5038816  18.6948261  48.9732189 115.5215906  19.1720341
  28.6063685  59.4526927   2.1714803  28.5476231  58.7686147   1.5045386
  29.0083203  60.1945917   1.7195429  27.0915359  59.1541844   4.7478613
  27.6355263  59.7671802   4.2533568  26.5102204  59.7121423   5.2645626
  30.4144153  58.6137898   4.0839935  29.6239697  58.5962037   3.5444434
  30.1777508  59.1526192   4.8388971  32.0360225  57.8827306   1.6414685
  31.7445034  58.2457287   2.4778146  31.4232357  57.1694314   1.4628017
  25.2141418  56.8001611   6.6107370  26.0832577  56.9742263   6.2494005
  24.7348169  57.6196028   6.4883099  36.8733893  68.5090237  -3.9847355
  37.5112303  68.3896984  -4.6884015  36.7554736  69.4571081  -3.9259403
  33.6823600  68.4617665  -4.0485831  33.3442111  68.3458730  -4.9365296
  34.5513368  68.0608830  -4.0684825  34.1643383  69.6152517   1.9100375
  34.1532023  69.2205315   1.0380878  34.3264022  68.8818589   2.5034146
  30.8850644  72.3989629   0.8579559  30.5940510  73.3035259   0.7426225
  31.5207628  72.4406156   1.5723628  31.8106851  69.7766477  -2.5519082
  32.4070423  69.5522499  -3.2662119  31.8681822  69.0351223  -1.9493634
  41.8283589  66.1716924  -6.0061169  42.5608761  65.6016141  -5.7723339
  41.0722945  65.7838524  -5.5654663  39.3509009  59.8838498  -1.5466560
  39.0192334  60.7533909  -1.7705345  38.7554623  59.5674782  -0.8672530
  35.8440529  72.0851044  -2.1470648  35.5441252  72.9876083  -2.2554840
  35.4991588  71.8183227  -1.2949495  39.2437673  64.6033584  -4.4673210
  38.3354550  64.5348993  -4.7614449  39.1925268  65.0805529  -3.6391385
  33.3178538  66.0223230   3.4761687  32.5411872  66.5817150   3.4664552
  33.9569101  66.5080013   3.9976557  41.1099319  62.8050023  -2.6895336
  40.4673699  63.0982556  -3.3355542  40.6054248  62.6902943  -1.8842140
  31.5724911  68.8308683   3.0379654  32.3139595  69.3693727   2.7614478
  30.8661896  69.4574972   3.1951206  37.0480250  70.9737824   1.6351815
  37.4563606  70.5320234   0.8906448  36.3257512  70.3990451   1.8886008
  33.4011320  65.9110430  -0.9914628  34.2472516  66.3349844  -0.8479979
  33.3409958  65.2544055  -0.2976064  37.3709065  71.5339014  -4.6095896
  36.7417927  71.6984728  -5.3119828  36.9834727  71.9480624  -3.8384932
  41.2498297  72.4693452  -7.2551532  40.5649335  72.8492353  -7.8054499
  41.3342146  73.0788779  -6.5219584  36.5510766  63.5714799   0.6666546
  36.3071698  64.3256859   0.1300822  36.8270696  63.9500146   1.5013793
  38.5049229  70.1153411  -0.6556188  38.7166124  70.7585171  -1.3321807
  38.4578977  69.2815728  -1.1234258  29.8161108  70.8184904  -4.4066047
  30.3862465  71.2472172  -5.0448563  30.4069220  70.5367489  -3.7081862
  30.3086274  65.9848331   3.8394964  29.6784935  66.6664612   4.0730361
  30.2022362  65.8731413   2.8948102  39.6195056  72.9925367  -2.4833831
  40.4412500  72.5905554  -2.7651149  39.6157459  72.8893601  -1.5317715
  33.3851660  72.5409410  -0.3273121  33.4496092  73.0029817   0.5085051
  32.6762584  71.9106775  -0.1990811  47.7101050  69.3364115  -6.1348860
  46.9564758  68.7671513  -6.2904855  47.8448591  69.3026780  -5.1878225
  29.5867017  60.2869097   6.2020215  29.1933963  59.7335296   6.8767859
  30.4033158  60.5979676   6.5926733  32.5034978  61.7026976   3.7940472
  33.2444692  62.3034129   3.7144934  32.7352901  60.9604614   3.2358514
  27.6476316  66.8883344   2.0718701  27.5329831  65.9868601   2.3725800
  26.7920834  67.1347040   1.7203518  34.7268154  74.8301084   3.6706202
  34.2832008  74.0437462   3.3527106  35.3885368  75.0180234   3.0050093
  29.4855275  76.3596885  -1.8033120  30.0362700  76.2313949  -2.5756126
  28.6466751  76.6591774  -2.1538227  36.8249392  75.1103884   1.6987603
  36.8067867  75.9312765   1.2067872  37.7469312  74.9857959   1.9237744
  33.2822446  72.6248013   2.5411112  33.8150783  71.8636301   2.3110420
  32.7536527  72.3321665   3.2835266  39.6268005  69.9483026  -4.8303030
  38.9691679  70.6382288  -4.7422902  40.4308404  70.3379458  -4.4869044
  38.4373464  68.3027399  -6.7799088  38.9505345  68.9357391  -6.2777379
  39.0874688  67.7028594  -7.1455728  34.9154295  65.7776854  -4.5340748
  33.9976856  65.9991801  -4.6919060  35.3314438  65.8523165  -5.3929041
  39.2035260  73.2833400  -8.6519946  38.7497587  72.4424310  -8.5954755
  38.5729227  73.9194799  -8.3145166  37.6468199  75.1209897  -7.7170128
  37.9391174  75.6814954  -8.4357762  38.1566820  75.4138458  -6.9616969
  36.0567458  66.3674316   0.2703955  36.4116846  66.5945789   1.1298421
  36.7039589  66.6992692  -0.3518790  41.7865195  69.4892752  -9.0246716
  41.6483094  69.6794348  -9.9525527  41.4301414  70.2512134  -8.5678665
  41.8134575  71.5569279  -4.0135445  42.2471081  71.4644568  -3.1652391
  42.5266155  71.5326779  -4.6515429  35.5462470  75.1571373  -2.4802344
  35.5999492  75.7262309  -1.7124628  34.6777251  75.3273258  -2.8448307
  28.4260863  64.8588929  -0.9977893  29.0983916  64.6506291  -1.6465244
  27.5990649  64.6611015  -1.4372661  42.6750124  71.5992979  -1.4802559
  42.8686014  72.5038790  -1.2343284  42.5750742  71.1400398  -0.6463974
  34.3286435  61.4850870   1.0187768  33.6814350  62.1840819   0.9252244
  35.0987450  61.9187014   1.3864016  37.7365233  71.7499722   4.0938321
  37.5850739  71.5210274   3.1768405  37.7269912  72.7070323   4.1069666
  34.5050569  69.3231635  -0.9215412  35.4342629  69.4742794  -1.0946445
  34.0841599  69.4115656  -1.7766766  33.3038901  73.3482299  -3.1516875
  33.1649987  72.9801084  -2.2790936  32.5153497  73.8629939  -3.3232917
  34.8544116  72.7263902  -5.7628037  34.5193949  72.6864672  -4.8670387
  34.3548062  72.0608618  -6.2357627  28.8288360  68.1331532  -0.2375456
  28.6908158  67.4011771   0.3636083  29.7393284  68.0440432  -0.5191268
  31.4570661  67.8451491  -0.7491776  32.1670279  67.2044683  -0.7905158
  31.4139969  68.0964386   0.1734405  39.4457440  74.7818845   2.1714803
  39.3869986  74.0978065   1.5045386  39.8476958  75.5237835   1.7195429
  30.1699595  64.8316709   1.0703863  29.6336952  64.3807448   1.7225460
  29.5816303  64.9662618   0.3274328  39.4474847  72.7458428   0.4028783
  38.5601626  72.4084350   0.5255182  40.0173398  72.0141460   0.6397548
  32.9776000  77.4059881  -2.6309974  32.9046172  78.2114852  -2.1190669
  32.5353393  77.6051847  -3.4561953  43.9292187  68.1566646  -4.8354655
  43.9182064  69.0391361  -5.2060722  43.0609567  67.8038197  -5.0300118
  35.4374684  77.3046715  -0.4751815  36.1502656  77.9394180  -0.5475914
  34.9464712  77.4010581  -1.2911813  30.4886597  75.0541158   0.3453756
  31.1896057  75.6877641   0.4983150  30.0181712  75.3955890  -0.4150605
  38.2887883  67.6085766  -1.8293694  37.6359333  67.8561673  -2.4841241
  38.6668263  66.7949904  -2.1631217  34.3375456  68.3505577   4.6572343
  33.6616093  68.2499706   5.3274718  35.1603090  68.1944791   5.1208340
  33.0798239  79.6572504  -1.1070041  33.6316547  79.8204126  -0.3420956
  33.4204433  80.2476942  -1.7790016  27.5315005  64.0770787   3.1424878
  28.1587044  63.6947864   3.7562402  26.6742924  63.8584989   3.5080570
  37.9309113  74.4833762   4.7478613  38.4749017  75.0963720   4.2533568
  37.3495958  75.0413340   5.2645626  36.2166626  77.6054480  -4.1206359
  36.0917766  76.8044220  -4.6295413  36.8745718  78.1000673  -4.6092389
  38.2801535  75.4063500  -2.4926809  37.3331870  75.2868851  -2.5648482
  38.6284308  74.5185998  -2.4100547  30.6401108  61.2957639   1.3311433
  31.1635510  61.5419935   2.0937742  30.4213441  62.1277674   0.9114570
  35.2847968  75.2016216  -6.2922457  35.1372931  74.2732924  -6.1114886
  36.1101462  75.2236307  -6.7765381  38.8882090  76.0244775  -5.2057584
  39.8128637  75.8187636  -5.3433133  38.7197393  75.7761176  -4.2968242
  31.8453653  62.2371334  -0.9838896  31.5050474  61.4379147  -0.5818216
  31.1392659  62.5373045  -1.5562063  33.7331217  63.4379655  -2.6285578
  33.4748995  64.3596726  -2.6301247  33.2016258  63.0410090  -1.9385114
  38.6777406  76.5430442  -9.8495492  38.8514284  75.9776865 -10.6021640
  39.1706297  77.3431337 -10.0316002  24.4954366  68.5545111  -1.7831934
  23.9507834  69.3304919  -1.6511659  25.3733716  68.9015916  -1.9412812
  44.5316797  69.3066865  -8.2305193  44.9747943  68.5574190  -8.6286069
  43.6543308  69.2977002  -8.6131461  25.2820388  67.6815008   1.1098223
  24.5402124  67.8297643   1.6962854  24.9613132  67.9423273   0.2464973
  41.5644002  73.3096912 -11.2211263  42.0895326  73.6484185 -11.9461943
  41.4766354  72.3743928 -11.4048129  33.2264050  77.2230986   0.9078613
  33.5351177  76.9780133   1.7801313  34.0239532  77.4277624   0.4197484
  30.7683062  63.3988693   4.8038798  30.8171218  64.2750815   4.4216567
  31.3105576  62.8566086   4.2310441  41.2537908  73.9429816   4.0839935
  40.4633452  73.9253955   3.5444434  41.0171262  74.4818110   4.8388971
  41.3735783  70.7922282   1.3972663  41.4233788  70.6272290   2.3388186
  41.2649706  69.9249541   1.0070544  38.6639545  66.7753210   2.7131970
  39.5649408  66.6359675   2.4215968  38.7387520  66.9407665   3.6530147
  32.9982351  64.1520065   1.5585156  32.1285660  64.4453631   1.2867745
  33.2341831  64.7360510   2.2792420  42.8753980  73.2119224   1.6414685
  42.5838788  73.5749204   2.4778146  42.2626111  72.4986232   1.4628017
  44.0749662  70.7772104  -5.8382745  44.9096553  71.2161908  -5.6745185
  44.2108791  70.3010757  -6.6574499  41.1241168  68.3351838   0.1094743
  41.5995290  68.5279485  -0.6986406  40.2006733  68.3911024  -0.1361874
  35.7021384  60.3699682  -0.9249423  36.2203328  61.1060709  -1.2502935
  35.3476517  60.6763675  -0.0902664  39.8242837  65.2117598  -1.6576952
  40.7760260  65.3115696  -1.6364728  39.6546287  64.4195867  -1.1478867
  37.8457216  62.2973182  -1.4717551  37.2507149  62.5778194  -2.1671062
  37.5606913  62.7867083  -0.7000810  42.3030915  68.4323718  -2.5434652
  42.2707235  67.4939719  -2.3574968  42.9131538  68.5107755  -3.2768827
  42.4525403  65.2234762  -2.4976369  41.9364452  64.4393218  -2.6846440
  43.3365352  64.8953478  -2.3329849  48.1207465  69.4939725  -3.4028615
  48.8510853  69.2325013  -2.8420912  47.5114410  68.7568447  -3.3626547
  46.2022762  67.6347588  -2.8054164  45.4755925  67.5003553  -3.4137672
  45.7870049  67.9424416  -1.9997446  34.0252938  71.3537517   4.9593209
  34.9455948  71.5316116   5.1533256  33.9902521  70.4093563   4.8072908
  27.0215011  69.2638552  -2.3984010  27.2401020  70.1955660  -2.3795976
  27.4340785  68.9046526  -1.6129206  31.8942876  64.8371758   6.9918739
  31.7939603  65.7866115   6.9230830  31.6764418  64.5089997   6.1194809
  31.7574146  68.2668897   5.8083801  31.2741228  69.0669257   6.0147690
  31.8435085  68.2776841   4.8551245  27.6847484  72.1573431  -2.1547765
  28.6390737  72.1257374  -2.2217834  27.4860007  71.6964055  -1.3397540
  28.2746866  70.7274547   0.4123032  29.0939755  71.2218626   0.4357869
  28.5483673  69.8106515   0.3840600  43.8200557  63.8559440  -5.4520732
  44.4145047  63.6155176  -6.1627424  43.8927140  63.1366570  -4.8247196
  46.1271629  67.1625641  -6.6777311  45.5671187  67.2318830  -5.9045749
  45.5215133  66.9866625  -7.3977815  23.5281780  65.0612681   1.1115229
  24.1740644  64.5511635   1.6002454  23.3198931  65.7981363   1.6858655
  36.0535172  72.1293529   6.6107370  36.9226332  72.3034181   6.2494005
  35.5741924  72.9487945   6.4883099  30.2221352  79.2490630  -1.7103197
  31.1248599  79.2814240  -1.3936702  29.9958722  78.3191081  -1.6956861
  27.8679271  62.2080298   5.2090244  28.7310732  61.8517103   5.4193568
  27.2944682  61.8694193   5.8965648  47.7127648  83.8382155  -3.9847355
  48.3506058  83.7188902  -4.6884015  47.5948491  84.7862999  -3.9259403
  44.5217354  83.7909583  -4.0485831  44.1835866  83.6750647  -4.9365296
  45.3907122  83.3900748  -4.0684825  45.0037137  84.9444434   1.9100375
  44.9925778  84.5497233   1.0380878  45.1657777  84.2110507   2.5034146
  41.7244398  87.7281546   0.8579559  41.4334264  88.6327177   0.7426225
  42.3601383  87.7698074   1.5723628  42.6500605  85.1058395  -2.5519082
  43.2464177  84.8814417  -3.2662119  42.7075577  84.3643140  -1.9493634
  50.1902764  75.2130416  -1.5466560  49.8586089  76.0825827  -1.7705345
  49.5948377  74.8966700  -0.8672530  46.6834283  87.4142962  -2.1470648
  46.3835006  88.3168001  -2.2554840  46.3385343  87.1475145  -1.2949495
  40.1346765  83.8656759  -6.1133943  39.2097261  83.7332973  -5.9056251
  40.3831178  84.6450978  -5.6164001  50.0831427  79.9325502  -4.4673210
  49.1748304  79.8640910  -4.7614449  50.0319023  80.4097447  -3.6391385
  44.1572293  81.3515147   3.4761687  43.3805627  81.9109068   3.4664552
  44.7962856  81.8371930   3.9976557  51.9493074  78.1341940  -2.6895336
  51.3067454  78.4274473  -3.3355542  51.4448002  78.0194861  -1.8842140
  42.4118665  84.1600601   3.0379654  43.1533350  84.6985645   2.7614478
  41.7055651  84.7866890   3.1951206  47.8874005  86.3029741   1.6351815
  48.2957361  85.8612152   0.8906448  47.1651266  85.7282369   1.8886008
  44.2405075  81.2402348  -0.9914628  45.0866270  81.6641762  -0.8479979
  44.1803713  80.5835972  -0.2976064  47.3904520  78.9006716   0.6666546
  47.1465452  79.6548777   0.1300822  47.6664451  79.2792064   1.5013793
  49.3442983  85.4445329  -0.6556188  49.5559878  86.0877089  -1.3321807
  49.2972731  84.6107645  -1.1234258  46.9469212  78.0563149  -3.7519616
  46.0853691  78.3544403  -3.4602879  46.9731647  78.2733548  -4.6838584
  40.6554862  86.1476822  -4.4066047  41.2256220  86.5764090  -5.0448563
  41.2462974  85.8659406  -3.7081862  41.1480029  81.3140249   3.8394964
  40.5178690  81.9956530   4.0730361  41.0416117  81.2023331   2.8948102
  44.2245414  87.8701328  -0.3273121  44.2889847  88.3321735   0.5085051
  43.5156338  87.2398692  -0.1990811  34.7262704  81.2342536  -2.8024121
  34.9770743  82.1189545  -2.5366545  35.2622253  81.0547137  -3.5749029
  40.4260772  75.6161015   6.2020215  40.0327717  75.0627213   6.8767859
  41.2426912  75.9271593   6.5926733  43.3428733  77.0318894   3.7940472
  44.0838446  77.6326047   3.7144934  43.5746656  76.2896532   3.2358514
  38.4870071  82.2175261   2.0718701  38.3723586  81.3160518   2.3725800
  37.6314588  82.4638958   1.7203518  45.5661908  90.1593002   3.6706202
  45.1225763  89.3729380   3.3527106  46.2279122  90.3472152   3.0050093
  40.3249030  91.6888803  -1.8033120  40.8756455  91.5605866  -2.5756126
  39.4860506  91.9883692  -2.1538227  47.6643146  90.4395801   1.6987603
  47.6461622  91.2604682   1.2067872  48.5863067  90.3149877   1.9237744
  44.1216201  87.9539931   2.5411112  44.6544537  87.1928219   2.3110420
  43.5930282  87.6613583   3.2835266  47.2885896  73.0599997  -1.9295247
  46.9450165  73.9501639  -2.0056136  47.6564858  72.8701655  -2.7925662
  44.8383289  77.8958309  -8.3637573  43.9824886  77.5065159  -8.5431935
  45.2510241  77.9750270  -9.2237788  46.3682436  75.4304652  -3.9646013
  45.8647232  75.3934787  -4.7778208  46.6613043  76.3397395  -3.9049357
  42.6125322  75.5143382  -4.9579832  43.4778319  75.3186190  -5.3173942
  42.6802831  75.2853734  -4.0310475  40.2187641  77.7445590  -7.5863465
  40.7931393  77.5220771  -8.3190272  40.8058623  77.8134284  -6.8334864
  42.5210309  74.6186839  -8.8588395  41.8674721  74.3035856  -9.4831781
  42.4790783  73.9962579  -8.1328573  45.7548049  81.1068772  -4.5340748
  44.8370610  81.3283719  -4.6919060  46.1708193  81.1815083  -5.3929041
  49.0873561  72.3193556  -6.8277509  49.3932438  71.4590920  -7.1151594
  49.8126166  72.9111176  -7.0278515  43.3594641  82.6147349  -6.3201318
  43.4143251  81.6621186  -6.3958841  42.5485843  82.7706788  -5.8360020
  41.2987001  81.2324409  -8.5610939  40.4854866  81.5318579  -8.1545747
  41.7945995  80.8380098  -7.8436457  46.8961213  81.6966233   0.2703955
  47.2510600  81.9237707   1.1298421  47.5433344  82.0284610  -0.3518790
  40.7901076  78.8042764  -2.9449704  41.4300455  78.6631524  -3.6426741
  39.9578606  78.5177278  -3.3211102  37.7929692  78.7743089  -8.1676717
  38.0536509  79.6888423  -8.2767557  38.6146864  78.3067532  -8.0180105
  39.2654617  80.1880847  -0.9977893  39.9377671  79.9798209  -1.6465244
  38.4384404  79.9902933  -1.4372661  45.1680189  76.8142787   1.0187768
  44.5208105  77.5132737   0.9252244  45.9381205  77.2478931   1.3864016
  48.5758987  87.0791640   4.0938321  48.4244494  86.8502191   3.1768405
  48.5663667  88.0362241   4.1069666  45.3444324  84.6523552  -0.9215412
  46.2736384  84.8034712  -1.0946445  44.9235354  84.7407573  -1.7766766
  44.1432656  88.6774217  -3.1516875  44.0043741  88.3093001  -2.2790936
  43.3547252  89.1921856  -3.3232917  39.6682115  83.4623450  -0.2375456
  39.5301913  82.7303688   0.3636083  40.5787038  83.3732350  -0.5191268
  42.2964415  83.1743409  -0.7491776  43.0064034  82.5336601  -0.7905158
  42.2533724  83.4256304   0.1734405  50.2851194  90.1110762   2.1714803
  50.2263740  89.4269982   1.5045386  50.6870712  90.8529752   1.7195429
  41.0093349  80.1608627   1.0703863  40.4730706  79.7099365   1.7225460
  40.4210058  80.2954536   0.3274328  50.2868601  88.0750346   0.4028783
  49.3995380  87.7376268   0.5255182  50.8567152  87.3433377   0.6397548
  36.7432471  79.2964634  -1.8443142  36.6590659  78.6890304  -2.5792732
  35.9215177  79.7873653  -1.8433646  46.9156184  77.7818198  -6.4772947
  47.4124884  77.0288160  -6.7971877  46.1443166  77.8182515  -7.0429738
  43.4991153  79.9235581  -6.7501262  43.1288941  79.3706621  -6.0620357
  43.9950246  79.3193714  -7.3026262  41.3280352  90.3833076   0.3453756
  42.0289811  91.0169559   0.4983150  40.8575467  90.7247808  -0.4150605
  49.3575179  74.7487791  -4.3293588  48.4438259  74.9792018  -4.1611381
  49.7868281  74.8326236  -3.4779556  49.1281638  82.9377683  -1.8293694
  48.4753088  83.1853591  -2.4841241  49.5062018  82.1241822  -2.1631217
  45.1769211  83.6797494   4.6572343  44.5009848  83.5791624   5.3274718
  45.9996845  83.5236708   5.1208340  38.8956487  77.3339572  -0.5048156
  38.9597813  78.1954403  -0.9170759  38.8323607  76.7213573  -1.2375798
  38.3708759  79.4062704   3.1424878  38.9980798  79.0239782   3.7562402
  37.5136678  79.1876906   3.5080570  48.7702868  89.8125679   4.7478613
  49.3142772  90.4255638   4.2533568  48.1889713  90.3705258   5.2645626
  38.6768549  79.2895130  -4.9429219  37.9555135  79.9031098  -5.0821745
  39.4661805  79.8252895  -5.0212573  41.4794863  76.6249556   1.3311433
  42.0029264  76.8711853   2.0937742  41.2607196  77.4569591   0.9114570
  42.6847408  77.5663252  -0.9838896  42.3444228  76.7671065  -0.5818216
  41.9786414  77.8664962  -1.5562063  43.3363880  74.6512564  -2.5311573
  44.1589949  74.1773042  -2.6532683  43.5801943  75.4303048  -2.0312887
  40.8602458  81.3431685  -4.7219595  40.7147039  81.6571988  -3.8295313
  40.3827662  81.9616585  -5.2748696  42.7198841  78.3334233  -4.6738705
  42.7060410  77.4375326  -5.0106407  43.4371269  78.3404896  -4.0400419
  44.5724972  78.7671573  -2.6285578  44.3142750  79.6888643  -2.6301247
  44.0410012  78.3702007  -1.9385114  35.3348120  83.8837029  -1.7831934
  34.7901589  84.6596837  -1.6511659  36.2127470  84.2307834  -1.9412812
  42.1235737  77.2148613  -9.4051135  42.2451648  76.2865259  -9.2060248
  41.8337779  77.2287299 -10.3172820  44.9926927  74.9003523  -6.2684415
  45.0148624  74.9642856  -7.2232436  45.4094987  74.0608032  -6.0743909
  36.1214142  83.0106925   1.1098223  35.3795878  83.1589561   1.6962854
  35.8006887  83.2715191   0.2464973  44.0657805  92.5522904   0.9078613
  44.3744931  92.3072050   1.7801313  44.8633287  92.7569542   0.4197484
  41.6076817  78.7280610   4.8038798  41.6564972  79.6042733   4.4216567
  42.1499331  78.1858003   4.2310441  52.0931662  89.2721734   4.0839935
  51.3027206  89.2545872   3.5444434  51.8565017  89.8110027   4.8388971
  52.2129537  86.1214200   1.3972663  52.2627542  85.9564207   2.3388186
  52.1043461  85.2541459   1.0070544  49.5033300  82.1045128   2.7131970
  50.4043163  81.9651593   2.4215968  49.5781274  82.2699583   3.6530147
  43.8376105  79.4811983   1.5585156  42.9679414  79.7745549   1.2867745
  44.0735585  80.0652428   2.2792420  53.7147734  88.5411141   1.6414685
  53.4232543  88.9041122   2.4778146  53.1019865  87.8278150   1.4628017
  51.9634922  83.6643756   0.1094743  52.4389044  83.8571402  -0.6986406
  51.0400488  83.7202942  -0.1361874  46.5415139  75.6991600  -0.9249423
  47.0597083  76.4352627  -1.2502935  46.1870272  76.0055593  -0.0902664
  46.7927733  72.1191882  -5.4048527  47.0729487  71.4515071  -4.7788100
  47.5778340  72.3120978  -5.9173863  50.6636591  80.5409516  -1.6576952
  51.6154014  80.6407614  -1.6364728  50.4940042  79.7487785  -1.1478867
  48.6850971  77.6265099  -1.4717551  48.0900903  77.9070112  -2.1671062
  48.4000668  78.1159000  -0.7000810  53.2919158  80.5526679  -2.4976369
  52.7758206  79.7685136  -2.6846440  54.1759106  80.2245396  -2.3329849
  50.9529885  74.2967695  -6.5380556  50.7554706  73.9882783  -5.6537224
  51.5629590  75.0229334  -6.4082626  44.8646693  86.6829435   4.9593209
  45.7849702  86.8608034   5.1533256  44.8296276  85.7385480   4.8072908
  37.8608765  84.5930470  -2.3984010  38.0794775  85.5247577  -2.3795976
  38.2734539  84.2338444  -1.6129206  44.7812983  75.0998555 -10.4108321
  43.9713711  74.7545640 -10.0353075  45.4697400  74.7906099  -9.8220710
  46.7103531  74.1776602  -8.7884025  47.2634570  74.5972055  -8.1294002
  46.9473618  73.2512350  -8.7461069  42.7336630  80.1663675   6.9918739
  42.6333357  81.1158032   6.9230830  42.5158173  79.8381914   6.1194809
  48.5385905  75.6882185  -7.0784040  49.0385683  75.7998719  -7.8869721
  49.1821513  75.3843237  -6.4383232  42.5967901  83.5960814   5.8083801
  42.1134982  84.3961174   6.0147690  42.6828840  83.6068759   4.8551245
  38.5241238  87.4865349  -2.1547765  39.4784492  87.4549291  -2.2217834
  38.3253762  87.0255973  -1.3397540  39.1140620  86.0566465   0.4123032
  39.9333509  86.5510544   0.4357869  39.3877428  85.1398433   0.3840600
  34.3675534  80.3904599   1.1115229  35.0134398  79.8803553   1.6002454
  34.1592686  81.1273280   1.6858655  46.8928927  87.4585446   6.6107370
  47.7620086  87.6326099   6.2494005  46.4135678  88.2779863   6.4883099
  41.0615107  94.5782547  -1.7103197  41.9642354  94.6106158  -1.3936702
  40.8352477  93.6482998  -1.6956861  46.7031264  71.2487420  -8.8814938
  45.9363660  70.6945907  -8.7358255  47.1141969  71.3209289  -8.0200786
  38.7073025  77.5372216   5.2090244  39.5704487  77.1809021   5.4193568
  38.1338436  77.1986111   5.8965648  51.2654526  90.9452933   6.2020215
  50.8721472  90.3919131   6.8767859  52.0820666  91.2563511   6.5926733
  54.1822487  92.3610812   3.7940472  54.9232201  92.9617965   3.7144934
  54.4140410  91.6188449   3.2358514  49.2102514  94.7354622   3.1424878
  49.8374553  94.3531699   3.7562402  48.3530433  94.5168824   3.5080570
  52.4470571  94.0572528   4.8038798  52.4958727  94.9334651   4.4216567
  52.9893085  93.5149921   4.2310441  53.5730385  95.4955593   6.9918739
  53.4727112  96.4449950   6.9230830  53.3551927  95.1673832   6.1194809
  45.2069289  95.7196516   1.1115229  45.8528152  95.2095470   1.6002454
  44.9986440  96.4565198   1.6858655  49.5466780  92.8664134   5.2090244
  50.4098241  92.5100938   5.4193568  48.9732191  92.5278028   5.8965648
  50.2851195  67.1172885 -11.1039890  50.2263741  66.4332105 -11.7709307
  50.6870714  67.8591875 -11.5559264  48.7702869  66.8187802  -8.5276080
  49.3142773  67.4317760  -9.0221125  48.1889714  67.3767380  -8.0109067
  52.0931664  66.2783856  -9.1914759  51.3027207  66.2607995  -9.7310259
  51.8565018  66.8172150  -8.4365722  53.7147735  65.5473264 -11.6340009
  53.4232544  65.9103245 -10.7976548  53.1019867  64.8340272 -11.8126677
  46.8928928  64.4647569  -6.6647324  47.7620087  64.6388221  -7.0260689
  46.4135679  65.2841986  -6.7871594  51.2654527  67.9515055  -7.0734478
  50.8721473  67.3981254  -6.3986834  52.0820668  68.2625634  -6.6827961
  54.1822488  69.3672934  -9.4814222  54.9232202  69.9680087  -9.5609759
  54.4140411  68.6250572 -10.0396179  49.2102515  71.7416745 -10.1329815
  49.8374554  71.3593822  -9.5192291  48.3530434  71.5230947  -9.7674123
  52.4470572  71.0634651  -8.4715896  52.4958728  71.9396773  -8.8538126
  52.9893087  70.5212044  -9.0444253  53.5730386  72.5017716  -6.2835954
  53.4727113  73.4512073  -6.3523863  53.3551928  72.1735955  -7.1559884
  45.2069290  72.7258639 -12.1639464  45.8528154  72.2157593 -11.6752239
  44.9986441  73.4627321 -11.5896039  49.5466781  69.8726256  -8.0664450
  50.4098243  69.5163061  -7.8561125  48.9732192  69.5340151  -7.3789046
 122.0046182 122.0046182 122.0046182 109.4712190 109.4712190 109.4712190
