default_name
127277
  76.3077506  33.1088689  48.1623546  75.8338926  33.2553986  47.2825315
  75.7038263  33.4159632  48.9114000  76.6905098  32.1742687  48.1731907
  77.5135909  34.0381925  48.2109089  77.4068765  34.7838172  48.9987891
  78.8881936  33.3249834  48.3552987  79.6723602  34.0481890  48.1313417
  79.0975401  32.7676754  49.7558310  78.3139653  32.0440017  49.9803469
  80.0699759  32.2783785  49.8111291  79.0588361  33.5809043  50.4805792
  79.0467976  32.2605358  47.2731356  78.1418121  32.2710331  46.6656897
  79.1381542  31.2953921  47.7713850  80.2371133  32.4832076  46.3970239
  81.1425839  32.4723781  47.0037410  80.2918023  31.6918442  45.6494597
  80.1462427  33.4480208  45.8980471  77.6850991  34.9264811  47.0093277
  77.1951946  34.6817310  45.9001907  78.4851981  35.9308283  47.2502266
  79.0535413  35.9221983  48.0850984  78.5912041  37.0322038  46.3832458
  78.7103776  36.7031598  45.3509538  77.2958521  37.8607909  46.4896673
  76.4959820  37.1683412  46.7520041  77.4398480  38.5732862  47.3018961
  76.9264545  38.5998553  45.2354540  76.8762453  39.6660633  45.4563168
  77.6935781  38.4211461  44.4820043  75.6032646  38.1356913  44.7185348
  74.8235970  38.3901195  45.4365067  75.3936745  38.6242787  43.7669814
  75.5968514  36.7106262  44.5164719  76.3664818  36.1674633  44.8808103
  74.6076760  36.0775037  43.9194377  73.5777469  36.7676541  43.4325389
  73.5596884  37.7734130  43.5232195  72.8195583  36.2820546  42.9748898
  74.6656930  34.7629696  43.7617669  75.4683767  34.2517843  44.1001287
  73.9069603  34.2783661  43.3039648  79.8165147  37.8818048  46.8231392
  79.8228706  38.4421517  47.9209433  80.8116836  37.9963326  45.9379408
  80.7303233  37.5243698  45.0487102  81.9883512  38.7752872  46.1886042
  81.8577640  39.4124013  47.0633223  83.1303757  37.8199023  46.4528120
  82.8796555  37.4016853  47.4276623  83.0870839  37.0339434  45.6988263
  84.5451884  38.4067828  46.4977270  84.8975108  38.4742401  45.4684461
  84.6296861  39.7817813  47.1552294  84.2779403  39.7150238  48.1847521
  85.6638008  40.1262167  47.1467486  84.0077394  40.4873484  46.6043593
  85.4582856  37.4226072  47.2245873  85.4678625  36.4725435  46.6903712
  86.4699130  37.8264577  47.2647862  85.0899408  37.2651391  48.2383056
  82.2800569  39.6079158  44.9618336  82.7420364  39.0724841  43.9819367
  81.9485862  40.9153557  44.9958970  80.8212059  41.5308605  45.7153498
  81.1577413  41.8479369  46.7024196  80.0225200  40.7969255  45.8227712
  80.4180057  42.7017082  44.8315290  79.9940767  43.5088063  45.4290036
  79.6932877  42.3868967  44.0806768  81.6736384  43.1041275  44.2068801
  82.2586491  43.7080403  44.9005305  81.5356100  43.6529776  43.2753162
  82.3954729  41.7806269  43.9318725  82.0887926  41.3328182  42.9866145
  83.8746883  41.9794264  43.9306415  84.4565338  42.5012423  44.9254309
  84.4524907  41.5324069  42.8030884  83.8313716  41.2743464  42.0496196
  85.8712081  41.4518100  42.5757099  86.3888665  41.0639794  43.4530447
  86.1553422  40.5473947  41.3752047  85.5242733  40.8555946  40.5416189
  87.6222290  40.6477736  40.9665103  88.2539482  40.3392695  41.7994909
  87.8068808  39.9980004  40.1110577  87.8550842  41.6778493  40.6966553
  85.7872884  39.1013948  41.7188816  86.4900420  38.7680562  42.4825068
  84.7804689  39.1208557  42.1360570  85.8286204  38.1379272  40.5338044
  86.8353116  38.1175782  40.1163615  85.5543389  37.1374997  40.8684887
  85.1257397  38.4703793  39.7699103  86.3371742  42.8263179  42.2399753
  85.8433548  43.4020068  41.2646986  87.3558350  43.3062747  42.9629059
  87.7820976  42.7435633  43.6852322  87.9155744  44.6218839  42.6929777
  87.1267301  45.2679370  42.3076997  88.5442978  45.2888342  43.8795313
  89.5197686  44.8495448  44.0882913  88.7138838  46.7689892  43.5467149
  87.7387171  47.2091067  43.3382745  89.1701696  47.2822891  44.3931350
  89.3540255  46.8739424  42.6707555  87.6870585  45.1069044  45.1092546
  87.5754627  44.0434925  45.3209230  88.1609224  45.5982157  45.9590580
  86.7051153  45.5474914  44.9367108  89.0131562  44.5655434  41.7152124
  89.0773265  45.3858089  40.8267150  89.9736690  43.6880065  41.9592415
  90.0655686  43.2586789  42.8688192  91.0187186  43.4379071  40.9648967
  90.5919197  43.4542530  39.9620634  92.1172946  44.5407151  41.0569200
  91.6976365  45.3806966  41.6104698  92.9536021  44.1198780  41.6151189
  92.6124226  45.0288571  39.6794895  91.8064019  44.9714855  38.7236751
  93.8027205  45.4684236  39.5728073  91.6299379  41.9895765  41.0198024
  91.5966087  41.2728350  42.0555397  92.1933547  41.6085205  39.8776938
  92.1228163  42.2368000  39.0900463  92.8883653  40.3499352  39.6927501
  92.7302974  39.6961946  40.5505012  92.3402611  39.6564025  38.4408443
  92.8018647  38.6693974  38.4118232  91.2665760  39.5503741  38.5959515
  92.5975659  40.3845635  37.1023504  93.6449939  40.6861477  37.0958345
  92.4227980  39.6630068  36.3042814  91.7105872  41.6149773  36.8814868
  90.7253470  41.2756491  36.5617099  91.6210787  42.1486129  37.8277006
  92.2902800  42.5416091  35.8323754  91.6251606  43.3968241  35.7126921
  93.2677189  42.8865582  36.1696032  92.4352849  41.8391224  34.5265757
  91.5296175  41.5197808  34.2137065  92.8226320  42.4745038  33.8436755
  93.0519013  41.0468762  34.6371617  94.3827810  40.6558189  39.5393417
  94.7695738  41.4839074  38.6811356  95.2083742  40.1170728  40.4376097
  94.8609011  39.5868984  41.2239156  96.6452148  40.3843103  40.3615614
  96.8286770  41.0246764  39.4987914  97.2074051  41.0745980  41.6136947
  98.1812259  41.3368239  41.2001615  96.6704353  41.9843111  41.8823685
  97.3976193  40.2176692  42.8482532  96.3021647  39.7857175  43.5954452
  95.3001518  39.9650523  43.2056908  96.4694588  39.1335788  44.8229552
  95.5958325  38.8091917  45.3883329  97.7598346  38.8952838  45.3256080
  97.9422603  38.2319864  46.5471584  97.1151777  37.9800808  46.9643843
  98.8555313  39.3285191  44.5949174  99.8644429  39.1275496  44.9552078
  98.6657847  40.0262700  43.3906110  99.5237124  40.4339065  42.8559217
  97.3395678  39.1179764  40.0716627  97.7493233  38.4246312  40.9781190
  97.4183353  38.7776403  38.7975089  97.1556903  39.3917949  38.0399265
  97.9283287  37.4862264  38.4747540  97.1956419  36.7163652  38.7167931
  98.2246970  37.4233876  36.9866860  97.3580297  37.8377845  36.4716498
  99.0915773  38.0594131  36.8075490  98.5040310  36.0315962  36.4633828
  99.1668841  35.5283834  37.1673030  97.5587587  35.4919133  36.4058970
  99.1571561  36.0626543  35.0824639  99.5327829  37.0731080  34.9212599
  99.9931098  35.3634014  35.1005248  98.2065804  35.6882000  33.9521176
  98.7892319  35.1365523  33.2143489  97.4465394  35.0330368  34.3777913
  97.5480528  36.8504612  33.2955415  98.2521332  37.4574546  32.9006624
  96.9374556  36.5210051  32.5615593  97.0077581  37.3615205  33.9789149
  99.1789766  37.3678781  39.2667569 100.0942849  38.1589641  39.1390090
  99.1928440  36.3455237  40.0980163  98.4122341  35.7058407  40.0586048
 100.2950989  36.0259867  40.9709923 101.2357370  36.2662750  40.4754515
 100.2107486  36.8169257  42.2576288 100.5896649  37.8159860  42.0422221
  99.1661013  36.8828550  42.5617100 101.0220578  36.2006418  43.3738782
 100.7601959  35.0485400  43.7828865 101.9268264  36.8888602  43.8687217
  99.9700665  34.6086565  41.2532671  98.8375154  34.2097529  41.0502061
 100.9428951  33.8165297  41.6980309 101.8661794  34.2026041  41.8343832
 100.7295303  32.3982636  42.0066772 101.6430839  31.8279391  42.1747522
  99.8239432  32.2345203  43.2190299 100.3310445  32.6144510  44.1059348
  98.9009655  32.7926281  43.0617789  99.4976100  30.7576544  43.4139603
  98.9900464  30.3771063  42.5275838 100.4201241  30.1989286  43.5717423
  98.4204790  30.5463827  44.8531446  98.2170409  28.7781971  44.8300522
  99.1905839  28.2985799  44.9314449  97.5752755  28.4749506  45.6572640
  97.7605078  28.4767550  43.8872843 100.0779549  31.8374342  40.7597238
 100.4457144  32.2542507  39.6577492  99.0817160  30.9731284  40.9112017
  98.7919159  30.6057611  41.8062752  98.3745698  30.5352795  39.7294917
  99.0463017  30.2224584  38.9301055  97.6623765  29.7369432  39.9381525
  97.6115853  31.7753737  39.2792862  97.6489410  32.1793062  38.1214697
  96.9274659  32.3895058  40.2436551  96.9600857  31.9923049  41.1716996
  96.1492156  33.6052129  40.0391266  96.7862741  34.3504303  39.5627794
  94.9311499  33.3582071  39.1437418  94.3363729  32.5496798  39.5687410
  94.0892679  34.6019384  39.0458372  94.6832714  35.4108367  38.6204632
  93.2281271  34.4089735  38.4060715  93.7458303  34.8880248  40.0399729
  95.3694290  33.0042486  37.8330115  94.6063986  32.8493286  37.2714202
  95.6469435  34.1089463  41.3781122  95.6802716  33.3786425  42.3613246
  95.1526323  35.3382936  41.4226391  95.1966189  35.9685788  40.6346639
  94.5704065  35.8385734  42.6914359  93.8835581  35.0856539  43.0780245
  95.6464158  36.1570084  43.8013314  96.0251668  37.1624292  43.6175487
  95.0802757  36.0765897  45.2242043  94.7017261  35.0712593  45.4088988
  95.8675135  36.3054981  45.9425064  94.2685975  36.7957686  45.3340300
  96.7963194  35.1847402  43.7149469  97.2654789  35.2622998  42.7341432
  97.5291938  35.4184395  44.4872030  96.4264515  34.1698639  43.8609766
  93.7430375  37.0800795  42.4192631  94.0128759  37.8543007  41.4671529
  92.7993212  37.2833516  43.3417694  92.8627953  36.7449861  44.1939624
  91.6907511  38.1580395  43.1781886  91.8840424  38.9972038  42.5099515
  90.5201103  37.3488724  42.6201754  90.7609853  36.2910600  42.7255856
  89.2198081  37.6441553  43.3382276  88.9780182  38.7017643  43.2328623
  88.4200465  37.0441359  42.9041094  89.3241608  37.3993934  44.3952535
  90.3840814  37.6087625  41.1278928  91.3026074  37.3118958  40.6216497
  89.5488157  37.0307198  40.7325480  90.2031919  38.6702052  40.9584252
  91.3453153  38.8228373  44.5059202  91.3512301  38.1999070  45.5619641
  90.9293990  40.0700732  44.4044018  90.7860802  40.4501479  43.4796843
  90.6212217  40.9177788  45.5594326  90.9605227  40.4651370  46.4911457
  91.3596502  42.2147521  45.3575993  91.3841730  42.3406319  44.2751705
  90.8087722  43.0412181  45.8065841  92.7616345  42.2005253  45.8908785
  92.9689685  41.2256261  46.3321098  93.7495340  42.4669593  44.7610198
  93.5431079  43.4419513  44.3195703  94.7655083  42.4551399  45.1556807
  93.6474160  41.6945790  43.9987201  92.8262305  43.2358348  47.0276650
  92.1162956  42.9634632  47.8086296  93.8333494  43.2566403  47.4440543
  92.5748632  44.2217347  46.6366218  89.1346205  41.2928902  45.7336888
  88.4541290  41.6201556  44.7643546  88.7142400  41.5201916  46.9603796
  89.2194411  41.2305321  47.7855877  87.4701113  42.2176988  47.1332106
  87.5789725  43.1935236  46.6599090  86.7038506  41.6446813  46.6111044
  87.0503420  42.4102016  48.5509476  87.8414224  42.2021949  49.4685375
  85.8388252  42.9520779  48.7088625  85.4549972  43.5189246  47.9662588
  85.0311169  42.7457969  49.9134523  85.6740830  42.3844072  50.7160053
  84.3543598  44.0335603  50.3733514  85.1328580  44.7714007  50.5673394
  83.7151904  44.3849304  49.5633505  83.5157649  43.8357828  51.6336072
  82.5451693  43.4409093  51.3334075  84.0242098  43.1073399  52.2652375
  83.3181316  45.1322737  52.4114076  82.9856211  45.8999286  51.7126646
  82.5445483  44.9640104  53.1606444  84.6079058  45.5946123  53.1031269
  84.9896713  44.7406875  53.6627410  85.3131283  45.8559807  52.3141738
  84.4381334  46.7612878  54.0272717  83.7850228  46.5191590  54.7586539
  85.3301241  46.9984838  54.4373824  84.0847930  47.5527870  53.5088331
  83.9545537  41.7481003  49.6368836  83.2668418  41.8352665  48.6130040
  83.6964750  40.9239172  50.6471273  84.0914937  41.1387716  51.5515040
  82.8871015  39.7158738  50.5145651  82.8103445  39.4111348  49.4708498
  83.5713509  38.5911475  51.3051058  84.5714102  38.6745020  50.8796266
  83.5934221  38.9065621  52.3482389  83.0997239  37.1312455  51.2217214
  83.9489032  36.5024058  50.9542217  82.5277201  36.6704131  52.5530077
  81.6781536  37.2985320  52.8209668  82.2005723  35.6340437  52.4692599
  83.2937958  36.7478348  53.3245220  82.1202658  36.8766627  50.0905952
  82.5915513  37.1224235  49.1389697  81.8292706  35.8262233  50.0907757
  81.2355644  37.4982498  50.2285511  81.4786281  39.9639532  51.0503762
  81.2802196  39.9882551  52.2706927  80.5201456  40.1670023  50.1413854
  80.7165964  40.0072631  49.1636380  79.2233435  40.7836387  50.5055679
  79.3020974  41.2016816  51.5091301  78.8109198  41.9147023  49.5286817
  78.3151033  41.4253247  48.6903651  78.0908318  42.5317550  50.0661009
  79.9602065  42.8063657  48.9989209  80.8312693  42.1584966  49.0969818
  79.7874610  43.0250228  47.9451433  80.2120995  44.1311877  49.7673158
  79.3491204  44.6053704  50.5572101  81.2721904  44.7556256  49.5112659
  78.0367288  39.7816357  50.7090316  77.1839227  40.0156326  51.5486084
  78.0210762  38.6531026  50.0076528  78.5984799  38.5353529  49.1873850
  77.1012708  37.5656069  50.3749297  76.4694098  37.9030657  51.1964967
  76.1993962  37.1360466  49.2057949  75.6441052  38.0115158  48.8691871
  76.8401334  36.7804783  48.3988705  75.2740989  36.0944670  49.5790346
  74.7340772  35.8594373  48.8209202  77.8738663  36.3553803  50.8978164
  78.5880524  35.6960048  50.1517204  77.6928861  36.0484087  52.1775819
  77.4265303  36.7695628  52.8326320  77.8685987  34.6779817  52.6824786
  77.1949992  34.5643248  53.5318578  77.5613277  34.0038135  51.8829905
  79.2817335  34.3170896  53.1191148  80.1360172  35.1812056  53.2795883
  79.4738418  33.0319576  53.4123043  78.7106482  32.3827700  53.2850627
  80.7270157  32.5257633  53.9444014  81.3825186  33.3615491  54.1890995
  80.4918837  31.6932635  55.2217824  79.7306545  32.1907347  55.8227413
  80.1351391  30.7056817  54.9293522  81.6799707  31.5599307  55.9813261
  81.5005864  31.0383738  56.7670739  81.3973738  31.6853766  52.8774190
  80.7457349  31.1232360  51.9980540  82.7108669  31.6061699  52.9652086
  83.1984507  32.0140359  53.7500696  83.4950409  31.0781756  51.8695905
  82.9530996  30.3753806  51.2367571  84.0567286  32.2172507  51.0050508
  83.2245054  32.7788830  50.5806995  84.9269995  33.1499199  51.8346909
  85.7597548  32.5890610  52.2590217  85.3128096  33.9478958  51.2002733
  84.3327046  33.5818312  52.6399023  84.7757451  31.6506033  49.7792849
  85.8488493  31.6834115  49.9676246  84.4619275  30.6150495  49.6479591
  84.4607102  32.4338870  48.5282883  84.7746888  33.4695084  48.6586941
  84.9918245  31.9975162  47.6823584  83.3877660  32.4011482  48.3390299
  84.5837531  30.0947176  52.3397780  85.5791575  30.4787083  52.9756131
  84.3231091  28.8094192  52.0746994  83.5520296  28.5887566  51.4608235
  85.1006819  27.7068216  52.6333801  85.4476953  27.9748337  53.6313031
  84.2442999  26.4159869  52.7359898  84.0147720  26.0691342  51.7284634
  84.8230634  25.6545340  53.2587922  82.6303698  26.5265540  53.6183940
  82.2928016  25.2510277  53.4511256  86.2765648  27.4866045  51.6919382
  86.1614069  27.8171799  50.5001901  87.4240759  27.0415046  52.2487706
  87.4504007  26.8987341  53.2482819  88.6759613  26.7994748  51.4639582
  88.9310701  27.7061323  50.9153318  89.8637337  26.4214043  52.3696847
  90.0556833  27.2303242  53.0745983  89.6268927  25.5101430  52.9188743
  91.1033780  26.1900277  51.5121468  90.9123353  25.3808810  50.8072460
  91.3411285  27.1010619  50.9629716  92.2789665  25.8158334  52.4085816
  92.4709158  26.6247518  53.1134969  92.0421250  24.9045713  52.9577691
  93.5186112  25.5844590  51.5510428  93.3275691  24.7753132  50.8461410
  93.7563615  26.4954939  51.0018712  94.6518002  25.2237584  52.4151473
  94.4318684  24.3793578  52.9237899  95.4728114  25.0705213  51.8472044
  94.8292622  25.9735812  53.0681190  88.4250581  25.6973476  50.4393367
  87.7119937  24.7332303  50.7327154  88.9052419  25.9030626  49.2114777
  89.4825863  26.7144412  49.0428434  88.6287223  24.9912915  48.0793419
  89.2441153  25.3730789  47.2647076  89.0162893  24.0260403  48.4051966
  87.1822740  24.8066408  47.5723052  86.9316197  23.8843846  46.7813658
  86.2530591  25.7033175  47.9622162  86.5668122  26.5262937  48.4565528
  84.7815218  25.5430654  47.7082353  84.5013539  24.5062975  47.8945615
  83.9674066  26.4549520  48.6609259  84.1962940  26.1973283  49.6950148
  84.2303413  27.4971665  48.4799444  82.4772592  26.2552710  48.4055584
  82.2475110  26.5131552  47.3717246  82.2134619  25.2133182  48.5867970
  81.6412500  27.1354096  49.3236702  82.1832848  27.8810322  50.1364955
  80.3156777  27.0471853  49.1921488  79.7146657  27.6098431  49.7772148
  79.9198882  26.4181864  48.5081807  84.3928517  25.9057602  46.2701432
  84.2071092  27.0694964  45.9875150  84.2217081  24.9252970  45.3742705
  84.2712621  23.9572647  45.6580966  83.9601523  25.2279941  43.9395256
  84.8911629  25.5126663  43.4493417  83.3864611  24.0102538  43.2254577
  82.7083545  23.5189687  43.9232468  82.8218085  24.3772683  42.3683884
  84.4381038  23.0126229  42.7514891  85.3225757  23.1120051  43.3807215
  84.0328492  22.0057293  42.8516695  84.8444002  23.2299888  41.3064921
  86.0462852  23.2911896  40.9844239  83.8441658  23.3486362  40.4161326
  84.0562055  23.4947792  39.4395146  82.8852055  23.2910908  40.7278777
  82.9745310  26.3677697  43.7906090  82.0134212  26.4298975  44.5504846
  83.2257540  27.2632456  42.8239467  84.0079136  27.1021331  42.2055873
  82.4056691  28.4764579  42.6158628  81.3996256  28.2967059  42.9948944
  82.9923088  29.6932529  43.3410861  83.9906378  29.7548867  42.9079119
  82.4183733  30.5752245  43.0567904  83.1010708  29.6262071  44.8591288
  83.7145921  28.7693137  45.1373842  83.7372424  30.8981314  45.3917764
  83.1240019  31.7554754  45.1142947  83.8108068  30.8409672  46.4777880
  84.7341840  31.0121807  44.9660997  81.7586622  29.3631898  45.5615338
  81.3510343  28.4108487  45.2224389  81.9129848  29.3283954  46.6399934
  81.0590644  30.1636232  45.3207677  82.3243127  28.8206131  41.1645227
  82.9238469  28.1484217  40.3147507  81.6230390  29.9087566  40.8798247
  81.1223897  30.3970731  41.6085199  81.5444363  30.4260017  39.5246686
  82.3479811  30.0371135  38.8992239  80.1995712  30.0842405  38.8649813
  79.4015140  30.4457514  39.5134517  80.0586864  30.7209561  37.4790236
  80.8561827  30.3595432  36.8298076  79.0928123  30.4518917  37.0514818
  80.1266664  31.8051821  37.5680977  80.0432000  28.5699629  38.7720501
  80.0745844  28.1388467  39.7726779  79.0884195  28.3308311  38.3037447
  80.8546854  28.1564494  38.1732188  81.7042509  31.9184988  39.5684597
  81.6048067  32.5324453  40.6365583  81.9965918  32.4916912  38.4040383
  82.0163755  31.9318036  37.5636611  82.3164397  33.8964602  38.2987418
  81.8560424  34.4589554  39.1109811  83.8105591  34.0569667  38.3889302
  84.1628628  33.4023317  39.1860716  84.2330394  33.7310591  37.4384595
  84.2442558  35.4697706  38.6720947  83.6191714  36.1793523  38.1300022
  84.1907509  35.6811932  39.7400553  85.9128798  35.6369190  38.1314384
  85.6694784  35.4289365  36.3500600  84.9998779  36.2058836  35.9811597
  86.6298403  35.5055272  35.8402173  85.2319221  34.4499633  36.1544656
  81.8151010  34.4963897  36.9963828  82.1185173  34.0094055  35.8923266
  81.0644166  35.5761881  37.1332675  81.2120094  36.2334719  37.8857924
  79.9558061  35.7655416  36.2914184  79.6152257  34.8062956  35.9016092
  78.8083198  36.4117340  37.0715014  79.0421021  36.3078691  38.1310566
  78.7942247  37.4685508  36.8049685  77.4311876  35.7945445  36.7887134
  76.9047885  35.7945283  37.7431791  76.9351539  36.4792781  36.1008234
  77.3992709  34.1054914  36.0839042  76.0209574  34.2640844  34.9398844
  76.2418128  35.0427538  34.2098187  75.8654542  33.3165910  34.4239623
  75.1189541  34.5291765  35.4914436  80.3853371  36.5490111  35.0780847
  81.5474090  36.6308026  34.7895417  79.4481696  37.2272583  34.4449443
  79.6680145  38.6646548  34.6364320  80.7380037  38.8556355  34.7185887
  79.1710412  38.9842535  35.5523868  79.0599488  39.2902364  33.4026683
  79.6703164  40.1364942  33.0873935  78.0515518  39.6353151  33.6310487
  79.0342732  38.2314921  32.3745189  79.9632397  38.1341766  31.8126917
  78.2109079  38.4172383  31.6848323  78.7720200  36.9577626  33.1651455
  77.7143009  36.8610832  33.4100568  79.2321976  35.7128639  32.3662082
  78.4796432  35.2115667  31.4997718  80.4298324  35.2065587  32.6608450
  80.9307373  35.5391793  33.4723604  81.0794660  34.2175160  31.8028049
  80.6574780  34.2404578  30.7980666  82.5624338  34.5529227  31.7155655
  83.0276336  34.3788613  32.6858186  83.0215564  33.9024283  30.9711440
  82.8047611  35.9984956  31.3130443  81.9119298  36.6687516  30.7921689
  84.0137022  36.4878110  31.5615838  84.2290946  37.4431261  31.3144424
  84.7124158  35.9024775  31.9966527  80.8996918  32.7591631  32.2686094
  81.4249715  31.8198061  31.6562061  80.1836302  32.5897050  33.3745130
  79.8181610  33.4020864  33.8505047  79.8758595  31.2855243  33.9117726
  79.3612129  31.3996907  34.8658187  78.9648333  30.4801458  32.9508997
  79.2236867  30.8166196  31.9469676  79.2578635  29.4371424  33.0708045
  77.4696945  30.6111996  33.1572337  76.9646965  30.0421219  32.3767029
  77.2199563  30.1913063  34.1316168  77.0197764  32.0535488  33.1000630
  75.9307303  32.0422335  33.0559101  77.3403002  32.5205894  34.0313186
  77.5713258  32.8522294  31.9113293  77.3558620  33.8986814  32.1272320
  78.6498776  32.6948467  31.9188037  77.0292523  32.5011892  30.5734264
  76.0299126  32.6473637  30.5661561  77.4601599  33.0858856  29.8716083
  77.2291746  31.5316761  30.3729903  81.1420622  30.4980245  34.0863176
  81.1350961  29.3300164  33.7916675  82.2603921  31.1127552  34.4461791
  82.3412054  32.1170196  34.5170418  83.4670162  30.3030806  34.6395037
  83.4485445  29.4775066  33.9280365  84.7561074  31.0961254  34.4335794
  84.4446900  32.1380808  34.5073865  85.5616318  30.9070725  35.1431492
  85.3346574  30.9207756  33.0776276  86.1738638  29.8763718  32.7690074
  86.5099892  29.1910089  33.4303674  86.4630263  29.9191170  31.4792400
  87.1244996  29.1748991  31.0357406  85.8327619  30.9507633  30.9414912
  85.0928093  31.5739350  31.9137937  84.4664931  32.4286192  31.6581689
  83.4703955  29.6261318  36.0006715  83.4263526  30.2950315  37.0421086
  83.5104983  28.2917533  35.9746149  83.2809938  27.8052716  35.1197684
  83.8740432  27.5014968  37.1423579  83.1115192  27.6225609  37.9117731
  83.9887562  26.0194030  36.7985412  84.3478390  25.9205222  35.7741480
  84.7056274  25.5614730  37.4800805  82.6923951  25.3006836  36.9191608
  81.6295337  25.9038629  37.1603612  82.7550599  23.9951330  36.7469060
  81.9145749  23.4390812  36.8139221  83.6432626  23.5570466  36.5487216
  85.1888792  27.9535896  37.6878516  86.0186048  28.5092133  36.9556038
  85.4171017  27.6142067  38.9445599  84.7196241  27.1041607  39.4675105
  86.6446280  27.9501024  39.5990317  87.5125395  27.5315288  39.0894976
  86.8092568  29.4754122  39.6764999  86.6763426  29.8854054  38.6753313
  85.7993235  30.1051334  40.6190449  85.9319337  29.6959465  41.6205845
  85.9497237  31.1843904  40.6452071  84.7901873  29.8878192  40.2690157
  88.2093606  29.8246326  40.1037242  88.9206734  29.4250641  39.3808955
  88.3144419  30.9083338  40.1551939  88.4084982  29.3937944  41.0849599
  86.6064071  27.3758635  40.9877875  85.5732976  27.4237907  41.6338941
  87.6945922  26.7746881  41.4400643  88.4758115  26.5696657  40.8336309
  87.7581593  26.3179998  42.8404843  86.7640977  26.3624972  43.2854121
  88.3030846  24.8657499  42.9837514  87.6405280  24.1753673  42.4617457
  89.3017369  24.8074903  42.5508547  88.3661858  24.4938102  44.4458661
  89.0289666  25.1835183  44.9684799  87.3677584  24.5513931  44.8793707
  88.9003661  23.0702039  44.5863084  90.1479282  22.9313138  44.6953936
  88.0557620  22.1351989  44.5831645  88.6149453  27.3160726  43.5874229
  89.6130304  27.8312289  43.0404438  88.1872205  27.6573882  44.8028077
  87.2592157  27.4131371  45.1178440  89.0802951  28.3294750  45.7387997
  89.3818170  29.2944683  45.3314035  88.4731426  28.5536367  47.1399765
  88.0770960  27.6096188  47.5142447  89.5458068  29.0729421  48.1001861
  89.9420264  30.0172366  47.7267977  89.1074208  29.2279067  49.0860381
  90.3530222  28.3440618  48.1725630  87.3065132  29.5264423  47.0872425
  86.5305627  29.1289109  46.4330471  86.9010160  29.6629812  48.0897537
  87.6501297  30.4860698  46.7010511  90.2513063  27.4166075  45.9355831
  90.0646661  26.2155771  46.1936091  91.4504577  27.9670551  45.7414252
  91.5551195  28.7545933  45.1177836  92.6405692  27.4247416  46.3706435
  92.4903051  26.3655598  46.5795785  93.8685546  27.5760902  45.4591060
  94.1730127  28.6008441  45.6719063  94.6208775  26.8869765  45.8428150
  93.7297339  27.3885355  43.9420978  93.2694898  28.2722572  43.5001565
  95.1190590  27.1861092  43.3441728  95.5797821  26.3022417  43.7853205
  95.0349877  27.0514858  42.2657901  95.7361865  28.0598059  43.5537156
  92.8125341  26.2372048  43.5716949  91.8170403  26.4204745  43.9760510
  92.7536095  26.1535757  42.4865059  93.2073759  25.3096199  43.9861647
  92.8634985  28.1389695  47.7130977  92.6945845  27.5365028  48.7825989
  93.1298779  29.4457246  47.6478435  92.8295592  29.9776038  46.8434726
  93.8513124  30.1461261  48.7140199  93.9223858  29.4706476  49.5665318
  94.8520005  30.3717943  48.3455143  93.1867504  31.4356010  49.1597293
  92.9509058  32.3462012  48.3555094  93.0071753  31.5550244  50.4652115
  93.3785519  30.8584853  51.0953004  92.2658491  32.6395829  51.0179793
  92.0000449  33.3865363  50.2699767  91.0100898  32.1212199  51.6801918
  91.2806155  31.3956447  52.4473013  90.2443166  33.2797015  52.3219243
  89.9730267  34.0055119  51.5553072  89.3403257  32.8992097  52.7974527
  90.8732008  33.7609868  53.0709024  90.1971269  31.3697580  50.6253903
  90.0897233  32.0371020  49.7702779  90.7819668  30.4974388  50.3336350
  88.8349594  30.9276199  51.0908262  88.2493336  31.7994953  51.3823318
  88.3265760  30.4030398  50.2818384  88.9415773  30.2598335  51.9456910
  93.1049924  33.3816027  52.0138027  93.1926068  32.9929271  53.1811432
  93.7305905  34.4541223  51.5262601  93.5071499  34.7520119  50.5874122
  94.7643390  35.2091997  52.2765955  95.1807564  34.5595051  53.0463959
  95.9607487  35.7248297  51.3380948  95.3733284  36.5039056  50.8522168
  96.6237352  36.1770975  52.0756602  96.8319749  34.9521346  50.2412651
  97.3688568  34.1667404  50.7732562  96.0383676  34.3328682  49.0780259
  95.5015508  35.1177671  48.5452405  96.7249628  33.8342181  48.3938944
  95.3254656  33.6072045  49.4695401  97.9489940  35.8285291  49.6366868
  98.6242995  36.1542658  50.4278616  98.5060538  35.2505235  48.8993299
  97.5067543  36.7007175  49.1552199  94.1089642  36.4243770  52.9793836
  94.7687655  37.4639901  53.1222118  92.9036172  36.2175603  53.4871182
  92.5123244  35.2864495  53.4824420  92.1233923  37.2829547  54.0607338
  91.7036890  37.9110172  53.2749311  90.9759014  36.6887467  54.8759120
  90.1799775  36.4137297  54.1838353  91.3474458  35.7940902  55.3755565
  90.4689365  37.5944504  55.8434843  89.7528737  37.1772744  56.3280646
  92.9484794  38.1316797  54.9653791  93.6355506  37.6660209  55.8610247
  92.8808464  39.4158096  54.6474733  92.3004731  39.6871178  53.8666672
  93.5689684  40.4421629  55.3706282  93.3495282  41.4215344  54.9454499
  93.1075395  40.4260918  56.8103515  92.0986174  40.0157788  56.8529974
  93.7874698  39.7751485  57.3599584  93.1172821  41.7900928  57.4253248
  94.2174707  42.3622310  57.5624809  92.0260863  42.2975761  57.7526208
  95.0215619  40.0733980  55.2694623  95.4336727  39.4321083  54.3113182
  95.8000166  40.4384906  56.2729516  95.4690208  41.0042603  57.0413564
  97.1778754  40.0492449  56.2608321  97.6577022  40.2508048  55.3031061
  97.9807521  40.7393981  57.3645470  97.9960619  41.8144595  57.1853604
  97.5176936  40.5391827  58.3307719  99.4105793  40.2033729  57.3649004
 100.2511085  40.8042567  56.6437549  99.6486373  39.1981399  58.0863120
  97.1633390  38.5355106  56.4353921  97.9283390  37.8128614  55.8119475
  96.2693386  38.0652839  57.2972628  95.6617073  38.7074360  57.7856522
  96.1802087  36.6230611  57.6290994  97.1489553  36.1463344  57.7786350
  95.3261797  36.4299068  58.9175228  95.7808700  37.0068687  59.7227997
  93.8871007  36.8933197  58.7100009  93.4315696  36.3164543  57.9051291
  93.3205790  36.7438156  59.6291321  93.8797965  37.9511653  58.4473014
  95.3598834  34.9914648  59.4076742  96.3878614  34.7080396  59.6335799
  94.7520054  34.8994306  60.3077374  94.9639885  34.3339622  58.6336855
  95.6038783  35.7766340  56.4714939  94.9782682  36.3093746  55.5579720
  95.8715737  34.4714567  56.4800051  96.6950755  34.1246019  56.9507873
  95.0266850  33.5161430  55.7689567  94.4222166  34.0376473  55.0268310
  95.8939855  32.4636406  55.0471330  95.5838069  32.4850697  54.0024181
  96.9222186  32.8162853  55.1276225  95.8040373  31.0367890  55.5741337
  96.8149789  30.6459195  55.6895414  95.3252124  31.0986628  56.5513735
  94.9985658  30.1053738  54.6710875  95.4741568  28.9786568  54.4100205
  93.8830800  30.4811324  54.2411691  94.0995420  32.9007068  56.8138677
  94.4619735  32.8366480  57.9824081  92.8739075  32.5496754  56.4197367
  92.4680303  32.9762944  55.5991520  92.0587290  31.5888045  57.1830506
  92.6907912  31.0151010  57.8608860  90.9482570  32.2869294  58.0120619
  90.4523262  31.5372052  58.6285572  91.5338735  33.3914110  58.9172953
  92.0295976  34.1417923  58.3014339  90.7302955  33.8609210  59.4846768
  92.2558831  32.9526192  59.6059639  89.9724445  32.8527782  57.1311612
  89.2871756  33.2837212  57.6471990  91.4290477  30.5601905  56.2202030
  91.5252314  30.7038650  55.0000164  90.8659173  29.4894433  56.7772915
  90.8571190  29.3986850  57.7831667  90.2906952  28.3934917  55.9699008
  90.9279011  28.2079505  55.1052377  90.1809592  27.0937731  56.7881877
  90.3431897  27.3485119  57.8355123  89.1733919  26.6972056  56.6631182
  91.1836717  26.0567121  56.3638186  92.3919776  26.3855707  56.3586275
  90.7644881  24.9222449  56.0312779  88.9163859  28.7629309  55.4270689
  88.6038035  28.4791908  54.2726696  88.0727455  29.3119274  56.2932777
  88.3161796  29.3530185  57.2726401  86.7952494  29.8649056  55.8772827
  86.7566499  29.9479525  54.7911370  85.6037063  28.9962740  56.3497553
  84.7306996  29.2529963  55.7497110  85.9037780  27.4964447  56.2013705
  86.7764441  27.2388595  56.8015400  85.0451965  26.9181024  56.5426284
  86.1028384  27.2670352  55.1545435  85.2986403  29.2859774  57.7221910
  84.5594378  28.7437136  58.0070243  86.6655634  31.2397273  56.4795826
  87.2852176  31.5367126  57.4913056  85.8356019  32.0738106  55.8797134
  85.3079448  31.7901788  55.0665527  85.6959241  33.4412021  56.3485668
  85.6793325  33.5199243  57.4355933  86.8355888  34.3357655  55.8053893
  87.7932088  33.8719537  56.0419093  86.7117360  34.5018529  54.3003473
  85.7544951  34.9660599  54.0630655  87.5216580  35.1339115  53.9361650
  86.7700668  33.5249169  53.8204565  86.8682196  35.6823046  56.5123475
  87.0276641  35.5291120  57.5796861  87.6800750  36.2863604  56.1072464
  85.9203313  36.1976684  56.3574001  84.3476056  33.9746381  55.9158599
  83.8539793  33.6191130  54.8461188  83.7571768  34.8172460  56.7644839
  84.2894439  35.1662948  57.5486752  82.3566413  35.2324735  56.6348053
  81.8048465  34.5797710  55.9583432  81.6950024  35.1837818  58.0056459
  82.2309435  35.8395378  58.6918319  80.6597361  35.5144123  57.9219358
  81.7201053  34.1624969  58.3857066  82.3006806  36.6485288  56.0386092
  83.3378035  37.2940260  55.9182169  81.0955510  37.1319479  55.6530216
  79.7875341  36.6230928  56.0909157  79.6807435  36.7734707  57.1651981
  79.7178254  35.5590848  55.8648037  78.8122358  37.4438451  55.2931413
  77.8768296  37.5369223  55.8449119  78.6223578  36.9567899  54.3366765
  79.4532759  38.7539315  55.0973529  79.2358157  39.3877304  55.9570675
  79.1323491  39.2570814  54.1852423  80.9640457  38.4605487  55.0319513
  81.3550225  38.3921802  54.0167858  81.7003622  39.5335780  55.7796752
  81.9654147  39.3977539  56.9737707  81.9364897  40.6446793  55.1045584
  81.6810053  40.7136206  54.1298410  82.5688376  41.7998667  55.7385169
  82.0960528  42.7127085  55.3761724  82.4435193  41.7306524  56.8190742
  84.0396339  41.8491207  55.4178563  84.5271358  42.8157499  54.8319793
  84.7287536  40.7580761  55.7016250  84.2725048  39.9521157  56.1045695
  86.1530280  40.7423022  55.5844468  86.5805724  41.5546229  56.1721882
  86.7193274  39.4162058  56.0981629  86.1813245  38.6090639  55.6009968
  87.7728517  39.3742169  55.8217150  86.5827165  39.2599790  57.6248035
  86.7542101  40.2595136  58.0243301  85.5670375  38.9436422  57.8623457
  87.5806540  38.2826074  58.2506250  87.1269305  37.4199761  59.0503839
  88.8109050  38.4067980  57.9893569  86.6321490  41.0772815  54.1563215
  85.8392345  41.2631572  53.2080584  87.9411888  41.2601924  54.0608311
  88.5083960  41.0427707  54.8677407  88.6010208  41.7503971  52.8708689
  87.8653016  42.0125421  52.1105423  89.4149612  43.0041367  53.2185798
  89.7413555  42.8767679  54.2507345  90.2867850  43.1055601  52.5722544
  88.5940124  44.2696533  53.1243095  87.8899053  44.4807911  52.1365995
  88.7288986  45.1540850  54.1173282  88.2006698  46.0147282  54.0981641
  89.3584368  44.9577167  54.8823262  89.5270795  40.6718852  52.3377062
  90.7085466  40.6360620  52.6738565  89.0152983  39.8689591  51.4214472
  88.1198235  40.0739078  51.0016612  89.7262868  38.7147210  50.9707791
  90.3708455  38.3329801  51.7625601  88.7487885  37.6466038  50.5933339
  88.1737337  38.1255044  49.8008281  89.3096436  36.8087816  50.1790930
  87.8074149  37.1422834  51.6647169  88.2345678  36.2187583  52.0555399
  87.5778621  38.1215036  52.8120609  87.1502620  39.0451647  52.4220516
  86.8912628  37.6806620  53.5347924  88.5278378  38.3392300  53.3001610
  86.4875582  36.7740223  51.0038758  86.6579329  35.9963646  50.2593488
  85.7923943  36.4072401  51.7590706  86.0653343  37.6542300  50.5190457
  90.5483070  39.0225667  49.7397171  90.0506640  39.6055591  48.7668978
  91.7774007  38.5382915  49.7370509  92.3362253  38.5220061  50.5782104
  92.3708178  38.0578918  48.5116309  91.8796104  38.5269283  47.6590939
  93.8698866  38.3929726  48.4601778  94.3330106  37.8335379  49.2729805
  94.2323392  38.0124717  47.5052185  94.2319397  39.8722696  48.5892940
  93.8064205  40.3975572  47.7342459  93.7812494  40.2489452  49.5074964
  95.7647583  40.1092233  48.6309109  96.1895473  39.4598898  49.3964299
  96.1777107  39.8417389  47.6582744  96.1118163  41.5703065  48.9495276
  95.5467397  42.1876697  48.2512070  95.7657567  41.7618712  49.9652268
  97.5577153  41.9037102  48.8475953  97.8784788  41.7266801  47.9063882
  97.6950128  42.8787824  49.0722810  98.0814594  41.3320579  49.4949011
  92.1460371  36.5307665  48.4183998  92.1724383  35.8025531  49.4383362
  91.8832024  36.0599191  47.2028610  91.9800313  36.6677898  46.4021009
  91.5221370  34.6659797  46.9729772  91.7863139  34.0288905  47.8170312
  90.0090991  34.5005854  46.6526167  89.7950719  34.9954779  45.7053183
  89.6296876  33.0191087  46.5518012  89.8430123  32.5236130  47.4989429
  88.5668034  32.9301967  46.3271404  90.2090242  32.5483813  45.7575191
  89.1034240  35.2389086  47.6734802  89.6698843  36.1065776  48.0116726
  88.2267336  35.5719912  47.1179899  88.6605480  34.4232927  48.8765416
  89.5367416  34.0902270  49.4328255  88.0331550  35.0380826  49.5219179
  88.0935926  33.5556389  48.5391423  92.2612786  34.1737038  45.7597356
  92.0500332  34.6904263  44.6538797  93.0999847  33.1577897  45.9455333
  93.4290782  32.9072881  46.8669701  93.6596995  32.4554410  44.7970793
  93.8693897  33.1823430  44.0123866  94.9619039  31.7045789  45.1332026
  95.4983371  32.3037489  45.8689567  94.6780163  30.7512870  45.5790078
  95.8762116  31.4499353  43.9098756  95.5864650  30.4879549  43.4870974
  95.6728692  32.2399822  43.1869787  97.3704518  31.4326685  44.2392660
  97.6302061  30.4328203  44.5870164  97.9223582  31.6538408  43.3257116
  97.7579249  32.4054557  45.2707323  98.0008444  33.3275390  44.9377882
  97.8359574  32.1597684  46.5829574  97.5457746  30.9542030  47.0730186
  97.2625889  30.2131353  46.4479389  97.6104736  30.7875752  48.0670754
  98.1819461  33.1383826  47.4178071  98.3832052  34.0594640  47.0555864
  98.2414395  32.9548239  48.4092028  92.6419956  31.5159120  44.1673929
  92.0624420  30.6590178  44.8312295  92.4768552  31.6866421  42.8585798
  93.1027768  32.3288160  42.3938926  91.4849647  30.9766397  42.0495830
  90.7883755  30.4361410  42.6904604  90.6919518  31.9942984  41.2090318
  91.4313655  32.7821749  41.0654443  90.4570584  31.5375860  40.2476064
  89.4180684  32.5938820  41.8141852  88.6833440  31.7986296  41.9400998
  89.7045007  33.2399177  43.1663448  90.4388472  34.0356321  43.0411543
  88.7831529  33.6571435  43.5727212  90.0964297  32.4891803  43.8525556
  88.7810831  33.5815440  40.8322954  88.5269653  33.0628518  39.9079134
  87.8768451  34.0009989  41.2733310  89.4854235  34.3847439  40.6157924
  92.1896243  30.0291970  41.0855685  93.2413936  30.3905857  40.5553983
  91.6105220  28.8449086  40.8231838  90.8431647  28.5191194  41.3933798
  92.0557572  27.9956414  39.6915342  92.8762817  28.4838402  39.1657008
  92.5340682  26.6499012  40.1906162  93.4818688  26.8118845  40.7039725
  91.7935087  26.2854389  40.9025425  92.7253996  25.6192476  39.0849823
  92.6243260  26.1284218  38.1265322  93.7317869  25.2101804  39.1741483
  91.7089707  24.4884040  39.1682840  90.7240665  24.9020004  38.9514871
  91.9654171  23.7465063  38.4120285  91.6911647  23.8268526  40.5443213
  92.3260768  24.4132533  41.2084909  90.6657613  23.8444789  40.9135590
  92.1825601  22.4132018  40.5042346  93.1328555  22.3966870  40.1625246
  92.1521933  22.0197481  41.4339507  91.5941142  21.8695601  39.8891864
  90.9499525  27.7318351  38.7265419  89.9796013  27.1070387  39.1045658
  91.1406050  28.0796248  37.4564888  92.0417647  28.3991081  37.1310033
  90.0385620  28.0068783  36.4914876  89.5376370  27.0456088  36.6060928
  89.3342318  28.8108040  36.7053142  90.5195585  28.1420408  35.0729386
  91.7129831  28.3176701  34.8497215  89.6126249  27.9902091  34.1037117
  88.6838243  27.6584944  34.3214137  89.9747535  28.1789104  32.6812879
  90.9760717  27.8021899  32.4726193  88.9369874  27.5168657  31.6693712
  87.9287530  27.7509512  32.0110841  89.1255805  28.0379534  30.2338806
  90.1335022  27.8038122  29.8912840  88.3988708  27.5618993  29.5755751
  88.9781541  29.1177968  30.2164765  88.9997880  25.9535861  31.7070252
  89.4707087  25.6965984  32.6558623  87.9642630  25.6133472  31.7120266
  89.7511640  25.2761358  30.5675182  90.7869578  25.6155507  30.5621620
  89.7242565  24.1952781  30.7057995  89.2805130  25.5323017  29.6183256
  90.1644368  29.6935322  32.4396699  90.8647971  30.0833693  31.5064757
  89.6456683  30.5327745  33.3483478  89.1102874  30.1699477  34.1241206
  89.7546197  32.0021668  33.1965166  90.3586281  32.2441360  32.3220317
  88.3586833  32.6148153  33.0134173  87.7308840  31.8513101  32.5540404
  87.9776047  32.8479116  34.0076734  88.3383256  33.8785765  32.1504461
  87.5269242  34.5295151  32.4760344  89.2942215  34.3633649  32.3487954
  88.2053721  33.6101001  30.6543723  87.0686696  33.3367193  30.1955072
  89.2220420  33.7306759  29.9307386  90.4974404  32.6972895  34.3621151
  89.9235418  32.8484130  35.4713577  91.7288580  33.1879589  34.0735355
  91.9759629  33.3097479  33.1018329  92.7916239  33.3873377  35.1052568
  92.3468045  33.5120746  36.0925134  93.6909928  32.1701641  35.1302577
  94.2388698  32.1393312  34.1884619  94.3935738  32.2899255  35.9549620
  92.9133248  30.8676764  35.3094006  92.4313996  30.6918895  34.3476584
  93.6175519  30.0615330  35.5150609  91.8375805  30.9114453  36.4260547
  92.2030277  30.9836415  37.6151014  90.6153261  30.8261166  36.1224097
  93.6197721  34.7125259  35.0429918  94.2990020  35.0864723  35.9736179
  93.5151066  35.4260569  33.9518367  93.6202005  34.9635888  33.0601092
  93.2933071  36.8620702  33.9612000  92.7641798  37.1511356  34.8692555
  94.6365623  37.6052076  33.9182895  94.4932398  38.4963750  34.5293366
  95.3497057  36.9411969  34.4067732  95.1805895  38.0140759  32.5318848
  94.5534074  38.7399823  32.0143877  96.0855655  38.5056805  32.8888757
  95.5716748  36.8498124  31.5347349  94.8173689  36.6299896  30.5366811
  96.7171197  36.3008055  31.6122041  92.4279875  36.7992242  32.6648909
  92.0835850  35.6947170  32.2701394  91.9596468  37.9316219  32.2021346
  92.3229254  38.8147116  32.5311947  90.9154394  37.9498066  31.2212730
  91.0217058  38.8484936  30.6136808  90.9516716  36.7404139  30.3078644
  91.8677577  36.8008068  29.7202946  90.9839701  35.8530760  30.9400735
  89.7487372  36.6527493  29.3681689  90.0876081  36.1018737  28.4907844
  88.9569155  36.0921802  29.8650389  89.2144468  38.0130304  28.9381655
  90.0211726  38.9507534  28.8075132  87.9865571  38.1469907  28.7618373
  89.5804197  37.9735596  32.0444640  88.5100248  37.7056169  31.5224503
  89.6742538  38.2762945  33.3436748  90.6090791  38.4127645  33.7008539
  88.5558111  38.4283640  34.2620618  87.6341909  38.2004848  33.7265372
  88.6853499  37.4982123  35.4749660  87.7077133  37.3561110  35.9355463
  89.2227643  36.1679030  35.0182997  90.2006560  36.3091441  34.5579961
  89.3179213  35.5005034  35.8748180  88.5393180  35.7296484  34.2910218
  89.6191649  38.0319917  36.5574105  90.5939459  38.1991233  36.0991858
  89.2133833  38.9824563  36.9039042  89.7679031  37.0979583  37.7217934
  90.1740984  36.1473679  37.3761302  90.4443026  37.5361594  38.4556617
  88.7935347  36.9306990  38.1808474  88.6708738  39.8887319  34.6535870
  89.7574997  40.3281553  34.9638581  87.5876430  40.6395955  34.6581623
  86.6744657  40.2508934  34.4707662  87.6840695  42.0564027  34.9580843
  88.7202927  42.3380496  35.1452093  87.1738625  42.8480647  33.7703857
  86.1578534  42.4717780  33.6510826  87.1398162  43.8881419  34.0947006
  87.9041641  42.7559791  32.4478484  88.8178629  43.3466438  32.5139589
  88.2538738  41.3222109  32.1111871  87.3405850  40.7309851  32.0444460
  88.7774791  41.2901356  31.1557242  88.8957357  40.9116101  32.8906233
  87.0273836  43.3655879  31.3736817  86.8267791  44.4090753  31.6165629
  87.5372897  43.3084658  30.4119988  86.0862244  42.8185412  31.3183792
  86.8803811  42.5044961  36.1354705  85.9471181  41.8474306  36.5348526
  87.2339597  43.6412550  36.7033827  88.6197185  44.1913684  36.7480690
  88.7497517  44.9076343  35.9368016  89.3349368  43.3771631  36.6313156
  88.6997107  44.8332043  38.1015845  89.3730113  45.6899232  38.0733357
  89.0577368  44.1145265  38.8387554  87.2734203  45.2583538  38.4069314
  86.9750123  46.2097493  37.9665927  87.1478968  45.3039971  39.4887170
  86.4189718  44.1266668  37.8291873  86.3901682  43.3052665  38.5451273
  84.9768548  44.5816972  37.5100075  84.6832223  45.2638214  36.4843055
  84.0979710  44.2286265  38.4476275  84.4355048  43.8975213  39.3401182
  82.6639463  44.3005912  38.2381798  82.1551751  44.3269834  39.2017951
  82.4220382  45.2021559  37.6753646  82.1948083  43.1142194  37.4759596
  81.3121582  43.2297422  36.6232057  82.9745915  42.0457466  37.6021699
  83.9751985  42.1258764  37.4905270  82.4219083  40.7484909  37.8903834
  81.3889916  40.7302217  37.5427509  83.1969565  39.5824920  37.2089210
  84.2104362  39.4940402  37.6002448  82.6491750  38.6615911  37.4088639
  83.3219068  39.6942198  35.7036083  82.5742636  40.6225255  34.9640008
  81.8381004  41.2393591  35.4794421  82.7629040  40.7637336  33.5796323
  82.1946221  41.5136185  33.0293333  83.6703954  39.9513931  32.9113806
  83.8001908  40.0363880  31.8324789  84.4202177  39.0193485  33.6341575
  85.1454058  38.3913517  33.1166419  84.2429511  38.8902059  35.0182690
  84.8253740  38.1570373  35.5762540  82.4735136  40.5696419  39.3966298
  83.0514226  41.3952714  40.1379240  81.9953670  39.3825843  39.7756547
  81.9044606  38.7061988  39.0311159  81.6703843  38.9601801  41.1426876
  82.3123841  39.4976182  41.8406100  80.1851295  39.2487342  41.4802503
  79.8064680  38.4357919  42.0997991  80.0317313  40.5604940  42.2204593
  80.4097794  41.3740252  41.6013089  78.9783713  40.7323458  42.4418199
  80.5964472  40.5208628  43.1519229  79.3586924  39.3181234  40.1944770
  79.7087773  40.1896854  39.6413757  79.5819699  38.4146217  39.6270871
  77.8652505  39.4230999  40.4072991  77.6411429  40.3266651  40.9742607
  77.3622469  39.4668081  39.4412887  77.5143358  38.5516020  40.9599745
  81.8658469  37.4287003  41.1473784  81.7999567  36.7921022  40.1074658
  82.1369480  36.8345526  42.2867399  82.4388974  37.3396803  43.1075760
  82.0018387  35.4038384  42.3769208  82.3081353  34.9411808  41.4387154
  82.8686434  34.8709637  43.4797472  82.6483528  35.4910281  44.3487072
  82.6291141  33.8318295  43.7054151  84.3360200  34.9864779  43.1379234
  84.5287451  35.9801563  42.7334966  85.1915153  34.7692361  44.3793210
  84.9996682  33.7755228  44.7840771  86.2453457  34.8559748  44.1147106
  84.9425939  35.5205315  45.1287833  84.7185408  34.0127898  42.0355372
  84.1342354  34.2281728  41.1409441  85.7797350  34.1174832  41.8096893
  84.5163940  32.9933693  42.3641974  80.5435884  35.1222358  42.6637777
  79.8218675  36.0136942  43.1120756  80.0728493  33.9197802  42.3558259
  80.6183533  33.2628060  41.8164655  78.7207357  33.5347897  42.7545529
  78.4582318  34.0752898  43.6639761  77.6664257  33.8490184  41.6724546
  77.7871276  33.1405205  40.8529664  76.6744691  33.7331156  42.1091339
  77.6950937  35.5190842  40.9099977  76.6651532  35.3167044  40.0931970
  78.6824573  32.0695459  43.0731927  79.1924023  31.2400730  42.3182961
  78.0766287  31.7662535  44.2140689  78.0359048  32.4723110  44.9351262
  77.4958151  30.4373837  44.5007909  78.2845938  29.7311034  44.7598191
  76.5124489  30.5401403  45.6928887  77.0877584  30.5144398  46.6183387
  76.0088612  31.5028643  45.6053567  75.4678212  29.4165483  45.7091364
  75.8389966  28.2768150  46.0526867  74.2723405  29.6755474  45.3975863
  76.7642609  29.8598367  43.2641289  75.9056246  30.5247006  42.6765706
  77.0739598  28.6063119  42.8988237  78.1607089  27.7813132  43.4606454
  77.9898815  27.6413143  44.5280340  79.1126360  28.2902454  43.3092460
  78.0698943  26.5059264  42.6942229  77.4730037  25.7925571  43.2624876
  79.0737114  26.1060914  42.5507494  77.4327390  26.8279369  41.3843254
  76.8177280  26.0099081  41.0092396  78.2112531  27.0593962  40.6573853
  76.5563707  28.0721380  41.6305596  76.7688372  28.8248283  40.8713406
  75.0358411  27.7317662  41.6122600  74.4332200  27.6454706  40.5335390
  74.4115441  27.6078298  42.7801799  74.9176214  27.7148830  43.6476617
  72.9988106  27.2122356  42.8426484  72.7909925  26.4675267  42.0743259
  72.6679796  26.6119236  44.2056071  72.5644775  27.3774190  44.9746347
  71.7183977  26.0912807  44.0818124  73.7067738  25.6181735  44.6527236
  74.6408638  25.3059814  43.9066961  73.6005203  25.1703330  45.8985354
  74.2709503  24.5019768  46.2505630  72.8497764  25.5001798  46.4881840
  72.0719799  28.3810086  42.5089920  71.6080694  28.4935498  41.3745906
  71.8119699  29.2551624  43.4809096  71.9057292  28.9925854  44.4516629
  71.3218172  30.5890070  43.1716994  70.7376689  30.5528948  42.2521528
  70.4340827  31.1390458  44.2949988  70.6089071  30.5482291  45.1941492
  70.7023464  32.1781476  44.4857922  68.9450932  31.0740981  43.9491403
  68.3185309  29.9924564  43.9267811  68.3716876  32.2331724  43.6688661
  67.3903557  32.2633972  43.4318554  68.9179795  33.0823320  43.6932355
  72.5205882  31.4774217  42.9206548  73.2519022  31.8194882  43.8463909
  72.8327921  31.6509552  41.6389806  72.3480062  31.1033837  40.9423835
  73.9072957  32.5400754  41.1977806  74.5686060  32.7575922  42.0365024
  74.7390210  31.8858265  40.0691676  75.4585787  32.6740312  39.8476515
  75.2538457  31.0444752  40.5330465  74.0712907  31.4216646  38.7661480
  73.3515525  30.6419361  39.0153488  73.3594034  32.5565529  38.0427927
  74.0786318  33.3365092  37.7928377  72.9041571  32.1762541  37.1283396
  72.5850352  32.9705518  38.6885940  75.1087474  30.7876449  37.8515313
  75.5581427  29.9293483  38.3510014  74.6291153  30.4604475  36.9290368
  75.8832966  31.5182682  37.6183745  73.3133686  33.8881262  40.7605740
  72.1291077  34.1382400  40.9681754  74.1373263  34.7533858  40.1734032
  75.0345500  34.4375946  39.8337491  73.8156280  36.1699901  40.0606007
  73.1305953  36.4647369  40.8555558  75.0920494  36.9992307  40.1839594
  75.7459468  36.8495423  39.3248257  74.8661795  38.0605384  40.2874432
  76.0689779  36.5481884  41.6442298  77.0463546  37.4253605  41.4339869
  73.0987668  36.4635846  38.7530528  73.3524350  35.8074644  37.7365132
  72.1142334  37.3633193  38.8227757  71.8763199  37.7741331  39.7142512
  71.3833643  37.8112306  37.6342072  71.1396096  36.9438608  37.0207316
  70.0717475  38.5437507  37.9971683  70.2529230  39.4811562  38.5230442
  69.5463853  38.7469178  37.0639922  69.1358977  37.7482821  38.8506516
  68.7288030  36.4729088  38.5158041  69.0197326  35.9753343  37.6864191
  67.9081326  36.0185606  39.4462065  67.4857058  35.0164232  39.3728907
  67.7528441  36.9612090  40.3616274  68.4814721  38.0651874  39.9962372
  68.4482569  38.9669359  40.6076679  72.3030915  38.7730773  36.9521252
  73.1939269  39.3220972  37.5988984  72.0825245  38.9977311  35.6596868
  71.3787526  38.4696517  35.1637668  72.9044631  39.9384283  34.9021456
  72.9746474  40.8871382  35.4342385  74.3095647  39.3741957  34.7248884
  75.0329296  40.1832873  34.8259498  74.4920900  38.6258948  35.4961408
  74.4418243  38.7889414  33.4716063  75.3302611  38.4385123  33.3742447
  72.2642361  40.2886558  33.5475564  71.0311496  40.2768032  33.4241582
  73.0873425  40.6084349  32.5512887  74.0754793  40.4163775  32.6337441
  72.6026284  41.2387323  31.3208630  73.1885990  40.9213398  30.4583088
  71.5508356  41.0100890  31.1489517  72.7576614  42.7216678  31.4979422
  73.3826134  43.1240157  32.4493355  72.1491218  43.5301865  30.6215016
  71.4131265  43.1481369  30.0449184  72.6396925  44.9102098  30.3223073
  73.2135205  45.2835741  31.1704934  73.5530547  44.9214160  29.0594075
  74.1774649  45.8060493  29.1844481  74.1670830  44.0265876  29.1611492
  72.9030121  44.9435918  27.6553342  72.2108677  45.7843124  27.6081574
  73.6892285  45.0787944  26.9125785  72.1428024  43.6365358  27.3653413
  72.4276196  43.2761681  26.3768509  72.4192026  42.8953680  28.1152564
  70.6664726  43.8207651  27.3985495  70.3153841  44.5986097  26.8583699
  69.7814988  43.0448085  28.0616019  70.1693610  41.9941184  28.7870407
  71.1503533  41.7621614  28.8498904  69.4801614  41.4356308  29.2699434
  68.4815605  43.3352283  28.0109376  68.1658402  44.1328177  27.4777661
  67.8182531  42.7563658  28.5059529  71.5943205  46.0474177  30.2451281
  71.9539859  47.2062626  30.0919577  70.3070496  45.7012112  30.3031262
  70.0419065  44.7321108  30.1999616  69.2512002  46.6885509  30.5435517
  69.7091152  47.6705663  30.4249820  67.9990979  46.5982108  29.5902414
  67.3579703  45.7780665  29.9133806  67.2187475  47.9006454  29.6406736
  67.8591262  48.7212444  29.3172047  66.3544457  47.8327764  28.9800109
  66.8819704  48.0837493  30.6610435  68.3670227  46.3734165  28.2142586
  67.5743854  46.3259371  27.6747476  68.7715631  46.4397149  31.9268658
  68.8067924  45.3045864  32.3895839  68.2809704  47.5026290  32.5715095
  68.4987491  48.4170238  32.2019775  67.5359935  47.4196594  33.8706090
  66.7284612  46.6946357  33.7689658  68.4564569  46.9793257  35.0545335
  67.9257886  46.7338130  35.9744324  68.9918920  46.0991444  34.6985978
  69.4928038  47.9927138  35.4164042  70.6596043  48.0702993  34.6960327
  70.8372642  47.3622525  33.8865844  71.5903224  49.0210093  34.9854259
  72.5227576  49.0506299  34.4216990  71.3600384  49.9392507  35.9808092
  72.1012971  50.7039606  36.2128744  70.1971018  49.8881871  36.6776082
  70.0090175  50.6113271  37.4712031  69.2551426  48.9260370  36.3847853
  68.3103142  48.9052176  36.9278927  66.7770010  48.7310153  34.2423109
  67.1065039  49.8373464  33.7791477  65.7854442  48.5523053  35.1224495
  65.6467109  47.6162344  35.4754701  64.9286510  49.6119549  35.6253382
  64.9290073  50.4632151  34.9445628  63.5025884  49.0768891  35.7369086
  63.6189038  48.2059021  36.3818516  62.8299286  49.7918832  36.2106304
  62.9156881  48.6392244  34.3873121  63.1236299  49.3684720  33.3822190
  62.1512885  47.6242658  34.3604551  65.3915989  50.0272579  37.0076420
  65.7559181  49.1789887  37.8362775  65.3170733  51.3068260  37.3106876
  65.0632615  52.0310307  36.6540245  65.6852425  51.6910809  38.6284389
  65.1849819  51.0213086  39.3278985  67.1705357  51.5636990  38.8202952
  67.6851046  52.2352027  38.1329804  67.4287966  51.8267796  39.8460584
  67.4763682  50.5366070  38.6211775  65.2501482  53.0542217  38.9367586
  64.9452907  53.8497835  38.0394775  65.3048312  53.3247166  40.2309917
  65.8697426  52.7138093  40.8035008  64.6678022  54.4531322  40.8592356
  63.9414444  54.9018047  40.1815953  63.9380292  53.9923882  42.1230173
  63.5387100  53.0056756  41.8884078  64.7076439  53.8995258  42.8892874
  62.8250440  54.8775311  42.6323914  63.2732869  55.7077781  43.1781653
  62.2500823  55.2646224  41.7911534  61.8654839  54.1232697  43.5812518
  62.2130547  53.0897802  44.1676519  60.6392022  54.6409039  43.7141803
  59.9678760  54.1919110  44.3206685  60.3902382  55.4783678  43.2074530
  65.7956376  55.3539692  41.2389421  66.6243074  55.0012427  42.0725783
  65.7797980  56.5554245  40.6975740  64.8986174  56.9715045  40.4320603
  66.9864840  57.2751794  40.4079003  67.8614764  56.9112130  40.9464316
  67.2379619  57.1733508  38.8926172  66.3990396  56.6342826  38.4524864
  67.3778192  58.5502961  38.2119303  68.2168858  59.0898055  38.6512449
  67.5536310  58.4125928  37.1450523  66.4619208  59.1229762  38.3577621
  68.4740044  56.3001747  38.6400616  69.3202684  56.8191052  39.0902274
  68.3044711  55.3597244  39.1643814  68.7764585  56.0146004  37.1629879
  68.9465743  56.9546161  36.6380776  69.6671664  55.3908125  37.0879726
  67.9307755  55.4952370  36.7122309  66.8744040  58.7398143  40.8890861
  66.4041924  59.6011014  40.1564992  67.3402443  59.0493469  42.0913475
  67.8156317  58.3814382  42.6812662  67.1305986  60.4043476  42.6057635
  66.7180310  61.3356887  42.2178320  67.1294056  60.4682068  44.1309329
  66.2426087  61.0433488  44.3972074  67.1211121  59.1611332  44.8754002
  68.0079057  58.5855921  44.6099748  67.1211207  59.3534824  45.9482946
  66.2282906  58.5958459  44.6081518  67.4824112  61.7742012  44.8053768
  66.7762447  62.5452826  44.4973761  67.4345646  61.6496182  45.8871760
  68.4913263  62.0707494  44.5185840  68.1909606  61.3740117  42.1099038
  69.3241093  61.3415407  42.5273442  67.7480531  62.3111109  41.3043579
  66.7711781  62.2899239  41.0486909  68.5609914  63.3729326  40.7921733
  69.4892860  63.0093278  40.3515376  67.7673702  64.1403003  39.7423304
  66.7877231  64.3847012  40.1530131  68.4669906  65.3893900  39.3571093
  69.4465996  65.1457530  38.9458820  67.8798658  65.9186514  38.6065978
  68.5895992  66.0233995  40.2352313  67.5346971  63.2384710  38.5426620
  66.5604907  62.7715059  38.6874591  67.4998046  63.8866298  37.6670067
  68.5843734  62.1633918  38.3340589  68.6195275  61.5145155  39.2091724
  68.3300682  61.5724262  37.4541795  69.5588424  62.6296399  38.1887222
  68.9306154  64.3303515  41.8920006  68.0532067  65.0002555  42.4769584
  70.2163017  64.3692579  42.2125671  70.8680938  63.7452115  41.7588794
  70.7131612  65.2383690  43.2604920  69.8453142  65.5597915  43.8363637
  71.6824723  64.5013786  44.1731624  71.8193999  65.0786409  45.0875581
  71.1443938  63.1394759  44.5163074  71.0076311  62.5614212  43.6023876
  71.8484259  62.6241134  45.1696381  70.1866085  63.2444789  45.0259356
  72.9978724  64.2703507  43.4939477  72.8363172  63.6451010  42.6158455
  73.4085213  65.2314263  43.1844310  73.9616834  63.5903259  44.4212359
  73.5519017  62.6289067  44.7308357  74.9102171  63.4321205  43.9080556
  74.1241039  64.2152316  45.2994228  71.3848302  66.4990170  42.7840015
  71.2628636  67.5409749  43.4044439  72.1263086  66.3941713  41.6994858
  72.2183456  65.5271041  41.1897575  72.8068318  67.5563866  41.1960398
  72.4460178  68.4644105  41.6791598  74.2752606  67.3966717  41.5049524
  74.3302830  66.9669953  42.5051773  74.6619003  66.6799667  40.7804225
  75.1019127  68.6594382  41.4537462  75.2779449  68.9116036  40.4080282
  74.5428802  69.4638350  41.9317918  76.4307090  68.4789433  42.1601710
  77.2826366  69.3754135  42.0621224  76.6356913  67.4374353  42.8146756
  72.6858988  67.7279036  39.7327110  73.0884623  66.8634475  38.9956858
  72.1277685  68.8360316  39.3008547  71.6055442  69.4451218  39.9143613
  72.0981941  69.1029575  37.8890017  73.1162387  69.0667189  37.5012244
  71.2725932  68.1170366  37.1471446  71.6687920  67.1133260  37.3010630
  70.2292743  68.1473773  37.4612549  71.2822145  68.3563802  35.6886234
  70.8879371  69.5559959  35.1417399  70.5669897  70.3551041  35.6694885
  70.9983098  69.4873275  33.8296284  70.7215221  70.3363621  33.2046261
  71.4648385  68.2932734  33.5120584  71.6539113  67.5691592  34.6589756
  72.0412044  66.5517920  34.6035729  71.7249674  70.5112024  37.5507752
  70.8160797  71.0641965  38.1139579  72.4389808  71.0858750  36.6152447
  73.2347436  70.5996751  36.2273393  72.2017027  72.4475896  36.2024066
  72.1228166  72.9901979  37.1444535  73.4014384  72.9785656  35.4350737
  74.3068405  72.8215383  36.0213235  73.4882586  72.4511263  34.4851421
  73.2180088  74.4696849  35.1732704  72.3129886  74.6274730  34.5866341
  73.1315728  74.9978864  36.1228145  74.4217676  75.0024424  34.4033619
  75.3271705  74.8454140  34.9896100  74.5085857  74.4750038  33.4534300
  74.2383380  76.4935627  34.1415608  73.3333176  76.6513518  33.5549254
  74.1519052  77.0217622  35.0911048  75.3986817  77.0071048  33.3994179
  75.4786978  76.5180916  32.5193251  75.2771985  77.9946665  33.2260291
  76.2373468  76.8613775  33.9430202  70.9478890  72.7050304  35.4189626
  70.3873878  73.7792171  35.4716817  70.5369285  71.7352242  34.6358921
  71.0022708  70.8394704  34.6015240  69.4021040  71.9534291  33.7627312
  68.8579711  72.8440728  34.0770118  69.8701355  72.1504499  32.3281678
  69.0065310  72.4258673  31.7228316  70.5962945  72.9632398  32.3152990
  70.4690108  70.9686496  31.7931139  70.7500088  71.1330549  30.8900022
  68.4979776  70.7327131  33.8964026  68.0338218  70.4695959  35.0141976
  68.3927141  69.9004328  32.8416851  69.1407613  69.8674616  32.1638668
  67.2577908  68.9650023  32.6799076  66.7981738  68.7214821  33.6377956
  66.1633085  69.5023182  31.6979457  66.1100107  68.8293659  30.8421449
  64.7849314  69.5840570  32.3712741  64.8373271  70.2572382  33.2269507
  64.0529375  69.9612914  31.6571454  64.4851334  68.5917212  32.7081567
  66.5477295  70.8410331  31.0963347  66.1142170  71.6249877  31.7172878
  67.6346568  70.9195751  31.1191315  66.0587563  70.9994221  29.6666371
  64.9718033  70.9214539  29.6431007  66.3609131  71.9745672  29.2846782
  66.4922417  70.2160393  29.0449446  67.5953331  67.6355637  32.0529082
  67.0719293  67.3570340  30.9493142  68.0986763  66.7041731  32.8594261
  68.3492481  66.9109768  33.8157447  68.3571939  65.3152202  32.3380255
  68.9783729  65.3727235  31.4441971  69.0003262  64.3460767  33.3485035
  69.7316041  63.7363316  32.8178963  69.6790834  65.0753124  34.4749975
  68.9482972  65.6849561  35.0063982  70.1184859  64.3533511  35.1633274
  70.4631424  65.7169475  34.0729342  67.9592369  63.3831477  33.8811898
  67.0670809  63.9451384  34.1574594  67.7087304  62.6660980  33.0994062
  68.4738648  62.6604607  35.0669127  68.7241679  63.3768701  35.8493485
  67.7109356  61.9739986  35.4340749  69.3658193  62.0978311  34.7912955
  67.1167647  64.5482793  31.8022952  66.0844824  64.5093482  32.4461769
  67.3235961  63.7611259  30.7442151  68.2540208  63.4125658  30.5627903
  66.2960963  63.5400815  29.7385688  65.4232954  63.0346145  30.1518736
  65.8711798  64.9344518  29.2512830  64.9643306  65.2291757  29.7793565
  66.6685647  65.6426687  29.4764633  65.5202261  65.1232935  27.5344265
  65.2172992  66.4168749  27.5959144  66.7398727  62.5019917  28.6193252
  67.8718206  62.5206293  28.1611205  65.8463009  61.5421364  28.2643461
  64.5185392  61.9370750  27.7218172  64.6368076  62.8446458  27.1298476
  63.8427937  62.1324837  28.5544530  64.0793020  60.7515662  26.8875818
  64.3930505  60.8790750  25.8515304  62.9957539  60.6400463  26.9274336
  64.7613185  59.5799439  27.5255126  64.8932661  58.8324770  26.7432198
  64.2491832  59.1290235  28.3755054  66.1323417  60.1234622  27.9664721
  66.5756618  59.6630520  28.8494149  67.0559325  59.9991280  26.8358341
  66.8733356  60.6642078  25.8304938  68.0039403  59.1129019  26.9434003
  67.9551712  58.3423599  27.5945424  69.1810812  59.2279103  26.0990062
  69.6441943  58.2427330  26.0437704  68.8459836  59.5274793  25.1059969
  70.2201635  60.2412459  26.6028294  71.1402028  60.6329743  25.8617642
  70.0638476  60.6480305  27.8681043  69.1430900  60.5952519  28.2798315
  71.1618635  61.1773505  28.6849925  71.6034170  62.0347543  28.1770671
  70.6729956  61.6294568  30.0883984  69.8401268  62.3245716  29.9823594
  70.3092660  60.6872594  30.4983555  71.7106457  62.2223179  31.0261895
  72.2927985  63.4660877  30.7218267  72.0060588  63.9631906  29.7951291
  73.2192983  64.0646663  31.5771137  73.6591729  65.0291838  31.3235034
  73.5435062  63.4403029  32.8038576  74.5069520  64.0813206  33.5900945
  74.8400604  64.8885188  33.1912592  72.9443105  62.1986085  33.1556991
  73.1911294  61.7072468  34.0968391  72.0267716  61.6073002  32.2756564
  71.5448927  60.6665361  32.5418434  72.1860720  60.0962679  28.8379283
  71.8936169  58.9645558  29.3133092  73.4045129  60.4881743  28.4979534
  73.5483141  61.3420035  27.9779570  74.5148003  59.6593529  28.7390862
  74.1968111  58.6319437  28.9163221  75.3985191  59.6838957  27.5413969
  74.8890189  60.5084248  27.0427383  76.4634967  59.9050912  27.6120735
  75.2219711  58.4535528  26.7258233  74.4619373  58.4766741  25.7630731
  75.6411467  57.3120524  27.2896980  75.5492935  56.4407216  26.7872585
  76.0469403  57.3284633  28.2144482  75.2637777  59.9859299  30.0073162
  75.4106994  61.1654371  30.3585892  75.6758195  58.9358419  30.7299293
  75.3938090  58.0046465  30.4589228  76.4816009  59.0936651  31.9553052
  77.2470808  59.8451261  31.7617953  75.6143779  59.5688750  33.1192730
  74.8486754  58.8225462  33.3309166  76.2369368  59.7105642  34.0027009
  75.1377328  60.5131374  32.8560674  77.1855857  57.8083141  32.3273579
  76.9092849  56.7732322  31.7699772  78.0876606  57.8980827  33.2923934
  78.2378390  58.7929468  33.7359742  78.7990531  56.7297450  33.8242523
  78.9562513  55.9588824  33.0698262  80.1783973  57.0795520  34.4770506
  80.0023053  57.5719703  35.4334057  81.0051289  55.8112687  34.7012591
  81.1820340  55.3185120  33.7452275  81.9601297  56.0750537  35.1556723
  80.4628623  55.1356736  35.3627875  80.9837712  58.1325647  33.6834425
  80.4093194  59.0566027  33.6181657  81.9279872  58.3275002  34.1919266
  81.1829761  57.7575124  32.6795730  77.9891992  56.1788727  34.9586549
  77.3115932  56.9217866  35.6423873  78.1920148  54.9129532  35.2541320
  78.9540813  54.4010016  34.8331100  77.3386107  54.2264994  36.1621632
  76.7642480  54.9422969  36.7502454  76.3571866  53.3289112  35.3832999
  75.4799680  53.9599804  35.2406866  76.8211097  53.1288573  34.4174563
  75.9326725  52.0004195  36.0329425  76.7850302  51.3213733  36.0549320
  75.4496322  52.2506058  37.4481513  74.5969351  52.9292489  37.4269384
  75.1504787  51.3062020  37.9028044  76.2537208  52.6964879  38.0335836
  74.8443531  51.3470835  35.2159836  75.2133137  51.1505496  34.2093347
  74.5515880  50.4076852  35.6849407  73.9811922  52.0105875  35.1629304
  78.1691549  53.4029862  37.0700858  78.6790944  52.3803134  36.6806133
  78.2761803  53.7931853  38.3121825  77.8277020  54.6248735  38.6689194
  79.1138617  53.0168622  39.2183296  79.8204285  52.4163541  38.6453963
  79.8948919  53.9380508  40.1393770  79.2041965  54.5672291  40.7007804
  80.5061949  53.3612712  40.8334477  80.8144455  54.8521027  39.4236849
  82.1444956  54.9617367  39.7556733  82.6008910  54.4640224  40.5067281
  82.7181205  55.8211531  38.9322858  83.7764509  56.0602093  39.0366305
  81.8093819  56.2558172  38.0711497  80.5998564  55.6950013  38.3817115
  79.7107409  55.9673549  37.8130303  78.3069045  52.0769822  40.0313405
  77.7588299  52.4808692  41.0370952  78.3506684  50.8118466  39.6981715
  78.8975459  50.4779020  38.9174632  77.6915961  49.8518096  40.5220341
  77.0791301  50.3404648  41.2797944  76.8277714  48.9544679  39.6828854
  77.4602764  48.3544447  39.0286607  76.0186279  48.0446198  40.5717073
  75.3854853  48.6439537  41.2259473  75.3942653  47.3963753  39.9568486
  76.6902453  47.4347258  41.1759080  75.9446776  49.8194812  38.8140176
  75.5459946  50.6195881  39.4377015  76.5678321  50.2477149  38.0289099
  74.8123770  49.0589546  38.1934811  74.1884740  48.6307859  38.9780298
  74.2135582  49.7331833  37.5811651  75.2103119  48.2589107  37.5692396
  78.7735031  48.9948070  41.0985971  79.5297350  48.3929055  40.3667453
  78.8758883  48.9661167  42.4113420  78.3753065  49.6569087  42.9520116
  79.8643651  48.1460363  43.0884562  80.0917475  48.6145112  44.0460196
  79.4131014  46.7097728  43.3429069  80.2717429  46.1927510  43.7713020
  78.5713495  46.6482562  44.0326674  79.0216221  45.9480264  42.1235823
  79.5158921  44.6950330  41.8542469  80.1834567  44.2057523  42.4330920
  78.9841049  44.2449674  40.7350908  79.2619058  43.2676137  40.3404957
  78.1466244  45.1548624  40.2799078  78.1363302  46.2199442  41.1421054
  77.4816823  47.0700918  40.9503073  81.2306537  48.2573617  42.4536774
  81.6773863  49.3472764  42.1549668  81.8786170  47.1301933  42.2122964
  81.4832043  46.2273156  42.4326598  83.1794739  47.1738976  41.6005846
  83.8450938  47.8128609  42.1809080  83.8173767  45.7970159  41.4708283
  84.8556484  45.9195282  41.1624729  83.7675849  45.0605332  42.7695338
  82.7295372  44.9372222  43.0783231  84.2294169  44.0804739  42.6499754
  84.3074164  45.6257521  43.5292772  83.1439031  45.0514299  40.4564892
  83.5471560  44.1839574  40.3759970  83.0693724  47.7363915  40.2169791
  83.8914231  48.5142111  39.8061392  82.0419765  47.3539740  39.4921043
  81.3614558  46.7028369  39.8568116  81.9102863  47.7857354  38.1167423
  82.8276110  47.5686183  37.5694994  80.7702773  47.0619334  37.4511627
  80.9996814  46.0047660  37.3174836  79.8500345  47.1635827  38.0264197
  80.4083211  47.7019538  35.8180300  79.4065733  46.8660052  35.5599803
  81.7366782  49.2557622  37.8867718  81.2724834  49.9620001  38.7368790
  82.1282084  49.6868820  36.6950399  82.5804484  49.0416518  36.0631726
  82.0230683  51.0554486  36.3038493  81.1314641  51.4646936  36.7788858
  83.2905741  51.8634218  36.7813284  84.0844148  51.1610140  37.0353765
  83.7669419  52.7855699  35.6922064  82.9737448  53.4886200  35.4379239
  84.6421375  53.3355762  36.0380769  84.0305623  52.2015628  34.8104247
  82.9823290  52.7709826  38.0118797  83.4497879  53.7310357  37.7930623
  81.8988859  52.8896200  38.0251356  83.4582825  52.2714200  39.3813436
  84.5417579  52.1529773  39.3690031  83.1810252  52.9941224  40.1487606
  82.9908573  51.3115598  39.6010753  81.8064334  51.1519506  34.7994000
  82.7675929  51.2614276  34.0358110  80.5682504  50.9989816  34.3545952
  79.8010090  50.7882744  34.9767225  80.3108140  51.0173727  32.9260269
  81.2548982  51.1683694  32.4025727  79.6773355  49.7217970  32.4255407
  80.2194711  48.8913421  32.8777938  78.6415640  49.7065471  32.7647236
  79.7168921  49.5863039  30.8966539  78.7217665  49.9101984  30.5918289
  80.4628731  50.2590307  30.4735106  79.9725157  48.1352026  30.3800694
  81.0433155  47.5230641  30.7194633  79.1439506  47.6413447  29.5612567
  79.4884919  52.1787189  32.4991191  78.6876913  52.6712809  33.2265551
  79.7573017  52.6562462  31.3040631  80.4651262  52.2198680  30.7307762
  79.0702732  53.7975999  30.7820663  79.0782576  54.6062224  31.5129323
  79.7595576  54.2818876  29.5126840  80.7588341  54.6130972  29.7952541
  79.8370886  53.4262163  28.8419264  79.0367077  55.4062056  28.8118251
  78.2358332  55.7439193  29.4695867  79.7349683  56.2253943  28.6401827
  78.4492031  54.9592690  27.4904717  79.2573576  54.6475808  26.5799631
  77.1936859  54.9351388  27.3544194  77.6773938  53.3372056  30.5019786
  77.4567374  52.1427137  30.3397258  76.7257012  54.2649181  30.5681343
  76.9969940  55.2282833  30.7038804  75.2830713  53.9395673  30.5429782
  75.0597526  53.1230033  29.8563552  74.7570209  53.5551138  31.9645504
  75.3720115  52.7405882  32.3472172  74.8145143  54.7273448  32.9271069
  74.1993488  55.5421513  32.5453181  74.4399428  54.4161183  33.9022658
  75.8455985  55.0667544  33.0259405  73.3555139  53.0148663  31.8884210
  73.3418818  52.1262661  31.2573062  73.0111115  52.7543838  32.8892384
  72.6963528  53.7718447  31.4634610  74.4415556  55.0944273  29.9504457
  74.9028463  56.2571925  29.8289916  73.2325290  54.7341598  29.5347306
  72.9683258  53.7635687  29.6255549  72.2557777  55.6687645  28.9827071
  72.5722595  56.6988526  29.1465878  72.1439270  55.4260839  27.4798327
  73.1049343  55.7183509  27.0565785  72.0059978  54.3516118  27.3590636
  71.0353299  56.1589901  26.7638110  70.0919231  55.9343066  27.2614070
  71.2363099  57.2280750  26.8328309  70.9443515  55.7489990  25.2832195
  71.9777251  55.2996669  24.7106318  69.8303308  55.8712403  24.6893778
  70.9247898  55.3827316  29.6431020  70.6041344  54.2315831  29.9346053
  70.1663537  56.4114661  29.9579372  70.4874917  57.3679561  29.9121488
  68.8470356  56.1588355  30.4733317  68.7682018  55.1118576  30.7661146
  68.4908134  57.0427075  31.6552822  67.6580818  56.5900444  32.1935706
  69.6758622  57.1968449  32.5934027  70.5088949  57.6499019  32.0559117
  69.3955585  57.8342386  33.4320085  69.9745602  56.2171380  32.9663010
  68.0282901  58.4067086  31.1907877  68.7685674  58.7857760  30.4862323
  67.0741797  58.2771763  30.6799119  67.8609649  59.3997145  32.3345707
  68.8148378  59.5301254  32.8456670  67.5277538  60.3587656  31.9379718
  67.1204512  59.0215242  33.0393482  67.9260246  56.3401518  29.3035027
  67.8604870  57.3989989  28.6886907  67.3308885  55.2242208  28.9298022
  67.1252377  54.5265294  29.6305402  66.9361312  54.9616797  27.5658250
  67.6380257  55.4441291  26.8856149  66.9169857  53.4543315  27.2641761
  66.3737157  53.2759022  26.3362100  68.3155372  52.9576536  27.1241810
  68.8593368  53.1353291  28.0519812  68.3024102  51.8889259  26.9102937
  68.8089306  53.4850243  26.3077598  66.2692033  52.7371901  28.3216864
  66.2661956  51.7992187  28.1172338  65.5607682  55.4658899  27.2918363
  65.3367723  56.0484626  26.2267992  64.5954974  55.0622127  28.1355773
  64.3979531  54.0790250  28.2556501  63.6856700  56.0348555  28.7514581
  64.1762007  56.9828717  28.5306772  62.2709210  56.0517107  28.1229573
  61.7636889  55.1124167  28.3432806  61.6976388  56.8799935  28.5393650
  62.3539502  56.1746049  27.0430951  63.6233376  55.9129242  30.2648874
  64.1224026  54.9484994  30.8915069  63.2564623  57.0615956  30.8154158
  63.5156013  57.9072784  30.3278024  62.5997856  57.1832983  32.0940874
  62.8939067  56.3636205  32.7496179  63.0044876  58.5080429  32.7537700
  62.2715226  58.6545431  33.5471168  63.9900762  58.3563275  33.1938809
  63.0337021  59.7462633  31.8505464  63.8911725  59.6373380  31.1864826
  61.7651661  59.9470565  31.0168201  60.9072749  60.0565292  31.6802484
  61.8689258  60.8444055  30.4068204  61.6149978  59.0833729  30.3690543
  63.2433998  60.9479590  32.7104645  64.1887312  60.8526317  33.2446561
  63.2674706  61.8417593  32.0870522  62.4273635  61.0283645  33.4286001
  61.0513067  57.0497262  31.9560599  60.4629119  57.3003060  30.8631073
  60.4434404  56.7047335  33.1074211  60.8219947  57.1181102  33.9476089
  59.2168586  55.8581666  33.2245988  58.8695121  55.5456681  32.2398175
  59.3986549  54.5959189  34.1397457  59.6306638  54.9040423  35.1592222
  58.1027724  53.8092944  34.1324995  57.8703275  53.5004077  33.1133533
  58.2091528  52.9270258  34.7636778  57.2957510  54.4340496  34.5152483
  60.5884016  53.7319430  33.7332874  61.1902681  54.3290906  33.0482529
  61.1588380  53.5363678  34.6412808  60.2235695  52.4097786  33.0681528
  59.6534758  52.6045712  32.1597758  61.1339380  51.8661416  32.8155912
  59.6220433  51.8118491  33.7528035  58.1054914  56.6355560  33.9297701
  57.1483278  57.0760316  33.3190542  58.2515579  56.7494525  35.2354493
  59.1059123  56.4333009  35.6715983  57.2793306  57.3405048  36.0390663
  56.5786952  57.9050584  35.4238522  56.5219644  56.2886538  36.7822473
  56.5287179  55.3329358  36.2581703  56.9015570  56.1500130  37.7945656
  54.8022533  56.7467438  36.9559541  54.4350042  55.6572174  37.6245036
  57.9774237  58.1840499  37.0142148  58.6809682  57.6875874  37.8658973
  57.6871409  59.4611138  36.9702855  57.2096984  59.8394049  36.1646529
  58.0512223  60.3685725  38.0435373  59.1272809  60.5404250  38.0693046
  57.3587901  61.6837387  37.7770478  57.1923756  61.6569176  36.7001606
  56.4053938  61.8170256  38.2882915  58.2728415  62.8298749  38.1144491
  58.7994019  62.5854849  39.0370045  59.3030649  63.1024946  36.9885182
  58.7772241  63.3474249  36.0656967  59.9421893  63.9378297  37.2745883
  59.9151553  62.2141780  36.8325076  57.3862727  64.0205303  38.4966237
  56.7714874  63.7551279  39.3566819  58.0138557  64.8752052  38.7491545
  56.7421568  64.2791126  37.6561781  57.6383818  59.8228809  39.4347815
  56.8610486  58.9185017  39.4782944  58.2041355  60.3161485  40.5483819
  59.1203629  60.7387564  40.5033359  57.5858466  60.1180565  41.8821507
  56.5081957  60.2657121  41.9526177  57.9432246  58.7556945  42.5330153
  57.0243792  58.1772985  42.6293500  58.9499195  57.9713532  41.7173842
  59.8692609  58.5489542  41.6210018  59.1656215  57.0266305  42.2164554
  58.5404084  57.7731953  40.7268612  58.2953811  58.8654690  44.0303999
  57.4446488  59.2748026  44.5751958  58.5347607  57.8765448  44.4213295
  59.1559939  59.5227630  44.1545411  57.8245047  61.2173672  42.8863242
  58.9704269  61.6362112  43.0997581  56.7442224  61.6503548  43.5455920
  55.8391174  61.2593090  43.3265774  56.8085404  62.7623754  44.4970967
  57.5722809  63.4686791  44.1716204  55.4612705  63.5054409  44.5982666
  55.3976356  64.2862071  43.8403392  54.7160368  62.7373709  44.3913963
  55.1924114  64.1261200  46.0102391  56.1021556  64.7788844  46.6055777
  54.0205845  64.0192808  46.4927368  57.2986945  62.2613498  45.8543459
  57.0184244  61.1195570  46.3062129  58.1236254  63.1139158  46.4498712
  58.2069785  64.0522342  46.0855769  58.9655716  62.7329968  47.5669980
  59.3397154  61.7194637  47.4225462  60.1738957  63.6956043  47.6771641
  59.7806654  64.7119948  47.6566823  60.6488036  63.5096631  48.6404857
  61.1908415  63.5276245  46.5744887  61.4049381  62.4664570  46.4472606
  60.7797501  63.9284413  45.6479620  62.4669035  64.2610223  46.9178362
  62.2123353  65.3035001  47.1089751  62.8751833  63.8150806  47.8247778
  63.5124752  64.1873279  45.7963774  63.4050265  63.2029385  45.3408197
  63.2396271  64.9542982  45.0715258  64.9466764  64.3889336  46.2266447
  65.1998370  63.6780832  46.8979875  65.5523415  64.3222785  45.4211468
  65.0465483  65.3012027  46.6484144  58.1508545  62.7150293  48.8586103
  58.2641119  61.8145474  49.6699019  57.3145367  63.7103957  49.0318015
  57.2417212  64.4679253  48.3677637  56.5215912  63.7688865  50.2110344
  57.1542279  63.9077189  51.0877302  55.5670421  64.9380748  50.1137939
  55.2186165  64.9834582  49.0819804  54.7254574  64.7213684  50.7717252
  56.1813086  66.2747803  50.5004020  56.7146330  66.1625088  51.4443623
  56.8802859  66.5841475  49.7233403  55.0880927  67.3361325  50.6552010
  55.1591982  68.0142532  49.8047921  54.1243363  66.8273866  50.6339736
  55.2149618  68.1332819  51.9545570  56.0793200  67.7471753  52.4948413
  55.3905646  69.1750130  51.6861188  53.9914285  68.0398259  52.8315891
  53.8287843  67.0746616  53.0807966  54.1357716  68.5842910  53.6699343
  53.1904607  68.3979469  52.3312901  55.7462102  62.4519208  50.4420536
  55.7857911  61.8884989  51.5327292  55.0992982  61.9397263  49.3890510
  55.1922801  62.3843101  48.4869429  54.1503051  60.8231179  49.5219488
  53.7765762  60.7916865  50.5453930  52.9338301  60.9748739  48.5499510
  52.4963148  59.9846899  48.4226119  52.2116194  61.6308751  49.0359286
  53.2769167  61.5083675  47.2772758  52.4877719  61.5740882  46.7345686
  54.8319538  59.4578143  49.3542287  54.9619570  58.7082663  50.3232782
  55.3359755  59.1860528  48.1387379  55.6869085  59.9522985  47.5821297
  55.4037635  57.8070184  47.5682170  56.4482618  57.5297545  47.4259241
  54.9344872  57.1094616  48.2619703  54.6777907  57.7318848  46.2159750
  54.6555197  56.6690585  45.5165515  54.0536199  58.8567675  45.8659596
  54.2940850  59.7392731  46.2942816  53.0263149  58.8425873  44.8802166
  52.3667021  57.9963041  45.0720886  52.1842907  60.1356040  44.8875020
  51.5508141  60.1109995  45.7741819  52.8736433  60.9770407  44.9573403
  51.3059945  60.2952705  43.6344340  51.9563307  60.6602128  42.8394618
  50.9471936  59.2978373  43.3804890  50.1184380  61.2372355  43.7913590
  49.5241778  61.5489657  42.7337933  49.7735549  61.6608541  44.9414946
  53.7286476  58.6932341  43.5846637  54.3223910  59.6393367  43.0948774
  53.6898496  57.5037266  43.0158723  53.4504764  56.6623912  43.5208026
  54.0380703  57.3883480  41.6205777  55.0928440  57.6251063  41.4809453
  53.7912424  55.9835219  41.1336427  53.1829269  55.4808060  41.8855258
  53.2299790  56.0560501  40.2020725  55.0599023  55.1899410  40.8979305
  54.8609534  54.4630738  40.1104128  55.8333364  55.8823724  40.5656043
  55.5365230  54.4586266  42.1600275  55.8516141  55.1974111  42.8969224
  54.7084581  53.8751231  42.5624347  56.7152773  53.5213338  41.8367605
  57.5638101  54.1567268  41.5830515  56.9371497  52.9666797  42.7484790
  56.4576401  52.5512145  40.7076136  56.2524509  53.0649727  39.8625990
  57.2765672  51.9780936  40.5627314  55.6716747  51.9620654  40.9426896
  53.2451807  58.3598247  40.7730117  52.3472296  59.0189220  41.2449995
  53.6318066  58.5024431  39.5281019  54.2832981  57.8749505  39.0787566
  53.1135645  59.5795135  38.7769505  52.5990598  60.2705861  39.4446352
  54.1983361  60.3210935  38.0658867  54.9155384  60.7201220  38.7831708
  54.7125236  59.6602170  37.3680662  53.6041541  61.3838334  37.3551430
  54.2835678  61.8763074  36.8888103  52.1659971  59.1023361  37.7665413
  52.1689072  57.9482558  37.3799430  51.4592244  60.0482632  37.1960405
  51.7864919  61.0037602  37.2005973  50.2154733  59.7550763  36.5289703
  49.7236984  58.8992939  36.9914562  49.2970448  60.9676542  36.6470798
  49.7204882  61.7656787  36.0372013  48.3220084  60.6857502  36.2496706
  49.1370348  61.4600901  38.0968221  48.2154164  62.0400159  38.1458764
  49.0462460  60.5800277  38.7334929  50.3036332  62.3178572  38.5785747
  50.9355010  61.7223089  39.2374861  50.8850462  62.6451035  37.7166186
  49.7913834  63.5268533  39.3291336  48.8277951  63.2922099  39.7813954
  50.5022159  63.7977951  40.1097788  49.6314793  64.6705956  38.3835532
  48.9725181  64.4198953  37.6603525  49.2893901  65.4773291  38.8858041
  50.5243328  64.8884588  37.9646887  50.5530387  59.5032012  35.1256024
  50.5194821  58.3742616  34.6478333  51.1442691  60.5313714  34.5642018
  51.1246163  61.4290302  35.0267187  51.7389342  60.4500863  33.2752363
  51.2442926  59.7068673  32.6498928  51.6462774  61.8374598  32.5684248
  52.6107148  62.0730304  32.1184612  50.5308897  61.8082482  31.4418823
  49.5660216  61.5731811  31.8911847  50.4775856  62.7831380  30.9572713
  50.7811988  61.0483133  30.7016493  51.3485745  62.8643971  33.5391317
  51.2929284  63.7152216  33.0979951  53.2069316  59.9382703  33.3578667
  53.7736515  59.7382111  34.4431473  53.7463043  59.6264917  32.1783612
  53.1133527  59.4971986  31.4019883  55.1981365  59.5678728  31.9152143
  55.6582145  58.8168321  32.5573710  55.4703202  59.1915778  30.4425507
  54.4894717  59.0500851  29.9886615  55.9524746  60.0633102  30.0001598
  56.3242969  57.9613263  30.1948934  57.3582554  58.2033938  30.4407268
  55.9742194  57.1609322  30.8467500  56.2397373  57.5002985  28.7229651
  55.2989077  57.8507033  28.2985182  57.0718494  57.9360219  28.1699426
  56.2997555  56.0554790  28.5918220  55.6477917  55.6288528  27.9491459
  57.1234008  55.2586702  29.2924519  58.0490774  55.7575878  30.1134458
  58.1408213  56.7579940  30.2177078  58.6538901  55.1326090  30.6269658
  57.0588607  53.9355737  29.1416692  56.3894754  53.5355922  28.4997673
  57.6796468  53.3392918  29.6700358  55.7165621  60.9251666  32.0813419
  54.9937219  61.8768461  31.8052723  57.0146008  61.0261331  32.3640540
  57.8604327  60.0953356  33.1336243  58.6373762  59.6756843  32.4946001
  57.2545982  59.2883918  33.5458200  58.4134947  60.9950063  34.1968914
  59.4603029  60.7366208  34.3566676  57.8536872  60.8264378  35.1168380
  58.2618953  62.4353883  33.7242570  59.2764469  62.8165544  33.6080824
  57.6981018  63.0984970  34.3803998  57.5812649  62.3492913  32.3620215
  56.7903932  63.0838343  32.2101437  58.5816537  62.4607229  31.2589443
  59.3293833  61.5170922  31.0143069  58.5408239  63.5812586  30.5480696
  57.7846081  64.2322827  30.7042894  59.4820188  63.8547163  29.4475597
  59.4280196  62.9932469  28.7819369  59.0116929  65.1111783  28.6707825
  57.9821837  64.9710303  28.3412849  59.0687746  65.9837646  29.3215012
  59.9092989  65.3235439  27.4563573  60.9389725  65.4642344  27.7851114
  59.8523806  64.4515021  26.8048931  59.4466365  66.5595392  26.6922342
  58.4171268  66.4193930  26.3627378  59.5037203  67.4321248  27.3429532
  60.2965066  66.7975876  25.5041876  61.0573467  66.1593306  25.3202050
  60.1041116  67.8135930  24.6677560  59.1239277  68.6952249  24.8434406
  58.4998879  68.6014972  25.6320404  59.0081202  69.4544097  24.1874477
  60.9281592  67.9332239  23.6306760  61.6714833  67.2620039  23.5001651
  60.8068306  68.6947419  22.9783966  61.0144144  63.9773257  29.9194977
  61.9413430  63.9068180  29.0861753  61.2419616  64.0531434  31.2457902
  60.4762181  63.8663424  31.8773293  62.5559078  64.3413429  31.8163474
  63.2468081  63.5197191  31.6274288  63.0915857  65.5670183  31.1776769
  64.0632028  65.8417919  31.5882361  63.1850854  65.4006363  30.1045157
  62.2239960  66.7276869  31.3460441  62.2375221  67.4437013  32.5323537
  62.8668064  67.0970529  33.3520708  61.4781883  68.5676726  32.6832007
  61.5063347  69.1304158  33.6162754  60.6826347  68.9849431  31.6604365
  60.0646117  69.8759364  31.7712454  60.6612634  68.2688894  30.4713968
  60.0367333  68.6160525  29.6482686  61.4179001  67.1324309  30.3270148
  61.3707130  66.5603415  29.4004152  62.5323136  64.6338165  33.3124879
  61.5423416  65.0353232  33.8562827  63.6638785  64.5942842  33.9470288
  64.5504520  64.4903441  33.4745003  63.6696595  64.7933716  35.3472834
  63.1396735  65.4075491  36.0752945  64.1663510  63.5055801  36.0535105
  63.4013112  63.2801220  36.7964654  64.4189288  62.3071261  35.2281298
  65.1842464  62.5316881  34.4851885  64.7603757  61.4916136  35.8656672
  63.4988341  62.0123415  34.7235215  64.7780857  63.6036792  37.4087936
  64.0551428  64.0299384  38.1043212  65.0675240  62.6097994  37.7501557
  65.6596837  64.2431607  37.3646447  64.6780102  65.8685954  35.5949457
  65.8378761  65.6412573  35.2446693  64.3174988  66.9404782  36.3396415
  63.3344955  67.0969535  36.5108707  65.3139241  67.9559742  36.8781016
  66.1622432  68.0292632  36.1975999  64.6753955  69.3350143  37.0114565
  64.1339886  69.3350606  37.9574892  65.4949894  70.0517894  37.0624409
  63.7308474  69.7255738  35.8879343  64.2691925  70.3850771  35.2072430
  63.4401328  68.8177069  35.3593847  62.4577544  70.4499263  36.4128312
  61.6380602  70.1829922  35.7457880  62.2549573  70.0608221  37.4106141
  62.5887287  71.9853768  36.4769753  61.7047958  72.3685814  36.9867963
  63.4758889  72.2141354  37.0674966  62.7069246  72.6330664  35.1225415
  61.8847650  72.4215729  34.5753451  62.7891007  73.6335474  35.2338287
  63.5261726  72.2784341  34.6501351  65.9536649  67.5898827  38.2562938
  65.9404477  66.4471603  38.7048602  66.5327420  68.5707303  38.9238660
  66.4934445  69.5333505  38.6206870  67.3231040  68.2486189  40.1220776
  68.0277515  67.4513829  39.8854641  68.1240377  69.4878255  40.6282487
  68.3987192  70.0407455  39.7299566  67.4127671  70.0729720  41.2111704
  69.3929505  69.2208107  41.4786953  69.1624226  68.9427567  42.5071134
  69.9110103  68.3970902  40.9875736  70.3292198  70.4527663  41.4975445
  71.0381775  70.7337702  40.5280266  70.2575714  71.2193160  42.5553649
  70.8453414  72.0379004  42.6228002  69.6148238  70.9889138  43.2996039
  66.3994349  67.7358517  41.1679812  65.2018309  67.8010494  41.0103743
  66.9478699  67.3682337  42.3052877  67.8770748  66.9742476  42.3433986
  66.2028679  67.5277263  43.5698320  66.7746962  67.0985399  44.3925777
  65.9550525  69.0416181  43.8700408  66.2562525  69.5381035  42.9476093
  64.9006580  69.2407219  44.0616391  66.8060802  69.5824962  45.0499886
  66.6975823  68.9773970  46.1521388  67.4993344  70.6622878  44.8902551
  64.8359690  66.8321246  43.5217625  63.9544356  67.1827864  44.3491712
  64.7597743  65.7588334  42.6800164  65.6499743  65.3284586  42.4740534
  63.5129842  65.1551256  42.0708388  62.6559744  65.3092632  42.7264873
  63.2333258  65.8244831  40.7451006  63.1721382  66.8900798  40.9661414
  64.1134970  65.6310962  40.1319121  61.9831142  65.3901337  39.9898408
  62.0517798  64.3502371  39.6704647  61.1269677  65.5100004  40.6537288
  61.7698790  66.2715446  38.7496555  62.6450482  67.0404385  38.3950896
  60.6560613  66.1385389  38.0805212  60.4916756  66.7062549  37.2615113
  59.9643801  65.4685952  38.3852406  63.7264322  63.6566881  41.8156860
  64.8256178  63.2405080  41.6498239  62.6928934  62.8396550  41.8081073
  61.7480982  63.1859880  41.8947952  62.8956244  61.3719157  41.6521702
  63.9518863  61.1502248  41.4996473  62.3920031  60.5608039  42.8608630
  61.3050582  60.6308181  42.9026720  62.8039879  59.0917621  42.7409841
  63.8908947  59.0209046  42.6995847  62.4370630  58.5392224  43.6059502
  62.3778491  58.6673845  41.8319126  62.9157092  61.1321768  44.1578988
  62.5764104  62.1624831  44.2648907  62.5436304  60.5390560  44.9932818
  64.0054229  61.1077635  44.1525229  62.1376131  60.8645969  40.4443704
  61.1271628  61.4429386  40.0840551  62.6377693  59.8068277  39.7952471
  63.5055154  59.4048085  40.1200496  61.9527073  59.1673252  38.6335649
  60.8843317  59.3760252  38.6893946  62.4853875  59.6950523  37.2978340
  61.9647687  59.2194642  36.4666473  62.3550249  60.7755203  37.2370525
  64.3029425  59.3767353  37.0200693  64.3638791  59.9539304  35.8233944
  62.2487278  57.7055690  38.7120170  63.0058094  57.2682547  39.5892197
  61.6257572  56.9400373  37.8290233  60.8883105  57.3229855  37.2548959
  61.9847733  55.5144047  37.6519434  62.8875885  55.3010353  38.2242173
  60.8655550  54.5157005  38.0591148  60.6759005  53.8252680  37.2372666
  61.3117953  53.7299216  39.2913514  61.5012053  54.4196883  40.1138150
  60.5284903  53.0286555  39.5790315  62.2244559  53.1801126  39.0614390
  59.5768441  55.2919392  38.3131355  59.8508687  56.1148338  38.9733293
  59.2735745  55.6894179  37.3445604  58.4363373  54.5234761  38.9180866
  58.7387215  54.1260536  39.8869618  57.5802507  55.1854249  39.0486193
  58.1614289  53.7006358  38.2581934  62.2733049  55.3609494  36.2049151
  61.6948879  56.0742482  35.3974948  63.3267461  54.6295109  35.8911695
  63.8124350  54.0501778  36.5609297  63.8289168  54.6987168  34.5856132
  63.0172816  54.7655072  33.8611227  64.6871868  55.9076955  34.4512855
  65.5097592  55.8509946  35.1642088  65.0875092  55.9590421  33.4387610
  64.0935866  56.7994871  34.6523966  64.5712453  53.4777424  34.2799075
  64.9882905  52.7610261  35.2016494  64.6023750  53.1719975  32.9806123
  64.1060042  53.7651715  32.3311048  65.2832626  52.0124765  32.4634084
  65.5517219  51.3483882  33.2850018  64.3930074  51.2507377  31.4938669
  63.4248463  51.1213275  31.9776192  64.2750018  51.8727737  30.6065981
  64.9508402  49.8731009  31.0847001  65.9288493  50.0547316  30.6390442
  65.0719826  49.3020165  32.0051832  64.0693489  49.0689712  30.0887540
  64.6390278  48.9349612  29.1691855  63.8637631  48.0952337  30.5333541
  62.7906279  49.7164768  29.7606287  62.8493280  50.5802467  29.2404794
  61.5883604  49.2712589  30.1189968  61.4676247  48.1127936  30.7628346
  62.2918103  47.5707233  30.9795784  60.5523657  47.7810043  31.0317517
  60.4940026  49.9761841  29.8012744  60.5858713  50.8428979  29.2909143
  59.5822476  49.6375980  30.0735997  66.5689288  52.4163841  31.7630577
  66.6705397  53.5078737  31.1985830  67.5496825  51.5163359  31.7954064
  67.3149333  50.5383714  31.8880220  68.9574697  51.8822912  31.6867744
  69.0660468  52.8355398  31.1694474  69.5486973  52.0194755  33.0978589
  68.8739807  51.4528889  33.7396038  70.5130002  51.5136848  33.0489131
  69.7381363  53.4197252  33.6706518  70.1781096  54.0575233  32.9040111
  68.4378518  53.9912013  34.1029990  67.9974585  53.3541515  34.8700193
  68.5963994  54.9905038  34.5084099  67.7637096  54.0491048  33.2484348
  70.6651862  53.4050979  34.8749377  71.6401337  53.0178650  34.5789185
  70.7788059  54.4188557  35.2589780  70.2424234  52.7680672  35.6518305
  69.7177750  50.7677458  30.9201992  69.6578422  49.6069107  31.3303783
  70.4129151  51.1167535  29.8157867  70.2706228  52.0391185  29.4296584
  71.3141697  50.1637912  29.0751776  71.2285846  49.1751056  29.5260381
  70.9499329  50.0559867  27.5714540  70.9466595  51.0678168  27.1661289
  71.7357103  49.4745121  27.0892287  69.5845839  49.3926014  27.3067519
  69.3283061  48.8411638  28.2113729  68.8702568  50.2029405  27.1611864
  69.5364327  48.4456387  26.0998268  69.8655504  47.4588826  26.4255459
  68.5053102  48.3874399  25.7512600  70.3866011  48.8806599  24.9838433
  71.2055784  48.3194985  24.7981732  70.1678524  49.9581612  24.2269913
  69.1115623  50.7438276  24.4312964  68.4596165  50.5259976  25.1713078
  68.9675333  51.5536996  23.8452395  71.0055756  50.2383824  23.2383737
  71.7987026  49.6370219  23.0668653  70.8467836  51.0519298  22.6612909
  72.7964832  50.5136568  29.2214710  73.2647057  51.5596473  28.7766616
  73.5313208  49.5834232  29.7902180  73.0835605  48.7535788  30.1521135
  74.9725197  49.6860744  29.8922887  75.2704423  50.7058751  30.1359031
  75.5119308  48.7372593  30.9906396  76.4988661  49.0807947  31.3005465
  74.5926475  48.7232718  32.1760913  73.6055707  48.3793761  31.8670367
  74.9895821  48.0506325  32.9364192  74.5139107  49.7296308  32.5873607
  75.6497660  47.3976002  30.4775989  75.9846320  46.8227724  31.1697247
  75.6070158  49.2694118  28.5665885  75.5116262  48.1076674  28.1702721
  76.3417301  50.1703316  27.9258363  76.5053437  51.0847431  28.3222975
  76.8394253  49.8992164  26.5618546  75.9459236  49.6970761  25.9711828
  77.5453326  51.1258659  25.9772122  78.4470517  51.3354055  26.5526215
  77.8145447  50.9304215  24.9392206  76.8776019  51.9861769  26.0230380
  77.7532911  48.6612030  26.4601530  78.3515694  48.4164839  25.3898911
  77.8639231  47.8963298  27.5528508  77.6518976  48.2818299  28.4619901
  78.2881462  46.4990107  27.4740581  78.3257820  46.2192510  26.4212442
  79.2870334  46.4274509  27.9044101  77.3626800  45.5399593  28.2084876
  76.2784184  45.1894050  27.6963757  77.8403539  45.0416088  29.3568801
  78.7281333  45.3787621  29.7007910  77.1380563  44.0142430  30.1341335
  76.0637979  44.1984656  30.1227311  77.4017426  42.5880680  29.5881607
  77.9901335  42.6867203  28.6759304  78.1605195  41.6775081  30.5991722
  77.5724877  41.5780025  31.5115410  78.3144617  40.6929393  30.1575558
  79.1262552  42.1235898  30.8367987  76.1541274  41.9872103  29.2552967
  76.3057069  41.1022122  28.9155874  77.5915280  44.0783468  31.5509239
  78.7641199  44.3266855  31.8348610  76.6830297  43.7861157  32.4427343
  75.7864746  43.4105987  32.1683711  76.9163237  44.0357790  33.8269294
  77.9382335  44.3859830  33.9723827  75.9280541  45.1229190  34.2999143
  74.9445241  44.8811050  33.8970558  75.8465400  45.2149262  35.8020139
  76.8296651  45.4571859  36.2055930  75.1376914  45.9945932  36.0808575
  75.5132276  44.2596369  36.2075067  76.3429712  46.4924104  33.7963023
  76.2111260  46.4981432  32.7143204  75.6733864  47.2247877  34.2472780
  77.7784593  46.8464412  34.1320344  78.4487079  46.1147197  33.6809796
  78.0091869  47.8381255  33.7428990  77.9109687  46.8413619  35.2139379
  76.7382929  42.7173493  34.5498029  76.5842805  41.6903077  33.9024338
  76.8553292  42.7168177  35.8757170  77.5731784  43.2692441  36.3225021
  76.0695957  41.7820688  36.7093491  75.2446289  41.3711850  36.1273667
  76.9456098  40.6340508  37.1887310  76.8271225  40.4565330  38.2576311
  76.7374688  39.7138339  36.6428571  78.6943088  40.9831228  36.9310885
  79.1407043  39.8356699  37.4340610  75.2662204  42.4323338  37.8939121
  75.7780392  42.6012059  39.0254163  73.9767726  42.6979421  37.6134666
  73.6281183  42.4160497  36.7084384  73.0555542  43.3435123  38.5374784
  73.5365677  44.1872649  39.0322579  71.8625945  43.8547801  37.7604864
  71.5614988  43.0016287  37.1525609  71.0452475  44.1325739  38.4259746
  72.1981671  45.0244333  36.8577376  73.2775205  45.0760759  36.7148031
  71.5143825  44.8353474  35.5053168  70.4348999  44.7840761  35.6473992
  71.7552064  45.6763692  34.8550961  71.8643147  43.9104488  35.0468296
  71.8215220  46.3520531  37.5326606  72.3752108  46.4557659  38.4658122
  72.0698052  47.1806680  36.8694458  70.7519266  46.3630590  37.7422879
  72.5257507  42.4146374  39.5996675  72.4933844  41.2042939  39.4035240
  72.0712924  43.0129071  40.7068585  72.5386221  43.8502835  41.0238806
  70.9377423  42.5099809  41.4905519  70.4544812  41.6944844  40.9524782
  71.4025179  41.9901574  42.8499386  71.8859504  42.8236169  43.3595831
  70.5081365  41.6979559  43.4002116  72.3657807  40.8086419  42.7812963
  73.1584012  41.0902512  42.0880793  72.7857825  40.6768109  43.7784514
  71.7286542  39.5000340  42.3207833  70.5028811  39.2879445  42.5719151
  72.4948195  38.6909496  41.7065902  69.9232464  43.6167609  41.7093234
  70.2547206  44.7851992  41.6538731  68.6901091  43.2450734  42.0212767
  68.4210548  42.2726663  41.9750877  67.6724967  44.2325257  42.4144535
  67.7990926  45.1319105  41.8118096  66.2344031  43.7049682  42.2176411
  65.5386480  44.5408924  42.2901380  66.0863747  43.0331509  40.8424884
  66.7815372  42.1967840  40.7694177  65.0661203  42.6683689  40.7236850
  66.3063845  43.7573817  40.0581504  65.9232595  42.7507558  43.2302330
  65.0285049  42.4276422  43.1013450  67.8845820  44.5866919  43.8595528
  68.2772402  43.7500160  44.6461467  67.6120288  45.8272723  44.1754451
  67.1794089  46.4536416  43.5116673  67.7935263  46.2786334  45.5030177
  68.8406869  46.1819504  45.7897339  67.3949772  47.7275789  45.6164451
  67.7819570  48.2613801  44.7484577  66.3113633  47.8382040  45.6569788
  67.9405002  48.4199041  46.8219410  68.5476064  47.7259336  47.8297842
  68.6426280  46.6430029  47.7502106  69.0327915  48.3747281  48.9283483
  69.5307865  47.8115002  49.7175733  68.8944503  49.7295833  49.0389740
  69.2779179  50.2491071  49.9171241  68.2749536  50.4319374  48.0475682
  68.1553926  51.5122271  48.1299054  67.8033286  49.7747213  46.9475210
  67.3080340  50.3304876  46.1513381  66.7407634  45.4128171  46.0821353
  66.0174878  44.7916719  45.3285226  66.6909799  45.2925451  47.3961160
  67.3339809  45.8006541  47.9864332  65.7009241  44.4438574  48.0292191
  65.6278645  44.6046219  49.1048195  64.3177151  44.6369321  47.4119403
  63.9718848  45.6525226  47.6044931  64.3728713  44.4702801  46.3361685
  63.3415708  43.6420085  48.0307244  63.6865163  42.6261159  47.8381740
  63.2855269  43.8083588  49.1064980  61.9601289  43.8348345  47.4142333
  61.6142984  44.8504252  47.6067838  62.0152861  43.6681806  46.3384621
  60.9839846  42.8399117  48.0330197  61.3289298  41.8240188  47.8404706
  60.9279399  43.0062652  49.1087914  59.6523661  43.0257824  47.4387609
  59.7039933  42.8712580  46.4419878  59.0058698  42.3668511  47.8485805
  59.3323658  43.9669380  47.6174365  66.1507166  43.0407263  47.8052423
  66.3673558  42.3072303  48.7511071  66.3221402  42.6578310  46.5518864
  66.1480604  43.2726124  45.7696847  66.7934188  41.3158678  46.2788400
  66.1093841  40.5924687  46.7225623  66.8702278  41.0581209  44.7875198
  65.9683968  41.4580977  44.3240344  67.7417211  41.5866038  44.4011193
  66.9900098  39.5963985  44.4687692  67.2657629  38.8094241  45.3916861
  66.8039547  39.2288881  43.2963040  68.1709347  41.2553087  46.8926213
  68.5524365  40.2806787  47.5143662  68.9000891  42.3428399  46.7083670
  68.4868354  43.0992082  46.1818427  70.2326486  42.5276565  47.2452414
  70.3097049  41.9986693  48.1951541  71.2965486  42.0019346  46.3127832
  70.8889414  41.7671207  45.3295142  72.0882246  42.7440249  46.2095782
  71.9354466  40.7700692  46.8095597  72.5462629  40.7655214  48.0367303
  72.5628544  41.6819399  48.6266471  73.1323063  39.6253066  48.5243656
  73.6170197  39.6325567  49.5006345  73.1071296  38.4713963  47.7781952
  73.5725808  37.5620671  48.1584261  72.4921226  38.4664902  46.5481853
  72.4690185  37.5553909  45.9503020  71.9052210  39.6155731  46.0731445
  71.4099631  39.6133337  45.1021581  70.3699584  44.0087509  47.3725461
  69.6174355  44.7235693  46.7251252  71.3315442  44.4769891  48.2490316
  72.2794905  43.9813411  49.3247433  73.2959689  43.9317253  48.9343458
  71.9735862  42.9926786  49.6668953  72.1206155  45.0300704  50.3884982
  73.1123734  45.3660503  50.6912074  71.6135565  44.5805412  51.2422640
  71.3165485  46.1492523  49.8210987  71.7805900  47.1012564  50.0788830
  70.2732797  46.1569011  50.1367431  71.4022431  45.9232209  48.3286962
  70.5787326  46.3181457  47.7337482  72.7040817  46.5060671  47.8342324
  72.7082408  47.3624520  46.9700463  73.8122814  46.0212653  48.3555208
  73.7775674  45.2977907  49.0594233  75.1050920  46.5790683  48.0056714
  75.1052612  47.6531182  48.1914558  76.2048017  45.9423804  48.8377837
  77.0894938  45.8895962  48.2032501  76.3972599  46.6153140  49.6733794
  75.8808946  44.5632107  49.3660840  75.0432980  44.1594795  48.7972836
  76.7493323  43.9163441  49.2416582  75.5046236  44.5886859  50.8245969
  75.5878708  45.6212557  51.4752409  75.0961633  43.4501582  51.3480852
  74.8316967  43.4118118  52.3220916  75.0495132  42.6213151  50.7728077
  75.4487044  46.4751875  46.5454340  76.2605456  47.2206900  46.0332661
  74.8418184  45.5240617  45.8829877  74.1777096  44.9269170  46.3546624
  75.1122281  45.2778640  44.4901021  76.0327536  45.7786787  44.1902408
  75.2713574  43.8109170  44.2627489  74.3119970  43.4218566  43.9216349
  76.0170806  43.6753554  43.4794099  75.7071379  43.0604909  45.5128117
  76.4383740  43.6750717  46.0378689  74.8304531  42.9199350  46.1450852
  76.4350902  41.4586125  45.1476799  76.0557519  41.2293778  43.3876447
  76.5073121  42.0359655  42.8100561  76.4564555  40.2733819  43.0505848
  74.9753475  41.2409218  43.2437901  74.0227551  45.7933848  43.5859982
  74.1146719  45.6753351  42.3605981  73.0133042  46.4129633  44.1826257
  72.9401236  46.4066016  45.1899507  71.9820912  47.1191472  43.4149454
  72.2643881  47.0240419  42.3664404  71.0503196  46.5813318  43.5900327
  71.7717612  48.5988466  43.7416256  70.7951156  49.1957853  43.3029496
  72.5706550  49.1475635  44.6438115  73.1558759  48.5890564  45.2485310
  72.5949203  50.5758236  44.8014887  71.6576989  50.9770726  44.4158536
  72.7625318  51.0348496  46.2673848  72.3625327  52.0476615  46.3154701
  72.1399798  50.3700830  46.8662290  74.2006759  51.0246903  46.8175732
  74.8620705  50.6660094  46.0288995  74.4699283  52.0479346  47.0794441
  74.3444275  50.1258102  48.0536525  73.8204935  49.1953629  47.8348834
  75.4079314  49.9224988  48.1790456  73.8231079  50.6735605  49.3009554
  73.3747140  51.5779498  49.2674583  73.8992383  50.0438046  50.4747329
  73.4065485  50.6214618  51.5759677  72.9778327  51.5339361  51.5151941
  73.4654926  50.1425319  52.4632396  74.4595911  48.8301366  50.5559465
  74.8262093  48.3898654  49.7241698  74.5130078  48.3606508  51.4485989
  73.7311697  50.9747477  43.9628202  74.5799278  50.1756708  43.6565512
  73.6161554  52.1454482  43.4134823  72.8602166  52.7666255  43.6640709
  74.5614922  52.5913746  42.4725732  75.5754341  52.3708430  42.8063198
  74.3141353  51.8684388  41.1733332  75.1952809  51.9205886  40.5338319
  74.0720597  50.8245963  41.3730635  73.1880757  52.4214856  40.3884738
  73.3489830  53.5254639  39.6142351  74.3081789  54.0421451  39.5813159
  72.2961696  53.9886531  38.8718330  72.4580008  54.8485549  38.2218482
  71.0480299  53.3915295  38.9323515  70.2126106  53.7776650  38.3483360
  70.8748120  52.3190727  39.7272262  69.8956687  51.8498510  39.8231928
  71.9582660  51.8118573  40.4280008  71.8448897  50.9089765  41.0280441
  74.4078323  54.0575382  42.2358838  73.3097521  54.5989432  42.3568404
  75.4366439  54.6572463  41.6913307  76.2332238  54.1369118  41.3524916
  75.4463620  56.0613156  41.5519756  74.4931656  56.5073277  41.8358575
  76.5325949  56.6463764  42.4253627  76.1113532  56.8586459  43.4080109
  77.7097920  55.6777374  42.5733069  78.1318761  55.4653438  41.5910475
  78.4739623  56.1278874  43.2069532  77.3624832  54.7496645  43.0273531
  76.9723166  57.8692816  41.8730967  77.6621855  58.2410943  42.4275662
  75.7275239  56.3107962  40.1195883  76.7739419  55.9582759  39.6498759
  74.8102400  56.9265993  39.3998086  73.8398324  56.9670141  39.6768917
  75.2108302  57.6153274  38.1699073  75.6312338  56.8848777  37.4786741
  74.0537780  58.3071765  37.4948175  73.3128822  58.4787804  38.2756662
  74.3939613  59.2647955  37.1006841  73.4294981  57.4922562  36.3752798
  74.1550510  57.3557020  35.5733902  73.0208856  56.1628178  36.9059845
  72.2949398  56.2985479  37.7076570  72.5721191  55.5739796  36.1059976
  73.8959799  55.6411036  37.2934437  72.2299066  58.1758745  35.7463599
  72.5355319  59.1349217  35.3281243  71.8266581  57.5461683  34.9532887
  71.4644831  58.3383638  36.5051899  76.2006905  58.6625258  38.5209217
  76.1442754  59.1681526  39.6259031  77.0783678  59.0122492  37.5750956
  76.9606748  58.6413231  36.6430754  78.2256816  59.9062279  37.8333626
  77.9277831  60.7137204  38.5021761  79.3551139  59.1247667  38.4876485
  78.9102633  58.2522084  38.9660304  80.0267150  58.7999101  37.6929660
  80.1323466  59.9170122  39.5101074  81.1953230  59.8137678  39.2921105
  79.8449606  60.9651150  39.4264896  79.8578911  59.4319691  40.9079358
  80.2757169  60.1497687  41.6138285  78.7788822  59.3700250  41.0493648
  80.4470704  58.1057930  41.1775239  79.9329946  57.3039389  40.8415843
  81.5921329  57.8980596  41.8474939  82.3307972  58.9312814  42.2776995
  82.0247643  59.8767114  42.0971282  83.1898082  58.7593404  42.7803287
  82.0212248  56.6477908  42.0745599  81.4805004  55.8630197  41.7401178
  82.8831200  56.4967434  42.5789606  78.6707094  60.4828646  36.4905683
  78.6663991  59.7884145  35.5027330  78.8445925  61.7874828  36.3988398
  78.7177773  62.3884963  37.2005879  79.1780069  62.4118440  35.1002702
  79.7334917  61.6985914  34.4913314  77.8985690  62.8395218  34.3228074
  77.2228944  61.9938875  34.1944887  77.4281188  63.5859608  34.9628117
  78.2112187  63.4715784  32.9295879  78.5930555  62.7479419  31.9680517
  78.0001082  64.6881126  32.7773355  80.0751989  63.6005528  35.3789149
  79.8751172  64.3054816  36.3891142  81.0920294  63.8042719  34.5345783
  81.1308021  63.3296135  33.6439069  82.1488501  64.7668153  34.8551980
  82.9775218  64.6519134  34.1564850  81.6146057  66.2078708  34.7524599
  80.7726399  66.2608840  35.4426646  82.4199048  66.8480518  35.1126843
  81.1701668  66.6788996  33.3719662  82.0802955  66.9416843  32.8327901
  80.6693746  65.8573812  32.8597027  80.2310240  67.9021775  33.4219770
  80.2319044  68.6769669  32.4497103  79.5173969  68.1153956  34.4377198
  82.5885340  64.5411894  36.3205434  82.7240570  65.5051906  37.0772608
  82.6066309  63.2879324  36.7788844  82.2180470  62.5345365  36.2297975
  83.1884321  62.9668600  38.0877636  83.3014663  61.8835088  38.1286612
  84.1717771  63.4358152  38.1225915  82.3747110  63.4278028  39.2959919
  82.5243967  62.8589317  40.3926873  81.4250769  64.3495051  39.0698812
  81.4371806  64.8861991  38.2143624  80.3270890  64.5855191  40.0290105
  80.7510522  64.8609813  40.9946579  79.4044935  65.6943787  39.5719625
  79.3118982  65.6102902  38.4891631  78.4335015  65.5162185  40.0340594
  79.8801522  67.0665660  39.9259682  79.0519601  67.6388872  40.3438761
  80.6788071  66.9923561  40.6640368  80.4033364  67.7672417  38.6824305
  81.4923723  67.7233289  38.6955215  80.0293733  67.2375223  37.8062750
  79.9541280  69.2240960  38.6255755  80.5352114  69.7245857  37.8510094
  78.8985522  69.2395752  38.3542470  80.1443794  69.9349039  39.9293844
  81.1224960  69.9210486  40.1807721  79.8333057  70.8916171  39.8397574
  79.6056793  69.4715505  40.6471621  79.4538516  63.3886864  40.1995798
  79.2215193  62.6297290  39.2671950  78.7845973  63.3727412  41.3310344
  79.1035461  63.9253843  42.1139498  77.6169586  62.5094461  41.5204608
  77.6959541  61.6418510  40.8653748  77.5234734  62.0175349  42.9822234
  77.2555927  62.8650679  43.6131181  76.4991762  60.9350440  43.1390855
  76.7666477  60.0869295  42.5087996  76.4635681  60.6159924  44.1807367
  75.5211969  61.3137058  42.8419787  78.8115594  61.4960600  43.3808865
  78.7647253  61.1872674  44.2886607  76.3421651  63.2191654  41.1156868
  75.9718310  64.2354706  41.6802587  75.6588183  62.6198778  40.1708336
  75.9188114  61.6869536  39.8842061  74.5909538  63.2604939  39.4889060
  74.4045239  64.2768700  39.8357818  74.9180257  63.2841394  38.0190523
  75.9857050  63.4650896  37.8948811  74.5486048  61.9487456  37.3702250
  73.4809147  61.7673100  37.4935926  74.7907774  61.9810160  36.3079577
  75.1105542  61.1451618  37.8462137  74.2162985  64.4540388  37.3462142
  73.1418331  64.3232406  37.4747320  74.5324709  65.3702577  37.8448899
  74.5410062  64.5459236  35.8664210  74.2246792  63.6301870  35.3669577
  74.0165450  65.3964611  35.4309606  75.6153181  64.6772020  35.7371156
  73.2017838  62.5792137  39.7229356  72.1579556  63.1476236  39.3491565
  73.2038511  61.3738612  40.3317732  74.1017356  60.9429943  40.4998697
  71.9788453  60.6453351  40.7646895  71.3229315  61.3089633  41.3281377
  71.2229390  60.1256073  39.5616419  71.8637661  59.4523496  38.9922873
  70.3355726  59.5870683  39.8942933  70.9240922  60.9624194  38.9303454
  72.3463633  59.4528207  41.6630819  73.4585873  58.9446857  41.6288378
  71.3834363  58.9496740  42.4154428  70.5736701  59.4950913  42.6740893
  71.5508233  57.6261704  43.0194096  72.2116378  57.0536686  42.3685141
  72.1385141  57.6714060  44.4280626  71.6220270  56.9586822  45.0709983
  73.6040520  57.3062708  44.3464228  74.1213273  58.0188693  43.7039820
  74.0418488  57.3331184  45.3442775  73.7066092  56.3033199  43.9320912
  72.0093725  59.0521471  45.0327422  72.8107981  59.1715820  45.7618191
  72.1372156  59.7791170  44.2307008  70.6986503  59.2734779  45.6971893
  70.5702856  58.5471239  46.4997055  70.6662220  60.2812206  46.1113177
  69.8967025  59.1546565  44.9685872  70.3033493  56.7877973  43.0129937
  69.1863045  57.3008571  43.1390393  70.5078751  55.4864618  42.8381478
  71.3729090  55.0730742  43.1558370  69.5168254  54.6173380  42.1953217
  68.5231312  55.0296332  42.3704892  69.7154483  54.5920818  41.1238692
  69.5674270  53.1994650  42.7413782  70.6596261  52.6287134  42.8384701
  68.4173573  52.6853823  43.2196005  67.6209551  53.2931528  43.3478886
  68.2700793  51.2674859  43.5559127  69.2309537  50.8710514  43.8840273
  67.2373363  51.0644128  44.6913788  66.2997235  51.4596675  44.3005397
  67.1531885  49.9844887  44.8129651  67.5418308  51.7203108  46.0724432
  68.1933847  51.0215844  46.5971905  68.0924792  52.6350790  45.8531543
  66.3022495  52.0595288  46.9761717  66.5473349  51.7250310  47.9842110
  66.1960526  53.1443233  46.9696453  64.9560063  51.4006732  46.5206098
  64.8030597  51.7576112  45.5021290  65.1628013  50.3306176  46.5028347
  63.7187020  51.6576165  47.3318035  63.5266614  52.6490581  47.3480422
  62.9372312  51.1700449  46.9174639  63.8600625  51.3265550  48.2754743
  67.7870221  50.6297725  42.2507144  67.1109685  51.2978200  41.4453983
  68.2299926  49.3949198  41.9790844  68.9271806  48.9502870  42.5590239
  67.7832295  48.6995147  40.7817722  67.3580209  49.3848963  40.0485949
  68.8499649  47.8216066  40.0788326  69.0430932  48.2657978  39.1023620
  70.1521114  47.7073621  40.8484291  69.9598435  47.2627969  41.8249002
  70.8484057  47.0781239  40.2940521  70.5851157  48.6989571  40.9801419
  68.2999715  46.4460107  39.7381212  67.4447471  46.5512048  39.0705679
  69.0736836  45.8563709  39.2463955  67.9865535  45.9426998  40.6527513
  66.5897647  47.8818898  41.1513437  66.4851244  47.3353041  42.2646422
  65.6519193  47.8474386  40.2274963  65.8383861  48.2117442  39.3041270
  64.3294962  47.3230584  40.5051861  64.2029178  47.1575889  41.5750912
  63.2828902  48.3285286  40.0407891  63.4985583  48.4768026  38.9826769
  62.2795759  47.9174370  40.1524318  63.3675336  49.6611584  40.7662464
  64.4097784  49.9759224  40.8186905  62.5571105  50.7124942  40.0202929
  61.5145960  50.3986290  39.9678441  62.6233639  51.6643849  40.5471851
  62.9524085  50.8281328  39.0111014  62.9025253  49.4945719  42.2147605
  63.5395479  48.7687466  42.7202101  62.9654789  50.4532338  42.7296444
  61.8708881  49.1429188  42.2275610  64.1231148  45.9970296  39.8071207
  63.9896827  44.9823718  40.4575331  64.0712236  46.0346483  38.4711240
  64.1391780  46.9294219  38.0075920  63.8996501  44.8350351  37.6452090
  63.6696013  43.9853091  38.2879705  62.7511153  45.0080881  36.6252887
  62.1331461  45.8348852  36.9754599  63.2066378  45.2742141  35.6714668
  61.8755912  43.7544381  36.4435519  62.5373006  42.8888966  36.4106981
  61.2207452  43.6777606  37.3115378  61.0255751  43.7982580  35.1629011
  60.7826263  44.8404505  34.9557545  61.6259047  43.3965032  34.3466310
  59.7327638  42.9891623  35.2911046  59.2635173  42.9216620  34.3095996
  59.9801137  41.9881869  35.6446093  58.7916330  43.6343827  36.2474332
  58.5619687  44.5617604  35.9198286  57.9484209  43.0824339  36.3141100
  59.2260947  43.6966392  37.1570849  65.1991016  44.5744853  36.9170135
  66.2385520  45.1496703  37.2407482  65.1515639  43.6658244  35.9634432
  64.3369674  43.0752182  35.8756015  66.2415824  43.4683549  35.0409447
  66.8340504  44.3796510  34.9595790  67.1623776  42.3198544  35.5495229
  66.5496176  41.4531515  35.3016305  68.0451739  42.3348220  34.9103463
  67.6052053  42.2337841  37.0481451  67.5277516  43.2395959  37.4609940
  66.7676541  41.2583367  37.9074589  66.8449933  40.2521648  37.4954690
  67.1426493  41.2611361  38.9309195  65.7241272  41.5731823  37.9025404
  69.0816698  41.8580093  37.1140092  69.6733263  42.6162192  36.6010183
  69.3953750  41.7966821  38.1560885  69.2331484  40.8921504  36.6320653
  65.5772462  43.1263373  33.6963769  64.7360146  42.2551119  33.6241366
  65.8680599  43.8784938  32.6561068  66.6184573  44.5534478  32.6940565
  65.0227006  43.8521647  31.4711399  64.1262478  43.2475837  31.6088115
  64.5982987  45.2902250  31.1355872  65.5009517  45.8833610  30.9889364
  63.7349525  45.3612740  29.8818602  62.8318295  44.7687101  30.0279347
  63.4610126  46.3981387  29.6870038  64.2936080  44.9678627  29.0326056
  63.8508318  45.8643921  32.3268853  64.5030598  45.8641132  33.2002126
  63.5422230  46.8859419  32.1048577  62.9701076  45.2556956  32.5316155
  65.7487070  43.1098522  30.3311115  67.0016012  43.1536886  30.2645342
  64.9742070  42.3818853  29.4628725  64.4189708  42.9356206  28.2058033
  64.8240004  43.9346634  28.0446677  63.3336070  42.9930833  28.2881589
  64.8716194  41.9372726  27.1348492  65.4626620  42.4691105  26.3892514
  63.9884679  41.5096875  26.6601748  65.6832157  40.8698793  27.8208879
  66.7543848  41.0627987  27.7619146  65.4701959  39.8796381  27.4182163
  65.2165058  40.9528038  29.2853493  64.2582933  40.4522928  29.4246895
  66.2441822  40.3538058  30.2360015  65.8604335  39.8214840  31.2738678
  67.4463813  40.4698735  30.0086502  47.4699389  40.1518794  66.5942092
  48.2480503  39.5090108  66.5572819  47.0048185  40.1503947  65.6976819
  46.9423958  39.9749235  67.4371116  48.0160098  41.5325216  66.7530851
  47.7030920  42.1560370  65.9155827  47.4898275  42.1640144  68.0629702
  47.5344191  41.4342208  68.8713711  48.1320580  43.0113073  68.3032510
  46.0289121  42.6705333  67.9322275  45.7708934  43.7338785  67.3565536
  45.0746224  41.8932440  68.4417465  44.1080767  42.1799924  68.3812103
  45.3219957  41.0207133  68.8862658  49.5507333  41.5707020  66.6327559
  50.1758925  40.5609858  66.2347067  50.1133585  42.7769778  66.7740453
  49.5434385  43.5308750  67.1303169  51.4945235  43.0830218  66.3515807
  52.0576440  42.1562308  66.2417949  51.5032555  43.8359909  64.9863824
  52.2761582  43.3342101  64.4041998  50.5583105  43.7973663  64.4444532
  51.9021670  45.3087240  65.0649876  51.2413510  46.1892090  65.9153342
  50.4398818  45.8139446  66.5516703  51.5924208  47.5338339  65.9596402
  51.1068808  48.1957651  66.6767167  52.5533655  48.0324767  65.0987583
  52.8064562  49.0925655  65.1147862  53.1937520  47.1818282  64.2158477
  53.9621898  47.5663100  63.5451933  52.8554615  45.8341470  64.1850454
  53.3349216  45.1681449  63.4676479  52.2154012  43.8822008  67.4545631
  51.5599744  44.3914792  68.3731562  53.5517258  43.9194698  67.3944840
  54.0332350  43.5182452  66.6024821  54.3558920  44.4419908  68.5064317
  53.8900267  44.1526711  69.4484311  55.7802900  43.9054499  68.4832096
  55.7069100  42.8238036  68.3702681  56.3103809  44.3244138  67.6278893
  56.5419510  44.2317306  69.7618817  55.9374078  44.1623378  70.8627288
  57.7341500  44.5871608  69.6648674  54.3669559  45.9783616  68.5444476
  55.0336468  46.6478849  67.7380409  53.6397930  46.5211967  69.5174180
  53.1781116  45.9258380  70.1900974  53.3964709  47.9855284  69.5885862
  53.1452186  48.3875027  68.6070628  52.2505707  48.3493063  70.5850220
  51.5640751  49.0254367  70.0754421  51.4776527  47.1056896  71.0767631
  52.1634487  46.4292616  71.5868892  50.6924504  47.4146267  71.7667735
  51.0308489  46.5943307  70.2241325  52.7841669  49.0620657  71.7083827
  52.0733175  49.2814214  72.3151582  54.6304692  48.8445532  69.9370809
  54.5862210  50.0650956  69.8400636  55.7226756  48.2004621  70.3502160
  55.6881021  47.2013446  70.4939804  56.9814825  48.9064262  70.6497725
  56.7654661  49.8946794  71.0557180  57.7984088  48.1203690  71.6823651
  58.8340330  48.4573679  71.6374950  57.3937948  48.3223308  72.6741307
  57.7434576  46.7266087  71.4244625  58.2615764  46.2586037  72.0833434
  57.8432364  49.1336287  69.3950693  58.7434284  49.9659798  69.4072309
  57.5075302  48.4173943  68.3254344  56.7457589  47.7573471  68.3897889
  58.2891783  48.4597774  67.0823436  59.3225631  48.3069465  67.3935634
  57.8833091  47.3073758  66.1312343  57.9673753  46.3557516  66.6560614
  56.8536818  47.4513978  65.8037817  58.8062995  47.3012644  64.9172838
  58.7224312  48.2524611  64.3916492  60.2468633  47.0991298  65.3750440
  60.3316225  46.1478560  65.9003942  60.9070249  47.0946844  64.5077103
  60.5330558  47.9101673  66.0446800  58.4065488  46.1662385  63.9805125
  57.3769222  46.3102625  63.6530593  59.0659808  46.1614207  63.1126257
  58.4906128  45.2146140  64.5053391  58.2270687  49.8287266  66.3488223
  59.2558799  50.3432083  65.8809535  57.0254971  50.4156004  66.2383246
  55.6999615  49.8894584  66.5912819  55.4695529  50.1419051  67.6263099
  55.6923735  48.8060589  66.4717540  54.7931329  50.5794340  65.6140238
  53.8016548  50.6924587  66.0525391  54.7209960  49.9873735  64.7016851
  55.4207191  51.9012285  65.3413465  55.1135487  52.6003608  66.1191379
  55.1693433  52.3126712  64.3637859  56.9284670  51.6524586  65.4312335
  57.3937126  51.4622882  64.4640313  57.6184110  52.8406078  66.1032341
  58.1500302  53.6916663  65.4098300  57.6252046  52.8825905  67.4372762
  57.1704121  52.1448657  67.9559527  58.2209067  53.9866778  68.1827688
  57.9712009  54.9434799  67.7242102  57.7034305  53.9870989  69.6400908
  56.6141912  54.0218716  69.6189040  58.1609772  52.7336933  70.4033643
  59.2501855  52.6984731  70.4253728  57.7784271  52.7689866  71.4234177
  57.7792211  51.8435839  69.9032961  58.1796306  55.1483879  70.3193773
  57.8565704  55.1453141  71.2233812  59.7704037  53.9680681  68.2057806
  60.4141220  54.9814275  68.5171765  60.3462560  52.8127440  67.8870482
  59.7635925  51.9974204  67.7611510  61.8017299  52.6439400  67.8223426
  62.2883667  53.4129466  68.4222698  62.2119762  51.2652280  68.3643787
  63.2226842  51.0468332  68.0196002  62.2011841  51.3066258  69.4535388
  61.3351452  50.2503023  67.9236266  61.6194363  49.4051424  68.2792713
  62.3790248  52.8763384  66.4172395  63.5807657  52.7025108  66.2066597
  61.5173494  53.2293689  65.4601345  60.5334071  53.1237500  65.6621285
  61.9097585  53.6599145  64.1091140  61.0525894  53.5941140  63.4390164
  62.3991332  55.0827635  64.1255500  63.2340452  55.1402259  64.8239190
  62.7217063  55.4324711  63.1448608  61.3794794  56.0445350  64.6040809
  60.6400373  56.8232702  63.7463613  60.7299428  56.8178304  62.7403856
  59.8059133  57.5677016  64.4461499  59.1413335  58.2730020  63.9471670
  59.9606931  57.2799594  65.7252502  60.9301996  56.3190356  65.8494013
  61.1928531  55.9339431  66.8347023  62.9282255  52.7788182  63.4394310
  63.9366188  53.2534544  62.8938162  62.6349681  51.4825443  63.4414814
  61.7647773  51.1609838  63.8408135  63.5803849  50.4871874  62.9529564
  64.5445374  50.6434235  63.4367947  63.1151338  49.0392357  63.2342164
  63.1901053  48.4604664  62.3136157  63.9815385  48.3906711  64.3160499
  63.9067082  48.9686617  65.2371508  63.6360017  47.3729002  64.4972847
  65.0199275  48.3678213  63.9854042  61.7532178  49.0402458  63.6709356
  61.4718197  48.1387621  63.8433959  63.8589397  50.6585941  61.4518984
  64.9031423  50.2211537  60.9674318  62.9365467  51.3111726  60.7422412
  62.1023119  51.6059192  61.2293511  63.0463641  51.6065057  59.3114678
  63.2294526  50.6930783  58.7455807  61.7322774  52.2270075  58.8274898
  61.8006591  52.2864036  57.7412599  60.9191460  51.5557076  59.1036668
  61.4603306  53.6136099  59.3952059  60.8227852  53.7817411  60.6262919
  60.5148195  52.8977520  61.1847001  60.5816666  55.0361992  61.1366278
  60.1004447  55.1562696  62.1072515  60.9427087  56.1488843  60.4025293
  60.7020067  57.4097603  60.8863013  60.2768760  57.4064545  61.7470293
  61.5608161  56.0156908  59.1810099  61.8424115  56.8972918  58.6051764
  61.8237514  54.7562451  58.6860740  62.3240868  54.6420748  57.7244453
  64.1933264  52.5729115  58.9543372  64.4131422  52.8747997  57.7732984
  64.8833703  53.0794190  59.9721218  64.6708472  52.7731505  60.9108086
  65.9101480  54.0661361  59.7944936  65.7420241  54.6409228  58.8837500
  65.8743106  55.0103285  60.9754141  65.3439082  54.4640663  61.7553950
  66.9051535  55.1784907  61.2871584  65.1959294  56.3398066  60.7419661
  64.1259147  56.1928371  60.5951010  65.4254336  57.2205021  61.9726559
  66.4952789  57.3683107  62.1199053  64.9427948  58.1864463  61.8239536
  65.0018934  56.7347972  62.8517490  65.7292702  57.0355085  59.4887278
  65.5524715  56.4033588  58.6185390  65.2165864  57.9881167  59.3553329
  66.7994047  57.2115803  59.5978597  67.2822751  53.4249887  59.6870918
  68.2575660  54.0592576  59.3537095  67.3626628  52.1690512  60.0525529
  66.5381747  51.6289421  60.2730089  68.6500630  51.5229290  60.1487650
  68.7044643  50.7755440  59.3572124  69.4140362  52.2826350  59.9835649
  68.9031980  50.8538214  61.4719640  68.3326347  51.1739482  62.4995931
  69.7924712  49.8733306  61.4496749  70.5035692  49.8284522  60.7338362
  69.7327615  48.8072675  62.4241298  68.6971324  48.4785260  62.5107353
  70.5806054  47.6299519  61.9310704  71.6219491  47.9410892  61.8480225
  70.5038750  46.8046640  62.6389635  70.2199542  47.3054429  60.9549947
  70.2018834  49.2345815  63.8108628  69.5343001  49.0170750  64.8297997
  71.3873390  49.8298343  63.8378269  71.9687660  49.8170929  63.0120668
  71.9049941  50.4651551  65.0326518  71.1110542  50.5186741  65.7775641
  73.0567248  49.5986280  65.5984472  72.6875356  48.5947380  65.8082170
  73.8633034  49.5431759  64.8673822  73.5808896  50.2274912  66.8874434
  73.0381965  49.8674378  67.9660756  74.5189849  51.0619260  66.7811631
  72.4105667  51.9102938  64.7773200  73.0711885  52.1919603  63.7814922
  72.0461205  52.8126705  65.6819134  71.3752072  52.5717770  66.3974167
  72.6375411  54.1076974  65.7193998  73.3044845  54.2387090  64.8672721
  71.5556641  55.1757356  65.6587417  71.3316768  55.4664239  66.6851088
  71.9737566  56.0281206  65.1232621  70.2808180  54.7233828  64.9719656
  70.5473494  53.9630777  64.2378008  69.6300989  54.2848686  65.7285183
  69.4057690  56.0674404  64.1434082  68.1562767  55.0302286  63.3819446
  67.5962681  54.5067769  64.1568560  67.4755141  55.6497550  62.7981210
  68.6366167  54.3029118  62.7274333  73.3260571  54.2295585  67.0551638
  72.9183973  53.5889942  68.0076263  74.3547717  55.0617901  67.1386552
  74.7409209  55.4641405  66.2965731  74.9826475  55.4065016  68.4319162
  75.3272255  54.5040828  68.9368968  76.1928287  56.3568265  68.2343687
  76.9468061  55.8631902  67.6212288  75.8618765  57.2690481  67.7379591
  76.7858609  56.7028146  69.5792499  76.0325549  57.1969328  70.1928279
  77.1174863  55.7910762  70.0760969  77.9770466  57.6382262  69.3848037
  77.7431362  58.8763244  69.3849716  79.1095258  57.1057541  69.2379548
  73.9422613  56.0754575  69.3317381  73.2396262  56.9757702  68.9313173
  73.8505726  55.6143709  70.5769121  74.4513710  54.8591282  70.8748202
  72.8103207  56.0822363  71.5012216  72.1224149  56.7406273  70.9707444
  72.0124887  54.9031204  72.0819399  72.6362713  54.4449983  72.8494805
  71.1180170  55.3215519  72.5433890  71.6039012  53.8329887  71.0440534
  70.6635655  53.3923380  71.3752583  71.4454295  54.3624906  70.1045783
  72.6550805  52.7107113  70.8340091  73.4371614  52.4322926  71.7792061
  72.6991833  52.0858775  69.7316935  73.4251873  56.9710080  72.5778832
  74.6000247  56.8091015  72.9854482  72.6302661  57.9172902  73.0569879
  71.6685251  57.9699530  72.7530467  73.1082002  58.9083236  74.0223794
  74.1111155  58.6453176  74.3586647  73.1562831  60.2896580  73.3811794
  72.1637784  60.4031760  72.9451206  73.3625412  61.1343222  74.0385225
  74.1206745  60.3770672  72.2654092  73.8804602  59.6808216  71.1111887
  72.9534093  59.1189651  70.9971983  74.7806741  59.6898657  70.1260216
  74.5750888  59.1701346  69.1902251  75.9845270  60.3654811  70.2963921
  76.7157742  60.3492285  69.4882378  76.2588748  61.0434845  71.4549850
  77.1882545  61.5972000  71.5882241  75.3419222  61.0137349  72.4471594
  75.5568969  61.4925392  73.4024773  72.1534404  58.9150802  75.1992235
  70.9820372  59.2654374  75.0515940  72.6780933  58.5061229  76.3666378
  73.6085918  58.1133694  76.3707056  71.9270403  58.5145509  77.6137510
  70.9214039  58.1362802  77.4301590  72.6056264  57.6175679  78.6626982
  72.6651071  56.5968761  78.2848761  73.6104096  57.9891047  78.8638728
  71.8973277  57.5447177  79.9942790  72.3835288  56.7771314  81.0461907
  73.2217357  56.2138261  81.0321887  71.5574312  56.9136527  82.0666445
  71.7554824  56.3901946  83.0019873  70.5830977  57.7185843  81.7218847
  70.7557318  58.1349900  80.4387620  70.0341509  58.8139110  79.9843520
  71.7601911  59.9810545  78.0973525  72.6629332  60.5712819  78.7309283
  70.5978253  60.5349481  77.7922546  70.0306227  60.1601546  77.0453207
  70.1022251  61.6966039  78.5201930  69.0279097  61.7385756  78.3407938
  70.2862885  61.5010434  79.5765907  70.7188897  63.0378071  78.1500528
  70.5662716  63.5240012  77.0226829  71.5382907  63.5976972  79.0407665
  72.5157268  63.6144428  78.7869209  71.1329406  64.2143799  80.3413648
  70.2149812  63.7797516  80.7370263  72.2713189  63.9069695  81.3044965
  72.1469191  64.5471367  82.1778864  72.1779887  62.8629794  81.6036186
  73.6718425  64.1434462  80.6867510  74.2942539  64.5300500  81.4937469
  74.0366578  63.1613860  80.3858030  73.7353373  65.1142283  79.4727628
  73.3931783  64.6047959  78.5719271  73.1050211  65.9836724  79.6594925
  75.0975121  65.5644540  79.2628588  75.6021882  65.1824861  78.4757744
  75.7128292  66.4503662  80.0423056  76.9972017  66.7218088  79.8402382
  77.4980856  66.2550978  79.0976777  77.4670778  67.3936808  80.4300722
  75.0466989  67.0732888  81.0248162  74.0691056  66.8695018  81.1760849
  75.5254524  67.7435585  81.6093093  70.8896083  65.7248232  80.5302093
  70.8787257  66.2063684  81.6636663  70.8072699  66.4663408  79.4492153
  70.6403147  66.0458526  78.5462120  71.0247464  67.9186477  79.5121337
  71.5446958  68.1776950  80.4344386  71.8686016  68.4449066  78.2950322
  72.8681481  68.6816152  78.6596914  71.9709819  67.4039427  77.1345403
  70.9717855  67.1670739  76.7690279  72.5648826  67.8222411  76.3218857
  72.4478068  66.4952161  77.5019019  71.2818067  69.6494341  77.7778620
  71.8016857  69.9653689  77.0352239  69.6859746  68.6549861  79.5801897
  68.9540735  68.6842044  78.5844944  69.3472458  69.2120609  80.7583359
  69.7623704  68.8672758  81.6120889  68.2789900  70.2164917  80.8590798
  67.9406291  70.4855204  79.8584626  67.0689314  69.6762053  81.6624369
  67.5646777  69.1423765  82.4732154  66.4629586  70.4823581  82.0759762
  66.1504232  68.6866523  80.8718660  66.0507332  69.0534696  79.8502947
  66.7307131  67.2620404  80.8504775  66.8302690  66.8943453  81.8717452
  66.0633558  66.6056737  80.2919815  67.7102493  67.2752968  80.3725302
  64.6761829  68.6630252  81.3405111  64.2421585  69.6563559  81.2264212
  64.1140547  67.9500147  80.7374114  64.6322023  68.3660359  82.3883479
  68.8205209  71.5189204  81.4097720  69.6711166  71.5143086  82.2687921
  68.3592169  72.6441402  80.8397219  67.5700358  72.5603478  80.2150049
  68.8246142  73.9791535  81.1889521  69.8509246  73.9049477  81.5485070
  68.7882951  74.9700791  79.9897088  67.8389815  75.3697663  79.6331235
  69.3609342  75.7658050  80.4661590  69.5593778  74.5546527  78.7784444
  70.8948897  74.2095128  78.8306010  71.4351565  74.1216578  79.6794196
  71.3427201  74.0156548  77.5989062  72.3623629  73.6707437  77.4272557
  70.3708085  74.3073257  76.7503045  69.2589350  74.6947218  77.4625479
  68.3653526  75.0318155  76.9372103  67.8096250  74.5862229  82.1478169
  66.5899513  74.4983024  81.9067548  68.3040050  75.2043622  83.2024524
  69.3009993  75.3046387  83.3291271  67.4183919  75.6308204  84.2910340
  66.6634249  74.8634229  84.4619874  68.2009593  75.8556076  85.6055948
  69.2287232  76.0667526  85.3102674  67.7897423  76.7180376  86.1302042
  68.1761994  74.6185940  86.5447168  67.1584553  74.4024244  87.2504708
  69.1948033  73.8990274  86.5968324  66.5685303  76.8688227  83.8978372
  66.9238958  77.6332172  82.9737190  65.4317584  77.0142597  84.5730287
  65.2743998  76.5055385  85.4312480  64.3245967  77.7693679  84.0056711
  64.2126095  77.5364521  82.9467526  63.0354844  77.4013135  84.7231002
  62.8633705  78.0635814  85.5715560  62.2477978  77.5465906  83.9838138
  63.0243445  75.9352603  85.2047855  64.1145345  75.4008930  85.5320278
  61.9252938  75.3468441  85.3187982  64.5968557  79.2932070  83.9562907
  65.3904364  79.8807539  84.7303322  63.9583333  79.9079063  82.9805270
  63.5059066  79.3007713  82.3120987  64.0228919  81.3640185  82.6802710
  63.3786905  81.5769448  81.8271789  63.5616756  82.2356071  83.8802314
  64.0571237  81.9259604  84.8004212  63.8847088  83.2423686  83.6153148
  61.9892226  82.2246840  84.0968648  61.2877040  81.5080257  83.3590283
  61.4717313  82.8712049  85.0610570  65.3623674  81.8192221  82.0963430
  65.5081618  82.9790277  81.7178301  66.2983781  80.8727361  81.9334008
  66.0950517  79.9295876  82.2321125  67.6246722  81.1593963  81.4099240
  68.0935146  81.9490143  81.9971117  68.5109958  79.8976162  81.4833098
  69.5205554  80.1782480  81.1830857  68.5222726  79.5546471  82.5178846
  68.0455980  78.8634760  80.6521071  68.6264773  78.1032832  80.7313909
  67.5906304  81.7003122  79.9630073  66.5571728  81.6468130  79.2676626
  68.7174244  82.2996774  79.5401849  69.4279390  82.5699245  80.2051922
  68.8814828  82.7044545  78.1537952  67.9778379  82.4392866  77.6049683
  69.1232683  84.1936851  77.9987143  69.8438514  84.5750210  78.7222073
  69.4447738  84.4596108  76.9917298  67.5911077  85.1026054  78.2914373
  68.1067432  86.3122261  78.0918477  69.9469489  81.8841780  77.4855398
  71.1165672  81.9269890  77.8527746  69.5141405  81.1263644  76.4856495
  68.5436607  81.1883947  76.2128482  70.3725721  80.2038914  75.7676588
  71.3856000  80.2403330  76.1683403  69.8392466  78.7887565  75.9231931
  68.9723411  78.7108945  75.2670592  70.6243464  78.1213541  75.5678169
  69.4452923  78.3990004  77.3231200  68.8461832  79.1140786  77.8868863
  68.8633178  77.4934282  77.1518112  70.6445232  78.0477120  78.1255729
  70.8060642  76.9081953  78.5598115  71.5795436  78.9562816  78.1717159
  72.4226505  78.7825155  78.6999937  71.4559555  79.8292100  77.6789448
  70.4144876  80.5722378  74.2771159  69.4730407  81.1437162  73.7222770
  71.4881743  80.1623108  73.6342709  72.3481398  80.0125511  74.1423365
  71.5360135  80.1573767  72.1888571  70.6054477  80.4655211  71.7122089
  72.6694179  81.0487829  71.6717726  73.2570022  81.3725542  72.5308513
  73.5793488  80.3320350  70.6731664  72.9925196  80.0083519  69.8135377
  74.3633528  81.0128695  70.3416507  74.0316234  79.4633129  71.1515712
  72.0666819  82.3406258  71.0969576  71.5149578  82.8636809  71.8780568
  72.8664573  82.9817472  70.7262525  71.3905913  82.0938563  70.2783569
  71.4849346  78.7154390  71.6809686  72.2690997  77.8557805  72.0923024
  70.4752085  78.4273580  70.8867441  69.7478403  79.1090598  70.7245172
  70.3477988  77.1057753  70.2503206  71.2148066  76.4919301  70.4944326
  69.1001088  76.4429152  70.7738482  68.2367499  76.8925514  70.2834003
  69.1132178  74.9531164  70.5056308  69.9760999  74.5026779  70.9961819
  68.1992943  74.5051334  70.8957022  69.1737134  74.7772975  69.4316070
  69.0006006  76.6566941  72.2742544  69.8564233  76.1631574  72.7347865
  69.0579161  77.7294514  72.4586622  67.7158892  76.1075258  72.8743234
  67.6580862  75.0346587  72.6907075  67.7077673  76.2927445  73.9484404
  66.8595785  76.6009515  72.4145812  70.2946961  77.2050594  68.7128942
  69.6337190  78.0646001  68.1757721  71.0622468  76.3515227  68.0030556
  71.8571952  75.2442495  68.5664507  71.4043890  74.8885507  69.4919479
  72.8763968  75.5756650  68.7651739  71.7911027  74.2336914  67.4709695
  70.8819248  73.6375656  67.5492559  72.6598048  73.5759310  67.4994164
  71.7926954  75.0655046  66.2306416  71.3888285  74.4822718  65.4030970
  72.7717738  75.4571210  65.9547039  70.8655657  76.1933582  66.5581194
  71.0862316  77.1556364  66.0961395  69.4711410  75.7565630  66.1696818
  68.8960804  74.9640173  66.8665653  68.9420515  76.2617745  65.0718696
  69.4577662  76.9570034  64.5514904  67.6743733  75.7679485  64.5101438
  67.2110182  75.0064088  65.1374066  66.6710497  76.9313672  64.3220146
  67.0914583  77.6552824  63.6239439  65.3462958  76.4048332  63.7727607
  64.9250220  75.6811555  64.4705572  64.6500588  77.2337624  63.6453603
  65.5172666  75.9233690  62.8099196  66.4375675  77.7033911  65.6187949
  67.3813740  78.1223677  65.9677789  65.7268974  78.5100806  65.4390736
  66.0375482  77.0295393  66.3764289  67.9031174  75.2560959  63.1518051
  68.2700613  76.0769135  62.3111817  67.6056873  73.9650894  62.8895889
  67.2642000  73.3336046  63.6000203  67.7641950  73.4422236  61.4856261
  68.7253915  73.8014195  61.1179595  67.7180385  71.9174091  61.3281449
  66.6971655  71.7856325  60.9696025  68.4165749  71.7178593  60.5155399
  67.9819689  70.9506817  62.4718672  67.3748953  71.2559001  63.3241607
  67.6381437  69.5076101  62.0913222  68.2451940  69.2015038  61.2393317
  67.8414623  68.8501211  62.9365858  66.5827181  69.4426793  61.8268205
  69.4267788  71.0140337  62.9238229  69.6578895  72.0237143  63.2632817
  69.5831205  70.3113857  63.7423242  70.0801854  70.7526411  62.0914572
  66.7055762  73.9024666  60.5464028  65.5473549  73.7661505  60.8385850
  67.1048573  74.2644563  59.3744181  68.3081401  73.6732879  58.7947350
  68.1327861  72.6243127  58.5559834  69.1392877  73.7518454  59.4955354
  68.5138541  74.5310622  57.5498775  68.6689332  73.8786887  56.6905415
  69.3934507  75.1588795  57.6922031  67.2487049  75.3886714  57.3826505
  66.8800284  75.2676718  56.3640555  67.3962215  76.4482283  57.5916425
  66.2500959  74.7996212  58.3673503  65.6036248  75.5438296  58.8324601
  65.3677844  73.6934806  57.6857937  65.7027754  72.4498299  57.6271427
  64.2098920  74.1042468  57.2600164  63.9383014  75.0763003  57.2980945
  63.2987738  73.1456907  56.5902493  62.6318994  73.7064199  55.9352986
  64.0380951  72.0839837  55.7491505  64.4384461  71.3940447  56.4919846
  63.2420783  71.5927623  55.1895445  65.1364511  72.4957865  54.8030751
  64.8961481  73.4465138  54.3271836  66.0549498  72.6010021  55.3804760
  65.3621991  71.4450849  53.7112825  66.4789445  70.9463847  53.5184933
  64.2811180  71.0790506  53.0100404  64.3680644  70.3897972  52.2769158
  63.3839982  71.4939922  53.2176479  62.5437650  72.2917417  57.5574979
  61.6992204  71.5097399  57.0993662  62.9001673  72.2566772  58.8359837
  63.6860872  72.7570325  59.2259500  62.1138322  71.4302695  59.7137385
  61.7126890  70.5933338  59.1421425  62.9062624  70.8716052  60.9174725
  63.0004899  71.6463982  61.6783380  62.1798617  69.6779144  61.5004580
  62.0856540  68.9024627  60.7402603  62.7427406  69.2880859  62.3485745
  61.1874997  69.9826205  61.8328334  64.2968203  70.4548526  60.4872189
  64.8267348  71.3176818  60.0837113  64.8416360  70.0637392  61.3464661
  64.2245870  69.6826874  59.7212919  61.0150749  72.3093414  60.1786523
  61.2805574  73.3557684  60.7237345  59.7881780  71.9546808  59.8812386
  59.5998798  71.1163483  59.3503510  58.6710005  72.7629681  60.3012055
  59.0224695  73.4913489  61.0319792  58.0044092  73.5236574  59.1237860
  58.5409906  73.2462443  58.2164704  56.9740588  73.1743247  59.0571171
  58.0174853  75.0439519  59.2782257  56.9701524  75.3426341  59.2336867
  58.4037217  75.2238622  60.2814982  58.9767023  76.0352023  58.0782277
  60.5127284  75.1311330  57.8263400  60.2906242  74.1383989  57.4348713
  61.1394736  75.6695993  57.1154636  61.0395370  75.0371717  58.7759426
  57.6830042  71.8573774  60.9182214  57.1326861  71.0235985  60.2644219
  57.5100966  71.9879276  62.2201345  57.9568443  72.7550881  62.7017782
  56.7039756  71.0875243  62.9818239  55.7118419  71.0334321  62.5336678
  57.3055795  69.6622602  63.0248349  56.6010860  69.0142042  62.5034795
  58.2406997  69.7051666  62.4664360  57.5740813  69.1005427  64.4316296
  58.5363912  69.4882316  64.7659315  56.7868251  69.4660235  65.0909880
  57.6081579  67.2893106  64.4912948  56.3399009  66.9924168  65.7059936
  55.3946754  67.4051849  65.3534735  56.2309682  65.9193685  65.8634787
  56.6167816  67.4707409  66.6454852  56.6926989  71.7153411  64.3578886
  57.6461142  72.4333507  64.7271655  55.5904683  71.5909330  65.0761673
  54.7508587  71.1563379  64.7208053  55.5403044  72.2113308  66.3673866
  56.4030477  72.8731217  66.4435830  54.2671092  73.0174815  66.5489192
  53.4010013  72.3560248  66.5281231  54.3309875  73.7121821  67.8695916
  55.1966414  74.3742143  67.8909746  53.4231614  74.2971006  68.0173174
  54.4198443  72.9729298  68.6656505  54.1581131  74.0920252  65.4247164
  53.5943403  74.9213198  65.8519533  55.1775950  74.4160192  65.2154701
  53.4842747  73.6336725  64.1124262  52.4645319  73.3099456  64.3208138
  53.4643588  74.4625449  63.4048437  54.0477859  72.8046429  63.6843317
  55.7411545  71.0957325  67.3373869  54.9575025  70.1459825  67.3447674
  56.8603285  71.1129428  68.0407810  57.3964518  71.9623936  68.1461584
  57.3642334  69.8943085  68.6670440  56.8914661  69.0137674  68.2320295
  58.8583675  69.8087928  68.4296090  58.8987744  70.1373204  67.3910830
  59.3471845  70.5486435  69.0634695  59.5746949  68.4693462  68.5669804
  60.0351767  68.1962357  67.6175237  60.6582334  68.5997216  69.6403674
  60.1984336  68.8723802  70.5902833  61.1789474  67.6483440  69.7491717
  61.3699684  69.3714100  69.3470575  58.6388241  67.2774464  68.8354105
  57.9310485  67.1780344  68.0124461  59.2278074  66.3641612  68.9197323
  58.0938426  67.4447799  69.7644388  57.0569003  69.9218357  70.1677157
  57.1292549  70.9977939  70.7973884  56.6484677  68.7901446  70.7254569
  56.7135684  67.9133249  70.2284171  56.1461236  68.7736611  72.0860614
  56.0563275  69.7894266  72.4711022  54.8138702  68.0768662  72.1922913
  54.9230254  67.0321940  71.9010086  54.3202664  68.1535569  73.6330282
  54.2104174  69.1979926  73.9248977  53.3566363  67.6507254  73.7147491
  55.0404095  67.6668516  74.2907599  53.7937522  68.6860832  71.2270981
  53.2438625  69.4597163  71.7630215  54.3412963  69.1373028  70.3996345
  52.8151854  67.6513355  70.6841163  52.2669037  67.1999826  71.5110187
  52.1135095  68.1354135  70.0048383  53.3643382  66.8775674  70.1476334
  57.0924166  67.9987212  72.9727511  57.5753628  66.9383354  72.5870324
  57.3782963  68.5417243  74.1598562  57.2185560  69.9461648  74.5268574
  56.1628869  70.2147976  74.4881348  57.7776003  70.5704704  73.8298559
  57.7818537  70.0020501  75.9318280  57.1415678  70.6241756  76.5572021
  58.7858009  70.4257438  75.9058480  57.8118036  68.5822571  76.4193113
  56.8419544  68.2785590  76.8133405  58.5821532  68.3948775  77.1673421
  58.1158461  67.8163518  75.1705915  59.1741458  67.8793943  74.9173610
  57.7077049  66.3606621  75.2735692  56.5044576  66.0480280  75.3771735
  58.6940530  65.4670720  75.1835252  59.6422592  65.7803434  75.0323120
  58.4487645  64.0312373  75.2973556  59.3321542  63.5791357  75.7482723
  57.5929998  63.8928781  75.9581301  58.1679028  63.3529259  73.9838644
  58.2937610  62.1306264  73.8863213  57.7616299  64.1340444  72.9709013
  57.6872286  65.1316837  73.1097521  57.4551822  63.5962398  71.6545525
  56.7610500  62.7622524  71.7582093  56.8206014  64.6481053  70.7582322
  55.8624383  64.9432652  71.1859043  57.4796999  65.5150198  70.7118830
  56.6055905  64.1092877  69.3747471  57.5500311  64.1848698  68.8358408
  56.2998439  63.0643120  69.4261956  55.5720161  64.8696383  68.6291890
  54.7069682  64.2678110  67.9402093  55.6454632  66.2053746  68.7208624
  54.9705898  66.7796273  68.2362170  56.3753230  66.6311528  69.2741426
  58.7355938  63.1593907  71.0015571  59.7528267  63.7829288  71.1840495
  58.6841979  62.1146353  70.1961940  57.8776323  61.5084797  70.1500784
  59.8543136  61.7313687  69.4927135  60.7231936  62.2246004  69.9284534
  60.0785012  60.2404270  69.5278268  59.5770903  59.8268500  70.4028362
  59.5142945  59.5784360  68.2503118  60.0155870  59.9912011  67.3748517
  59.6846337  58.5026500  68.2923613  58.4441791  59.7739136  68.1814491
  61.4823623  59.9938550  69.6330661  61.6401016  59.0471923  69.6564805
  59.8529347  62.3054017  68.0694060  58.8200019  62.4295256  67.4443517
  61.0320379  62.7009810  67.5889460  61.8578396  62.5773142  68.1571514
  61.1840135  63.3132901  66.2668874  60.2490179  63.2090425  65.7164197
  61.5353409  64.8133453  66.3627913  60.5801675  65.2612272  66.6369172
  62.2502359  64.9593816  67.1725435  62.0719332  65.4889876  65.0704628
  62.9473306  64.9315798  64.7371810  61.0251926  65.5172962  63.9469230
  60.1496277  66.0749675  64.2793199  61.4496186  65.9994150  63.0662841
  60.7323930  64.4976248  63.6966452  62.5825586  66.8945824  65.3535441
  63.3919371  66.8478094  66.0821167  62.9511994  67.3406797  64.4298545
  61.7707437  67.5033061  65.7516786  62.3095485  62.6079046  65.4873675
  63.4670395  62.7303796  65.8516743  61.9645222  61.9380202  64.3680254
  60.6494655  61.6048994  63.8144928  60.2092143  62.4971776  63.3693874
  60.0034547  61.2416513  64.6137549  60.9598607  60.5220564  62.7769843
  60.8964691  60.9377825  61.7713738  60.2536433  59.6974525  62.8738694
  62.3243646  60.0825390  63.0900361  62.7885327  59.7406651  62.1649581
  62.4326772  59.3143994  63.8557577  62.9792393  61.3655383  63.5500990
  63.8708422  61.1902092  64.1520975  63.3261893  62.3340023  62.3787343
  62.4544922  63.1194889  61.9071871  64.5990847  62.3208812  61.9668675
  65.2694898  61.7056382  62.4051966  65.0639765  63.2212030  60.9560904
  64.2413656  63.6269062  60.3671801  65.7364315  64.3384168  61.6639841
  66.0268699  63.9596571  62.6439259  66.6135498  64.7378339  61.1548382
  64.7146194  65.4286160  61.8311267  63.7689158  64.9741595  62.1264485
  65.1463202  66.4410655  62.8920684  66.0917842  66.8963098  62.5971967
  64.3849732  67.2152591  62.9873347  65.2704492  65.9345405  63.8492125
  64.4817863  66.0607400  60.4288767  64.1180551  65.2971057  59.7413727
  63.7439276  66.8591509  60.5076525  65.4200066  66.4694995  60.0537004
  65.9856599  62.5545680  59.9314156  66.5951228  61.5119410  60.2159200
  66.0237345  63.1012401  58.7167317  65.2815818  63.7200131  58.4227440
  67.0088678  62.6987566  57.7377857  67.8900483  62.3526507  58.2779993
  66.5557006  61.6023115  56.7990772  65.5082069  61.7862971  56.5603191
  67.1537189  61.6792062  55.8910235  66.7040775  60.2059688  57.3872934
  67.7268848  60.1123897  57.7522715  66.0088594  60.0522203  58.2126025
  66.4603685  59.1258436  56.3365539  67.3141696  58.8790289  55.4723252
  65.2939865  58.5150815  56.3711175  65.0853544  57.7929223  55.6965360
  64.6135853  58.7717069  57.0720447  67.5291362  63.8901609  57.0105599
  66.7791353  64.6995053  56.4299858  68.8415630  64.0644006  57.1442819
  69.3992772  63.3889688  57.6471199  69.4874145  65.3055645  56.6961079
  68.7436617  66.0002541  56.3058035  70.1912018  65.9580560  57.8682616
  70.9799205  65.2872106  58.2088324  70.6267177  66.9169399  57.5872500
  69.1778743  66.1691930  58.9976458  68.6323803  65.2355346  59.1348285
  69.8259462  66.5665063  60.2962150  70.3712837  67.5003865  60.1599306
  69.0592084  66.7020862  61.0589942  70.5174752  65.7852667  60.6117347
  68.1800905  67.2401232  58.5802849  67.6599632  66.9206997  57.6772147
  67.4562384  67.3946688  59.3804443  68.7085040  68.1730241  58.3838823
  70.3953952  65.0649585  55.4977191  71.1208978  64.0643826  55.4170366
  70.2711441  65.9411167  54.5015261  69.7506752  66.7966625  54.6328765
  70.8993117  65.7013933  53.1947590  71.4096397  64.7383024  53.1837840
  69.8287248  65.6895852  52.1403207  69.1597073  66.5480658  52.1997007
  70.3342060  65.6896456  51.1746143  68.9748747  64.4859789  52.1699317
  68.4335252  64.0157073  53.3718765  68.6424022  64.5568846  54.2946968
  67.6498230  62.8905533  53.3991433  67.2324169  62.5231968  54.3366517
  67.3882049  62.2121877  52.2032432  66.8261177  61.2788941  52.2367234
  67.8390406  62.7178943  50.9704180  67.5734660  62.2351387  50.0299302
  68.6338507  63.8500640  50.9664405  69.0005822  64.2551900  50.0233176
  71.9117936  66.8106280  52.8366729  73.0335305  66.5240793  52.3499367
  71.5462496  68.0423574  53.1664353  70.6352267  68.2367752  53.5567407
  72.4111649  69.1619317  52.8487372  72.8925865  68.9917507  51.8857363
  71.6247088  70.4370128  52.7727910  71.2710545  71.0491872  53.6024116
  72.4285938  70.9589208  52.2536754  70.5021152  70.3314409  51.8164018
  69.2804149  69.8408572  52.2122175  69.0173678  69.6622135  53.1708584
  68.5230235  69.6458332  51.1523454  67.4856265  69.3275339  51.2552635
  69.2481404  69.9012760  50.0792538  70.5102882  70.2716135  50.4703777
  71.2817484  70.4524070  49.7218698  73.5491990  69.2404336  53.8168229
  73.3771162  69.0290809  55.0260555  74.7648428  69.4687668  53.2729633
  75.0568467  69.9912304  51.9377189  74.3571212  70.7911651  51.6956671
  74.9627861  69.1920921  51.2024438  76.4620990  70.4793656  52.0716001
  76.4640912  71.5344954  52.3450892  76.9920010  70.3480967  51.1281629
  77.0657079  69.6401458  53.1406676  77.8785446  70.1983523  53.6052113
  77.4300451  68.6617172  52.8275613  75.9293121  69.4770264  54.1210440
  75.9997665  68.5239007  54.6451488  75.8246984  70.5989809  55.1289170
  76.3916531  70.4169534  56.2150944  75.0557111  71.6853636  54.8271086
  74.7336214  71.8467222  53.8835404  74.7350045  72.6892140  55.8554595
  75.6810216  73.1664993  56.1110952  73.7056963  73.7883300  55.5063024
  73.0268187  73.8418610  56.3573952  74.2731506  74.7163066  55.4359092
  72.9333797  73.5946703  54.2779507  72.5220549  72.5866080  54.3301350
  72.1250214  74.3086440  54.1201517  73.8636436  73.6683301  53.1230875
  73.9785446  72.7259653  52.3519225  74.6322287  74.7635011  53.0503179
  75.2845349  74.8690873  52.2864791  74.5557530  75.4784286  53.7596355
  74.2386647  72.0458253  57.1243266  74.8889497  72.1667509  58.1677783
  73.0854311  71.3634435  57.0243401  72.5775606  71.3989185  56.1520394
  72.4847501  70.6431010  58.1483726  72.2867576  71.3311201  58.9702776
  71.1572648  70.0032949  57.7129914  71.4144727  69.1972532  57.0257941
  70.7078769  69.5833276  58.6128680  70.1410458  70.9675881  57.0259757
  69.6163762  71.4917594  57.8247667  70.7337884  71.6802848  56.4525484
  69.0990497  70.2775078  56.0826601  69.2188795  69.0574201  55.7482040
  68.1391788  70.9819112  55.6766483  73.4698060  69.6011208  58.7117777
  73.7301006  69.5835416  59.9002602  74.0307534  68.7830632  57.8277399
  73.8454500  68.9492392  56.8488898  74.8995077  67.6709044  58.1868122
  74.4497719  66.8862997  58.7952793  75.3516602  67.0672797  56.8779060
  75.5900051  67.8801732  56.1919794  76.5707362  66.1787450  57.0523355
  76.3330064  65.3652978  57.7378201  76.8613072  65.7659155  56.0862915
  77.3941689  66.7663431  57.4582771  74.1941822  66.3330416  56.2527853
  73.3754929  67.0299134  56.0732873  74.5103848  65.8933711  55.3068438
  73.8580198  65.5438513  56.9252989  76.1382361  68.1001756  59.0048124
  76.6525849  67.3403386  59.8581833  76.5943262  69.3309695  58.7691215
  76.2105041  69.8728079  58.0080755  77.6465267  69.9364353  59.5923944
  78.4901379  69.2527475  59.6872129  78.1454608  71.2537832  58.9231949
  78.4205084  71.0107527  57.8968498  77.3078966  71.9513272  58.9188817
  79.2667881  71.8564624  59.5892586  79.5202465  72.6586935  59.1268910
  77.1485823  70.2732736  60.9685994  77.7600784  69.8839179  61.9968016
  76.0457711  71.0078432  60.9992730  75.6470383  71.2857076  60.1138901
  75.4642734  71.5157255  62.1863833  76.0938796  72.2500949  62.6887745
  74.1828823  72.2180183  61.6973816  74.2888203  73.2598950  61.9996551
  74.2114906  72.1510660  60.6098159  72.8728471  71.6834495  62.1967552
  72.0988250  71.8653377  61.4511633  72.9619226  70.6115174  62.3731902
  72.4186212  72.4970804  63.7283676  73.8389419  73.5828156  64.0905517
  73.9726526  74.2917549  63.2734682  73.6539610  74.1271749  65.0165948
  74.7401451  72.9792275  64.1983262  75.2573935  70.4116665  63.2608545
  75.4998789  70.6237578  64.4279763  74.8392534  69.2387984  62.8214762
  74.7954054  69.1320209  61.8180943  74.5603772  68.0930748  63.6408110
  73.9425661  68.2869693  64.5176312  73.8456282  67.0654902  62.7553678
  74.4428379  66.8949575  61.8596232  73.6612599  65.7474062  63.5019419
  73.0637132  65.9170652  64.3976286  73.1522175  65.0317077  62.8563785
  74.6359728  65.3506235  63.7858431  72.5278613  67.6185401  62.2492382
  72.7121066  68.5196073  61.6642309  72.0370544  66.8734743  61.6230711
  71.8856621  67.8607249  63.0960130  75.8332549  67.3769476  64.1035615
  76.0193748  67.0886056  65.3017703  76.6992789  67.0807770  63.1323955
  76.4521591  67.2767692  62.1729070  77.9492366  66.3722048  63.3946077
  77.7204712  65.3680103  63.7514817  78.8312741  66.2575957  62.1228041
  78.1703406  66.4410499  61.2756850  79.5673326  67.0588152  62.1888740
  79.5629867  64.8951833  61.9250965  80.4733056  64.9209683  62.5240585
  78.9046424  64.1111191  62.2991662  79.9249568  64.6036901  60.4499733
  79.6637145  65.4812798  59.8586293  81.0003402  64.4350342  60.3933585
  79.2301103  63.4266441  59.8838391  78.6758055  62.8695932  60.5182994
  79.2807807  63.0664534  58.5936433  79.9854920  63.7849369  57.7139062
  80.4848241  64.6068531  58.0224855  80.0154095  63.5026164  56.7446282
  78.6357853  61.9747984  58.1764259  78.1089120  61.4202659  58.8359700
  78.6775804  61.7083327  57.2031079  78.6935852  67.0410386  64.5609560
  79.1855971  66.3438393  65.4754135  78.7188064  68.3723499  64.5557498
  78.3770214  68.8729877  63.7478859  79.2945493  69.1428464  65.6556994
  80.1871781  68.6502597  66.0412786  79.6765221  70.5000690  65.1531614
  78.7596777  70.9118947  64.7313851  80.0468201  71.1641028  65.9342111
  80.7257659  70.4139039  64.0484357  80.3937318  70.1616832  62.8864765
  82.0103843  70.5148145  64.4272201  82.7434743  70.4640278  63.7343279
  82.2374748  70.6410276  65.4032329  78.3966014  69.2891757  66.8837573
  78.8751207  69.4114977  68.0020997  77.0915321  69.2950812  66.6574362
  76.7480115  69.2785116  65.7077950  76.1173494  69.3401467  67.7459560
  76.2750322  70.2478018  68.3285344  74.7141798  69.3376964  67.2372017
  74.6993516  69.7505472  66.2285226  74.2633952  68.3453068  67.2297099
  73.9279582  70.2422232  68.1644212  74.0340564  69.8611307  69.1801045
  74.4156866  71.6884082  68.1101626  74.3094601  72.0703660  67.0948189
  73.8221750  72.2983507  68.7912022  75.4640296  71.7301683  68.4056850
  72.4740940  70.1564891  67.7823945  72.1313245  69.1267800  67.8839214
  71.8872102  70.8004860  68.4373271  72.3497478  70.4800465  66.7489790
  76.2918648  68.1442784  68.6653185  76.1824323  68.2812270  69.8821728
  76.5976470  66.9916948  68.0834479  76.6019996  66.9069440  67.0770197
  76.8075337  65.8029173  68.8699323  75.9184776  65.6545843  69.4828562
  77.0418957  64.6168502  68.0611873  77.9877900  64.6969435  67.5254920
  77.0973186  63.4275678  69.0153579  76.1515379  63.3465444  69.5511140
  77.2722567  62.5135772  68.4478030  77.9078107  63.5717446  69.7297912
  75.9054620  64.4590738  67.0764585  75.5905291  65.4520128  66.7555377
  76.2732358  63.8994710  66.2164081  74.7377053  63.7353690  67.6817822
  74.3690674  64.2946480  68.5416734  73.9432187  63.6431581  66.9412503
  75.0517750  62.7421064  68.0025461  77.9161177  65.9527912  69.8970750
  77.8156282  65.4244472  70.9959856  78.9732499  66.6288990  69.5194831
  79.0680426  67.0228192  68.5943125  80.0722285  66.7538282  70.4251413
  80.3990801  65.7709251  70.7645065  81.2244921  67.4284980  69.7192614
  81.0149880  68.4967632  69.6643367  82.1287053  67.2657893  70.3057974
  81.4246991  66.8808608  68.3207345  80.6386205  67.2959104  67.6899293
  82.3979624  67.1798733  67.9315659  81.3310022  65.3757515  68.2801661
  80.9219257  64.7975034  67.2820196  81.6778497  64.7378989  69.3852733
  81.6353674  63.7292920  69.4170379  81.9836648  65.2622395  70.1925188
  79.7097311  67.4918407  71.6645864  80.0911541  67.0857310  72.7475847
  78.9562254  68.5652546  71.5246981  78.7114440  68.9353762  70.6173991
  78.6037976  69.3345167  72.6962972  79.3360382  69.0390507  73.4477110
  78.7647811  70.8314091  72.4183613  79.7692819  71.0257110  72.0424303
  78.0321487  71.1441929  71.6743746  78.5448690  71.6144545  73.7083624
  77.5403458  71.4210056  74.0846754  79.2774798  71.3025266  74.4527309
  78.7052233  73.1055159  73.4315096  79.7097232  73.2998187  73.0555768
  77.9725895  73.4182987  72.6875244  78.4853131  73.8885605  74.7215121
  77.4807906  73.6951115  75.0978264  79.2179256  73.5766338  75.4658775
  78.6398822  75.3258456  74.4546432  77.9608331  75.6151766  73.7652380
  78.4942381  75.8444527  75.3090052  79.5707697  75.5053741  74.1063371
  77.2358963  68.9968147  73.2701086  77.0350839  67.9236909  73.8124302
  76.3070924  69.9267422  73.1418930  76.5713680  70.7677387  72.6489605
  74.9598873  69.8333235  73.6680985  74.9738448  69.6713902  74.7459121
  74.2440933  71.1459078  73.3826997  74.6957274  71.5721009  72.4868842
  73.1927407  70.9307465  73.1917461  74.3561013  72.1232436  74.5108162
  74.3926689  71.6786115  75.6714411  74.3933299  73.3376046  74.2390983
  74.0530129  68.7491128  73.1586371  73.2094027  68.2437200  73.8758490
  74.1706334  68.4318059  71.8952117  74.8829947  68.8307617  71.3006741
  73.1914988  67.5114129  71.2910444  73.5081853  67.3013649  70.2694336
  73.0461248  66.1690194  72.0500878  72.5843284  66.4251760  73.0036218
  72.3495450  65.5762174  71.4572452  74.2901800  65.3769814  72.2960324
  74.9056779  65.3928480  71.3965818  74.8416904  65.8278292  73.1210624
  73.9437990  63.9485913  72.6434755  73.4485810  63.4883304  71.7884796
  74.8634794  63.4070400  72.8648567  73.0606178  63.8595430  73.7976936
  72.0765454  63.9947161  73.6148574  73.4493838  63.6104832  75.0573226
  74.7363833  63.4448098  75.3763298  75.4435788  63.5066735  74.6578959
  74.9960707  63.2584790  76.3344232  72.5384210  63.5312580  76.0190784
  71.5614532  63.6586429  75.7968016  72.8262701  63.3439435  76.9688968
  71.7567292  68.0298457  71.1179644  70.8915446  67.3174727  70.6144803
  71.4963730  69.2600117  71.5586597  72.2455800  69.8079689  71.9568194
  70.1637386  69.8598988  71.4806460  69.4691226  69.1188259  71.0851480
  69.5677998  70.4449072  72.8246225  68.7560106  71.1226459  72.5604846
  69.0492372  69.3785963  73.7491672  69.8606212  68.7006962  74.0141334
  68.6535729  69.8417077  74.6530902  68.2570548  68.8192684  73.2514727
  70.5331252  71.2263319  73.5191896  70.1459534  71.5679591  74.3285036
  70.1597777  71.0110857  70.5329862  71.0760930  71.8780929  70.5510633
  69.1181620  71.0111015  69.7126992  68.4528325  70.2544356  69.7826458
  68.8672919  72.0582876  68.7452999  69.5862991  72.8642452  68.8921341
  68.9968287  71.5503332  67.3390266  68.7017113  72.3676515  66.6810026
  70.0041837  71.2230389  67.0817049  68.1045329  70.4308719  67.0416521
  68.2529883  69.2282142  67.7107332  68.9234398  69.1676978  68.5680151
  67.5702607  68.1295302  67.3053426  67.7243186  67.1675509  67.7941806
  66.6768150  68.2372752  66.2672458  66.1335583  67.3544349  65.9302516
  66.4659192  69.4507430  65.6536296  65.7270952  69.5418219  64.8574236
  67.1834029  70.5392999  66.0439052  67.0218138  71.5014352  65.5578142
  67.4425425  72.5286498  68.9496001  66.7124899  71.9206937  69.7177867
  67.0655355  73.5713801  68.2297117  67.6471860  73.8742274  67.4615544
  65.8552213  74.3126679  68.5069354  65.3823327  73.9949362  69.4361943
  66.2302613  75.7631891  68.6302818  66.6968002  76.0984206  67.7039658
  65.3352763  76.3554776  68.8207979  66.9310273  75.8889038  69.4556436
  64.8176367  74.1135944  67.3665872  65.1483976  74.1815635  66.1642402
  63.5760658  73.8479284  67.7613192  63.3498982  73.7831804  68.7435387
  62.5196801  73.6737024  66.8076020  62.8252823  73.7275002  65.7627037
  61.9338124  72.3335781  67.0621248  61.5665145  72.2837651  68.0871663
  60.7918786  72.1010814  66.1081958  61.1585121  72.1502886  65.0828864
  60.3587969  71.1178159  66.2918523  60.0306522  72.8666287  66.2584403
  63.0372409  71.2847245  66.9499578  63.8139764  71.4936559  67.6855744
  62.6189591  70.2953356  67.1350240  63.4678123  71.3151870  65.9490676
  61.4913820  74.7469069  67.0416109  61.0979472  74.9852990  68.1954737
  61.0038467  75.3721323  65.9618515  61.3049537  75.0962497  65.0380968
  60.1780040  76.5677199  66.0918019  60.0968307  76.8398446  67.1441604
  60.7913310  77.7583786  65.3195147  60.7562871  77.4328230  64.2798586
  60.1526014  78.6322619  65.4477817  62.2640445  78.1283488  65.7007902
  62.9011551  77.2805889  65.4488098  62.7555324  79.3641594  64.9713810
  62.1191492  80.2124998  65.2232414  63.7815611  79.5789902  65.2700677
  62.7195697  79.1902997  63.8959370  62.5131474  78.3422295  67.1825594
  62.2716174  77.4296834  67.7275568  63.5615795  78.5937313  67.3426783
  61.8854019  79.1570987  67.5431462  58.7048182  76.3169898  65.7350737
  58.4022556  75.6950722  64.7585777  57.8298467  76.8943036  66.5363325
  58.1410592  77.2021918  67.4465253  56.4502803  77.0815093  66.1899804
  56.0474352  76.2489473  65.6132174  55.6346725  77.2387485  67.4380404
  56.0203327  78.0745406  68.0218365  54.5953838  77.4311893  67.1716839
  55.6944659  76.3250008  68.0293010  56.3564069  78.3474802  65.2862225
  56.8651678  79.4436398  65.6095204  55.8541925  78.1304054  64.0988771
  55.7221100  77.1843560  63.7707855  55.4426631  79.2172194  63.2398347
  55.7391335  80.1792716  63.6577582  56.1367829  79.0377254  61.8778433
  56.0272126  78.0313401  61.4737614  55.5212011  79.7288741  61.3021066
  57.5957633  79.4636808  61.7893667  58.6378957  78.5669573  62.0599310
  58.4021143  77.5618500  62.4095967  59.9556790  78.9472641  61.8870236
  60.7708552  78.2571167  62.1044772  60.2344557  80.2256755  61.4015838
  61.5199823  80.6642088  61.2740106  62.1680430  80.0110606  61.5478980
  59.2235461  81.0933763  61.0607642  59.4481613  82.0807899  60.6574492
  57.9188887  80.7031858  61.2338236  57.1073798  81.3666834  60.9349518
  53.9053419  79.0822230  63.0851495  53.4409832  78.0543834  62.5607501
  53.1212169  80.1392867  63.3946432  53.3660586  80.7681179  64.1461239
  51.8477780  80.3899972  62.6446141  51.2359921  79.4885981  62.6806254
  51.0331727  81.5640983  63.2359734  50.4115664  81.1847787  64.0470354
  51.7265428  82.3082701  63.6278232  50.1948535  82.1705140  62.2315457
  49.7004910  82.8948623  62.6220903  52.2977178  80.6906075  61.1792300
  53.1619080  81.5270344  60.9995577  51.7097968  80.0915889  60.1627190
  50.9393495  79.4481656  60.2745974  52.2129457  80.3386762  58.8195563
  53.2411660  79.9859764  58.7391499  51.3731302  79.6300494  57.7702403
  51.4027866  78.5547008  57.9458682  50.3425311  79.9795095  57.8322330
  51.8976883  79.9086321  56.3689136  52.8808777  80.6269715  56.2022759
  51.2377405  79.3369964  55.3589999  51.5443951  79.4894075  54.4088244
  50.4348208  78.7547271  55.5497442  52.2154987  81.8108596  58.5569569
  52.9860364  82.3145735  57.7644085  51.3402671  82.5120869  59.2341054
  50.7005241  82.0719820  59.8799659  51.2643547  83.9416919  59.0642652
  51.0848484  84.1705139  58.0137809  50.1154365  84.5318855  59.8990846
  49.1716676  84.0850889  59.5863990  50.3543485  84.2333417  61.3753694
  51.2977794  84.6802453  61.6889238  49.5403098  84.6514376  61.9675157
  50.3959645  83.1546508  61.5263518  50.0573626  86.0411674  59.6885615
  49.8866321  86.2550693  58.6334789  49.2432083  86.4599833  60.2800389
  51.0006829  86.4887511  60.0014776  52.5575991  84.6219238  59.4930652
  52.8668963  85.7179185  59.0434257  53.3190187  83.9811476  60.3643959
  53.0513538  83.0796549  60.7328598  54.5137392  84.6163074  60.8967455
  54.1546802  85.5125875  61.4025694  55.1897800  83.7139040  61.9248807
  54.4687546  83.4332035  62.6926234  55.5626814  82.8161936  61.4317675
  56.3532700  84.4600916  62.5691785  57.0749861  84.7407354  61.8020632
  55.9810605  85.3577440  63.0629216  57.0555570  83.5918893  63.6033460
  56.6659467  82.4476040  63.8252799  58.0950117  84.1397096  64.2371049
  58.5963917  83.6064469  64.9330578  58.3752802  85.0849200  64.0177237
  55.5180667  85.0472920  59.8572320  56.0858743  86.1287917  59.9770020
  55.7472515  84.2352054  58.8396693  55.3028991  83.3321070  58.7556250
  56.7036731  84.6302765  57.8189237  56.8893961  83.7952705  57.1433713
  56.1850402  85.8108638  57.0036699  55.2552195  85.5307259  56.5086391
  56.0030020  86.6578588  57.6651543  57.2117304  86.1951980  55.9652602
  58.1417468  86.4759245  56.4595909  57.3939630  85.3487934  55.3030746
  56.6926177  87.3768827  55.1492511  56.9677114  88.5323518  55.5697458
  56.0259315  87.1128154  54.1132018  58.0229304  84.9903895  58.4753775
  58.6021931  86.0338506  58.1917286  58.4622885  84.1143976  59.3700934
  57.8084579  83.4004057  59.6578789  59.7321917  84.2227528  60.0892145
  59.9494228  83.1618027  60.2128866  60.7951802  84.8341032  59.1990397
  60.7799447  84.3445573  58.2252780  60.5963696  85.8984063  59.0732096
  62.1656293  84.6457384  59.8409215  62.1817812  85.1354434  60.8145893
  62.3653586  83.5815950  59.9666559  63.2354296  85.2610077  58.9450442
  63.2201938  84.7714638  57.9712816  63.0366191  86.3253108  58.8192163
  64.5818133  85.0968999  59.5372611  64.6632335  84.6220941  60.4249714
  65.6894222  85.5461020  58.9538911  65.6629053  86.1806566  57.7853288
  64.7813053  86.3323778  57.3164342  66.5244898  86.5078973  57.3721881
  66.8481218  85.3441580  59.5748056  66.8647554  84.8619283  60.4620924
  67.7060779  85.6739609  59.1561888  59.7887726  84.8723463  61.4556811
  60.8263431  84.7956721  62.1011563  58.7124816  85.4865663  61.9166262
  57.8555710  85.5586584  61.3869033  58.7490747  86.0616378  63.2423380
  59.7225347  86.4292674  63.5668734  57.7350378  87.1812442  63.3870807
  58.0315853  88.0237513  62.7623082  56.7532561  86.8256018  63.0744733
  57.6743798  87.6219176  64.8300734  57.3774270  86.7799997  65.4554487
  58.6557546  87.9781511  65.1432834  56.6539785  88.7485472  64.9757253
  55.4641312  88.4189919  65.2272367  57.0740877  89.9279735  64.8340853
  58.3945961  84.8982077  64.1297299  57.3129400  84.8453589  64.6783355
  59.2953429  83.9396376  64.2591307  60.1927064  83.9799297  63.7973789
  58.9983652  82.7654699  65.1210010  57.9824705  82.3951677  64.9834016
  59.9624437  81.6329145  64.8694618  60.9837450  81.9859475  65.0123302
  59.7586959  80.8200576  65.5664918  59.8425245  81.2731912  63.8475432
  59.1374892  83.2286303  66.5591776  60.0662881  84.0012616  66.8625113
  58.1948364  82.8381850  67.4219801  57.4707153  82.1931996  67.1395944
  58.0615666  83.5143132  68.7372937  58.9676394  84.0869462  68.9353414
  56.8350861  84.4880870  68.7777793  55.9704557  83.9333008  68.4134637
  56.6762820  84.7638080  69.8203047  57.0226098  85.7774270  67.9225553
  58.0876274  85.9512738  67.7688814  56.5519489  85.5421654  66.9679703
  56.3847171  87.0745418  68.4830879  56.7694501  88.1797047  68.0824728
  55.3789593  86.9361090  69.3532722  54.9355052  87.7558668  69.7424340
  55.0673129  86.0124195  69.6174229  58.1113581  82.5454907  69.9011682
  58.6644210  82.8757580  70.9524883  57.7672858  81.2896015  69.6475706
  57.3403921  81.0681403  68.7594174  57.9343542  80.1960869  70.6418013
  58.6902459  80.4952363  71.3679119  56.5979464  79.8680167  71.4117795
  55.9028555  79.2793995  70.8130495  56.8787071  79.3037424  72.3010871
  55.8214544  81.1023907  71.9008081  55.0533190  81.8816635  71.0163791
  55.0078382  81.5926138  69.9663878  54.3539152  83.0119740  71.4634054
  53.7991140  83.6256189  70.7536616  54.3681134  83.3478971  72.8041694
  53.8271282  84.2252513  73.1586896  55.0771926  82.5600002  73.7012864
  55.0739699  82.8163629  74.7607051  55.7940012  81.4413484  73.2527948
  56.3402181  80.8227007  73.9648496  58.4509383  78.9313342  69.9440575
  58.4472301  78.8219395  68.7101758  58.8893020  77.9733416  70.7505073
  58.8806330  78.1212577  71.7495794  59.3951490  76.6845338  70.2381713
  58.6170436  76.2646568  69.6007119  60.2782113  76.9020825  69.6373611
  59.7585401  75.6766784  71.2963071  59.4595576  75.8760136  72.4580640
  60.5665571  74.7061250  70.9304650  61.0193174  74.7406351  70.0282917
  60.8353590  73.5421417  71.8073609  60.7895286  73.7517424  72.8760359
  59.7803996  72.5061493  71.4710954  60.0739607  71.9779844  70.5639217
  59.6402709  71.5137018  72.6111116  59.3462560  72.0411035  73.5185818
  58.8800593  70.7744942  72.3586249  60.5937345  71.0118526  72.7759001
  58.5355441  73.1965937  71.1750697  57.8562264  72.5533326  70.9597954
  62.2567098  72.9853788  71.5481392  62.6740016  72.8103401  70.4009975
  63.0033265  72.7292701  72.6249590  62.7022035  73.0296563  73.5410335
  64.3012341  72.0902951  72.5022361  64.8381488  72.5096536  71.6513776
  65.1861606  72.2501006  73.7785348  66.1510263  71.7729025  73.6070225
  65.3975139  73.7220359  74.0873296  64.4330533  74.1998406  74.2594286
  66.0160109  73.8215197  74.9793294  65.8953788  74.2026485  73.2451642
  64.5901387  71.6064912  74.9173771  65.1568743  71.7225859  75.6834926
  64.0778379  70.6275143  72.1641809  63.1957381  69.9753476  72.7270847
  64.8534867  70.1203998  71.2085069  65.4320150  70.7287663  70.6469959
  64.9010274  68.7125417  70.9529847  64.2823082  68.1325090  71.6377094
  64.4392379  68.4521090  69.5541330  65.0552356  69.0190545  68.8561217
  64.5271207  67.3881728  69.3340956  63.3984035  68.7590703  69.4514790
  66.3222690  68.2474052  71.1150879  67.2610632  68.8771364  70.6383026
  66.4826035  67.1293770  71.7810478  65.6499715  66.5802546  71.9400691
  67.7689961  66.5829922  72.2193672  68.5689471  67.3160339  72.1153132
  67.6274304  66.2243321  73.6884387  67.3054498  67.1458852  74.1733797
  66.8187412  65.4943261  73.7232663  68.8372691  65.6711875  74.4098391
  69.2879751  64.7395875  74.0676602  69.5308400  66.4943264  74.2380810
  68.5329477  65.5704271  75.8809940  68.8612300  66.5289004  76.6325861
  67.7602385  64.6534879  76.2282402  68.0128338  65.3085543  71.4711103
  67.1392388  64.4401108  71.4863336  69.1786928  65.1690306  70.8199392
  69.8154779  65.9439640  70.7012707  69.4263845  63.9614804  70.0750283
  68.4590390  63.5998728  69.7263424  70.3461327  64.1439929  68.8997320
  71.3809351  64.1831267  69.2399568  70.1654827  62.9531519  67.9477627
  69.1309612  62.9136333  67.6067287  70.8263903  63.0703572  67.0889468
  70.4106537  62.0287840  68.4707678  69.9880459  65.4491894  68.1718764
  69.3498901  65.1825723  67.3293960  69.4244972  66.0641498  68.8735430
  71.1842812  66.2243692  67.6715160  71.7481050  65.6101799  66.9693948
  70.8463568  67.1312702  67.1700811  71.8227137  66.4917555  68.5135423
  69.8234126  62.7995640  70.9804856  70.7579613  62.8852621  71.7713146
  69.0684133  61.7053890  70.8724474  68.2655180  61.7129175  70.2597471
  69.3416517  60.4858651  71.6494856  70.1103763  60.6916813  72.3943355
  68.0826286  60.0031860  72.3678141  68.2663594  59.2966873  73.1772595
  67.8075192  60.9711954  72.7865894  66.9352775  59.4823763  71.4830538
  66.8682078  58.1533844  71.1147239  67.6834854  57.4916577  71.4071956
  65.8018214  57.6571161  70.3932775  65.7921866  56.6172076  70.0667820
  64.7230414  58.4741519  70.1255104  63.6428819  58.0013560  69.3828662
  63.7500687  57.0890445  69.1039426  64.7311082  59.7853511  70.5570549
  63.8811569  60.4372116  70.3551608  65.8195896  60.2679566  71.2452425
  65.8180958  61.2920330  71.6185593  69.8721105  59.3257428  70.8202579
  70.2320397  58.2797086  71.3724250  69.8401475  59.4790439  69.5092102
  69.4713754  60.3250348  69.0988375  70.3260394  58.4436373  68.6249392
  71.1541454  57.8750450  69.0480734  69.2169086  57.4895912  68.2753980
  68.3838970  58.0431243  67.8420472  69.5804101  56.7575721  67.5542081
  68.8815453  56.9757472  69.1762837  70.8367346  59.1288156  67.3929712
  70.3200379  60.1664090  67.0203527  71.8549466  58.5699916  66.7600374
  72.3019111  57.7304737  67.0999369  72.3857847  59.1947995  65.5736180
  71.5927313  59.5894049  64.9384393  73.2516041  60.3449792  66.0363721
  72.5955820  61.1643883  66.3301456  73.7430051  59.9388023  66.9204792
  74.2849476  60.8520059  65.0805106  74.0305810  60.9605689  63.7370577
  73.0589130  60.6469384  63.3554863  74.9803358  61.4564748  62.8750379
  74.7695973  61.5306621  61.8081792  76.1872419  61.8645944  63.3617226
  77.1491357  62.3523849  62.5158516  76.8700026  62.3641553  61.5974041
  76.4546380  61.7839228  64.6962699  77.4183620  62.1091235  65.0881639
  75.5018405  61.2899552  65.5457603  75.7004435  61.2376527  66.6162375
  73.1617127  58.2158694  64.7367545  73.7659910  57.3000123  65.2647265
  73.1384803  58.4059923  63.4279262  72.6021199  59.1659669  63.0344095
  73.8793316  57.5539513  62.5288631  74.7632956  57.1645345  63.0338991
  73.0309831  56.3944364  62.0819715  72.1747008  56.3297509  62.7533102
  72.6838928  56.6057608  61.0705516  73.7767673  55.0871110  62.0932099
  74.6647012  55.1948804  62.7161546  73.1296601  54.3174529  62.5139008
  74.1867284  54.6910390  60.6999961  74.5040313  55.5737468  60.1447981
  75.0090729  53.9771680  60.7472951  73.0755297  54.0746499  59.9980652
  72.7217322  54.5359303  59.1721432  72.4990949  52.9495772  60.3886793
  71.4924664  52.4467741  59.6937714  71.1663282  52.9240908  58.8655790
  71.0544887  51.5877895  59.9944717  72.9258807  52.3334309  61.4824410
  73.6900839  52.7256749  62.0137020  72.4848071  51.4746904  61.7792870
  74.2498546  58.3999315  61.3508630  73.4584428  59.2117416  60.9211168
  75.4444641  58.2016139  60.8149858  76.0557818  57.4985967  61.2050585
  75.9261595  58.9858864  59.6755455  75.1214808  59.6048582  59.2787264
  77.1056680  59.9036070  60.0724517  76.7777657  60.6071330  60.8377167
  77.9228848  59.2973324  60.4632046  77.5807312  60.6659887  58.8587015
  77.9092503  59.9630918  58.0931221  76.7641329  61.2728937  58.4676353
  78.7455332  61.5722637  59.2506572  79.9059609  61.0892889  59.1626562
  78.4637719  62.7388853  59.6343302  76.3758712  58.0392226  58.5741922
  77.4881420  57.5927248  58.6030263  75.5139555  57.7865512  57.5946349
  74.5406743  58.0284794  57.7141916  75.8737312  56.9432599  56.4945598
  76.8479133  56.4994334  56.6997093  74.8679206  55.8220742  56.2560107
  75.4265967  55.0673777  55.7024644  74.6380375  55.4449891  57.2525349
  73.5751972  56.1338320  55.5224234  73.0500753  56.7852104  56.2210321
  73.7163673  56.6556512  54.5759167  72.7461620  54.8615682  55.2868508
  72.1765989  54.3315273  56.3018742  72.7832801  54.3320960  54.1266786
  76.2712645  57.7195806  55.2571627  75.6292518  58.7041844  54.8197832
  77.3582090  57.2539830  54.6652982  78.0503155  56.7364796  55.1880584
  77.6674277  57.6211788  53.2538858  76.8137818  58.1525169  52.8330917
  78.9153756  58.5241085  53.1407976  79.2242249  58.4708601  52.0968264
  78.5705542  59.5332798  53.3661228  80.1069298  58.1768386  54.0451030
  79.7844434  57.5188711  54.8520615  80.8443389  57.6615830  53.4296019
  80.7597832  59.4132291  54.6555971  81.2703297  60.2605248  53.9385543
  80.7118974  59.5308250  55.9834085  81.1309578  60.3330188  56.4317106
  80.2567959  58.8171370  56.5344380  77.7637278  56.3969380  52.3523256
  78.6771778  56.2860604  51.5447636  76.7288635  55.5774511  52.3654404
  75.9297218  55.7861734  52.9467380  76.7288891  54.3271895  51.6119718
  77.7372267  53.9151335  51.5724202  75.8150553  53.3129286  52.2848333
  74.8678712  53.8279682  52.4450698  75.6543886  52.4511504  51.6370490
  76.3567080  52.8567204  53.5894204  77.1070576  53.6665560  54.2284515
  76.0812601  51.6787869  53.9393090  76.3172280  54.5639999  50.1842513
  77.1128811  54.3338661  49.2418270  75.0853508  55.0681650  50.0363928
  74.4903076  55.1885505  50.8435671  74.5333306  55.3852952  48.7086575
  74.4394574  54.4591485  48.1416130  73.1646336  56.0553014  48.7779489
  73.0292360  57.0732054  49.1435146  72.9209078  56.0156509  47.7162872
  72.1630461  55.2194732  49.4733068  71.6341499  54.0956408  48.8196352
  71.8846474  53.9176784  47.7738435  70.7885265  53.2036688  49.5013155
  70.3354469  52.3698105  48.9651252  70.5273489  53.3837826  50.8656935
  69.8614458  52.6980310  51.3895425  71.1234815  54.4474475  51.5574195
  70.9322312  54.5854796  52.6215955  71.9716955  55.3390753  50.8730615
  72.4871955  56.1288293  51.4195487  75.5642217  56.2443255  48.0375476
  75.8037329  56.0413456  46.8665235  76.2703821  57.0948307  48.8015079
  76.1779827  57.0840963  49.8072148  77.2010162  58.0688653  48.1937662
  78.0608205  58.1818342  48.8541250  77.5312180  57.6758525  47.2322013
  76.5528322  59.4472785  47.9754005  76.8237769  60.1800238  47.0005630
  75.7093200  59.8271764  48.9008176  75.0203021  59.1952942  49.2830200
  75.7514018  61.1731848  49.4018768  76.6950087  61.6460272  49.1296175
  74.5731946  62.0608854  48.9268762  74.9054839  62.6616561  48.0802601
  73.3821969  61.2050460  48.5064176  73.0490296  60.6042928  49.3527011
  72.5682283  61.8509093  48.1771511  73.6772345  60.5476252  47.6885851
  74.1854321  63.0707236  50.0430715  73.8393781  62.4802180  50.8913937
  75.0988290  63.5987020  50.3170138  73.1110002  64.0816023  49.6556255
  72.1970939  63.5543502  49.3819829  72.9104427  64.7410611  50.5000129
  73.4565442  64.6728330  48.8076011  75.6952739  60.8664386  50.8752316
  75.2677197  59.7624487  51.2802017  76.2956437  61.7359235  51.6733256
  76.7790822  62.5326233  51.2838953  76.3250104  61.5449757  53.1487813
  76.4883833  60.4848165  53.3423560  77.4141416  62.3523639  53.8798727
  77.0754960  62.4275476  54.9132002  78.3116134  61.7353265  53.8361772
  77.7320981  63.7588773  53.3408062  78.1246978  63.6113943  52.3347172
  76.8066365  64.3323773  53.2886738  78.7657648  64.5277785  54.1878778
  78.7144021  65.7978158  54.1735929  79.6443130  63.8690101  54.8338773
  74.9671854  61.9247638  53.6580298  74.3131770  62.8350821  53.0972210
  74.4600427  61.0931102  54.5324598  75.0306370  60.3556048  54.9205413
  73.0634549  61.2137826  54.9941953  72.5684625  62.1565494  54.7612307
  72.2677793  60.0403673  54.3580517  72.9818821  59.2696400  54.0679879
  71.2447716  59.4493985  55.3052012  70.5300028  60.2194712  55.5953638
  70.7182110  58.6339375  54.8093605  71.7486505  59.0687798  56.1936463
  71.6329469  60.4677273  53.0267752  72.4159867  60.9679339  52.4569130
  71.3409020  59.5508981  52.5146877  70.4241973  61.3896796  53.1467224
  70.7155925  62.3069832  53.6583305  70.0512721  61.6320376  52.1515899
  69.6405083  60.8899479  53.7161076  73.1777943  61.0862684  56.5000126
  73.9631471  60.2756738  56.9793855  72.4470584  61.9173350  57.2472378
  71.9145473  62.6598249  56.8168426  72.4374743  61.8149620  58.6747423
  73.0150192  60.9395417  58.9716942  73.0354340  63.0510915  59.3572684
  72.3893694  63.9129891  59.1904382  73.1467032  62.7888928  60.8243990
  73.7930337  61.9273538  60.9920545  73.5711363  63.6625811  61.3189957
  72.1572052  62.5852402  61.2336921  74.4109471  63.3898439  58.8194426
  74.3440357  63.5918072  57.7504076  74.7949483  64.2718620  59.3319723
  75.0847322  62.5498857  58.9885130  71.0057704  61.5986258  59.1499355
  70.1055394  62.4036036  58.8637606  70.7988417  60.4685789  59.8348241
  71.5478578  59.7982919  59.9337667  69.5185867  60.1546725  60.4201640
  68.7880156  60.8805416  60.0631216  69.0287616  58.7606928  60.0698188
  69.3612920  58.1096490  60.8783142  67.9399807  58.8122313  60.0699905
  69.4987439  58.2143538  58.7685577  68.8234133  58.5259961  57.9717462
  70.5035368  58.5795254  58.5560888  69.5183444  56.7051719  58.8504519
  70.4094991  56.4059470  59.4021828  68.6300329  56.3823592  59.3934012
  69.5337950  56.0548502  57.4663804  70.0779586  56.7223638  56.7982395
  70.0728714  55.1116415  57.5549989  68.1690485  55.7983750  56.9113117
  67.6695152  56.6722993  56.8287124  68.2511664  55.3700989  56.0003033
  67.6647993  55.1795204  57.5300610  69.6487065  60.2848252  61.9428557
  70.5899213  59.7722146  62.5429332  68.7288859  61.0274272  62.5424158
  68.1267303  61.6178484  61.9866183  68.7141341  61.1906330  63.9681245
  69.2179382  60.3397545  64.4266945  69.4225189  62.4909289  64.4254509
  69.6841363  62.4034925  65.4799699  70.6575329  62.7116984  63.6249464
  70.3966504  62.7997021  62.5702917  71.1463955  63.6281425  63.9554673
  71.3353869  61.8691737  63.7619413  68.5466139  63.7109004  64.2666866
  67.6440903  63.5913303  64.8660665  69.0897646  64.5947976  64.6010707
  68.2728975  63.8283419  63.2181698  67.3225702  60.9945421  64.5632048
  66.3029039  61.1390718  63.8957052  67.3135657  60.6018694  65.8272965
  68.1859061  60.3326568  66.2593222  66.1039547  60.5486937  66.6278455
  65.2350012  60.8057807  66.0221020  65.9213609  59.1373797  67.1655416
  66.7451215  58.9492871  67.8541192  64.9796455  59.1244206  67.7142711
  65.8993588  58.0756623  66.1136927  65.0863717  58.2754290  65.4156625
  66.8478550  58.0794590  65.5766243  65.6912616  56.7305937  66.7533894
  66.4424962  56.5565793  67.5237560  64.6970092  56.6707924  67.1960916
  65.8249935  55.6848972  65.6764958  65.2555728  56.0349091  64.8154776
  66.8812303  55.6267901  65.4136527  65.3437747  54.3498582  66.0734396
  64.3649514  54.4033982  66.3166231  65.4649906  53.7060275  65.3047468
  65.8715722  54.0251636  66.8709998  66.2372672  61.5192837  67.7867777
  67.0008880  61.2698403  68.6838743  65.4859055  62.6141610  67.7455440
  64.9502846  62.8224468  66.9149860  65.4457697  63.5615382  68.8468318
  66.2815682  63.3493961  69.5135671  65.5950031  64.9579647  68.3206006
  64.7604551  65.1883644  67.6583727  65.6025963  65.6616106  69.1530218
  66.5305735  65.0402807  67.7673996  64.1683758  63.4564420  69.6575650
  63.1920521  62.9161536  69.1977156  64.1905138  63.9894133  70.8690156
  65.0550490  64.3812964  71.2141328  63.0286749  64.0122867  71.7392450
  62.1122763  63.7716786  71.2003383  63.2299225  63.0029277  72.8856882
  63.4696630  62.0318022  72.4526292  64.3436717  63.4299382  73.8097502
  64.1044162  64.4008389  74.2435812  64.4575437  62.6947234  74.6063637
  65.2747711  63.5031648  73.2477973  61.9530583  62.8055615  73.6837743
  62.0171536  63.4283868  74.5760081  61.1186820  63.1397953  73.0671678
  61.7323052  61.3518178  74.0932807  62.5661107  61.0169961  74.7103404
  60.8052987  61.2704371  74.6608504  61.6676413  60.7284040  73.2014995
  62.8472716  65.4243011  72.2852332  63.7955569  66.0295616  72.7529241
  61.6428536  65.9680033  72.1659545  60.8945603  65.4566685  71.7202045
  61.3603758  67.3112112  72.6700544  62.0233526  68.0102472  72.1602410
  60.3249062  67.5520401  72.4294230  61.5638295  67.4431226  74.1783223
  61.0859009  66.5958945  74.9646332  62.2600187  68.5076046  74.5854486
  62.5935823  69.1874168  73.9170998  62.6218735  68.6790593  75.9797191
  62.2488859  67.8232021  76.5422917  64.1244160  68.7854017  76.1955630
  64.4893972  69.5155575  75.4732331  64.2649440  69.1720863  77.2049326
  64.8999062  67.4851881  76.0381895  64.4957964  66.9875978  75.1566000
  65.9376819  67.7631525  75.8541800  64.8317677  66.5415611  77.2281354
  65.8400418  66.2216669  77.4910993  64.3840817  67.0624792  78.0744929
  64.0197700  65.3456258  76.9252896  63.1314789  65.5179786  76.4765885
  64.3700524  64.0767018  77.1856878  65.5402914  63.7790774  77.7575011
  66.1818943  64.5195812  78.0026538  65.7779945  62.8149422  77.9420011
  63.5278888  63.0936655  76.8774508  62.6375307  63.3102033  76.4526287
  63.7828845  62.1354873  77.0697282  61.9708205  69.8852730  76.6475075
  61.2232261  69.7283150  77.5984291  62.2824586  71.0835612  76.1933311
  62.8970849  71.1992594  75.4002688  61.8015990  72.2949619  76.8895497
  61.0307849  72.0317549  77.6138885  62.9371997  72.9437095  77.6146640
  63.5096271  73.5372157  76.9017990  62.5281579  73.5973009  78.3851205
  63.8360430  71.9218065  78.2507968  63.3134548  71.0958177  78.7332333
  64.4493363  71.5367383  77.4361215  64.7204283  72.5654267  79.2440353
  65.3251603  73.5754429  78.9415250  64.7185455  72.0657973  80.4712549
  65.3084680  72.4759489  81.1810918  64.1271953  71.2771097  80.6912052
  61.1308815  73.3020134  75.9827011  61.4839770  73.4721931  74.8201932
  60.2079679  74.0435492  76.5431805  59.8719384  73.8300859  77.4714137
  59.5923431  75.1482005  75.8238554  59.6249031  74.9569808  74.7512539
  58.1480813  75.3057773  76.2429383  58.1487281  75.6095507  77.2897528
  57.7221409  76.1032032  75.6340157  57.3127320  74.0433712  76.0817764
  57.3048568  73.7563108  75.0302845  57.7612233  73.2446691  76.6725661
  55.8865806  74.2819453  76.5524097  55.5721809  75.2797390  76.2463713
  55.2316195  73.5394189  76.0965810  55.7710305  74.1800736  77.9987013
  55.5821100  73.2584461  78.3661399  55.8775991  75.1966908  78.8547123
  56.1121832  76.4350732  78.4642393  56.2181248  76.6397702  77.4808902
  56.1847168  77.1725463  79.1505134  55.7619357  74.9536588  80.1319395
  55.5952427  74.0097177  80.4501984  55.8396701  75.7106835  80.7959950
  60.3711976  76.4336629  76.0536230  60.7786225  76.7357840  77.1670828
  60.4918897  77.2148198  74.9977763  60.2183142  76.8871997  74.0823961
  61.1102762  78.5095543  75.1020964  61.0931795  78.8325048  76.1430142
  62.5687069  78.4818381  74.6206481  63.0280620  79.4702632  74.6310326
  63.1170563  77.8198611  75.2908715  62.7583218  77.9205694  73.1912183
  62.5406176  78.7197744  72.0573636  62.2373467  79.7592093  72.1826701
  62.7080428  78.1978175  70.7911275  62.5604674  78.8323039  69.9172000
  63.0634636  76.8683259  70.6299535  63.1018595  76.4427443  69.6272043
  63.3662370  76.0871342  71.7205560  63.7178036  75.0640630  71.5870407
  63.2220271  76.6076293  72.9922617  63.4691166  75.9984628  73.8617229
  60.3692495  79.6222279  74.3847751  59.5784048  79.3679355  73.4782951
  60.7364414  80.8463471  74.7537077  61.3749367  80.9218437  75.5326322
  60.3217571  82.0643219  74.0838873  59.4303745  81.8821457  73.4835972
  60.0004119  83.1228697  75.1187799  59.7512867  82.5830933  76.0323867
  60.9222756  83.6846831  75.2692226  58.8577869  84.0955764  74.7696040
  59.2422832  84.8508036  74.0841149  58.0612381  83.5342151  74.2812541
  58.2973753  84.7887851  76.0417996  57.9357488  84.0065560  76.7092147
  59.1228732  85.3184418  76.5173166  57.1626554  85.7725289  75.7474022
  56.3185679  85.2114951  75.3463311  56.8702644  86.2480569  76.6836072
  57.5784315  86.8258078  74.7594453  57.8489968  86.3854091  73.8917224
  56.8054235  87.4538033  74.5915754  58.3602982  87.3460697  75.1310783
  61.4850604  82.5564694  73.2470848  62.6318094  82.5977611  73.6943428
  61.1822473  82.9380003  72.0143722  60.2436749  82.8033967  71.6664311
  62.1726606  83.5479585  71.1232496  63.1510992  83.0729201  71.1946344
  61.7200284  83.5130577  69.6710264  60.6760634  83.8219239  69.6177544
  62.5743857  84.4551012  68.8199426  63.6184943  84.1465697  68.8723498
  62.2363752  84.4171134  67.7843721  62.4777088  85.4735898  69.1960226
  61.7608466  82.0670084  69.1771385  61.0949713  81.4555889  69.7861363
  61.4383575  82.0286543  68.1366438  62.7783598  81.6841841  69.2559628
  62.3946562  84.9939166  71.5278407  61.4680203  85.7531511  71.6921814
  63.6459227  85.3595842  71.6733862  64.3770875  84.6645062  71.6247650
  64.0282206  86.7533039  71.8909765  63.2067040  87.3458367  72.2936108
  65.1307548  86.7189977  72.8985978  66.0018345  86.2395374  72.4520139
  65.4118264  87.7016610  73.2773742  64.6118777  85.8609104  74.0477795
  63.9393717  85.1180092  73.6189038  65.7019729  85.1620154  74.8296641
  66.3746573  85.9043388  75.2592574  65.2547521  84.5716998  75.6294277
  66.2631398  84.5056742  74.1645263  63.7954616  86.7431429  74.9617229
  62.9606359  87.1695426  74.4055315  63.4128696  86.1508018  75.7929007
  64.4227154  87.5468253  75.3473992  64.5188967  87.3654977  70.5761987
  63.8356250  88.1954671  69.9559533  65.6620351  86.8562828  70.0850157
  66.1435887  86.1565609  70.6314539  66.2093870  87.2130954  68.7832109
  65.5344198  87.8823163  68.2496738  67.5165492  87.9190926  68.9947290
  67.7714937  87.8086629  70.0487251  68.2593140  87.4036578  68.3858551
  67.4989275  89.3603122  68.6385389  67.1643940  89.4475595  67.6048193
  66.8152654  89.9064966  69.2884527  68.8621070  89.9291667  68.7661526
  69.7799174  89.1581724  69.1650533  68.9984564  91.1389383  68.4983067
  66.5344698  85.9932434  67.8974054  66.8993694  84.9341548  68.3951861
  66.6028122  86.2439058  66.6040378  66.3283380  87.1591124  66.2766845
  67.0817847  85.2695228  65.6208262  67.4223947  84.3575894  66.1111949
  65.9329943  84.9225754  64.6985046  65.3716959  85.8515311  64.5980825
  66.3647895  84.6535552  63.7345123  65.0081883  83.8242016  65.1586936
  64.7350666  83.9905526  66.2007265  63.7533486  83.8268802  64.2994526
  64.0256427  83.6601129  63.2572705  63.0836937  83.0332944  64.6309412
  63.2500692  84.7891570  64.3934396  65.7132690  82.4842699  65.0712555
  66.5991528  82.4971598  65.7061910  65.0388956  81.6957762  65.4053205
  66.0092166  82.2955043  64.0393245  68.2193029  85.8296741  64.7615381
  67.9955396  86.6956439  63.8869821  69.4159427  85.2782828  64.9538263
  69.5330741  84.5922809  65.6857970  70.6016973  85.6262476  64.1120927
  70.4421858  86.5674287  63.5859429  71.8260129  85.7812915  65.0406581
  72.2273851  84.7806247  65.2008626  72.5563930  86.3828235  64.4995443
  71.5293550  86.4339399  66.3924959  72.2720465  87.2145515  66.5572851
  70.5375671  86.8826780  66.3368818  71.5729252  85.4379287  67.5493651
  70.8757965  85.7628667  68.3217160  71.2750548  84.4560446  67.1815659
  72.9124540  85.3325234  68.1392550  73.4245754  84.4827188  67.9504080
  73.4882129  86.2691982  68.9052739  74.6967322  86.0594749  69.4068447
  75.1788601  85.1941904  69.2095242  75.1301224  86.7658814  69.9841337
  72.8653029  87.4105615  69.1825135  71.9412304  87.5808905  68.8121376
  73.3190261  88.1020576  69.7622264  70.9152065  84.5215961  63.0718110
  70.7016240  83.3825281  63.3499560  71.3411920  84.9067371  61.8689088
  71.5317982  85.8855184  61.7084226  71.3994700  83.9847149  60.7180531
  71.0689370  82.9828433  60.9920976  70.4878336  84.5131682  59.5675656
  70.9771919  84.3192488  58.6130899  69.1024966  83.8058424  59.5927941
  68.6123025  83.9997045  60.5468522  68.4831822  84.1896477  58.7820893
  69.2399700  82.7318713  59.4671445  70.3027866  85.9488761  59.6793749
  69.7402813  86.2556404  58.9644736  72.8399690  83.6615483  60.2183981
  73.2796419  84.1344873  59.1477878  73.5387207  82.7995674  60.9664115
  73.2497290  82.5665257  61.9057063  74.7815248  82.2045096  60.4512336
  75.6441078  82.8598408  60.5720259  75.0909692  80.8496561  61.1309424
  75.2793248  81.0097926  62.1925345  74.2398816  80.1793941  61.0105317
  76.3237098  80.2265528  60.4846319  76.1359326  80.0656819  59.4230477
  77.1753770  80.8960781  60.6050519  76.6620765  78.8888240  61.1268735
  75.9740740  78.4452073  62.0435504  77.7268416  78.2454953  60.6424907
  77.9950446  77.3535901  61.0332257  78.2593176  78.6536300  59.8875094
  74.5466219  82.0667939  58.9129115  73.4295720  81.6733946  58.4791528
  75.4843644  82.5646182  58.0879460  76.3599801  82.9270255  58.4373132
  75.2319175  82.6247554  56.6338167  74.2396316  83.0396043  56.4567057
  76.2568889  83.4981475  55.9274975  75.9921635  83.5717161  54.8726955
  76.2433934  84.4919055  56.3751167  77.5441524  82.9469471  56.0498406
  78.1775520  83.5101107  55.5990062  75.2577950  81.2562270  56.0169154
  75.2106427  81.1379906  54.8149625  75.5230456  80.2564490  56.8580623
  75.9304336  80.5127142  57.7460165  75.4232991  78.8075949  56.5175944
  75.7285457  78.6506588  55.4830439  76.3623546  77.9482872  57.4577975
  76.4726479  76.9356801  57.0697748  77.3226752  78.4617144  57.4100802
  75.8816256  77.8874756  58.9312817  74.9682320  77.1123896  59.1906554
  76.4627460  78.5447248  59.8280390  73.9528965  78.2386358  56.4647683
  73.7204810  76.9987004  56.5669898  72.9916450  79.1279464  56.1882610
  73.2152146  80.1104936  56.1195809  71.6260753  78.7228642  55.9820093
  71.0510797  79.5619748  55.5903812  71.5931278  77.8972210  55.2711457
  71.0083955  78.2698967  57.2953554  69.8636197  77.8256248  57.3163487
  71.7723649  78.3634891  58.3824738  72.7070645  78.7378368  58.3031029
  71.3073597  77.9467806  59.6917290  70.3503653  77.4253360  59.6728477
  72.3442267  77.0742087  60.3690045  73.3332415  77.4518657  60.1095331
  72.1838963  77.0771358  61.8585851  71.1952217  76.6991445  62.1188654
  72.9457368  76.4400216  62.3077904  72.2939151  78.0943735  62.2343809
  72.3015775  75.6644097  59.7624396  71.5246452  75.6992658  58.9987236
  73.2719302  75.5225315  59.2866394  72.0284513  74.5079592  60.7100899
  71.0579936  74.6489090  61.1859522  72.0259275  73.5722486  60.1510383
  72.8052779  74.4721762  61.4738698  71.0600198  79.1658176  60.5479141
  71.8470931  80.1090637  60.5655934  69.9858161  79.0963781  61.3478625
  69.3207686  78.3463098  61.2245389  69.7635080  80.0522459  62.4432240
  70.1581386  81.0291559  62.1639163  68.3009786  80.1925172  62.7355677
  67.8368370  79.2201705  62.5706022  68.1993902  80.4697101  63.7848265
  67.6264791  81.2171270  61.8825559  67.3537161  82.0186672  62.5690212
  68.2553397  81.6183914  61.0878086  66.3830026  80.6679128  61.2740602
  65.8025612  79.6934904  61.7934278  66.0144694  81.2013635  60.1016407
  65.1796058  80.8700713  59.6397428  66.5731871  81.9323750  59.6850376
  70.3811183  79.6073121  63.7242456  70.4049223  78.4730386  64.0055037
  70.8361470  80.5743038  64.5122214  71.0832423  81.4712111  64.1190286
  71.0730977  80.3532644  65.9406726  70.7294578  79.3517004  66.1992852
  72.5791129  80.4808959  66.3330377  72.5841946  81.0340412  67.2722414
  72.9157920  79.4596878  66.5115909  73.5208603  81.1614714  65.3349626
  72.9117878  81.6352487  64.5651141  74.1035018  81.9215473  65.8554580
  74.4922048  80.1747651  64.6567933  74.7824075  79.1042796  65.2126127
  75.0110085  80.5362060  63.4567362  75.6512536  79.9175365  62.9798340
  74.7547241  81.4223735  63.0454857  70.1797258  81.3637090  66.7054199
  70.0798115  82.5477245  66.3560813  69.3842437  80.8095913  67.6113977
  69.5961421  79.8652353  67.9001714  68.2306157  81.4733567  68.2092488
  67.9861263  82.3849622  67.6639970  67.0415564  80.5304334  68.1364778
  67.2677742  79.6165165  68.6857330  66.1681778  81.0115602  68.5767359
  66.8344285  80.2857722  67.0946821  68.4798494  81.8488648  69.6894127
  68.7905871  80.9529106  70.4917581  68.3538468  83.1555119  70.0011671
  68.2899704  83.8266564  69.2491138  68.4264304  83.6415675  71.3320628
  69.1597419  83.0544355  71.8849005  68.8333361  85.0947659  71.3843149
  69.3847058  85.3071292  70.4683496  67.9168656  85.6845952  71.4011405
  69.6975453  85.4593888  72.5966868  69.0771224  85.3950448  73.4905749
  70.5106815  84.7368808  72.6666424  70.2860390  86.8897744  72.4780020
  71.3563191  86.7818009  72.3021011  69.8208449  87.3560643  71.6095162
  70.0567357  87.7721029  73.7179631  70.3692221  88.7850373  73.4641586
  68.9884457  87.7654595  73.9343231  70.8118689  87.3045426  74.9217028
  71.8018208  87.3110341  74.7215710  70.6214443  87.9208207  75.6989027
  70.5221505  86.3661116  75.1573075  67.0931912  83.3734451  72.0488505
  66.0121486  83.7614624  71.5864454  67.1796605  82.6399286  73.1552201
  68.0382954  82.5906680  73.6847660  66.0521688  81.7858765  73.5708959
  65.0778967  82.1930741  73.3005568  66.1870047  80.3711903  72.9514412
  66.9316289  80.4179325  72.1568034  66.6077761  79.3344481  73.9788029
  65.8633545  79.2868001  74.7735777  66.6893076  78.3590796  73.4991057
  67.5730339  79.6124633  74.4019892  64.8914658  79.9683657  72.2655401
  64.6615279  80.6819494  71.4743202  65.0017120  78.9728671  71.8355074
  64.0809461  79.9610517  72.9943096  65.9564099  81.7610238  75.0925360
  66.9424592  81.4614199  75.7702278  64.7903269  82.1538334  75.6209261
  64.0781273  82.5607485  75.0316119  64.5640441  82.1276997  77.0608908
  65.4984984  81.9254776  77.5843414  64.0313281  83.4718966  77.5214377
  64.8271892  84.1921888  77.3320083  63.1797747  83.6946749  76.8785329
  63.6076276  83.5603011  78.9636921  63.5070817  82.5608675  79.3869223
  64.3665710  84.1137965  79.5166386  62.2643082  84.2917656  79.1075211
  61.9368484  85.1970736  78.3311156  61.4786502  83.8841503  80.0926791
  60.5826978  84.3276625  80.2364416  61.7790601  83.1316583  80.6956808
  63.6545960  80.9448317  77.4441001  62.5093027  80.8411641  76.9928249
  64.1858733  80.0494516  78.2786167  65.1214534  80.1786063  78.6365387
  63.4454221  78.8783161  78.6994608  63.1170029  78.3007154  77.8353905
  64.2336728  77.9911226  79.6254411  64.2950126  78.4588630  80.6080685
  63.5438258  76.6284923  79.7508872  63.4825295  76.1599040  78.7686610
  64.1183783  75.9902221  80.4221557  62.5391953  76.7647566  80.1511980
  65.6577576  77.8688128  79.1169484  66.1398894  78.8372508  79.2502807
  66.1642353  77.1238231  79.7306015  65.7375209  77.4634537  77.6668826
  65.2316241  78.2082536  77.0525200  66.7827126  77.3938205  77.3655112
  65.2559676  76.4948263  77.5328404  62.1796797  79.2588405  79.4429789
  62.2196519  80.0849579  80.3733257  61.0656226  78.6492849  79.0638051
  61.0600847  78.0716174  78.2353312  59.8231178  78.8018576  79.8071996
  59.7994337  79.7809978  80.2855537  58.6203127  78.6843782  78.8781843
  58.6898982  77.6857408  78.4469298  57.7039849  78.7639490  79.4630877
  58.6002826  79.7299901  77.7492907  59.5287052  79.6721625  77.1811462
  57.4291611  79.4525028  76.8311658  56.5002855  79.5106135  77.3985388
  57.4118131  80.1914426  76.0300618  57.5309071  78.4553592  76.4028518
  58.5252641  81.1707629  78.2679071  59.3927825  81.3775125  78.8946174
  58.5142883  81.8609971  77.4243684  57.6153096  81.2995886  78.8539836
  59.7425585  77.7364186  80.8726925  59.7911342  76.5703265  80.5773815
  59.5254485  78.1637454  82.1511998  58.9843310  79.5023171  82.4583200
  58.0493195  79.6479699  81.9173588  59.7028886  80.2625785  82.1520906
  58.7905830  79.4652862  83.9393789  57.7230773  79.5408394  84.1463143
  59.3058100  80.3222335  84.3732957  59.3651825  78.1661754  84.4647518
  58.6644863  77.8286677  85.2284352  60.3731352  78.1832832  84.8792856
  59.3134236  77.2400059  83.2766849  60.0618923  76.4482046  83.2459660
  57.9276547  76.6297411  83.1702586  56.9962762  77.3311338  82.7593361
  57.7608394  75.3469891  83.5274338  58.5518610  74.7303831  83.6465187
  56.4110635  74.7882579  83.6900852  55.7628600  75.1919470  82.9122893
  56.4063057  73.2530788  83.5863136  56.6280878  73.0084890  82.5475221
  57.2137221  72.8933441  84.2240985  55.0879552  72.5799907  84.0005916
  55.3045607  71.5876390  84.3960925  54.6960179  73.2109053  84.7983579
  54.0486704  72.4675266  82.8821958  54.3820620  71.9589070  81.7893820
  52.8742365  72.8424248  83.1183678  55.8733822  75.2586261  85.0357005
  56.4141055  74.9380063  86.1120751  54.7780784  76.0277798  84.9366143
  54.3397971  76.1762451  84.0388577  54.2872288  76.7756212  86.0700352
  55.1155147  76.9883462  86.7458974  53.6497708  78.1103400  85.6368678
  53.5475043  78.7598744  86.5062043  54.2893785  78.5920393  84.8972951
  52.0129589  78.0109034  84.8924996  51.8721342  79.3180181  84.6912090
  53.3472879  75.8723915  86.9012965  52.2925248  75.3994594  86.4435400
  53.8244415  75.5633770  88.1099935  54.6717144  76.0085830  88.4325143
  53.1923005  74.5741451  88.9730016  52.3549207  74.0685571  88.4920909
  54.1600925  73.5119816  89.5174438  53.8241547  73.1958102  90.5050068
  54.1996884  72.3098284  88.5869391  54.5360036  72.6251527  87.5992328
  54.8890249  71.5647755  88.9841945  53.2024559  71.8766662  88.5094837
  55.5396438  74.1038740  89.7819232  55.4569418  74.9058894  90.5154310
  56.2011016  73.3274498  90.1662913  55.9487935  74.5021445  88.8534417
  52.5110369  75.2140194  90.1672470  53.0920959  76.0155269  90.9232794
  51.2619499  74.7473079  90.3355651  50.9811194  73.9996523  89.7173057
  50.3123809  75.1875952  91.3791645  50.6662694  76.1179916  91.8232643
  48.9050928  75.4267905  90.7875583  48.6191752  74.4003604  90.5577940
  48.3230545  75.7840389  91.6370906  48.6310488  76.3196267  89.5677385
  48.5664915  75.7031775  88.6711207  47.3200053  77.0572102  89.7696436
  47.3839615  77.6742720  90.6658820  47.1226890  77.6917223  88.9056058
  46.5104889  76.3360909  89.8826502  49.7367646  77.3225539  89.2787909
  50.6689108  76.7911891  89.0868160  49.4704679  77.9157233  88.4039553
  49.8646899  77.9807330  90.1381711  50.1456079  74.0767313  92.4227306
  50.1441282  72.8909526  92.0579942  49.9845969  74.4593546  93.7000136
  49.7334171  75.8381673  94.1323449  48.8611521  76.2257125  93.6059774
  50.6024039  76.4521216  93.8956574  49.5066761  75.7139336  95.6080052
  48.4879854  76.0397281  95.8183060  50.2107053  76.3761815  96.1118623
  49.7212264  74.2957157  96.0199361  48.8887548  74.0413437  96.6759733
  50.6617666  74.0838266  96.5284503  49.6323432  73.4855558  94.7324883
  50.3326257  72.6508314  94.7018655  48.2202451  72.9723431  94.4801831
  47.6681203  73.2314478  93.4081547  47.6317962  72.2399071  95.4260216
  48.1385756  71.9284687  96.2422814  46.2307291  71.8377302  95.2832717
  46.0761251  71.4139331  94.2910052  45.8397627  70.7878649  96.3310185
  46.2269922  69.8189824  96.0157102  46.2871509  71.0641167  97.2858110
  44.4319682  70.7096747  96.4743532  44.2138018  70.0472725  97.1340703
  45.3423217  73.0750663  95.4253765  45.7712363  74.0889972  95.9811330
  44.1046156  72.9821261  94.9677143  43.8213815  72.1834127  94.4182284
  43.1541382  74.0548117  95.1583221  43.5639952  74.9924115  94.7827916
  41.8828103  73.7248334  94.3684679  41.0209279  73.8424341  95.0253005
  41.7349351  74.6492229  93.1669467  42.5962829  74.5318351  92.5093757
  40.8254741  74.3954254  92.6223674  41.6770776  75.6828598  93.5080448
  41.9630091  72.3667461  93.8909157  41.1688133  72.1544630  93.3951443
  42.8574655  74.3109312  96.6485104  42.4325511  75.4152387  97.0302036
  43.1205047  73.3107309  97.4886924  43.5659839  72.4704287  97.1487809
  42.7244530  73.3638513  98.8871681  41.9232777  74.0903540  99.0228554
  42.2224685  71.9958413  99.3347349  42.9871850  71.2632993  99.0764907
  42.1010164  72.0272049 100.4174933  40.9040618  71.6009951  98.6884243
  41.0964104  71.3760247  97.6393813  40.5369832  70.7056362  99.1901092
  39.6506062  72.8997880  98.7977136  38.6164950  72.5037317  97.3842963
  38.2109614  71.4986650  97.5004101  37.7975821  73.2202549  97.3204459
  39.2122863  72.5515049  96.4727856  43.8419023  73.8278407  99.8238739
  43.5848406  74.3249021 100.8960443  45.0806701  73.6266713  99.4274381
  45.2244311  73.0926940  98.5822752  46.2487762  74.0662430 100.1716793
  46.3605773  73.4852315 101.0871165  47.4910302  73.8617331  99.3096109
  47.4780617  74.5818695  98.4914822  48.3784798  74.0236302  99.9214300
  47.5155186  72.5460310  98.7805529  48.3015941  72.4325754  98.2412822
  46.2219482  75.5099078 100.6708197  47.0968840  75.9007718 101.4263630
  45.2385324  76.2971722 100.2451940  44.5251700  75.9131490  99.6420857
  45.1531331  77.7232882 100.6085093  46.1209228  78.1111252 100.9264165
  44.6713118  78.5379221  99.3975181  43.6989342  78.1672173  99.0732345
  44.5846060  79.5880104  99.6766185  45.3882066  78.4370878  98.5826602
  44.1691213  77.8993898 101.7834578  44.3141116  78.7434564 102.6476605
  43.1504868  77.0790314 101.7462851  43.2169966  76.2763684 101.1368526
  41.9451493  77.2574879 102.5092403  41.8241980  78.1414753 103.1353683
  40.8010117  77.2247328 101.4770847  41.2253331  77.4532714 100.4994239
  40.0944258  75.8649203 101.4220263  39.6694203  75.6358889 102.3992755
  39.2978157  75.8986428 100.6788066  40.8130671  75.0922584 101.1488052
  39.8706297  78.3923701 101.6723139  40.4248745  79.3232445 101.5523654
  39.0711820  78.3482211 100.9326965  39.4413527  78.3521265 102.6734146
  41.8083375  76.1196707 103.5550088  40.8691397  76.1314377 104.3716880
  42.7682082  75.1912968 103.5356898  43.5980420  75.3510284 102.9825524
  42.6544968  73.9248831 104.2707843  41.6857772  73.4614026 104.0840563
  43.7574815  72.9657786 103.7959744  43.6795126  72.9195246 102.7097513
  44.7062509  73.4257204 104.0723623  43.6906909  71.5588543 104.3689602
  44.6848544  71.1119366 104.3710449  43.3294748  71.6449895 105.3937557
  42.7505240  70.6479816 103.5977364  42.8921367  70.4696534 102.3915673
  41.8072522  70.0419124 104.3024253  41.1543432  69.4247757 103.8409563
  41.7450907  70.1996009 105.2981017  42.7747423  74.1358321 105.7683074
  43.7543691  74.6762086 106.2578567  41.7765638  73.6634680 106.4874604
  40.9420389  73.3358065 106.0223740  41.8359879  73.5782917 107.9358249
  41.8915603  74.5760230 108.3711903  40.5642335  72.8796970 108.4638184
  40.6420975  71.9117038 107.9688178  40.6070077  72.7393625 109.5439002
  39.2345647  73.5396397 108.0874165  39.1568071  73.5130353 107.0005187
  38.0035442  72.8568702 108.7058164  38.0803658  72.8834950 109.7927794
  37.1008671  73.3816334 108.3929291  37.9554532  71.8207578 108.3707662
  39.2808037  75.0385517 108.4021716  40.0845306  75.5052920 107.8327192
  38.3299644  75.4969235 108.1303241  39.4608557  75.1812050 109.4676904
  43.0454329  72.7635571 108.3394241  43.2851128  71.7274739 107.7450982
  43.8119660  73.2507246 109.3168062  43.5942044  74.1406353 109.7419394
  45.0495345  72.5772240 109.7122794  45.6206491  72.3225652 108.8194881
  45.9148474  73.4666097 110.6095357  45.2456555  73.9824426 111.2981559
  46.5798163  72.8114191 111.1722450  46.7456776  74.4961033 109.8383514
  46.0209748  75.1305251 109.3280421  47.3207546  75.0966065 110.5431787
  47.6921207  73.8724905 108.8085730  48.7732948  73.3788828 109.2028926
  47.3762144  73.9175217 107.5956215  44.7898840  71.2277224 110.3642886
  45.5684506  70.2935731 110.1785170  43.6943119  71.1197919 111.1119127
  43.1056277  71.9240160 111.2755397  43.3591528  69.8605672 111.7927927
  44.2069549  69.5391962 112.3978145  42.1396532  70.0298466 112.7082937
  42.0967314  69.1751177 113.3833459  42.2705326  70.9436786 113.2878467
  40.9318586  70.1085699 111.9680736  40.1928698  70.2137914 112.5717488
  43.1230054  68.6970607 110.8119986  43.3676429  67.5364335 111.1583035
  42.6595329  69.0177025 109.5989846  42.4835087  69.9897257 109.3885428
  42.3188990  68.0187456 108.5908043  42.0919625  67.0643595 109.0659320
  41.0890481  68.4802580 107.8102851  41.4375769  69.3514446 107.2556133
  40.7872877  67.7012644 107.1101353  39.8882689  68.8764150 108.6841082
  40.1478474  69.7753694 109.2432155  38.6497726  69.1453225 107.8367041
  38.3892896  68.2466172 107.2776188  37.8186359  69.4229981 108.4849393
  38.8546562  69.9588841 107.1408302  39.5984003  67.8062507 109.7277084
  40.4704161  67.6776661 110.3689212  38.7445201  68.1102685 110.3331529
  39.3724618  66.8636285 109.2291964  43.4913699  67.7201539 107.6438127
  43.4083099  66.8030340 106.8261380  44.5882075  68.4532720 107.8010996
  44.5943515  69.2541083 108.4165042  45.8195675  68.1178989 107.0876015
  45.6954523  68.3340265 106.0264779  47.0081110  68.9351651 107.6196938
  46.8974522  69.1344357 108.6855949  47.8911276  68.3174851 107.4558244
  47.1987890  70.2537123 106.8978376  47.4962789  71.2745677 107.5227360
  47.0944338  70.2292062 105.5724730  47.2130268  71.0815743 105.0437915
  46.8970561  69.3583357 105.1005328  46.1765732  66.6377257 107.2416157
  46.5561086  65.9716084 106.2715788  46.0316413  66.1312768 108.4638895
  45.7462996  66.7531891 109.2067922  46.4087374  64.7621220 108.8124114
  47.4425783  64.5722451 108.5239347  46.2771112  64.5574451 110.3239613
  45.2667200  64.8402034 110.6193538  46.4359453  63.5009047 110.5398181
  47.2912940  65.3963177 111.1073353  48.2552820  64.8924135 111.0372743
  47.3546159  66.3698507 110.6212017  46.9222222  65.5842498 112.5735892
  46.5639799  64.6262884 112.9505129  47.8277058  65.8692358 113.1092961
  45.8520794  66.6450666 112.7866321  46.2013681  67.3344551 113.5552943
  45.7142169  67.1854699 111.8501186  44.5542332  66.0455834 113.2097918
  44.6816673  65.5451484 114.0777924  43.8716910  66.7784443 113.3407542
  44.2301876  65.4070703 112.4974755  45.6574135  63.7023811 108.0010307
  46.0691006  62.5473036 107.9734525  44.5958611  64.0971848 107.3034064
  44.3185705  65.0683327 107.2944089  43.7722639  63.1374056 106.5817877
  44.0351467  62.1214591 106.8764815  42.3009577  63.3726067 106.9034792
  41.9239325  64.2524271 106.3820702  41.6993859  62.5048953 106.6327612
  41.9976377  63.6641203 108.6638990  40.6810557  63.8176070 108.5545738
  43.9864936  63.2016150 105.0729829  43.3684112  62.4425984 104.3230970
  44.8326935  64.1285034 104.6514055  45.4025891  64.6373409 105.3120133
  44.9080544  64.5029307 103.2338930  43.9006956  64.5567469 102.8210597
  45.5914789  65.8747133 103.0476522  46.0222468  66.1456973 104.0115536
  46.3906580  65.7325265 102.3201939  44.6619991  66.9939714 102.5717766
  43.6796004  66.9023778 103.0350306  45.1291819  67.9249485 102.8929060
  44.4837024  67.0348448 101.0473362  44.1079510  66.0354928 100.4276100
  44.6921198  68.2109933 100.4487113  44.5875113  68.2900185  99.4472556
  44.9533247  69.0156898 101.0003787  45.6232692  63.4416937 102.4063829
  45.3492471  63.3064809 101.2115639  46.5095415  62.6719437 103.0438727
  46.8480229  62.9265189 103.9607812  47.0601398  61.4770153 102.4096474
  47.0873804  61.6143531 101.3286777  48.4776321  61.1105923 102.9195531
  48.3939143  60.5709727 103.8628995  49.1857991  60.2292190 101.8895649
  49.2703079  60.7683722 100.9460223  50.1815838  59.9741913 102.2521591
  48.6109189  59.3160650 101.7354173  49.2951843  62.3796774 103.2097795
  49.0999036  63.0761202 102.3943448  48.9137701  62.7963629 104.1419790
  50.7910041  62.1513889 103.3325487  51.1732443  61.7351170 102.4005025
  51.2881792  63.0995454 103.5372811  50.9871105  61.4553575 104.1481359
  46.1016768  60.2984915 102.6369476  45.6276955  60.0594188 103.7522287
  45.8198720  59.5812632 101.5519943  46.1453493  59.9042996 100.6520991
  45.0576220  58.3293194 101.6073527  44.6041469  58.2126940 102.5916585
  43.9525365  58.3418380 100.5612244  44.3215397  58.0325774  99.5833217
  43.1575278  57.6672331 100.8789816  43.3302174  59.6734858 100.3776295
  42.7975039  60.3522395 101.4693455  42.8346826  59.8844484 102.4531591
  42.2297530  61.5962186 101.3203123  41.8082413  62.1194681 102.1785887
  42.1965956  62.1816097 100.0705736  41.7489789  63.1673253  99.9436725
  42.7325910  61.5162739  98.9758265  42.7026196  61.9804297  97.9900469
  43.3013425  60.2720453  99.1340758  43.7309852  59.7560004  98.2754695
  45.9469140  57.1058769 101.3317406  47.0035717  57.2281867 100.6887727
  45.4933609  55.9068436 101.7622412  44.9248446  55.6818848 103.1035509
  43.8759432  55.9783745 103.1038279  45.4716290  56.2817517 103.8310711
  45.1091837  54.1941231 103.3260169  44.2245798  53.7917893 103.8196793
  45.9828631  54.0300764 103.9567897  45.3044083  53.5860921 101.9767420
  44.3274389  53.4127942 101.5255239  45.8805973  52.6609671 101.9609479
  46.0449138  54.6729175 101.2071504  47.1168586  54.6452752 101.4027739
  45.8011354  54.6043513  99.7013949  44.7197493  54.9386636  99.2239011
  46.8117859  54.1715218  98.9601735  47.6554506  53.8376727  99.4038784
  46.7827828  54.2559153  97.4983942  46.4274973  55.2408686  97.1955106
  48.1744959  54.0392744  96.9146904  48.9026166  54.0200239  97.7255966
  48.1953200  53.0864774  96.3856873  48.4963986  55.0831055  96.0175053
  49.3738333  54.9358916  95.6568999  45.7672590  53.2776325  96.8578732
  45.3949091  52.2444839  97.4442047  45.3244307  53.6557564  95.6656587
  45.7664682  54.4493063  95.2240925  44.1966948  53.0249342  94.9861824
  43.3552128  52.9325340  95.6728187  43.7532850  53.8778832  93.7719503
  42.6769334  53.7356624  93.6753078  43.9599900  54.9151885  94.0353336
  44.4328772  53.5445208  92.4421996  45.5053239  53.4572134  92.6163726
  44.0441249  52.5901721  92.0869641  44.1758055  54.6154725  91.3977760
  44.3579631  54.2001202  90.4066151  43.1387042  54.9433105  91.4687870
  45.0972639  55.7997287  91.6268998  44.9523027  56.1547833  92.6472051
  46.1263814  55.4626548  91.5028126  44.8216119  56.9005963  90.6782927
  43.8681867  57.2133715  90.7934097  45.4521370  57.6681755  90.8609405
  44.9562938  56.5719220  89.7328124  44.5219759  51.6002827  94.5294831
  45.5392756  51.3674268  93.8948418  43.6118627  50.6471725  94.7981111
  42.5714246  50.6935562  95.8451402  42.1788394  51.7072718  95.9248759
  43.0019785  50.3950003  96.8009575  41.5475564  49.7169413  95.3494487
  40.8401978  50.2289478  94.6970744  41.0136318  49.2861321  96.1964607
  42.3099927  48.6668533  94.6098865  41.7006061  48.3152664  93.7773401
  42.5816657  47.8220461  95.2428115  43.5865940  49.3559625  94.0728635
  44.5042522  48.8206964  94.3167732  43.4823475  49.5242381  92.5499104
  42.8665727  50.4856563  92.0957084  44.0811794  48.6076805  91.7921205
  44.5274071  47.8101829  92.2222108  44.2592266  48.8109857  90.3405974
  44.3426476  49.8674703  90.0856851  45.5098789  48.0644629  89.7856357
  45.6708507  48.3645546  88.7501975  46.7468252  48.4045775  90.6115060
  46.5867741  48.1043355  91.6470442  47.6099987  47.8742658  90.2092604
  46.9286642  49.4784658  90.5690761  45.2981626  46.5553174  89.7333565
  44.4517035  46.3288955  89.0850184  46.1945950  46.0755363  89.3405222
  45.0966274  46.1811895  90.7371058  42.9870494  48.4845247  89.5304231
  42.5308932  47.3332157  89.4402610  36.1080693  50.6346944  92.7312365
  35.2492698  51.1654207  92.7611082  37.0524250  50.8996217  91.6386159
  38.0696840  50.9148608  92.0298333  36.9579272  49.8074920  90.5537750
  37.5698089  50.1151986  89.7058264  37.3526159  48.8798899  90.9683534
  35.6217321  49.6016642  90.1225193  35.6045002  48.9170785  89.4497301
  36.7714023  52.2827792  91.0357972  37.5717418  52.8080351  90.2349545
  35.5955490  52.8182570  91.3821561  34.9044557  52.2084918  91.7952854
  35.2021731  54.1871783  91.0492839  36.0934076  54.8091819  90.9661467
  34.4333009  54.2427078  89.7070819  34.8739783  54.9659236  89.0208883
  34.6281968  53.2333398  89.3447397  32.9475991  54.4684303  89.7871355
  32.4370081  55.7223797  90.0872396  33.1301679  56.5382720  90.2920537
  31.0792633  55.9458481  90.1289273  30.6893935  56.9212575  90.4199255
  30.2123962  54.9296164  89.7954552  28.8673719  55.1561737  89.8408369
  28.6464540  56.0491625  90.1153657  30.6902476  53.6905655  89.4229208
  30.0043587  52.8895428  89.1472045  32.0539232  53.4702264  89.4015071
  32.4450499  52.5050025  89.0798507  34.4583331  54.7972524  92.2424627
  34.3201713  56.0247803  92.3016615  34.0828568  53.9733492  93.2376813
  33.9888496  52.9851758  93.0511996  33.7442337  54.4637749  94.5794823
  32.9700944  55.2266995  94.4973029  33.2273373  53.3360096  95.4825425
  32.5276180  53.7987144  96.1785283  32.6894440  52.6463489  94.8320511
  34.2925928  52.5709544  96.2653320  34.8605172  51.9591276  95.5644535
  34.9576931  53.2942641  96.7371017  33.6729693  51.6753044  97.3364356
  34.4169476  50.9322635  97.6236382  33.4323439  52.2992921  98.1971552
  32.4103949  50.9692804  96.8517419  31.6222847  51.7151203  96.7482734
  32.6209574  50.5264929  95.8782421  31.9665962  49.9067165  97.7939874
  31.7710196  50.3168716  98.6959976  31.1309628  49.4667582  97.4358626
  32.6965677  49.2152797  97.8896743  34.9741793  55.1287171  95.1973551
  34.8590530  56.1017571  95.9628648  36.1477627  54.6008619  94.8321349
  36.1633804  53.7489764  94.2897822  37.4174205  55.1794009  95.2444659
  37.4758000  55.1787249  96.3329008  38.5928712  54.3953294  94.6958917
  38.4215305  53.3893657  95.0790088  38.7660897  54.3494747  93.6207207
  39.8513632  54.8718467  95.3069736  40.3041837  54.5844796  96.5640367
  39.7163691  53.8752335  97.1467406  41.4580940  55.2886970  96.8280590
  42.0115041  55.2189425  97.6700632  41.7398073  56.0942186  95.7541980
  42.7953465  56.9817290  95.5499279  43.5426847  57.0917140  96.3357317
  42.8254893  57.6651022  94.3630271  43.6346168  58.3699462  94.1716963
  41.8364920  57.4803887  93.3817451  41.8694538  58.0310665  92.4416563
  40.7899904  56.5928466  93.5798250  40.0722036  56.4516135  92.7717805
  40.7318635  55.8800033  94.7867607  37.5350865  56.6345192  94.8198210
  38.0926476  57.4411938  95.5528285  37.0032531  56.9746342  93.6513220
  36.6502011  56.2620897  93.0286391  37.0243675  58.3544558  93.1814095
  37.9539247  58.8304009  93.4936572  36.9298061  58.4200385  91.6511519
  36.1662145  57.6856063  91.3949556  36.6729088  59.3810468  91.2055436
  38.1805040  57.9737358  91.0019942  38.4793419  56.7137029  90.6053571
  37.6906331  55.9677413  90.7032315  39.7677176  56.6551792  90.1478291
  40.2221205  55.8355912  89.7711421  40.3365282  57.8928564  90.2705259
  41.6104467  58.3286150  89.9386280  42.3095807  57.6097952  89.5113010
  41.9108175  59.6428901  90.1704480  42.9007586  60.0223613  89.9172323
  40.9720400  60.5165973  90.7280908  41.2204038  61.5608798  90.9175345
  39.7011465  60.0819566  91.0556759  39.0053969  60.7995122  91.4905863
  39.3660989  58.7468889  90.8150133  35.9643508  59.2038349  93.8306559
  36.1516170  60.4040194  93.9964706  34.8532641  58.5881481  94.2173689
  34.6376921  57.6483574  93.9166673  33.8650670  59.3023395  95.0057636
  33.7146876  60.2920558  94.5745481  32.5193095  58.5735344  95.0388088
  32.7236774  57.5029536  95.0250351  32.0247857  58.8364975  95.9739006
  31.6083827  58.9345484  93.8604899  30.7577902  59.5024310  94.2374551
  32.1804071  59.5536855  93.1694333  31.0859113  57.7181426  93.1061760
  29.8979412  57.6140402  92.8119724  31.9788309  56.7977776  92.7839075
  31.6883035  55.9701373  92.2832012  32.9473101  56.9266287  93.0399287
  34.4162345  59.5410341  96.3979045  34.2184442  60.6225543  96.9675376
  35.1254326  58.5378181  96.9153760  35.1204325  57.6400894  96.4526045
  35.8490858  58.6620825  98.1757769  35.1325540  58.9579199  98.9420416
  36.4797632  57.3239527  98.5845232  35.7017419  56.5649505  98.6663631
  37.2063181  57.0190192  97.8313740  37.1791187  57.4817215  99.9304932
  37.9576376  58.2402851  99.8493121  36.4530622  57.7862139 100.6843025
  37.8057966  56.1520825 100.3366459  37.0277765  55.3930792 100.4184844
  38.5323523  55.8471510  99.5834972  38.5051502  56.3098518 101.6826174
  39.2836686  57.0684159 101.6014375  37.7790927  56.6143411 102.4364250
  39.1092280  55.0281676 102.0741204  39.7823542  54.7460551 101.3759704
  39.5724056  55.1326563 102.9655511  38.3879478  54.3252280 102.1498156
  36.9254358  59.7721349  98.0989703  36.8982036  60.7344633  98.8739622
  37.8405604  59.6237212  97.1402553  37.8432699  58.7513618  96.6312552
  38.8561800  60.6334863  96.7998595  39.6698565  60.6124688  97.5248339
  39.4391489  60.3242250  95.3877190  39.7498353  59.2794412  95.3878830
  38.6134207  60.4570855  94.6887046  40.6155143  61.2059807  94.9608688
  41.8420346  61.1345005  95.6208026  41.9624920  60.4089254  96.4252466
  42.8951202  61.9624010  95.2720657  43.8416247  61.9053021  95.8096256
  42.7466136  62.8509579  94.2358734  43.7960846  63.6775856  93.9125592
  44.5650328  63.5436568  94.4714701  41.5540001  62.9158284  93.5405045
  41.4410858  63.6178391  92.7143497  40.5037108  62.0892809  93.8936402
  39.5701238  62.1241771  93.3321266  38.2903006  62.0537576  96.8077389
  38.8043588  62.9391630  97.5023542  37.2315398  62.2611004  96.0282387
  36.8753372  61.5123599  95.4515182  36.5959633  63.5765366  95.9287593
  37.3395490  64.3061560  95.6080803  35.4452546  63.5839524  94.9313905
  35.8582106  63.3576948  93.9483472  34.7499719  62.7967022  95.2227996
  34.7086117  64.9181502  94.8781127  34.2532717  65.1797227  95.8332808
  35.4645038  65.6602589  94.6212007  33.6456669  64.9313250  93.8211341
  33.7848187  65.5906348  92.8074008  32.6102497  64.1303593  94.0139533
  31.8653351  64.1000809  93.3325673  32.5696009  63.5529489  94.8416286
  36.0828763  64.0813415  97.2713351  36.2195556  65.2689304  97.5720732
  35.4812033  63.1879318  98.0629932  35.3344012  62.2442319  97.7343916
  34.8825175  63.5793033  99.3425633  34.3133780  64.4804878  99.1144272
  33.9223774  62.5198372  99.8905400  33.1660015  62.2911180  99.1397522
  34.4791074  61.6144414 100.1322220  33.2445000  63.0505722 101.1492803
  34.0002624  63.2790962 101.9007461  32.6871542  63.9557712 100.9082772
  32.2882576  61.9954053 101.6950350  31.5318824  61.7666840 100.9442473
  32.8449888  61.0900109 101.9367182  31.6103789  62.5261422 102.9537744
  32.3661406  62.7546674 103.7052403  31.0530320  63.4313383 102.7127691
  30.6886258  61.5090295 103.4798467  31.2049447  60.6703200 103.7036342
  30.2396689  61.8605337 104.3135028  29.9879867  61.2974413 102.7838335
  35.9373400  63.9774198 100.3645783  35.7013284  64.8930113 101.1493596
  37.0934422  63.3071893 100.3432079  37.2325569  62.5792252  99.6570485
  38.1451400  63.5295786 101.3466978  37.6384478  63.8486781 102.2574874
  38.9089464  62.2250256 101.6397970  38.2051511  61.4538158 101.9528572
  39.4289991  61.8977588 100.7394961  39.9232980  62.4688438 102.7521225
  40.6277582  63.2396616 102.4395899  39.4039114  62.7957161 103.6529522
  40.6797359  61.1768802 103.0423927  39.9759412  60.4056692 103.3554512
  41.1997894  60.8496155 102.1420918  41.6753013  61.3756784 104.1193002
  41.7570840  62.2916468 104.5369277  42.4671917  60.4032514 104.5622403
  42.4182817  59.1717527 104.0623210  41.7643395  58.9555092 103.3236070
  43.0353047  58.4584569 104.4236954  43.3267930  60.6923871 105.5350645
  43.3613806  61.6285784 105.9124895  43.9410365  59.9744378 105.8919294
  39.1257571  64.6341894 100.9527751  39.5472378  65.4110403 101.8003326
  39.4891421  64.7033026  99.6720485  39.1342443  64.0308038  99.0072987
  40.4277247  65.7195714  99.1965305  41.2998954  65.7470314  99.8497252
  40.8933551  65.4063442  97.7710881  41.1814658  64.3553756  97.7474956
  40.0415205  65.5639629  97.1095488  42.0675850  66.2670315  97.3034265
  41.6737369  67.2311889  96.9818912  42.7384920  66.4132294  98.1499560
  42.8348054  65.6214681  96.1519954  43.1150661  64.6117603  96.4520670
  42.1741170  65.5725158  95.2864355  44.0860795  66.4086450  95.7907313
  43.8105871  67.4576368  95.6820079  44.8027414  66.3042921  96.6053511
  44.7013046  65.9228627  94.5228680  44.0375409  66.0198725  93.7678140
  45.5261605  66.4686055  94.3182282  44.9570448  64.9509780  94.6235464
  39.8409410  67.1324922  99.2026826  40.4970394  68.0907080  99.6093303
  38.6107640  67.2541950  98.7426370  38.0958465  66.4361273  98.4498495
  37.9731215  68.5580089  98.6053072  38.7208131  69.3489407  98.6643266
  37.2840791  68.6498299  97.2818970  36.5519925  67.8500982  97.1697464
  36.7852427  69.6143086  97.1868011  38.2047517  68.5391089  96.1436981
  39.2695974  69.3863959  96.0465936  39.4460490  70.1286174  96.8250998
  40.1096283  69.3060894  94.9814486  40.9533869  69.9909131  94.8966626
  39.8923912  68.3544427  94.0055322  40.5756681  68.2926235  93.1585310
  38.8302215  67.4922591  94.0936964  38.6411595  66.7507657  93.3174598
  38.0063330  67.5729497  95.1714221  37.1780777  66.8724133  95.2779197
  36.9808308  68.8178353  99.7024764  36.0057232  69.5548995  99.5057064
  37.2429433  68.2598392 100.8766699  38.0653261  67.6876282 101.0045782
  36.3377061  68.4237938 101.9986844  35.3646369  67.9976021 101.7545610
  36.8852321  67.7134415 103.2310824  36.8758383  66.6434552 103.0233798
  37.8979359  68.0243266 103.4877561  36.0527559  67.9186040 104.4533004
  36.1763090  69.0321628 105.2580099  36.8415316  69.7773353 105.1086899
  35.2957360  68.9632373 106.2388807  35.2384681  69.7513793 106.9896480
  34.5989633  67.8488313 106.0964132  35.0422710  67.1849792 104.9771552
  34.5746645  66.2465624 104.6791293  36.1033956  69.8844221 102.3337448
  34.9587419  70.3330062 102.5067224  37.1932452  70.6341027 102.3951262
  38.0973597  70.2253985 102.2063479  37.1402509  72.0346235 102.8352843
  36.4522347  72.1371004 103.6744692  38.5300763  72.4947560 103.2831206
  39.2871760  72.2240931 102.5471580  38.5512124  73.5723229 103.4459176
  39.0527481  71.7435073 104.8380690  40.2347471  72.3505451 104.8953546
  36.5701145  73.0051027 101.7989061  36.7227950  74.2251235 101.9451414
  35.9388820  72.4792949 100.7501260  35.9859043  71.4840404 100.5847273
  35.1849290  73.2989749  99.8144708  35.8390141  73.9995882  99.2954207
  34.5019560  72.4153356  98.7817998  33.8365902  71.7143251  99.2857567
  33.9238824  73.0359509  98.0971335  35.2552825  71.8616165  98.2214484
  34.1450013  74.1009985 100.5575836  33.8043595  75.2207888 100.1621106
  33.6523533  73.5291614 101.6602378  33.9136787  72.5850634 101.9061794
  32.6046142  74.1724053 102.4244211  31.8103241  74.4757357 101.7423705
  32.0013219  73.2468780 103.5043358  31.4394799  73.7827878 104.2693413
  31.3223411  72.6160197 102.9306609  33.0334349  72.3543906 104.1918960
  33.8706467  72.8181484 104.9646847  32.8836432  71.0541638 104.0150723
  33.5338139  70.4110966 104.4438408  32.1196134  70.7089171 103.4518992
  33.0220071  75.5131736 102.9972234  32.1607977  76.3134826 103.3667256
  34.3388739  75.7551844 103.0227080  34.9575385  75.0218070 102.7072543
  34.9318304  77.0122859 103.4878149  34.3281376  77.4279481 104.2945857
  36.3292967  76.7811157 104.0020381  36.8698981  76.4638966 103.1102862
  36.6842546  77.7643151 104.3109456  36.5676514  75.7866428 105.1159935
  37.1844449  74.9584327 104.7670883  37.2916662  76.5232666 106.2225837
  36.6752503  77.3513958 106.5723441  37.4840338  75.8396625 107.0494941
  38.2378047  76.9099250 105.8438785  35.2932739  75.1733037 105.6510292
  34.7765996  74.6487057 104.8473228  35.5347171  74.4693034 106.4473897
  34.6485688  75.9591506 106.0446013  34.9903895  78.0250250 102.3559013
  35.2306235  79.2168153 102.5729210  34.7765512  77.5319002 101.1383464
  34.4937605  76.5669273 101.0437095  34.8629569  78.3420571  99.9421520
  35.2967917  79.3140300 100.1770035  35.6992556  77.6862219  98.8286244
  36.3108138  78.4588394  98.3626212  36.5922440  76.5902851  99.3603077
  35.9813245  75.8170234  99.8260795  37.1634366  76.1561601  98.5397141
  37.2773401  77.0056296 100.0993833  34.8227454  77.1556462  97.8217504
  35.3439585  76.7465278  97.1270854  33.4895540  78.5027461  99.3590641
  32.5211009  78.0941938  99.9303439  33.4246124  79.0773821  98.1744414
  34.2676632  79.3944906  97.7174874  32.1501720  79.3302890  97.5221271
  31.3324616  79.1310161  98.2147592  32.0648501  80.8024351  97.0691990
  31.2937249  80.8747619  96.3022349  31.7766650  81.4039590  97.9313002
  33.2967121  81.2815233  96.5483810  33.1960997  82.1978926  96.2805298
  31.9144713  78.4007009  96.3249653  31.2378236  78.7830616  95.3496530
  32.5018171  77.2133013  96.3359268  33.2696000  77.0278483  96.9653837
  32.1565841  76.1893227  95.3347296  31.1472363  76.3532008  94.9572907
  33.1297574  76.2738980  94.1710549  34.1462802  76.5690088  94.4312282
  33.1472964  75.2939918  93.6940054  32.6700012  77.2112572  93.1729031
  31.5062380  77.1520949  92.4605185  30.8676938  76.2874756  92.6416113
  31.3928717  78.2376620  91.6410129  30.6525882  78.4106995  90.9760785
  32.4750081  79.0401339  91.8472377  32.8104826  80.2202869  91.2541334
  32.1284890  80.6595051  90.5260738  33.9894379  80.7754497  91.6171935
  34.3077161  81.7061929  91.1476021  34.8227462  80.1794318  92.5922822
  35.7625288  80.6481081  92.8842593  34.4829105  79.0208292  93.1869860
  35.1761429  78.5794271  93.9030123  33.2915085  78.4158640  92.8182862
  32.0376953  74.7606013  95.8511498  32.4967831  74.4424530  96.9404684
  31.4324252  73.8690570  95.0418143  30.6563454  74.1816276  93.8254095
  31.3048640  74.6830280  93.1069935  29.8290728  74.8405938  94.0890051
  30.1884406  72.8426325  93.3416881  30.8792321  72.4640415  92.5883123
  29.1936675  72.9381513  92.9064824  30.1606404  71.9688649  94.5381526
  30.3464328  70.9336467  94.2519648  29.2095421  72.0340957  95.0665999
  31.2911753  72.4705725  95.4356142  31.0372625  72.4625099  96.4955961
  32.5385055  71.6202150  95.2052373  33.3910350  71.9909375  94.4280725
  32.5804793  70.4672875  95.8623769  31.8913407  70.3121947  96.5842727
  33.6284651  69.4365525  95.6568942  34.5983957  69.8207838  95.9726476
  33.3022926  68.1857833  96.4865484  32.3516248  67.7826266  96.1375576
  34.0904317  67.4511567  96.3214406  33.2045403  68.5009248  97.9789837
  34.0511468  69.1404726  98.2286575  32.2763886  69.0518212  98.1311336
  33.2166640  67.2782566  98.8697859  33.5791355  66.4183518  98.3065124
  33.8703445  67.4540702  99.7241224  31.8743868  66.9834306  99.3609229
  31.6255953  67.3674373 100.2613345  30.9656005  66.2642045  98.7033514
  31.2534898  65.7126269  97.5294626  32.1715822  65.8380173  97.1276123
  30.5529288  65.1704619  97.0443120  29.7618780  66.0842962  99.2349670
  29.5433359  66.4928851 100.1324048  29.0705677  65.5397197  98.7393611
  33.8107410  69.0832934  94.1895151  34.9348693  69.0356279  93.7005248
  32.6976191  68.8704024  93.4894966  31.8040867  68.9694164  93.9498176
  32.7147898  68.4166284  92.0859299  33.4059780  67.5786445  91.9957027
  31.3156306  67.9606136  91.5934290  31.3684030  67.6240392  90.5580392
  30.9653027  67.1429346  92.2233269  30.2535824  69.0314280  91.6457095
  29.3702078  69.2214977  92.6305342  29.3778033  68.4915569  93.4399960
  28.6263385  70.3322972  92.3920891  27.8977813  70.6908782  92.9926917
  28.9830525  70.8516189  91.1855837  28.4619819  71.9327199  90.4868227
  27.6575201  72.5081973  90.9448245  28.9904448  72.2055735  89.2712739
  28.5862564  73.0231366  88.6743465  30.0406931  71.4632134  88.7665007
  30.4999870  71.7257383  87.8134902  30.5429466  70.3654090  89.4514444
  31.3696276  69.8102805  89.0081255  29.9957549  70.0472269  90.6789751
  33.2480115  69.4497901  91.1215702  33.5969503  69.1012309  89.9821414
  33.3244308  70.7099524  91.5555969  32.8947877  71.0104430  92.4188532
  33.9444203  71.7210245  90.7015523  33.7833242  71.4364695  89.6617563
  33.3979152  73.0878564  90.9101974  32.3171423  73.0244313  90.7836807
  33.6242591  73.5391080  91.8762412  33.9887956  73.9441248  89.7999156
  34.6487754  73.3243218  89.1929793  32.8919230  74.5288181  88.9208404
  32.2317656  75.1491609  89.5270301  33.3406100  75.1366053  88.1351081
  32.3169533  73.7199023  88.4701016  34.8799718  75.0062382  90.4254989
  35.6803747  74.5247996  90.9873454  35.3107724  75.6280650  89.6407419
  34.2882971  75.6280466  91.0973428  35.4393481  71.7087035  90.8655309
  36.1755164  71.5643783  89.9026999  35.8873238  71.8487211  92.1010566
  35.2470844  72.0689450  92.8505193  37.2932135  71.7554631  92.4081416
  37.8274044  72.5896081  91.9532335  37.5120698  71.8009620  93.9147844
  36.8209536  71.1217402  94.4138991  38.5346734  71.4574858  94.0710085
  37.3559022  73.1786430  94.4832531  38.3787922  74.0924590  94.4075872
  39.3067005  73.7908328  93.9216785  38.2532598  75.3728321  94.9308160
  39.0957783  76.0633778  94.8932514  37.0700608  75.7666451  95.4959218
  36.9296887  77.0510205  96.0016645  37.7238619  77.5814587  95.9040745
  36.0240401  74.8747534  95.5538594  35.0768336  75.1755716  96.0015299
  36.1746422  73.5883759  95.0410926  35.3423751  72.8855447  95.0793011
  37.8667792  70.4618944  91.7976143  39.0611138  70.3701410  91.4976142
  36.9943089  69.4871686  91.5811075  36.0528708  69.5577733  91.9400068
  37.4109539  68.2347310  90.9919846  38.3828304  67.9783638  91.4136848
  36.4541461  67.0682340  91.2268091  35.8020449  67.3033444  92.0679906
  35.8509017  66.9138382  90.3321817  37.1935746  65.8763194  91.5150800
  36.5841061  65.1491159  91.6611045  37.7450491  68.3985558  89.5306982
  38.6446049  67.7465813  89.0477700  37.0803010  69.3166691  88.8449658
  36.3656261  69.8482343  89.3211776  37.3660116  69.6365259  87.4314599
  37.3950143  68.7211471  86.8404102  36.2776628  70.5445982  86.8701083
  36.4298309  71.4648517  87.4340921  36.5397212  70.7118002  85.8253745
  34.8334006  70.1315063  86.9648223  34.4355717  70.3521088  87.9553614
  34.0673613  70.9291436  85.9224618  34.4643442  70.7087006  84.9315489
  33.0124111  70.6574466  85.9593639  34.1751166  71.9941927  86.1277899
  34.6708999  68.6268226  86.7553046  35.2352130  68.0902215  87.5180033
  33.6164746  68.3608635  86.8298318  35.0449176  68.3543951  85.7683938
  38.6739119  70.4089645  87.1955922  38.9458770  70.8323250  86.0874844
  39.4008860  70.7280830  88.2604993  38.9974906  70.6244995  89.1806308
  40.7440012  71.3461124  88.1472681  41.0795989  71.3321656  87.1103116
  40.6814439  72.7955460  88.6200620  40.4037367  72.8951896  89.6693708
  41.7252869  73.0821618  88.4922213  39.7924198  73.7095882  87.7671628
  38.4198386  73.5647961  87.7428724  37.9803067  72.7235352  88.2787746
  37.5991001  74.4602871  87.0566433  36.5183436  74.3192761  87.0701721
  38.1425034  75.5418655  86.4073728  37.3333800  76.4373614  85.6789764
  36.4028789  76.2019151  85.6972093  39.5082834  75.7080209  86.4410096
  39.9591284  76.5508419  85.9170898  40.3145602  74.8081674  87.1384559
  41.3910243  74.9703520  87.1934209  41.8188015  70.5333012  88.8886663
  42.8918307  71.0299190  89.2434114  41.5032840  69.2688398  89.1578804
  40.6266449  68.9135331  88.8038179  42.3624694  68.3629384  89.9128950
  43.0376583  68.9449030  90.5402197  41.5501766  67.4402977  90.8010614
  40.8434578  68.0103569  91.4041205  41.0028865  66.7941490  90.1147193
  42.4308762  66.5807771  91.7206845  43.4444250  67.0943917  92.2644195
  42.0619609  65.4096451  91.9460316  43.1329201  67.5128231  88.9316786
  42.5621541  66.6248111  88.3132436  44.4348484  67.7642244  88.8380555
  44.8157527  68.5208888  89.3880283  45.3304351  67.0403682  87.9448709
  45.1737750  67.3881739  86.9237989  46.7622979  67.3368212  88.3431302
  46.9371354  66.9860239  89.3602207  47.4426741  66.8265533  87.6613566
  46.9383977  68.4114091  88.2946645  45.0763034  65.5308676  87.9599029
  44.9034798  64.9048802  86.9230974  45.0182381  64.9721051  89.1541860
  45.0970876  65.5400631  89.9856340  44.8764291  63.5337484  89.3128118
  45.7061975  63.0203247  88.8270343  44.8786740  63.1682016  90.8035191
  43.9382509  63.5306248  91.2186734  44.9054533  62.0800752  90.8615179
  46.0447015  63.7492070  91.6015115  46.1112547  64.8159184  91.3875064
  45.8126190  63.6046366  92.6566590  47.3712429  63.0853054  91.2800204
  48.4168429  63.6223230  91.7027471  47.3768883  62.0208322  90.6220091
  43.5670968  63.0493842  88.6475756  43.5497709  62.0416668  87.9137347
  42.4878206  63.7993627  88.8517820  42.5311332  64.6101990  89.4524215
  41.1902225  63.4222725  88.2868086  40.9675219  62.3735794  88.4836500
  40.0657426  64.2829465  88.8819448  40.2572781  65.3279831  88.6384024
  38.6953277  63.8662660  88.3136047  38.5028725  62.8214033  88.5571667
  37.9154291  64.4901739  88.7501778  38.6969618  63.9920674  87.2308896
  40.0694468  64.1507350  90.3138175  39.3669046  64.6883701  90.6866221
  41.1825164  63.5071232  86.7656557  40.8547903  62.5446909  86.0901755
  41.5541160  64.6700866  86.2444437  41.8530880  65.4003191  86.8749003
  41.5914694  64.9353694  84.8146469  40.5812230  64.9996827  84.4104623
  42.2960265  66.2640087  84.5770927  43.2673439  66.1353439  85.0546772
  42.4311152  66.3578706  83.4995766  41.6315465  67.5161366  85.1135776
  41.4015353  67.3678486  86.1686636  42.5428720  68.7173651  84.9595000
  42.7729669  68.8665758  83.9045634  42.0450484  69.6043831  85.3512546
  43.4669246  68.5462428  85.5117176  40.3306761  67.7341466  84.3692217
  39.6767672  66.8752351  84.5201312  39.8420928  68.6327380  84.7459457
  40.5356178  67.8515879  83.3051233  42.3773934  63.8683222  84.0887855
  41.9077212  63.3290618  83.0953433  43.5697284  63.5646332  84.5949940
  43.9171085  64.1101069  85.3708064  44.4452131  62.5354822  84.0203734
  44.7138970  62.8129857  83.0011089  45.7243456  62.3863586  84.8382896
  45.4606398  62.4122301  85.8955924  46.1737254  61.4223355  84.5999257
  46.7236368  63.5029005  84.5352181  47.0242627  63.3643538  83.4966953
  46.1699470  64.4368863  84.6311357  48.1899848  63.5769984  85.5694294
  48.8553102  61.9168925  85.3722781  49.0790972  61.7370983  84.3207590
  49.7683616  61.8187266  85.9594758  48.1220911  61.1877429  85.7169980
  43.7019683  61.2006318  83.8922806  43.8050966  60.5159770  82.8622315
  42.9368827  60.8665699  84.9297138  43.0350050  61.3678698  85.8010172
  42.1083142  59.6673782  84.9118869  42.7010448  58.8469458  84.5073374
  41.6019055  59.2694556  86.2746477  41.9843608  60.0477440  86.9350221
  40.5134326  59.2501082  86.3289841  42.1469730  57.9397326  86.7018129
  43.3340465  57.9081343  87.0719737  41.4356433  56.9165958  86.5734882
  40.9901199  59.7236388  83.8683663  40.7612509  58.7648643  83.1636987
  40.3136313  60.8540901  83.7601811  40.4837111  61.6018103  84.4175140
  39.2703105  61.0464417  82.7383673  38.5213836  60.2598301  82.8302907
  38.5772659  62.4054116  82.9059595  39.3604982  63.1313809  83.1241678
  38.1190445  62.6435561  81.9460530  37.5157369  62.4568345  84.0032657
  36.6235740  61.9388789  83.6513164  37.9029248  61.9520251  84.8883392
  37.1622990  63.8932466  84.3535325  36.4132929  63.8942288  85.1454213
  38.0583976  64.4073717  84.7010697  36.6227103  64.6187972  83.1937086
  36.3667086  64.0774935  82.3803496  36.4646791  65.9395099  83.1529884
  36.7979049  66.6624454  84.2212294  37.1637741  66.2038986  85.0434061
  36.6831346  67.6657556  84.2040207  35.9684606  66.5449907  82.0654990
  35.7080196  65.9948075  81.2595406  35.8571376  67.5487978  82.0567122
  39.8566210  60.9320959  81.3368931  39.2177285  60.3996523  80.4391536
  41.0777893  61.4259715  81.1615993  41.5140453  61.9377460  81.9151687
  41.8043400  61.2977487  79.8987113  41.1306841  61.5822368  79.0904084
  43.0401702  62.2050089  79.8767900  43.5999788  62.0776862  80.8033447
  43.9173878  61.8376518  78.7048924  43.3583764  61.9651746  77.7778838
  44.7952777  62.4835744  78.6909647  44.2329520  60.7985169  78.7982573
  42.6071641  63.6560547  79.7273081  42.2879883  63.7824942  78.6927837
  41.7536476  63.7979087  80.3902458  43.6720414  64.6755162  80.0532603
  44.5257494  64.5345774  79.3903737  43.2688455  65.6790238  79.9172279
  43.9914104  64.5499902  81.0878358  42.2238430  59.8381688  79.6724794
  42.0928755  59.3272864  78.5650204  42.7092909  59.1720377  80.7199997
  42.9173800  59.6553724  81.5820819  43.0713137  57.7563251  80.6125226
  43.9149234  57.6589324  79.9291950  43.4609931  57.1558271  81.9544399
  42.9750420  57.7395499  82.7362445  43.0901803  56.1312412  81.9831039
  44.9674905  57.1569210  82.1824122  45.4401223  56.6759469  81.3260338
  45.2998542  58.1930836  82.2456846  45.3576408  56.4200397  83.4575434
  44.6162389  56.6416674  84.2252044  45.3578916  55.3496625  83.2516500
  46.7368754  56.8429702  83.9469712  47.2069169  55.9661009  84.3922373
  47.3092081  57.1576443  83.0743231  46.7044108  57.9538054  84.9487722
  46.1744838  57.6622706  85.7576508  47.6475513  58.1823995  85.2286484
  46.2692827  58.7665654  84.5362388  41.9792919  56.9267734  79.9464653
  42.2460886  56.2040837  79.0004816  40.7565485  57.0534918  80.4206331
  40.5936211  57.6805439  81.1954618  39.6170135  56.2873963  79.8916589
  39.7596711  55.2219777  80.0723003  38.3294201  56.7368775  80.5980759
  38.3011423  57.8248135  80.5372909  37.4976383  56.3200271  80.0302072
  38.2149143  56.3058639  82.0585613  38.0194685  55.2337572  82.0806745
  39.1671275  56.5112317  82.5476586  37.0931481  57.0443303  82.7952741
  37.5472460  57.8103265  83.4238789  36.4532719  57.5182335  82.0509129
  36.2569348  56.1059709  83.6611979  35.3345998  55.8840810  83.1243892
  36.8232177  55.1858257  83.8052660  35.9292379  56.6983529  84.9851512
  35.4041347  57.5507654  84.8518873  35.3772603  56.0429895  85.5198657
  36.7837520  56.9036406  85.4829078  39.4179925  56.4276944  78.3784540
  39.1320763  55.4487471  77.6962516  39.5952238  57.6343514  77.8514229
  39.7791783  58.4330517  78.4416244  39.5361825  57.8420728  76.3910360
  38.5963018  57.4323026  76.0211553  39.6184917  59.3303860  75.9872957
  40.6686048  59.6076105  76.0795367  39.3228205  59.3726442  74.9390148
  38.7662184  60.2984133  76.7935240  38.6817673  59.8760131  77.7947967
  39.2479473  61.2744973  76.8509647  37.3740476  60.4785189  76.2252604
  36.9152670  61.6085578  76.0204053  36.6723688  59.3682994  76.0155144
  35.7376296  59.4291136  75.6378034  37.0774830  58.4694943  76.2349075
  40.6981314  57.1321598  75.7186586  40.5126935  56.4325881  74.7429695
  41.9014182  57.3171245  76.2574183  41.9749065  57.8828741  77.0908607
  43.1282173  56.6808185  75.7316849  43.3076620  57.0228505  74.7124141
  44.3474326  57.0396864  76.5910205  43.9158573  56.9100782  77.5835142
  45.0680523  56.2440214  76.4020111  45.0487367  58.3865329  76.5156604
  44.4495281  59.1390309  77.0282974  46.4224871  58.2826192  77.1881376
  47.0224761  57.5305909  76.6757261  46.9273243  59.2472203  77.1353670
  46.2957941  57.9960569  78.2321354  45.1595642  58.8620090  75.0731627
  44.1620065  58.9624980  74.6455178  45.6648637  59.8274314  75.0460824
  45.7312594  58.1369033  74.4939518  43.0492803  55.1581139  75.7789889
  43.7842708  54.4727103  75.0701851  42.1943407  54.6444833  76.6625702
  41.6914495  55.2793903  77.2659712  42.0062427  53.2119699  76.8563269
  42.9832548  52.7288254  76.8454631  41.3082597  52.8750663  78.1775191
  41.8588087  53.3727046  78.9758618  40.2973356  53.2795397  78.1271824
  41.2424303  51.3665709  78.4642334  40.6439246  50.9082879  77.6769161
  42.2600825  50.9787431  78.4186751  40.6320045  51.0356758  79.8256700
  39.5457572  51.0807055  79.7473235  40.9335402  50.0286394  80.1138596
  41.0658358  51.9694526  80.8633084  40.3669156  52.6013977  81.2269775
  42.3030224  52.0347694  81.3591240  43.2451782  51.1927095  80.9425947
  43.0236809  50.4969881  80.2447332  44.1775516  51.2530769  81.3261768
  42.6034140  52.9553611  82.2730895  41.8931619  53.6009132  82.5875803
  43.5401365  53.0038614  82.6476525  41.2331529  52.6156690  75.6909397
  41.3671177  51.4265568  75.3934394  40.3523377  53.4575770  75.1689594
  40.2706015  54.3690353  75.5963495  39.4859073  53.1424425  74.0571259
  38.9333435  52.2282341  74.2739103  38.4931708  54.2604651  73.8055293
  39.0500070  55.1903669  73.6901374  37.9595341  54.0400104  72.8810124
  37.4969339  54.4051768  74.9424355  37.0841607  53.4193821  75.1567435
  38.0373419  54.7699573  75.8159305  36.3774580  55.3567021  74.6116570
  35.6524944  55.7762527  75.5361287  36.2285755  55.6841731  73.4197968
  40.3897461  52.9266030  72.8926261  40.1682570  52.0531695  72.0735843
  41.4378273  53.7265767  72.8245973  41.5098735  54.5567638  73.3952969
  42.4132092  53.5292073  71.7751168  41.9014520  53.4500310  70.8159844
  43.3866539  54.6773796  71.7081267  43.7303122  55.0252461  72.6822864
  44.2476468  54.4614432  71.0755425  42.6674471  55.8231510  71.0745098
  41.7293591  55.7352582  70.0979184  41.4834778  54.7346553  69.7423401
  41.2818036  56.9745174  69.7625340  40.5888748  57.1803962  69.0571524
  41.9280848  57.8986818  70.5330363  41.8144968  59.2687474  70.5543652
  41.1081799  59.7460741  69.8751197  42.5985361  59.9440354  71.4300161
  42.5378421  61.0314746  71.4735147  43.4753281  59.2882678  72.2714890
  44.0982904  59.8461053  72.9706562  43.5895298  57.9335677  72.2555009
  44.3026474  57.4672658  72.9352998  42.8045763  57.2089620  71.3703673
  42.9754647  52.1264053  71.9990038  43.3775151  51.4504148  71.0677045
  42.9693719  51.7018526  73.2610481  42.9096458  52.4288356  73.9596380
  43.2368152  50.3441983  73.7014286  42.7502384  50.1441979  74.6560710
  42.6772896  49.3734423  72.6529970  41.7453813  49.7872475  72.2677550
  43.4071439  49.3100425  71.8459077  42.4240026  48.0018439  73.2068215
  42.7233498  47.7699659  74.3975224  41.9122383  47.1570947  72.4445911
  44.5334192  49.7524552  74.1703969  45.6343974  50.1306206  73.8040651
  44.2829348  48.7873016  75.0425368  43.3381102  48.8138700  75.3984861
  45.2140695  47.8677605  75.6448418  44.7073785  47.2880799  76.4164205
  45.7785680  46.9090208  74.6090413  46.2494000  47.5079914  73.8295217
  46.5341549  46.2988493  75.1038940  44.7273218  46.0069316  73.9880248
  44.0609637  46.6263329  73.3876834  45.2570795  45.3094852  73.3391607
  43.9121593  45.2288424  75.0101898  43.5595372  45.7854944  76.0711277
  43.6055523  44.0487616  74.7401465  46.3016396  48.4358516  76.4966826
  47.2563813  47.7388930  76.8034106  46.1853928  49.6740403  76.9290035
  45.4590103  50.3402389  76.7084422  47.3006797  50.1158234  77.7663856
  48.1844050  50.1899299  77.1326372  46.9978593  51.5010036  78.3484824
  46.8046920  52.2024566  77.5368486  46.1206769  51.4411109  78.9927369
  48.1701192  52.0184070  79.1698147  49.1895162  51.3435864  79.2958623
  48.0229669  53.2213399  79.7297456  48.7709711  53.6113724  80.2851411
  47.1643077  53.7358857  79.5954040  47.6235533  49.1247224  78.8996854
  48.1427975  49.5144015  79.9517284  53.1890445  52.0859684  83.5368624
  53.7769457  52.8173162  83.9104956  52.3465066  52.3955317  82.3704506
  52.4071020  51.5860605  81.6430004  50.8711392  52.5602955  82.8048235
  50.8536322  52.8267375  83.8616118  50.4306479  53.3676197  82.2197637
  50.1216043  51.3650089  82.6041540  49.2141800  51.5055233  82.8842195
  52.8568336  53.6327690  81.5806588  53.5923253  53.4837986  80.6110482
  52.5116589  54.8389549  82.0562795  51.8646030  54.8653528  82.8313415
  52.9364191  56.1215421  81.4531095  53.8982620  55.9957672  80.9559797
  51.9021970  56.5958296  80.4124439  52.1794161  57.6405746  80.2718854
  52.0780124  56.0462348  79.4877090  50.4182006  56.5070755  80.7847910
  50.1284219  55.4566545  80.8120845  50.1525007  57.1408950  82.1402449
  50.4416199  58.1915131  82.1135894  49.0913833  57.0624897  82.3768527
  50.7336603  56.6239251  82.9038521  49.5261113  57.1386808  79.7195008
  49.6713290  56.6224771  78.7705303  48.4824034  57.0545131  80.0223059
  49.7866143  58.1907517  79.6038115  53.1743675  57.1325659  82.6001498
  53.3119505  56.7107276  83.7566105  53.3774772  58.4409529  82.2822629
  52.9545877  59.2620812  81.1282002  51.9040035  59.0652838  80.9145559
  53.5573681  58.9965207  80.2597346  53.1971039  60.6781181  81.5848742
  52.2534439  61.1103618  81.9176958  53.5874702  61.2589086  80.7491721
  54.1857361  60.6131899  82.6938741  54.0108800  61.4300248  83.3940921
  55.2199802  60.6442487  82.3511293  53.9024233  59.2755132  83.3752477
  54.8080953  58.7997454  83.7514144  52.9052208  59.4512766  84.5225395
  51.6922359  59.3223391  84.3328083  53.4417135  59.7241827  85.7157049
  54.4482760  59.7625728  85.7895786  52.6421325  59.9964662  86.9222807
  51.6555161  59.5458606  86.8143836  53.3216891  59.4061215  88.1881910
  54.0250149  60.1515220  88.5594189  52.5415370  59.2415504  88.9314130
  54.0102984  58.1840722  87.9449279  54.4065511  57.8719920  88.7617446
  52.5208635  61.5144564  87.1203220  51.5327836  62.0095770  87.6602616
  53.5681833  62.2046831  86.6989308  54.3889644  61.7014042  86.3937619
  53.6147941  63.6444823  86.7101821  53.2873043  64.0257968  87.6773681
  55.0546270  64.1122445  86.4607473  55.6561339  63.8891114  87.3419399
  55.4401702  63.5542144  85.6074837  55.1664102  65.6004008  86.1594875
  54.2190460  66.3745622  86.3212745  56.3535143  66.0061567  85.7287812
  56.5014756  66.9807765  85.5089551  57.1040096  65.3386318  85.6226298
  52.6537081  64.1968543  85.6615211  52.7590136  63.8730307  84.4654446
  51.7285470  65.0643214  86.1046710  51.6652420  65.6002597  87.4795556
  52.6738480  65.6846688  87.8841410  51.0782842  64.9281745  88.1055596
  51.0041090  66.9351055  87.2964632  51.7432243  67.6963535  87.0468451
  50.4752212  67.2266570  88.2038642  50.0495282  66.7131538  86.1717664
  49.8295268  67.6470800  85.6545815  49.1194851  66.2624135  86.5181082
  50.7767482  65.7500733  85.2229997  50.1036122  64.9897433  84.8269132
  51.4274148  66.5118250  84.0605913  50.8933270  66.4869663  82.9730559
  52.5559898  67.1686382  84.2852822  52.9128739  67.2116829  85.2291467
  53.3077959  67.8389185  83.2306179  52.7684495  68.6921397  82.8192565
  54.6557410  68.3080665  83.7891464  55.2029680  67.4429312  84.1635578
  55.4716485  68.9940313  82.7123231  54.9252337  69.8595981  82.3377225
  56.4246098  69.3193289  83.1296322  55.6528853  68.2973408  81.8938643
  54.4234683  69.2360185  84.9889991  54.1146048  70.2006910  84.5863690
  53.6057131  68.8054524  85.5669166  55.6273139  69.4258876  85.8839464
  56.4453890  69.8568794  85.3067992  55.3691261  70.0962103  86.7037670
  55.9364988  68.4616398  86.2873452  53.5596121  66.8831615  82.0416708
  53.2238874  67.1770572  80.8802526  54.1305327  65.7315641  82.3450949
  54.4786602  65.5562336  83.2768491  54.4658576  64.7886257  81.2980350
  54.9188914  65.3187228  80.4602662  55.4496391  63.7452495  81.8017541
  55.0544193  63.4799679  82.7823285  55.4901170  62.8551210  81.1739540
  56.8631888  64.3247016  81.9595594  57.0762710  65.1640639  82.8614895
  57.7274340  64.0277184  81.1088973  53.2166839  64.2371708  80.6279234
  53.1155322  64.2296328  79.4121527  52.2619798  63.8147713  81.4338780
  52.3960142  63.8570905  82.4340496  51.0291886  63.2593326  80.9321254
  51.2330326  62.3207221  80.4168030  50.0507052  62.9864017  82.0764107
  50.4953947  62.4987313  82.9438944  49.6528167  63.9576380  82.3704938
  48.8819060  62.1514490  81.6695156  47.9346756  62.6544461  80.7993263
  48.0296323  63.6816552  80.4472968  46.8822613  61.8777007  80.3769240
  46.1223646  62.3023660  79.7209385  46.7870305  60.5638702  80.7815837
  45.9620335  59.9397716  80.4381004  47.7425016  60.0399464  81.6254639
  47.6762874  58.9998728  81.9447800  48.7847695  60.8334580  82.0668912
  49.5397625  60.4194140  82.7352123  50.4038695  64.2149890  79.9406155
  50.0685213  63.8230484  78.8546587  50.2953660  65.4803234  80.3246543
  50.6821149  65.7365120  81.2218121  49.6501286  66.5274254  79.5190960
  48.6112352  66.2605950  79.3251856  49.6808848  67.8663670  80.2689117
  49.0022376  68.5550199  79.7656282  49.3339543  67.6949171  81.2879034
  50.9854616  68.4268555  80.3013165  50.9638669  69.2604342  80.7770056
  50.3406466  66.7375360  78.1834537  49.6872630  67.0133241  77.1838499
  51.6676094  66.6054325  78.1816526  52.1521739  66.4749743  79.0581668
  52.4684357  66.6649090  76.9399808  52.1036092  67.4747005  76.3081276
  53.9266581  66.9136652  77.2499950  54.0294522  66.1849673  78.0540672
  54.6013365  66.6520714  76.4348400  54.2716982  68.2771524  77.7651872
  54.0163407  69.4309794  77.0142679  53.4712341  69.3403338  76.0747245
  54.4461212  70.6769197  77.4499125  54.2020951  71.5832146  76.8956719
  55.1783608  70.7581867  78.6203274  55.6537473  71.9423034  79.1173799
  55.4250562  72.6974539  78.5705273  55.4821847  69.6240937  79.3375486
  56.0660841  69.7004298  80.2547916  55.0505786  68.3971309  78.8988183
  55.3220562  67.4955541  79.4479626  52.4118215  65.3871534  76.0661585
  52.5256521  65.4527980  74.8469344  52.2831593  64.2367266  76.7132446
  52.3553640  64.2404777  77.7206530  52.1287555  62.9550591  76.0362365
  52.9011848  62.8202727  75.2790809  52.2659615  61.8328509  77.0855574
  53.3356428  61.6989672  77.2466671  51.8066183  62.2141331  77.9975485
  51.6420048  60.5067425  76.7248106  51.7121538  59.8533121  77.5944131
  50.5929466  60.6814570  76.4859513  52.3258662  59.8497759  75.5434920
  52.2233880  60.4769065  74.6578825  53.3832628  59.6998167  75.7614926
  51.7185481  58.5574536  75.2718050  51.0947564  58.4963389  74.4798149
  51.9299391  57.4626615  76.0002334  51.2793426  56.3443821  75.7038869
  50.6302360  56.3313000  74.9302013  51.4363651  55.5116480  76.2534300
  52.7842362  57.4791036  77.0270631  53.2772249  58.3302928  77.2562773
  52.9332557  56.6402712  77.5695131  50.7948928  62.8689071  75.2643310
  50.7575223  62.3970898  74.1408245  49.7063332  63.3136901  75.8658983
  49.7273229  63.6209590  76.8277946  48.4173946  63.2897317  75.1731557
  48.3342999  62.4157766  74.5270932  47.2438874  63.2887006  76.1479530
  46.3136041  63.1668594  75.5931314  47.3975267  62.1444765  77.1360836
  48.3274261  62.2658859  77.6916444  46.5571129  62.1478303  77.8301974
  47.4184024  61.1978106  76.5961860  47.1476909  64.6136273  76.8704816
  47.0017875  65.4139394  76.1450060  46.3042911  64.5913189  77.5606111
  48.0675593  64.7920011  77.4273709  48.2859797  64.4407369  74.2067758
  47.5344751  64.3627220  73.2469797  49.0289305  65.5060753  74.4472839
  49.5390808  65.5728629  75.3164130  49.1083787  66.6214114  73.5117335
  48.1240439  67.0743144  73.3931462  50.0678810  67.6758625  74.0348579
  51.0601502  67.2397416  74.1501851  50.1160386  68.5057981  73.3298840
  49.7171295  68.0399694  75.0005176  49.5602836  66.1356207  72.1362760
  48.9973524  66.5278777  71.1094990  50.5700418  65.2750337  72.1180426
  51.0237201  65.0161912  72.9824938  51.1031774  64.7297615  70.8601926
  51.1996380  65.5652878  70.1668742  52.4730765  64.1408723  71.0998212
  52.3916506  63.2972246  71.7851886  52.8933319  63.8003049  70.1535129
  53.1243612  64.8994584  71.5339579  50.2040980  63.6775534  70.2058965
  50.3120797  63.4298053  69.0149533  49.3302639  63.0502052  70.9846097
  49.3430586  63.2329636  71.9778544  48.3302484  62.0912602  70.4596809
  48.8065234  61.3916705  69.7727780  47.7085277  61.2936879  71.6222086
  47.2109905  61.9801620  72.3072701  46.9810012  60.5847686  71.2269384
  48.8617185  60.3208089  72.6333107  47.9425093  59.8316750  73.4607772
  47.1936805  62.7866701  69.7143222  46.6115010  62.2675016  68.7823570
  46.8452839  63.9827904  70.1623511  47.3714369  64.3602128  70.9374735
  45.8270567  64.7995769  69.5704077  44.8626317  64.2945557  69.6246037
  45.7260350  66.1244584  70.3185236  46.7696737  66.4061338  70.4584394
  45.2506585  66.8235576  69.6304993  45.0109062  66.1634821  71.6502380
  45.5918867  65.6431677  72.4117072  44.8578196  67.6258897  72.0408727
  44.2765120  68.1467926  71.2800570  44.3443928  67.6944920  72.9999282
  45.8427209  68.0856088  72.1228981  43.6649247  65.4653051  71.5626106
  43.8129917  64.4244469  71.2748781  43.1697613  65.5066237  72.5327689
  43.0446832  65.9630740  70.8172076  46.1043196  65.2124920  68.1479691
  46.9473268  66.0387991  67.9487298  45.3050765  64.7272882  67.1887309
  44.0227373  64.0644504  67.4755722  43.3992380  64.7249369  68.0781553
  44.2062132  63.1397401  68.0226979  43.4461828  63.8161078  66.1023104
  42.5388041  64.4100442  65.9927542  43.2001108  62.7579606  66.0135732
  44.4972211  64.2157225  65.0813987  43.9764223  64.6964204  64.2532700
  45.1302177  63.4160831  64.6967016  45.3422943  65.2344222  65.8192084
  46.3830742  65.3119799  65.5047880  44.6806563  66.5991206  65.7195520
  43.4515816  66.6775897  65.5899177  45.4633308  67.6553503  65.8584970
  46.4463190  67.5325911  66.0553817  44.9383388  69.0112933  65.7842418
  43.9226799  68.9990222  65.3887855  44.9490714  69.7290723  67.1554705
  45.0606663  70.8016315  66.9965246  43.6579862  69.4612254  67.8947072
  43.5459101  68.3888334  68.0544418  43.6775394  69.9714010  68.8577437
  42.8182315  69.8300309  67.3057304  46.1470921  69.2994839  68.0105128
  45.9220320  68.3148718  68.4203758  47.0125826  69.2290478  67.3516771
  46.4517120  70.2615497  69.1443237  45.5867881  70.3321567  69.8038850
  47.3100737  69.8980200  69.7092667  46.6773366  71.2463338  68.7351859
  45.7459744  69.8202392  64.7803308  46.6464343  69.2814715  64.1462921
  45.3826373  71.0868221  64.5871493  44.5559591  71.4536103  65.0367813
  46.0062891  71.8801950  63.5308508  46.6587171  71.2417972  62.9351284
  44.9337295  72.5125278  62.5907481  45.1962188  72.4862224  61.5331534
  44.1009544  71.8337905  62.7748712  44.5280604  73.9322635  62.9788937
  45.2776177  74.8921023  62.6638596  43.3794000  74.1033724  63.4420979
  47.0822389  72.8485477  64.0641753  47.0107959  73.3108101  65.1997784
  48.1262869  73.0517064  63.2540862  48.1268810  72.6305087  62.3361039
  49.3322031  73.7371389  63.7004284  49.8232543  73.0357194  64.3749493
  50.2736780  74.0133188  62.5027407  50.4734391  73.0810649  61.9744441
  49.7995164  74.7211852  61.8228907  51.5876858  74.6004007  63.0130814
  52.5076741  73.7890286  63.3010024  51.6589165  75.8546361  63.1101349
  49.0464534  75.0202303  64.5254088  49.8350921  75.3680958  65.4042806
  47.9210403  75.6946334  64.2797834  47.3371883  75.4579576  63.4903527
  47.6067044  76.9058201  65.0359338  48.5104940  77.4280923  65.3497737
  46.7076405  77.8997185  64.2426015  46.9008776  77.7600047  63.1790045
  45.2255549  77.6769174  64.5231132  45.0314478  77.8169226  65.5865144
  44.6352339  78.3913931  63.9494007  44.9489837  76.6629343  64.2342389
  47.1087215  79.3429421  64.5571484  48.1496160  79.5010539  64.2749406
  46.4727020  80.0278058  63.9963092  46.9898834  79.5292129  65.6245198
  47.0423898  76.6244795  66.4337452  47.3341985  77.3474918  67.3730226
  46.2492680  75.5721005  66.5657836  46.0175839  75.0464404  65.7350591
  45.7774919  75.0690021  67.8620414  45.2856754  75.8578047  68.4312568
  44.7636495  73.9506217  67.5981818  44.9317678  73.8135988  66.5299776
  45.1289486  73.0769537  68.1379604  43.2806907  74.1207295  67.8579615
  42.7038681  73.8588244  66.9709540  42.9100214  73.1816331  69.0003617
  43.4861433  73.4432326  69.8879134  41.8460502  73.2753923  69.2177906
  43.1324861  72.1539152  68.7132976  42.8921693  75.5728921  68.1304332
  43.1521623  76.1870104  67.2682489  41.8187811  75.6348801  68.3095884
  43.4279701  75.9343427  69.0081404  46.8852990  74.3951709  68.6783802
  46.8978690  74.4822564  69.9068980  47.7748344  73.6748720  67.9995965
  47.6661833  73.5495986  67.0033029  48.8916890  72.9937116  68.6698996
  48.5308863  72.3290133  69.4548180  49.6326346  72.1548355  67.6187323
  48.8911459  71.4577759  67.2283456  49.9181388  72.8571025  66.8355284
  50.8594551  71.3837843  68.0794617  51.4011906  71.0739437  67.1858050
  51.4761499  72.0723556  68.6570940  50.5352496  70.1576711  68.9280159
  51.4218124  69.9339841  69.5213705  49.7150931  70.4333917  69.5909042
  50.1507419  68.9479128  68.1789781  49.2406739  68.5696627  68.3998909
  50.9229699  68.2863474  67.3111803  52.1024820  68.7591976  66.9317255
  52.4332557  69.6388383  67.3017540  52.6645539  68.2374882  66.2744629
  50.4660595  67.1732972  66.7541513  49.5432645  66.8366154  66.9890870
  51.0429023  66.6672264  66.0974600  49.8210341  74.0076301  69.3524248
  50.3679116  73.7294942  70.4427365  49.9777261  75.1913073  68.7363989
  49.4792926  75.4159960  67.8871768  50.8051665  76.2354508  69.3552855
  51.6509024  76.0432770  70.0155123  51.0428255  77.5657159  68.5817720
  50.2607318  78.2655506  68.8761546  52.4139448  78.1840549  68.8664374
  53.1966102  77.4849401  68.5718631  52.5209997  79.1086114  68.2991321
  52.5019160  78.3995249  69.9313003  50.3024341  77.7286303  67.2495856
  50.6088562  76.9077981  66.6011715  49.2349852  77.6493396  67.4554138
  50.5890815  79.0572122  66.5572957  51.6563460  79.1370273  66.3507140
  50.0335558  79.1068103  65.6207967  50.2824768  79.8785692  67.2049578
  50.1709004  76.7930618  70.6156595  50.8704442  77.2518319  71.5247846
  48.8424578  76.7592175  70.6717205  48.3332379  76.4677954  69.8496088
  48.0768216  77.2159196  71.8400006  48.3855074  78.2259074  72.1096986
  46.5757179  77.2283556  71.5326000  46.4633457  76.9284168  70.4907227
  46.1142536  76.4803373  72.1772855  45.8941081  78.5772732  71.7498933
  46.0711602  78.8649754  72.7862238  46.3190142  79.3306247  71.0865545
  44.3881799  78.5120360  71.5124184  43.6500479  77.9381670  72.3132208
  43.9309626  79.0650146  70.3865046  42.9415601  79.0472316  70.1843466
  44.5765751  79.4985931  69.7420702  48.3481827  76.4068862  73.0893989
  48.6952701  76.9810062  74.0998055  48.1844742  75.0789472  73.0229262
  47.9498087  74.6854010  72.1228413  48.4640543  74.1599004  74.1327125
  47.7080646  74.2591686  74.9116377  48.4387007  72.7299332  73.6093348
  48.7278497  72.8546915  72.5658180  49.2509151  72.2509166  74.1560988
  47.1996394  71.8663173  73.6889947  46.3901137  72.4329810  74.1490611
  46.7870646  71.4398938  72.2862730  47.5959633  70.8727424  71.8257071
  45.8940812  70.8174359  72.3430840  46.5754629  72.3238920  71.6847147
  47.4974812  70.6447106  74.5349192  47.7894672  70.9585084  75.5371041
  46.6074332  70.0184367  74.5957209  48.3100722  70.0772926  74.0812324
  49.8898495  74.3331334  74.6216086  50.1963187  74.3581874  75.8317317
  50.7730997  74.3540468  73.6297071  50.4546177  74.2176596  72.6809885
  52.1858354  74.5339470  73.8575094  52.5827033  73.7106952  74.4515224
  52.9258272  74.5629501  72.4929289  52.2904764  73.8128031  72.0220701
  52.7323588  75.5365920  72.0427162  54.4169746  74.1832150  72.2833321
  54.5236755  73.8910260  71.2386593  55.4248456  75.3111003  72.6085350
  55.3190537  75.6035205  73.6532346  56.4396076  74.9541290  72.4326651
  55.2269493  76.1713997  71.9691428  54.7482183  72.8785882  72.9978414
  54.1229817  72.0781692  72.6022303  55.7977898  72.6321505  72.8373131
  54.5611471  72.9909620  74.0657718  52.4350168  75.8390644  74.6314158
  53.2375976  75.8595839  75.5998434  51.7258554  76.9016701  74.2422832
  51.2353716  76.8947000  73.3594036  51.8168559  78.1608681  74.9728743
  52.8643450  78.3636115  75.1959460  51.2485569  79.3404399  74.1765479
  50.4646642  78.9570198  73.5234014  50.8166991  80.0464380  74.8858896
  52.3148998  80.0515537  73.3324383  53.1384040  80.3214650  73.9935659
  52.6695209  79.3469080  72.5802280  51.7851242  81.3024857  72.6456231
  51.2628696  81.9042758  73.3893957  52.6349256  81.8634666  72.2567305
  50.8339405  80.9678472  71.5054619  51.3622537  81.1243622  70.5649892
  50.5534563  79.9182579  71.5937245  49.6065743  81.8138662  71.5323846
  49.8662285  82.7864511  71.4501775  49.0054386  81.5595673  70.7616265
  49.1166545  81.6686631  72.4035871  51.2573214  78.0672815  76.3967351
  51.6315976  78.8744870  77.2417756  50.3985195  77.0766071  76.6668049
  50.1110421  76.4590672  75.9210834  49.7476826  76.9400518  77.9705092
  49.4911595  77.8981056  78.4226464  48.4900508  76.0818639  77.8488840
  48.5813724  75.4451379  76.9689176  48.3086751  75.2131108  79.0873298
  48.2168102  75.8491904  79.9677071  47.4071420  74.6099670  78.9798290
  49.1721310  74.5577785  79.2017095  47.2935826  77.0049064  77.5712649
  47.1540073  77.6154296  78.4633865  47.5770598  77.6439586  76.7349919
  45.9982635  76.2872344  77.2423695  45.7138831  75.6482976  78.0784241
  45.2118882  77.0201569  77.0619876  46.1369365  75.6768244  76.3500302
  50.7155439  76.4287811  79.0540525  51.4605172  75.4342959  78.8524990
  50.7278583  77.1307796  80.1902015  49.9828739  77.7793712  80.4009777
  51.8104465  76.9838472  81.1560315  52.6625485  76.5605132  80.6242332
  52.0642203  77.9826098  81.5112379  51.4877312  76.1091861  82.3406516
  52.3898105  75.6370550  83.0313592  50.1930167  75.8143461  82.5196624
  49.4785881  76.2831473  81.9812233  49.7813869  74.8729565  83.5237623
  50.5994404  74.7089631  84.2251850  48.5749414  75.3855767  84.2953443
  48.8240479  76.3407484  84.7576127  47.7405728  75.5220985  83.6073829
  48.2115304  74.4577148  85.2980480  47.4499868  74.7889307  85.7796568
  49.4575008  73.4956094  82.9516454  48.7311984  73.3619567  81.9542956
  49.9348282  72.4702847  83.6599208  50.6186558  72.6442460  84.3825663
  49.5345404  71.1046891  83.4101062  49.8325770  70.7964884  82.4079656
  50.1949624  70.1823369  84.4174786  49.8988114  70.4727247  85.4254814
  49.8829138  69.1550301  84.2294179  51.2783236  70.2556396  84.3223246
  48.0263411  70.9809853  83.4946413  47.4372218  70.3847603  82.6185253
  47.4099267  71.5634150  84.5312043  47.9629313  72.0834205  85.1974472
  45.9672199  71.4502468  84.7636440  45.6547221  70.4082805  84.8325684
  45.5437259  72.1949312  86.0332202  45.6178060  73.2700791  85.8699118
  44.1160842  71.8339726  86.3654944  44.0412976  70.7589652  86.5294051
  43.8083045  72.3609649  87.2686287  43.4663530  72.1209844  85.5387098
  46.4927242  71.8992260  87.2231717  47.4976939  71.8219689  86.8082405
  46.4393127  72.7628008  87.8861087  46.1712530  70.6406264  88.0060971
  46.2249228  69.7765138  87.3438819  46.8909349  70.5222229  88.8161204
  45.1665400  70.7173450  88.4217483  45.1691589  71.9952214  83.5902066
  44.2777844  71.3269103  83.0818614  45.5016477  73.2176740  83.1699023
  46.2867843  73.6797928  83.6059138  44.8584250  73.8713253  82.0210095
  43.7932794  73.9945762  82.2169004  45.4720217  75.2495619  81.7712359
  46.5330542  75.0602298  81.6085625  45.0186384  75.5955989  80.8423645
  45.3083632  76.3008556  82.8292862  44.2660402  76.5506588  83.0274323
  45.7619101  75.8934801  83.7328582  46.0480110  77.5721605  82.4452041
  47.2692830  77.5585517  82.2161180  45.3023249  78.6635185  82.2836857
  45.7399916  79.5372144  82.0283335  44.3024936  78.6125856  82.4172690
  45.1379621  73.1294841  80.7163576  44.3553218  73.2090225  79.7558532
  46.2926524  72.4561085  80.6716182  46.9852993  72.5737962  81.3972139
  46.6348180  71.6439738  79.5195032  46.3881472  72.2011600  78.6157353
  48.1254615  71.2686213  79.4739233  48.6676445  71.9323453  80.1474270
  48.2311616  70.2391575  79.8161685  48.6974502  71.3971617  78.0632202
  48.0730524  70.8003732  77.3983354  48.6338659  72.4466415  77.7757288
  50.1248997  70.9347589  77.9591016  50.3003988  70.1209715  78.6626988
  50.3264106  70.5879060  76.9455998  51.0384979  72.0246325  78.2693127
  51.1472925  72.7436639  77.5684154  51.7172603  72.1391763  79.4057445
  51.6210993  71.2116871  80.3543808  51.0253626  70.4085162  80.2125556
  52.1442617  71.3148846  81.2121402  52.5124296  73.1846574  79.5891569
  52.5962903  73.8845252  78.8657950  53.0304593  73.2761474  80.4513480
  45.7378430  70.4102165  79.4507670  45.0980404  70.1686788  78.4422988
  45.6646905  69.6615598  80.5409610  46.2407375  69.9085612  81.3329581
  44.7986196  68.4798925  80.6511594  45.0864020  67.7209771  79.9236101
  44.9497356  67.8990315  82.0420761  44.7607418  68.7514118  82.6946313
  44.1515098  67.1664883  82.1617258  46.2776892  67.2644232  82.4113209
  47.0417840  67.7034632  81.7698352  46.6610036  67.4742843  83.8774346
  45.8975589  67.0350722  84.5195746  47.6202798  66.9958076  84.0747922
  46.7386656  68.5417095  84.0840075  46.1752486  65.7909088  82.1012932
  45.9701276  65.6559342  81.0393108  47.1146771  65.2996113  82.3546745
  45.3668518  65.3514808  82.6856704  43.3340131  68.8047504  80.4083690
  42.6646549  68.0771856  79.6907256  42.8356679  69.8770383  81.0293689
  43.4135176  70.3686091  81.6961127  41.4550484  70.3249550  80.8449201
  40.7726199  69.5260079  81.1348756  41.1504064  71.5750746  81.7100122
  42.1060716  71.9771268  82.0464006  40.6572709  72.3028143  81.0655649
  40.2612091  71.2843365  82.9269122  39.2679372  71.0418465  82.5491417
  40.6802446  70.4134680  83.4309949  40.1603371  72.4458795  83.9161370
  39.3994803  72.2025686  84.6577539  41.1246567  72.5628711  84.4106065
  39.8032008  73.7166533  83.2757867  40.5709665  74.3271014  83.0349794
  38.5615676  74.1073323  82.9792146  38.3547993  75.2964616  82.4134272
  39.1395355  75.8990780  82.2105909  37.4143458  75.5893826  82.1901693
  37.5326611  73.3093029  83.2283719  37.6899902  72.4024284  83.6442161
  36.5962131  73.6118835  83.0011960  41.1675974  70.6002264  79.3696010
  40.3593427  69.9126715  78.7413610  41.8471124  71.5955955  78.8212738
  42.4439471  72.1774056  79.3916987  41.6946875  71.9330449  77.4196759
  40.6982833  72.3334639  77.2327466  42.7259571  72.9923901  77.0372576
  42.2612578  73.9772338  76.9899639  43.5407285  73.0100465  77.7610918
  43.4845400  72.7265068  75.4451197  44.2708222  73.7984528  75.4849986
  41.8026201  70.7038533  76.5008770  41.0688212  70.5842763  75.5135110
  42.7114258  69.8015197  76.8411012  43.3041799  69.9898371  77.6368891
  42.8684495  68.5161691  76.1432054  43.1078630  68.6796388  75.0924638
  44.0203470  67.7256294  76.7935047  44.1996800  68.1837002  77.7661865
  43.6568042  66.7076060  76.9333801  45.3155508  67.6958263  76.0020327
  45.2726997  66.8142846  75.3623854  45.3613770  68.5916025  75.3826911
  46.5593306  67.6236815  76.8848985  47.6202790  68.1272897  76.4610975
  46.4862416  67.0500479  77.9885056  41.6578831  67.5833117  76.2137736
  41.3683334  66.8777990  75.2699506  40.9942408  67.5358006  77.3606911
  41.3475545  67.9911884  78.1900829  39.7594697  66.7614766  77.4681275
  39.9307657  65.7523018  77.0935304  39.2951000  66.6718785  78.8939178
  39.6937900  67.5544281  79.3941695  38.2075256  66.6739127  78.9665653
  39.8403386  65.4307582  79.5544723  40.8431607  65.2290939  79.1779350
  39.8969687  65.6399871  81.0586379  38.8943771  65.8412583  81.4359955
  40.2910726  64.7429219  81.5361911  40.5461317  66.4860643  81.2841178
  38.9970742  64.2212039  79.1779385  39.0159485  64.0869468  78.0964034
  39.4008965  63.3314874  79.6610879  37.9695266  64.3775973  79.5062462
  38.6827976  67.3553826  76.6081589  37.8965108  66.6253941  76.0144704
  38.6526013  68.6869077  76.5339971  39.2750849  69.2414076  77.1042105
  37.6716564  69.3786375  75.7092536  36.6740011  69.1066961  76.0539723
  37.8124631  70.9121095  75.7693470  37.2052159  71.2648885  76.6029519
  38.8598103  71.1476989  75.9581894  37.3493281  71.6167871  74.4527649
  36.4627862  71.0888817  73.7226565  37.8879401  72.7056464  74.1512127
  37.7438638  68.8987282  74.2614615  36.7506298  68.4349223  73.7022215
  38.9268527  68.9919227  73.6712640  39.6906307  69.4198916  74.1748364
  39.1523819  68.5830427  72.2928425  38.5309929  69.1578557  71.6061367
  40.6288988  68.8088033  71.9553990  41.2364787  68.4316535  72.7780198
  41.0075650  68.1015819  70.6902932  40.4006858  68.4785534  69.8670734
  42.0612525  68.2795033  70.4753807  40.8366767  67.0313610  70.8065844
  40.8879378  70.3064249  71.8099568  41.1661658  70.4888422  70.7719713
  39.9527282  70.8209687  72.0306994  41.9736745  70.8250153  72.7197918
  42.9093639  70.3112323  72.4993099  42.1013741  71.8957077  72.5603871
  41.6959270  70.6433565  73.7580385  38.7257909  67.1356396  72.0344451
  38.0927275  66.8484440  71.0211877  39.0535013  66.2396556  72.9678666
  39.5176592  66.5488922  73.8099054  38.7460765  64.8077280  72.8265072
  39.1830073  64.4238946  71.9046273  39.3193471  64.0267152  73.9976655
  39.0992189  64.6106686  74.8913328  38.7708074  63.0855412  74.0350228
  40.7828648  63.7466098  73.9352575  41.0143011  63.1693930  73.0400710
  41.3413350  64.6825122  73.9179411  41.2591828  62.8013928  75.3870137
  42.8767336  63.4987188  75.6982801  42.7826692  64.5694648  75.8792608
  43.3170471  63.0202004  76.5730628  43.5175663  63.3320210  74.8324587
  37.2456921  64.5131544  72.8031376  36.8054935  63.5920711  72.1341513
  36.4743080  65.2826746  73.5585342  36.8838532  65.8630209  74.2765664
  35.0266089  65.1984245  73.4840344  34.7193692  64.1744832  73.2713205
  34.4176090  65.6234938  74.8191300  34.8281972  66.6076561  75.0448311
  33.3310064  65.6880232  74.7622900  34.7934548  64.6620367  75.9569219
  35.9740662  64.4295196  76.2349964  33.7875690  64.0520511  76.5705385
  33.9763796  63.4089733  77.3261186  32.8376839  64.2336024  76.2792340
  34.4728056  65.9627334  72.2890433  33.6864391  65.4169741  71.5237051
  34.9287133  67.2013419  72.0969861  35.6499166  67.5485320  72.7129603
  34.3470623  68.1275667  71.1115487  33.2708580  67.9822993  71.2052551
  34.6896642  69.6263044  71.4871152  34.3850543  69.8225400  72.5151247
  35.7628926  69.7897095  71.3892390  33.9445850  70.5687497  70.5478185
  34.2490378  70.3734096  69.5195911  32.8711996  70.4062430  70.6454776
  34.2747175  72.0129347  70.9097127  33.9701097  72.2091709  71.9377226
  35.3479455  72.1763389  70.8118345  33.5296360  72.9553795  69.9704166
  33.8340874  72.7600395  68.9421889  32.4562520  72.7928736  70.0680790
  33.8478639  74.3474786  70.3192580  34.8423856  74.4983863  70.2284112
  33.3543996  74.9716557  69.6971681  33.5654414  74.5288157  71.2718615
  34.7273643  67.8445111  69.6414998  34.0442029  68.2940126  68.7128745
  35.7847378  67.0600150  69.3999998  36.2745685  66.6295295  70.1712634
  36.2648066  66.7995422  68.0396305  35.6978902  67.3936932  67.3229090
  37.7619117  67.1811206  67.9246548  38.2109548  67.1754985  68.9178455
  38.2702663  66.4530571  67.2925163  38.1303026  68.8024767  67.2174218
  39.4528263  68.6981835  67.3120379  36.1357191  65.3126562  67.6151644
  37.1408276  64.5868974  67.4563404  34.9244799  64.9443681  67.2308305
  34.1554660  65.5948487  67.3056105  34.6430051  63.5891414  66.7570293
  35.1711722  62.8588254  67.3700360  33.1566308  63.3196143  66.8564049
  32.8857957  62.5594759  66.1236442  32.7930968  62.8343042  68.2450165
  33.0632292  63.5941609  68.9783281  31.7206195  62.6463274  68.2955768
  33.3335591  61.9128141  68.4614812  32.4569236  64.5355827  66.5836788
  31.5113318  64.3808350  66.6429215  35.1175294  63.2984798  65.3137631
  35.5064349  62.1584049  65.0250700  35.0580265  64.2734518  64.4212884
  34.9037534  65.2239043  64.7261479  35.3004467  64.0278290  62.9762276
  35.2415985  62.9606751  62.7621748  34.2491777  64.7486151  62.1465591
  33.8427620  64.0603770  61.4054425  33.4479539  65.0912905  62.8013217
  34.8352650  65.8717841  61.4828219  34.1655589  66.3208017  60.9617878
  36.6120706  64.5935190  62.4751371  37.0666172  65.5966633  62.9779063
  37.1424253  63.9955729  61.4073495  36.6235989  63.2418025  60.9798584
  38.4283969  64.4014883  60.7914373  38.7468649  65.3537616  61.2155278
  39.5234566  63.3620281  61.0456632  39.0319383  62.4286419  60.7712559
  40.3488846  63.5526910  60.3597942  40.0583406  63.2545194  62.4639421
  39.2454529  63.4752360  63.1557503  40.6082143  61.8623956  62.7540233
  41.4215046  61.6411339  62.0628641  40.9814027  61.8245706  63.7774491
  39.8154124  61.1248023  62.6294368  41.1116295  64.3393508  62.6728068
  40.6595190  65.3194860  62.5210489  41.5047415  64.2742854  63.6873661
  41.9238488  64.2000590  61.9593668  38.2535196  64.5058876  59.2800645
  37.9136723  63.5485144  58.6052777  38.5207028  65.6742463  58.7646918
  38.9654907  66.3790070  59.3352839  38.0999347  66.0428731  57.3986034
  37.6170969  65.2021507  56.9004540  37.0872230  67.2037475  57.5004834
  37.6188265  68.1520003  57.5799416  36.4507671  67.2176438  56.6157061
  35.9199078  67.1315564  58.9845026  35.2612038  68.2508533  58.6978287
  39.3199414  66.3679032  56.5485156  40.4277285  66.5788964  57.0595026
  39.1335610  66.3329432  55.2384999  38.2408522  66.0008938  54.9024740
  40.1209921  66.7700469  54.2599049  41.0301214  66.1700138  54.2991932
  39.4604317  66.5741484  52.8800390  39.2957935  65.5071913  52.7297189
  38.5013623  67.0920876  52.8850168  40.3340535  67.1553841  51.4172742
  39.4070879  66.7765078  50.5420110  40.4181078  68.2444413  54.5068307
  39.4916326  69.0384600  54.4980529  41.6712406  68.6033330  54.8137719
  42.4378975  67.9458742  54.8045761  41.9309619  69.9547265  55.2655256
  41.1891576  70.2290737  56.0155650  43.3131630  70.0903801  55.8780354
  43.2626209  69.7023295  56.8953660  43.9962422  69.4778199  55.2895858
  43.8196325  71.5332009  55.9076962  43.8664788  71.8895190  54.8786463
  43.0954547  72.1275620  56.4648348  45.1882356  71.6681921  56.5526969
  45.5091926  70.6877613  56.9046075  45.8936293  72.0348043  55.8069659
  45.1406405  72.6425751  57.7318052  46.1710181  72.8267481  58.0359483
  44.7000397  73.5689324  57.3632507  44.3509552  72.1470129  58.9118480
  44.7593188  71.2888624  59.2537787  44.3671813  72.8426795  59.6438895
  43.3960498  71.9766995  58.6303375  41.7342125  70.9385854  54.1054255
  41.2318508  72.0536001  54.3054975  42.1012358  70.4955394  52.8985414
  42.4693496  69.5572864  52.8331737  42.0765726  71.3109813  51.6965359
  42.5837632  72.2627571  51.8545855  42.8157664  70.5385671  50.5985311
  43.8467201  70.8921019  50.6142399  42.7878939  69.4883333  50.8889311
  42.2549891  70.6898508  49.2100729  42.8900477  70.1430992  48.5130333
  41.2429240  70.2869494  49.1713854  42.2140149  72.1250374  48.7939724
  41.1541589  72.6541315  48.4254258  43.3666746  72.7737209  48.8312604
  43.4041985  73.7463953  48.5618205  44.2036676  72.2932006  49.1289923
  40.6341939  71.6984831  51.2655312  40.3108083  72.8857865  51.2041019
  39.7812335  70.7153616  50.9696400  40.0791175  69.7510425  51.0077604
  38.4292669  71.0035625  50.5044300  38.3904988  71.9858864  50.0336476
  38.0186943  69.9601900  49.4832169  37.0809982  70.2305947  48.9977208
  38.7918608  69.8218943  48.7274471  37.7474911  68.3327925  50.2273696
  37.4211424  67.7150642  49.0956423  37.4474367  71.0689808  51.6886225
  36.2342524  71.2683434  51.5214749  38.0059722  70.8685065  52.8747140
  38.8792631  70.3615039  52.8949813  37.3819118  71.2346056  54.1561374
  38.0695652  71.0467750  54.9807292  37.0316632  72.7239686  54.1411768
  37.5969261  73.1811208  53.3290260  35.9651630  72.8034273  53.9305501
  37.3461713  73.4439024  55.4463917  36.5213608  73.3255754  56.1490917
  38.2445407  72.9866816  55.8611009  37.6053013  74.9318944  55.2458836
  38.2640194  75.3213149  54.2829110  37.0554361  75.7729729  56.1369370
  37.2004602  76.7681427  56.0436282  36.4993977  75.4064925  56.8962885
  36.1601362  70.4160230  54.5858304  36.1699167  69.7495847  55.6302940
  35.1036707  70.4585073  53.7830623  35.1228678  71.0086230  52.9362426
  33.8118126  69.8388649  54.1940670  33.8186191  69.6978751  55.2748883
  32.5789026  70.7169852  53.8133946  32.7225932  71.0131503  52.7742900
  31.7058885  70.0686724  53.8884747  32.3605532  71.9797105  54.6845423
  33.3360458  72.2737585  55.0719061  31.9869125  72.7552002  54.0158813
  31.3804246  71.7956177  55.8527875  31.0542938  72.8014069  56.5413976
  30.9307087  70.6569361  56.0801897  33.6656827  68.3909216  53.6879798
  32.5705652  67.9281330  53.3680152  34.7549441  67.6358522  53.6983692
  35.6359364  68.0762118  53.9220549  34.7478027  66.1859942  53.4207366
  33.7484360  65.8153028  53.1928038  35.7121872  65.8409894  52.1947345
  36.7038354  66.2328745  52.4209210  35.8058315  64.3155901  51.9399219
  34.8145685  63.9230430  51.7131971  36.4718520  64.1275827  51.0978002
  36.1970460  63.8214798  52.8292513  35.2980817  66.5001813  50.9825993
  35.8997960  66.2692003  50.2711304  35.2584868  65.3729339  54.6560890
  36.4110306  65.4600714  54.9984919  34.4295426  64.4365647  55.1355400
  33.4585914  64.4511112  54.8577964  34.8349230  63.5151705  56.2160896
  35.5332755  64.0488931  56.8607159  33.6547590  62.9746706  57.0950792
  33.2392061  63.8219719  57.6405107  32.9004028  62.5737638  56.4180854
  34.0862746  61.8695540  58.1039066  34.0070513  60.9451092  57.5318697
  35.1282000  62.0405944  58.3745280  33.2324639  61.7553444  59.3883678
  33.7403653  61.1809854  60.3722428  32.0511746  62.1804986  59.4120207
  35.7575202  62.3686236  55.7092378  35.4734119  61.6122908  54.7409873
  36.8776576  62.2409682  56.3701934  37.1716478  62.9373203  57.0400911
  37.7866664  61.1170430  56.0866724  37.5841793  60.6304797  55.1325475
  39.2485908  61.6138972  56.1106889  39.4155945  62.1335280  57.0541898
  40.2509047  60.4624117  55.9777487  40.0848122  59.9425575  55.0342099
  41.2658928  60.8591761  55.9996111  40.1159755  59.7652758  56.8047281
  39.4851497  62.6985072  55.0046916  38.9251271  63.5761501  55.3275204
  40.5522684  62.9190861  55.0311874  39.0758159  62.3293045  53.5757157
  38.0086570  62.1090276  53.5483345  39.2912690  63.1637977  52.9084075
  39.6357971  61.4519616  53.2520023  37.5366568  59.9836088  57.0873403
  37.3735120  58.8174940  56.7052054  37.5055966  60.3395134  58.3593408
  37.6059349  61.3155216  58.5990062  37.5248430  59.3540530  59.4409037
  36.7993828  58.5583690  59.2715118  38.9672386  58.7026573  59.5925199
  39.5076724  58.8561420  58.6584567  39.7522183  59.3082069  60.7338636
  39.2125965  59.1546991  61.6683920  40.7299529  58.8305312  60.7967938
  39.8808740  60.3766102  60.5604775  38.8791076  57.2742105  59.7864934
  39.7621916  56.9081933  59.8747796  36.9300597  59.9763188  60.7524525
  36.5666889  61.1631063  60.8077619  36.7605335  59.1472259  61.7702025
  37.1492560  58.2171308  61.7076152  36.1667120  59.5648697  63.0354162
  35.8862055  60.6177804  63.0072307  34.9318297  58.7454220  63.2841106
  34.1831936  59.3858325  63.7504995  34.3476355  58.1424942  61.9415722
  35.0955908  57.5015568  61.4748157  33.4555877  57.5568010  62.1636382
  34.0890078  58.9534896  61.2607648  35.3035568  57.6947901  64.1698293
  34.5379024  57.1458388  64.3542910  37.0454145  59.2178844  64.2244490
  38.0271605  58.4838451  64.0709751  36.6721384  59.7243518  65.4044328
  35.9429424  60.4221173  65.4431092  37.3688319  59.3811459  66.6420809
  38.4303446  59.5734387  66.4861530  36.9069659  60.1582551  67.8797004
  37.0681330  61.2167204  67.6753098  35.8400237  59.9702532  67.9996581
  37.6518479  59.7639307  69.1847338  38.1384315  58.8048824  69.0070725
  38.4087080  60.5254666  69.3726914  36.7048055  59.6471847  70.4342177
  36.6177495  60.6460875  70.8616676  35.7310982  59.3239479  70.0660988
  37.1999473  58.6579973  71.5262986  36.4363723  57.8826245  71.5883534
  38.1227270  58.2281153  71.1367113  37.4512215  59.2258869  72.8989303
  36.5961711  59.6238925  73.2602889  37.7668918  58.4903710  73.5149405
  38.1590447  59.9440874  72.8417171  37.2552785  57.9084500  66.8515047
  38.2513729  57.2768741  67.1084226  36.0541884  57.3522145  66.6919880
  35.2631490  57.9600766  66.5343181  35.8094149  55.9059650  66.8143779
  35.7740380  55.6333297  67.8691374  34.4488437  55.4971515  66.1443805
  34.5803961  55.3542378  65.0718280  34.1662959  54.5503340  66.6046014
  33.3042166  56.5200761  66.3716446  32.6988041  57.0258435  65.4008382
  32.9651773  56.7775796  67.6432736  32.2258440  57.4363360  67.8420856
  33.4507022  56.3115915  68.3964147  36.9447053  55.0468948  66.2321087
  37.2984220  54.0166802  66.7967717  37.4949507  55.4792471  65.0989170
  37.1822187  56.3525650  64.6993998  38.4061788  54.6474674  64.3176470
  38.2434676  53.5967282  64.5575875  38.1661522  54.8510403  62.8085455
  38.6124506  55.8106383  62.5476074  38.7005982  54.0510444  62.2962233
  36.6604737  54.8383745  62.3692360  36.2503326  55.4187619  63.1956956
  36.5006744  55.3754221  61.4342798  35.9404696  53.4434440  62.3012287
  35.5204380  53.0452446  61.1737320  35.6311230  52.8197079  63.3712936
  39.8868879  54.7942876  64.7088302  40.7015238  53.9418713  64.3610933
  40.2213728  55.8180207  65.4445892  39.5033474  56.4686078  65.7296774
  41.5699001  56.0311553  65.9241826  42.3365015  56.0682149  65.1502007
  41.5678005  57.3311026  66.6927850  40.6485166  57.3938588  67.2750900
  42.7575476  57.4081553  67.6207126  43.6772725  57.3459261  67.0390475
  42.7348930  58.3530121  68.1636981  42.7200758  56.5811984  68.3298228
  41.4937037  58.5179989  65.7223481  42.3831489  58.4859309  65.0930948
  40.6064802  58.3835917  65.1035843  41.4202774  59.8651238  66.4285746
  42.3074476  60.0004574  67.0472130  41.3699718  60.6624271  65.6870383
  40.5307794  59.8981172  67.0577047  41.9874491  54.9321894  66.8877098
  41.2796820  54.6282727  67.8303282  43.1467475  54.3522665  66.6598902
  43.6305866  54.4935256  65.7846503  43.7809450  53.4953323  67.6790424
  43.4559603  53.7957353  68.6751559  43.3923521  52.0695528  67.4598567
  43.6898913  51.3798636  68.2497292  42.3059278  52.0733194  67.3717208
  43.9256735  51.5061923  66.1742617  43.2840663  51.7798551  64.9734545
  42.3946425  52.4099323  64.9787458  43.7521504  51.2724111  63.7994278
  43.2132764  51.4390161  62.8667123  44.9165073  50.5439586  63.7991304
  45.2963098  50.1391945  62.8610387  45.6033084  50.3234193  64.9725987
  46.5325228  49.7537366  64.9615370  45.1202774  50.8182350  66.1490996
  45.6792658  50.6701313  67.0730570  45.2867383  53.5529803  67.6320417
  45.8608629  53.9189141  66.6048093  45.8719913  53.1430735  68.7480387
  45.3011158  52.6991065  69.4530876  47.3120885  53.3017154  69.0136356
  47.6943495  54.1779037  68.4899278  47.5539782  53.4890521  70.5370267
  46.7388556  52.9938639  71.0647226  48.4963414  53.0005448  70.7848414
  47.6112464  54.8572992  70.9292933  47.7617683  54.9127848  71.8757944
  48.0570286  52.0905903  68.5504714  48.1868817  51.1481376  69.3047891
  48.5059245  52.0810035  67.3009733  48.2323631  52.7929431  66.6388512
  49.4072643  51.0549978  66.8626267  48.9946103  50.0771132  67.1107344
  49.6215262  51.1233684  65.3716175  49.3625177  52.1454001  65.0950946
  50.6872484  50.9624980  65.2089616  48.8315306  50.1568713  64.5220387
  47.8511909  50.5811096  64.3051130  49.5706017  49.9032772  63.2231468
  50.5509202  49.4785762  63.4392564  49.0000685  49.2055743  62.6101189
  49.6930327  50.8430655  62.6847148  48.6256108  48.8450254  65.2458395
  48.0803026  49.0225877  66.1727753  48.0540400  48.1661151  64.6129977
  49.5938666  48.3995446  65.4741518  50.7217205  51.2483320  67.5429714
  51.3721946  50.2962290  67.9156432  51.1397479  52.4893064  67.6377478
  50.5934875  53.2451404  67.2499153  52.3777541  52.8115344  68.3011283
  53.1030883  52.0245212  68.0947313  52.9668284  54.1646861  67.8273202
  53.1943463  54.0823159  66.7645173  52.2108204  54.9353302  67.9778507
  54.1642731  54.5189307  68.5489218  54.4954324  55.3601390  68.2259636
  52.0960463  52.8990807  69.7613643  51.0360653  53.3148090  70.1702425
  53.0942268  52.5712423  70.5687004  53.9691220  52.2165806  70.2097119
  52.9450267  52.6994938  71.9831020  52.1020555  52.0827033  72.2946599
  54.1914385  52.2657257  72.7757038  54.1891379  51.1858198  72.6277267
  55.1258337  52.6815884  72.3987902  54.0580245  52.5827851  74.3013591
  53.0351138  52.9131690  74.4819168  54.3716534  51.3756402  75.1980441
  55.3946217  51.0449546  75.0183731  54.2610512  51.6610002  76.2441978
  53.6821513  50.5631696  74.9687433  54.8717897  53.8275913  74.7083083
  54.5162372  54.6933534  74.1496152  54.7491025  54.0094254  75.7760093
  55.9261257  53.6612425  74.4873949  52.6525531  54.1657865  72.2551864
  51.8020564  54.5036144  73.0481711  53.3372788  55.0298249  71.5461635
  54.0814114  54.7256630  70.9347295  53.2423307  56.4115540  71.8544096
  53.2042449  56.5318379  72.9370825  54.4029363  57.1832679  71.3304799
  54.8242199  56.8032347  70.3997844  54.2378190  58.2570653  71.2421888
  55.6810075  56.9763968  72.5771725  56.6014258  57.7079250  71.9554050
  51.9297461  57.0447084  71.6029218  51.6021004  57.9835339  72.3180944
  51.1514585  56.5755583  70.6477027  51.4556399  55.8693707  69.9928194
  49.8158042  57.0844790  70.5272979  49.2430460  56.7608137  71.3963710
  49.8613625  58.1733517  70.5078025  49.1425069  56.6111507  69.3063392
  49.7117310  55.8665712  68.5183351  47.9770704  57.1658919  69.0452169
  47.1467145  58.0051545  69.9280433  47.7570736  58.8070275  70.3434488
  46.7494912  57.3943511  70.7387417  46.0641086  58.5171322  69.0097519
  46.3190364  59.5229879  68.6760378  45.1162480  58.5425547  69.5473533
  46.0011334  57.5578187  67.8587885  45.6694622  58.0794416  66.9610120
  45.3478223  56.7054995  68.0454334  47.4375834  57.0824540  67.6806430
  47.5055476  56.0420333  67.3628318  48.1797612  57.9676707  66.6835165
  47.9113139  57.9272929  65.5028130  49.0699518  58.8107468  67.2041011
  49.1544644  58.8597896  68.2093632  49.9448622  59.6379576  66.4007357
  49.9688176  59.2615045  65.3780880  49.4686304  61.0350660  66.3780737
  48.4114266  61.0420439  66.6433484  50.0323044  61.6022644  67.1187880
  49.6470527  61.6544272  65.0399888  50.6731042  62.0023053  64.9204057
  49.4153219  60.9320628  64.2573058  48.5238886  63.0604152  64.9011686
  49.4927770  64.4076120  65.5637953  50.3976476  64.5320025  64.9689547
  48.9079322  65.3268477  65.5311919  49.7646331  64.1869698  66.5960320
  51.3579237  59.6863417  66.9434052  51.5832912  59.8377806  68.1514324
  52.3057628  59.5835473  65.9944182  52.0207629  59.3111048  65.0645529
  53.7218473  59.8506428  66.2344176  53.8987613  60.4867360  67.1017043
  54.4886610  58.5426185  66.4236905  54.3286923  57.8986662  65.5589157
  55.5527244  58.7560678  66.5252217  54.1323546  58.0387077  67.3221441
  54.2430204  60.5902838  65.0074528  53.5824285  60.6587073  63.9886935
  55.4926646  61.0352116  65.0784987  55.9641614  61.0696351  65.9710261
  56.2054291  61.5250340  63.8979705  55.5054218  61.8818007  63.1424531
  57.1155757  62.6960966  64.3183924  57.8281367  62.3521248  65.0680858
  57.6559592  63.0676562  63.4477435  56.5070763  63.4976987  64.7370352
  57.0338642  60.3818002  63.2510419  57.6217305  59.5248878  63.9172644
  56.9875353  60.3479339  61.9180394  56.3053351  60.8963108  61.4140702
  57.8324710  59.4326599  61.1625382  58.6340695  59.0674867  61.8045565
  57.0267018  58.2223294  60.6423746  56.3099998  58.6327694  59.9310544
  57.7093231  57.5500278  60.1226259  56.2810760  57.4506412  61.7272587
  56.9234386  56.5297767  62.5421899  57.9953613  56.3768129  62.4169568
  56.2216087  55.8038397  63.5108210  56.7416129  55.0648120  64.1203581
  54.8531896  55.9848872  63.6566841  54.1631153  55.2968900  64.6232219
  54.7239269  54.7166833  65.1432702  54.1879309  56.9030945  62.8632636
  53.1165199  57.0667778  62.9789644  54.9053773  57.6242390  61.9055026
  54.3928063  58.3470337  61.2707279  58.5370910  60.2154649  60.0455148
  57.9279413  61.1160519  59.4255368  59.8297427  59.9037619  59.7822701
  60.3811598  59.3220016  60.3967563  60.4659474  60.4289482  58.5586027
  59.9441673  61.2963949  58.1543985  61.9707958  60.7231769  58.5687831
  62.3790467  60.4719751  57.5898408  62.2502464  62.1934311  58.8745886
  61.8426668  62.4452784  59.8536456  63.3263308  62.3670470  58.8739703
  61.7814347  62.8186131  58.1146775  62.7237014  59.7511371  59.4180704
  62.5764719  58.7418615  59.0336381  63.7856279  59.9960329  59.3971479
  62.3589711  59.8054757  60.4437994  60.3306718  59.5181999  57.3945597
  60.4797778  58.3253352  57.5521227  60.1465877  60.0983168  56.2101073
  59.8424954  61.0588016  56.1387197  60.2355936  59.3110578  54.9909896
  60.0993239  58.2596041  55.2439224  59.1557241  59.7147732  53.9283035
  59.2167452  58.8631959  53.2506666  58.1398895  59.7991534  54.3143866
  59.4881530  60.9847191  53.1474255  60.1988707  61.8232558  53.6211824
  58.8124885  61.1840958  52.0374956  58.9919996  62.0081079  51.4817262
  58.1170164  60.5123338  51.7456820  61.6525791  59.3732998  54.4511562
  62.5419670  59.9755456  55.0852051  61.9271353  58.6887250  53.3266535
  60.9938500  57.8724987  52.5562690  60.4182097  58.5041990  51.8797387
  60.3150442  57.3485799  53.2291960  61.8970086  56.9530132  51.8412075
  61.4356086  56.6429368  50.9036246  62.0890943  56.0755485  52.4586702
  63.1449480  57.7162167  51.6037868  63.0249267  58.3326307  50.7128728
  64.0256640  57.0838895  51.4915314  63.2939997  58.5913195  52.8130029
  63.9118193  58.2015890  53.6220192  63.8736853  59.9056465  52.3227784
  65.0862934  60.0931601  52.4131179  63.0385523  60.7986700  51.7980910
  62.0818598  60.5399770  51.6033688  63.5115740  62.0795698  51.3254852
  64.5489816  62.0008506  51.0003882  62.6783668  62.5288744  50.1635806
  61.7282839  62.2424803  50.6146017  62.6113114  63.5526932  49.7956151
  62.8614462  61.6645108  48.9781686  63.8903770  61.8784000  48.0923212
  63.9188546  60.8858426  47.2178524  64.6280144  60.8962313  46.3901548
  62.9966444  60.0032608  47.5579536  62.7671136  59.1547998  47.0604303
  62.3900405  60.4265892  48.7111035  61.6750660  59.7799976  49.2198588
  63.6396617  63.1106233  52.4264013  63.9813041  64.2781875  52.1728857
  63.4397336  62.6660346  53.6636990  63.0926720  61.7286067  53.8081861
  63.7075037  63.4957282  54.8393749  63.9920838  62.8170466  55.6434300
  64.5543306  64.1336223  54.5862452  62.5481739  64.3730413  55.3153741
  62.6948450  65.1724159  56.2336305  61.3636432  64.0971113  54.7485692
  61.3782870  63.4179420  54.0011644  60.0813140  64.6948875  55.1168547
  60.2200735  65.7533660  55.3370099  59.0383309  64.5568418  53.9372961
  59.0524672  63.5487497  53.5229897  58.0840983  64.7314835  54.4343277
  59.2184090  65.5712083  52.8121995  59.1799872  66.9283437  53.0938951
  58.8916826  67.2296953  54.1009537  59.4949880  67.8965569  52.1388801
  59.4839339  68.9494306  52.4207252  59.8045373  67.5391683  50.8728475
  60.0769579  68.5932121  49.9851084  60.0080433  69.4576949  50.3968364
  59.8400068  66.1705426  50.5397295  60.1112388  65.8676784  49.5283903
  59.5268420  65.1951442  51.5071543  59.5250589  64.1394260  51.2359422
  59.4561262  64.0470154  56.3523882  59.3627082  62.8252373  56.4545515
  58.9179038  64.8949354  57.2355271  58.8753689  65.8878107  57.0552809
  58.3565057  64.3913492  58.4959287  58.7132255  63.3844527  58.7127457
  58.6171851  65.2743039  59.7142892  57.7598949  65.9246709  59.8880005
  58.8351168  64.3858383  60.9322895  59.6925874  63.7354626  60.7594990
  59.0221036  65.0078744  61.8076223  57.9468233  63.7775200  61.1025396
  59.7783785  66.2396559  59.4939298  59.5552807  66.8901550  58.6482465
  59.9232720  66.8448321  60.3888417  60.6871603  65.6744751  59.2870794
  56.8365045  64.2532948  58.4427948  56.1139955  65.1584956  57.9448387
  56.3420394  63.1498385  58.9894816  56.9307312  62.4599637  59.4340196
  54.8951205  62.8744798  58.8880208  54.3584475  63.7856297  58.6236593
  54.6396180  61.8287581  57.8098712  55.4002569  61.0532342  57.8998175
  53.6506449  61.3787854  57.8968018  54.7428351  62.3705856  56.4179559
  53.9334060  63.3856275  55.9498797  53.2064495  63.8342001  56.4887829
  54.2618730  63.6686666  54.7001124  53.7264452  64.4391159  54.1452936
  55.2657258  62.8862502  54.3471844  55.5894725  62.0696969  55.4062325
  56.4050299  61.3526785  55.3121474  54.3818957  62.4385449  60.2229318
  54.6837244  61.3352967  60.6773191  53.5510330  63.2949503  60.8102740
  53.4320662  64.2362964  60.4641326  52.8417563  62.9112153  62.0089212
  53.4682348  62.2414159  62.5979819  52.4831779  64.1315268  62.8697299
  51.4664303  64.4096102  62.5922537  52.4956921  63.7869223  63.9037469
  53.3999006  65.3455565  62.7266976  54.4033532  64.9918725  62.4898614
  53.0161076  65.9332378  61.8927715  53.4498665  66.2153371  63.9818993
  53.5310930  65.6420583  65.1182419  53.4259287  67.4807182  63.8031631
  51.5902678  62.1288660  61.5249718  50.5766661  62.7141864  61.1076796
  51.6890937  60.8114578  61.5247919  52.5424762  60.3459051  61.7988328
  50.6562367  60.0338488  60.9429099  49.9004313  60.6851054  60.5039086
  51.1451951  59.0759514  59.8798515  51.4269348  59.6419479  58.9919489
  52.3220763  58.3136837  60.3755366  52.0409690  57.7470321  61.2632215
  52.6640564  57.6277912  59.6004881  53.1249832  59.0067572  60.6267139
  50.0646100  58.1911533  59.5154149  50.3662188  57.5788752  58.8403237
  49.8004934  59.3627619  61.9863751  50.2927352  58.9127740  63.0149226
  48.4992406  59.3297530  61.6895764  48.2275562  59.6334513  60.7654258
  47.4649049  58.8545396  62.5892246  47.8246895  58.7830445  63.6156468
  46.3516374  59.8699146  62.5385776  46.8618561  60.8227345  62.6796818
  45.9641664  59.8129893  61.5213629  45.2055106  59.7611951  63.5215921
  44.7885265  58.7563366  63.4546253  45.6626809  60.0251794  64.9450212
  46.0793906  61.0300907  65.0128838  44.8129269  59.9382866  65.6221243
  46.4244276  59.2969633  65.2234876  44.1651614  60.7877415  63.0978847
  43.8283547  60.5676428  62.0848609  43.3155408  60.7474021  63.7795142
  44.6053356  61.7845320  63.1253485  46.9261833  57.5085705  62.1226593
  46.4625593  57.3882741  61.0076375  46.9876453  56.5209449  62.9902733
  47.3466048  56.7063708  63.9159432  46.5971453  55.1552890  62.6610534
  46.8474110  54.9646105  61.6174500  47.5008346  54.2321101  63.5745038
  46.8949007  53.4442939  64.0220415  48.5355116  53.6363415  62.7490058
  49.1421868  54.4235861  62.3014671  49.1680209  52.9961865  63.3640121
  48.0744027  53.0412354  61.9607622  48.2021703  55.0202329  64.5737323
  48.7433295  54.4414527  65.1157291  45.0811104  54.9638577  62.9196248
  44.6553056  55.1269614  64.0324286  44.3124280  54.6748614  61.8821964
  44.7346822  54.6001426  60.9677470  42.8845044  54.5694877  61.9830355
  42.5634467  54.4239539  63.0144622  42.2117974  55.8611129  61.4298080
  41.1305430  55.7237355  61.4190649  42.5604160  57.0475544  62.3013581
  43.6415524  57.1858545  62.3122239  42.0839931  57.9436393  61.9036730
  42.2072349  56.8691980  63.3170125  42.6041952  56.1736504  60.0050643
  42.3112934  55.3473226  59.3573815  42.1013712  57.0847199  59.6806880
  43.6834904  56.3147615  59.9475289  42.3848214  53.2926963  61.2816864
  43.0675607  52.8170119  60.3863198  41.3025191  52.6840328  61.7972991
  40.7468301  53.1561906  62.4961382  40.8969720  51.3423527  61.3791087
  41.7756429  50.7087876  61.2581465  40.0181485  50.7388078  62.3930548
  39.6519766  51.6280380  62.9061699  39.1756236  50.1897820  61.9725520
  40.7372805  49.8764198  63.3546624  41.4537424  48.7645953  62.9195225
  41.5597397  48.5836520  61.8498854  42.0307436  47.8898720  63.8329669
  42.6292661  47.0490857  63.4823232  41.8769346  48.1167944  65.2126723
  42.4186580  47.2424467  66.1311503  42.8829640  46.5086073  65.7218833
  41.1415629  49.2006029  65.6629952  41.0089655  49.3787899  66.7301258
  40.5700710  50.0651679  64.7382610  39.9761700  50.9130901  65.0794495
  40.1466023  51.3346018  60.0677979  40.5052903  50.6009781  59.1927046
  39.1006387  52.1294370  59.8910264  38.5387106  52.4582798  60.6631654
  38.6371561  52.4229957  58.5033456  39.2857496  51.8412474  57.8483687
  37.1838049  51.9668516  58.2874458  37.0940328  50.9089340  58.5341250
  36.5212026  52.5467123  58.9299563  36.7944954  52.1831921  56.8289331
  36.8835817  53.2410215  56.5816247  37.4564094  51.6032419  56.1857925
  35.3538745  51.7310457  56.6149241  35.2641008  50.6731287  56.8616048
  34.6912732  52.3109082  57.2574336  34.9645666  51.9473847  55.1564103
  35.0536535  53.0052137  54.9091007  35.6264788  51.3674323  54.5132722
  33.5759020  51.5115471  54.9501208  32.9623487  52.0491188  55.5456615
  33.3180650  51.6548259  53.9841543  33.4932295  50.5312607  55.1788190
  38.8553607  53.8911375  58.1317231  39.4645068  54.7026071  58.8863868
  38.3534066  54.2511912  56.9492357  38.0482077  53.5441605  56.2957370
  38.2796981  55.6712314  56.5329150  37.5863546  56.1824958  57.2007344
  39.6445859  56.3243713  56.6580685  40.3477296  55.8291041  55.9884420
  39.5695354  57.3783094  56.3903332  39.9977644  56.2352674  57.6854071
  37.7558229  55.8395030  55.0887196  37.9755436  54.9799688  54.1913407
  37.0359887  56.9270895  54.8903303  37.0461779  57.6845174  55.5583860
  36.1572516  57.0320593  53.7503025  36.0819915  56.0665808  53.2500160
  34.7297549  57.4710519  54.2046994  34.7554248  58.5505396  54.3535169
  34.0440543  57.2331180  53.3914946  33.9797037  56.7641628  55.7273603
  32.8372265  57.4402380  55.6463272  36.7157257  58.0030428  52.7003554
  37.6249750  58.7871118  52.9750886  36.1120040  57.9555004  51.5128872
  35.4752216  57.1943301  51.3251979  36.3415171  58.9540216  50.4503534
  35.8099264  58.6624397  49.5445441  35.8323255  60.3234586  50.8956838
  36.4172073  60.5619181  51.7840247  35.9812004  61.0989525  50.1443215
  34.3885428  60.2928891  51.2695812  34.0747430  60.1380507  52.4244408
  33.5000245  60.3347588  50.2790782  32.5123852  60.3160986  50.4896020
  33.8176535  60.3849933  49.3216394  37.7823889  59.1131418  50.0683175
  38.2430039  60.2286014  49.8634085  38.5121991  58.0073123  49.9295218
  38.1304376  57.1136243  50.2046205  39.8830299  58.0467067  49.4028692
  40.1238619  59.0754478  49.1349308  40.9279730  57.5447915  50.4186197
  40.5126337  56.5723153  50.6829729  41.8921417  57.4066565  49.9293371
  41.1152999  58.3826314  51.6890770  40.1274771  58.6353025  52.0743875
  41.9107736  57.6381377  52.7702624  42.8989481  57.3855229  52.3858202
  42.0151174  58.2750725  53.6486286  41.3839487  56.7243771  53.0452123
  41.7349074  59.7292312  51.3367754  41.0791349  60.2626058  50.6486086
  41.8648206  60.3185985  52.2444482  42.7046703  59.5712310  50.8648700
  40.0029754  57.1896174  48.1423693  39.3060910  56.1833971  47.9455526
  40.9833921  57.5467401  47.3319642  41.4500794  58.4318242  47.4695449
  41.4756747  56.6570282  46.2708254  40.7459315  55.8620261  46.1173792
  41.6946988  57.3768157  44.9501493  42.3677900  58.2215865  45.0964696
  42.1537711  56.6610114  44.2682572  40.4291793  57.8760840  44.3364151
  39.3701967  57.7998818  44.9282588  40.5411084  58.4266681  43.1497348
  39.7198967  58.7836804  42.6825589  41.4479014  58.4906313  42.7095803
  42.8431842  56.1288604  46.6717525  43.6509156  56.8378796  47.3000881
  43.1371776  54.9361226  46.1811107  42.4023333  54.3802699  45.7674310
  44.4613742  54.3889281  46.2232733  45.0991760  54.9995996  46.8623260
  44.4202423  53.0130686  46.7715286  44.0380876  52.4211681  45.9398371
  45.4121703  52.6544678  47.0464548  43.4988588  52.8790285  47.9438663
  43.0124831  53.8381915  48.1214782  42.4153548  51.7890318  47.6728215
  42.9009834  50.8294258  47.4955649  41.7565030  51.7080248  48.5373751
  41.8307392  52.0672647  46.7959456  44.3515667  52.6143692  49.1782061
  45.0389068  53.4464535  49.3308451  43.7065496  52.5118237  50.0508679
  44.9202284  51.6951963  49.0373368  45.0486542  54.3687419  44.7949471
  44.3308623  54.2629964  43.7917867  46.3297261  54.6820280  44.7303287
  46.8012970  54.9932130  45.5675169  47.0741851  54.6654448  43.4894613
  46.4909667  54.1886221  42.7016824  47.4498900  56.0827178  43.0579140
  48.2058876  56.0232921  42.2749474  46.2382410  56.8242776  42.5338673
  45.4819366  56.8845152  43.3164756  46.5296430  57.8305011  42.2327034
  45.8296598  56.2924094  41.6746370  48.0701512  56.8762225  44.2043259
  47.5546223  57.8341612  44.2727677  47.9184464  56.3158369  45.1268513
  49.5567520  57.1150273  43.9955881  49.7092265  57.6758029  43.0734265
  49.9555032  57.6832841  44.8359338  50.0730504  56.1574779  43.9275077
  48.2882777  53.7922448  43.6768911  48.9531101  53.8641665  44.7250320
  48.5828179  52.9755537  42.6701208  48.0202384  52.9607698  41.8314402
  49.7401968  52.0680890  42.7506933  50.0087358  51.7414358  41.7460622
  50.5809185  52.5999454  43.1961314  49.4204326  50.8435634  43.6018465
  48.2560652  50.6206457  43.9843636  50.4561894  50.0678878  43.9190235
  51.3750268  50.3151810  43.5803743  50.2989001  48.8155775  44.6172390
  49.2608551  48.6855163  44.9232550  50.6911124  47.6429679  43.6905950
  51.3610809  48.0468467  42.9315671  51.2301067  46.9196712  44.3024995
  49.4908996  46.9436621  43.0009649  49.4274546  45.9359394  43.4115383
  48.5951019  47.5026846  43.2714135  49.6042665  46.8661574  41.4609698
  48.6947614  46.4032686  41.0780423  49.6835156  47.8829631  41.0763593
  50.7644428  46.0903719  40.9873024  51.5071314  46.6127804  40.5450329
  50.9085827  44.7666555  41.1243918  52.0202584  44.1763358  40.7211241
  52.7601200  44.7270059  40.3094602  52.1247536  43.1772970  40.8264900
  49.9610638  44.0331430  41.6852503  49.1148395  44.4740499  42.0163179
  50.0883269  43.0356603  41.7797544  51.0651326  48.8152445  45.9475505
  52.0172208  49.5855393  46.1601862  50.6038633  47.9865733  46.8637387
  50.1739442  46.6422131  46.4745969  51.0053011  46.1087256  46.0137964
  49.3489304  46.7103242  45.7655045  49.7591482  46.0428970  47.7715034
  50.0281838  44.9866365  47.7657893  48.6778954  46.1413797  47.8679131
  50.4657690  46.7834536  48.8727100  51.2012700  46.0972576  49.2925578
  49.8086600  47.1406085  49.6656462  51.1746285  47.9636895  48.2124893
  50.9787373  48.9234576  48.6905796  52.6825697  47.7150510  48.1692225
  53.1439749  46.8221589  47.4756030  53.4305888  48.5330031  48.9188596
  52.9686635  49.2488943  49.4612839  54.8702945  48.4605424  48.9673059
  55.2248280  47.5165769  48.5533803  55.4382143  49.6016839  48.1331782
  55.5348593  49.2660681  47.1006469  54.7485903  50.4446201  48.1776478
  56.6944882  49.9997085  48.6147727  57.0313454  50.7181848  48.0744776
  55.3663112  48.5549901  50.4463792  54.8610241  49.3626257  51.2343581
  56.3794397  47.7542902  50.7351706  56.7295565  47.1544993  50.0018436
  57.0119064  47.6897570  52.0343204  56.3181864  48.0640358  52.7871598
  57.3930706  46.2483514  52.3927054  56.4933203  45.6962397  52.6642238
  58.0494257  45.5869286  51.2245603  58.9495684  46.1382481  50.9527343
  58.3165365  44.5636800  51.4885929  57.3616329  45.5756965  50.3790335
  58.3104727  46.2430844  53.4927162  58.5437661  45.3376816  53.7104779
  58.2722919  48.5237995  52.0586399  59.0501018  48.4335473  53.0027772
  58.4992794  49.3121285  51.0203104  57.8507575  49.3982953  50.2508339
  59.7031330  50.1079380  50.9929831  60.5779550  49.4681433  51.1089504
  59.8096089  50.8432611  49.6581450  60.0232584  50.0945652  48.8953163
  58.8369413  51.2942213  49.4615423  60.8844200  51.9213978  49.6257796
  60.7870905  52.5067687  50.5400928  61.8511633  51.4179563  49.6184791
  60.7852865  52.8359511  48.4308533  59.8232546  52.7050501  47.6595787
  61.6753074  53.6895818  48.2642505  59.6737803  51.1429542  52.0788721
  58.7638531  51.9339293  52.1537179  60.6963343  51.1485690  52.9113635
  61.4173820  50.4440348  52.8495485  60.8235948  52.1678633  53.9177596
  61.6664038  51.9684786  54.5795889  61.0702119  53.4864031  53.2003554
  61.7553282  53.3491372  52.3637714  60.1179109  53.8667227  52.8307881
  61.6532668  54.5573048  54.0577577  61.6072004  55.8888262  53.7090633
  61.1786238  56.2467277  52.8674409  62.2039709  56.6052004  54.6383829
  62.2680293  57.6898122  54.5511319  62.6436861  55.7844320  55.5734005
  62.3138443  54.4988543  55.2328197  62.5963029  53.6726483  55.8852781
  59.5614547  52.2611997  54.7155004  59.1605806  53.3453175  55.0965328
  58.9135937  51.1441803  54.9885456  59.1803946  50.2322735  54.6459923
  57.6766456  51.2610588  55.7534821  57.1818947  52.1853168  55.4550394
  56.7316891  50.1303286  55.5537490  56.3965568  50.0886983  54.5173840
  57.2029888  49.1844999  55.8209281  55.6180525  50.3593284  56.4015413
  54.9848489  49.6452406  56.2979479  57.9040089  51.4338111  57.2605858
  58.7233200  50.7353720  57.8700585  57.1449656  52.3604963  57.8277117
  56.4111607  52.7758875  57.2717621  57.2648341  52.7598077  59.2177477
  58.2965707  53.0041579  59.4705555  56.4119964  53.9972572  59.4140446
  55.4223923  53.7515145  59.0288257  56.3280373  54.3159626  60.4530238
  56.8728212  55.1415948  58.6674752  58.1275565  55.4274505  58.3829706
  58.8809233  54.7025629  58.6913148  58.1992145  56.6181707  57.7390407
  59.0536447  57.0734168  57.4512916  56.9406858  57.1192849  57.5758726
  56.5051173  58.3089812  56.9694017  57.2551150  58.9471040  56.5020674
  55.1748437  58.5951763  57.0004743  54.8038388  59.5175680  56.5536532
  54.2844113  57.7375639  57.5884498  53.2180825  57.9625824  57.6086720
  54.7187589  56.5373030  58.1857611  53.9695685  55.8876796  58.6383137
  56.0799494  56.2334687  58.1734237  56.7289767  51.7346544  60.2001882
  56.9163080  51.8534861  61.4080980  55.9882790  50.7791978  59.6732436
  55.8992903  50.7296555  58.6683924  55.3263872  49.7675820  60.4722528
  55.5630209  49.9001457  61.5279661  53.8215246  49.8961610  60.2915593
  53.6087142  49.8506971  59.2235032  53.2722536  49.1069099  60.8048663
  53.2729243  51.1765452  60.7770590  53.2991776  51.4876895  62.1300575
  53.6968043  50.7562551  62.8336174  52.8411363  52.6766156  62.5786186
  52.9002896  52.9436759  63.6337396  52.2956844  53.5517077  61.6818327
  51.9341886  54.5226937  62.0203690  52.2020336  53.2061431  60.3449843
  51.7317768  53.8911840  59.6395215  52.6918668  52.0226686  59.9134100
  52.6155331  51.7527540  58.8601203  55.7444235  48.3706644  59.9867040
  55.1034536  47.8072078  59.0741360  56.8125679  47.8218430  60.5936140
  57.0469139  48.0004322  62.0417417  56.0918484  47.9591016  62.5654227
  57.5116575  48.9717854  62.2108142  57.9549500  46.8594829  62.4062949
  57.4033967  46.1697611  63.0451782  58.8082524  47.2584931  62.9547173
  58.4017495  46.1889806  61.1254554  58.4030197  45.1163809  61.3194324
  59.3740403  46.4880203  60.7338874  57.3069141  46.5329127  60.1190895
  57.6865449  46.6366465  59.1026162  56.1545404  45.5159067  60.1335361
  55.4349419  45.3766406  61.1462414  55.9431399  44.8760868  58.9891086
  56.5572259  45.0382474  58.2038051  54.8478989  43.9403826  58.8235584
  55.2511361  42.9778229  58.5089507  54.3358408  43.8245070  59.7787906
  53.8568139  44.4196517  57.7896292  53.1313369  43.6025094  57.2118269
  53.8331743  45.7368568  57.5668002  54.5086598  46.3276354  58.0302648
  52.8438810  46.3711797  56.6774986  52.1357554  45.6254461  56.3161973
  52.0771565  47.4438900  57.4294236  52.8936188  47.9667620  57.9275134
  51.5221436  48.1464285  56.8077320  51.1650856  46.8584554  58.4525692
  51.6575255  46.4905627  59.6903470  52.6924300  46.7221974  59.9421756
  50.8591322  45.8404382  60.5983813  51.2591848  45.5382348  61.5662309
  49.5741232  45.4982456  60.2483698  48.8101724  44.9049398  61.1925061
  49.2695293  44.7871702  62.0272044  49.0557719  45.8200980  59.0175835
  48.0348107  45.5508787  58.7469180  49.8479488  46.4925165  58.1223294
  49.4589465  46.7513292  57.1375486  53.4448449  47.0318126  55.4359345
  54.5741313  47.4765794  55.4491879  52.6802015  47.0492885  54.3660027
  51.8295161  46.5056470  54.3957971  52.9951482  47.7753776  53.1388152
  54.0125475  48.1654013  53.1684713  52.8717043  46.8412093  51.9630881
  51.8556716  46.4494988  51.9147102  53.0962745  47.3818620  51.0436517
  53.5737369  46.0155099  52.0791484  52.0557252  48.9615526  52.9714915
  50.8882875  48.9156810  53.3353735  52.5292283  49.9708849  52.2922631
  53.4590349  49.9262560  51.9003866  51.7743964  51.2104451  52.1428038
  50.8488377  51.1592524  52.7162317  52.6130374  52.3950579  52.6652126
  52.0483803  53.3102179  52.4870451  52.7957908  52.2837651  53.7340041
  53.9906433  52.5900490  52.0000041  55.1952737  52.2419224  52.5088828
  55.2073346  51.8007860  53.5055538  56.1742868  52.5364917  51.6140379
  57.1649613  52.4196924  51.7722197  55.6061692  53.0930674  50.4961376
  56.1882700  53.5646635  49.3349431  57.2621551  53.4307651  49.2047870
  55.3818097  54.1688808  48.4232417  55.8184397  54.6174415  47.5309147
  54.0283552  54.2278145  48.5996549  53.3789238  54.6352036  47.8248179
  53.4485871  53.7785891  49.7508940  52.3630837  53.8360859  49.8313754
  54.2529203  53.2020574  50.7320430  51.3393105  51.4534946  50.7028214
  52.0476478  51.1238644  49.7387533  50.1821163  52.0642558  50.5765428
  49.5971869  52.2029897  51.3881523  49.6809077  52.5083835  49.2767865
  50.4706465  52.4988388  48.5255737  48.6135376  51.5424162  48.8616258
  47.6437707  51.9614759  49.1300308  48.6555343  51.2754245  47.3411743
  49.6249022  50.8558940  47.0720654  47.8682690  50.5706293  47.0736370
  48.5031180  52.2110335  46.8031170  48.8595343  50.3082422  49.5779658
  48.1929918  49.6604879  49.3376830  49.1923681  53.8898724  49.4197492
  48.5485718  54.2085037  50.4241468  49.6097883  54.7652877  48.5006897
  50.1551297  54.4590328  47.7076512  49.2971643  56.2081819  48.6229626
  49.6465347  56.5090461  49.6106469  49.9768846  57.1034187  47.5656143
  50.1119858  56.5201147  46.6547886  49.1380108  58.3417319  47.2569525
  49.0028611  58.9258218  48.1672681  49.6472543  58.9489019  46.5085434
  48.1643451  58.0355323  46.8744364  51.2932843  57.6064370  48.0769444
  51.9447225  56.7610115  48.2982724  51.7608581  58.2363953  47.3202232
  51.1327729  58.1881616  48.9846522  47.8130630  56.3800527  48.4907747
  47.1882067  55.8025455  47.5888806  47.2722287  57.1583200  49.4124581
  47.9344823  57.6171025  50.0215869  45.8568109  57.4623915  49.5769543
  45.1529380  56.8600029  49.0026808  45.5544054  57.2866118  51.0506441
  46.2453176  57.8909366  51.6384636  44.5316883  57.6049220  51.2527050
  45.6682763  56.2372982  51.3228088  45.6495990  58.8914587  49.2170374
  46.3366359  59.6577507  49.7880872  44.6833965  59.2492735  48.3606011
  44.2610016  58.5882658  47.7244008  44.3200920  60.6631478  48.2355314
  44.5874772  61.1835978  49.1551706  45.0358488  61.3280721  47.0772150
  44.9008510  62.4046003  47.1819140  46.0950320  61.0852490  47.1624665
  44.5229669  60.8838623  45.7194059  43.9095477  60.0354686  46.0227968
  43.9216585  61.5725114  45.1258634  45.6511916  60.3801114  44.8713788
  46.0682509  59.2322166  45.0179974  46.3120267  61.2988231  44.1620897
  47.0823277  61.0187999  43.5718992  46.0384351  62.2693865  44.2191482
  42.8381990  60.9869453  48.1468224  42.0524046  60.1746927  47.7206641
  42.4658530  62.1936257  48.5404463  43.2006507  62.8284483  48.8182449
  41.0688028  62.6647764  48.6145922  40.5368009  62.1018066  49.3814938
  41.0015015  64.1779692  48.9718990  41.6889779  64.3731074  49.7949400
  41.3062367  64.7563721  48.0997256  39.3707696  64.8618858  49.4947047
  39.7958899  66.1083374  49.6805252  40.3743323  62.4450477  47.2845283
  40.7310934  63.0858101  46.2600152  39.4132151  61.5606842  47.3093644
  39.3683595  60.9361986  48.1018952  38.4664771  61.3642890  46.2218342
  38.9617318  60.7203744  45.4950633  37.2033048  60.6349171  46.7508838
  37.4967089  59.7022754  47.2327475  36.6915161  61.2710521  47.4730366
  36.2660795  60.3322122  45.5865802  35.9718578  61.2644713  45.1044729
  36.7770484  59.6956927  44.8641844  35.0245660  59.6153489  46.1065575
  35.3179691  58.6827079  46.5884230  34.5127774  60.2514853  46.8287086
  34.0873420  59.3126423  44.9422526  33.7931207  60.2449007  44.4601441
  34.5983111  58.6761213  44.2198601  32.8906041  58.6216351  45.4434773
  32.4167462  59.2114572  46.1125576  32.2698854  58.4211527  44.6723644
  33.1629784  57.7575491  45.8898702  38.0706180  62.6712444  45.4885783
  37.9990504  62.7010750  44.2663761  37.8272433  63.7389212  46.2392153
  38.0075182  63.6933879  47.2319525  37.3293505  65.0009658  45.6796636
  36.6497965  64.8641131  44.8384877  36.6396777  65.9191808  46.7713579
  37.3955294  66.5460810  47.2444167  35.5883959  66.8006684  46.1159623
  34.8318987  66.1744335  45.6430538  35.1180632  67.4294309  46.8719686
  36.0604938  67.4309730  45.3623452  36.0694841  65.1458930  48.0041439
  36.8081687  64.3834103  48.2512595  36.0111545  65.8710932  48.8157976
  34.7030612  64.4874310  47.8102204  34.7607250  63.7617169  46.9989783
  34.4093537  63.9811477  48.7297378  33.9637109  65.2494001  47.5635140
  38.5018243  65.8321728  45.0848768  38.6030270  66.0860858  43.8691922
  39.3950533  66.2243371  45.9834329  39.3272609  65.8725165  46.9277453
  40.4089634  67.2331908  45.6919171  40.1118590  67.8298431  44.8294589
  40.5647226  68.1513462  46.8845355  41.2973166  68.9384648  46.7060715
  39.6178927  68.5987321  47.1869576  41.1525664  67.2410874  48.2944240
  41.1812800  68.2777749  49.1271020  41.7703055  66.6717393  45.2572275
  42.6352136  67.4384271  44.7768728  41.9601917  65.3553027  45.3909584
  41.2638991  64.8128073  45.8818502  43.1738719  64.6695191  44.9190196
  42.9765593  63.5975290  44.9169681  43.5269879  65.1018193  43.5028686
  43.7361684  66.1714873  43.4904640  44.4077838  64.5559405  43.1647635
  42.6902285  64.8880305  42.8378669  44.3337451  64.9116008  45.8483659
  45.4350190  64.3619802  45.6542499  44.1156320  65.7737299  46.8414510
  43.2263380  66.2456534  46.9223442  45.1846450  66.1509457  47.7592556
  46.0790690  66.3773618  47.1788759  44.8228713  67.4011435  48.6288159
  45.7577565  67.8346065  48.9840606  44.3151539  68.1152241  47.9804241
  43.9886394  67.0945953  49.7422082  43.8029681  67.8980457  50.2337299
  45.5804506  64.9594219  48.6214012  44.7335148  64.3184418  49.2501256
  46.8693386  64.6405974  48.6082607  47.4927044  65.1723883  48.0177416
  47.3933479  63.4301368  49.2667418  46.7816944  62.5784139  48.9691726
  48.9143318  63.1262690  48.8809408  48.8757618  62.4905665  47.9963540
  49.4942283  64.0221102  48.6589304  49.6891237  62.3578224  49.9339922
  50.4930402  62.9676902  50.8787380  50.6980982  63.9564680  50.8979555
  50.9400399  62.0645230  51.7346710  51.5614113  62.3561989  52.5813834
  50.5002866  60.8831435  51.3516614  49.7083075  61.0394577  50.2359401
  49.2384127  60.1706100  49.7750673  47.1510345  63.4366640  50.8068777
  47.7782575  64.1761408  51.5692395  46.2665785  62.5611254  51.2262948
  45.9049417  61.8770097  50.5772156  45.7853002  62.5263389  52.6171025
  45.8401190  63.5176962  53.0668857  44.3285717  62.0048450  52.6935245
  44.3116123  61.0031597  52.2640606  43.7755841  61.9544946  54.1528927
  43.7918003  62.9559642  54.5828883  42.7515757  61.5811679  54.1412909
  44.3968006  61.2911547  54.7546978  43.4243555  62.8745355  51.8409651
  43.9413315  63.0663519  50.9007295  42.5124584  62.3104612  51.6450991
  43.0696643  64.1970171  52.5030576  43.9810868  64.7618925  52.6988243
  42.4211294  64.7723035  51.8423404  42.5522154  64.0060015  53.4431956
  46.6068427  61.6095720  53.5346531  46.5598194  61.7467929  54.7285724
  47.2887828  60.6366025  52.9582598  47.3388638  60.5728433  51.9515196
  47.9904701  59.6243670  53.7549449  48.9219950  60.0704798  54.1032895
  47.3593101  59.3870920  54.6113543  48.3026803  58.3593915  53.0137360
  48.6825399  58.3817759  51.8442119  48.1463139  57.2401207  53.7106797
  47.8188506  57.2938001  54.6646114  48.4421848  55.9015765  53.1427529
  48.3222719  55.9046777  52.0593737  49.8807030  55.5510611  53.4700364
  49.9824974  55.5939965  54.5544227  50.1586295  54.5574077  53.1185969
  50.9032149  56.5145425  52.8998856  51.4961360  56.4537019  51.6764409
  51.2061550  55.6287704  51.0256730  52.3703306  57.4969471  51.5284095
  52.9537028  57.6688058  50.7220343  52.3568482  58.2456593  52.6731812
  53.0643497  59.3850380  52.9998368  53.7438417  59.8028076  52.2569654
  52.8655918  59.9239147  54.2496420  53.3619312  60.8556117  54.5210970
  52.0584759  59.3168911  55.1608754  51.9609816  59.7105036  56.1726380
  51.3346401  58.1788493  54.8316890  50.6522262  57.7714136  55.5776167
  51.4864272  57.6305021  53.5682805  47.5337518  54.8338389  53.7074615
  47.2315210  54.8610156  54.8960501  47.1800652  53.8630280  52.8671484
  47.3212871  53.9970053  51.8760855  46.5431991  52.6462446  53.3089309
  46.0519095  52.7817978  54.2724449  45.4938179  52.2882801  52.2765620
  45.3791534  53.1494085  51.6182237  45.8762200  51.4427810  51.7047228
  44.1540002  51.9282005  52.8714579  44.3175496  51.5304365  53.8730248
  43.5506750  52.8337896  52.9347761  43.4299250  50.8975304  52.0315394
  42.3999530  51.2280391  51.8972987  43.9221126  50.8404704  51.0606661
  43.4402717  49.5212800  52.6879096  44.4151806  49.3607148  53.1482051
  42.6674886  49.4944403  53.4561446  43.1820106  48.4502210  51.6872803
  43.8982206  48.4746425  50.9755595  43.1940619  47.5506501  52.1463303
  42.2785002  48.5985774  51.2609489  47.5801908  51.5149175  53.5053417
  48.4468875  51.2877706  52.6682402  47.5483974  50.9078143  54.6823345
  46.8051466  51.1291651  55.3293904  48.5268825  49.9333272  55.0768417
  49.3529585  49.9464097  54.3658378  49.0669701  50.2144558  56.4416039
  48.2690935  50.2894449  57.1804334  49.7542496  49.4188565  56.7292993
  49.8091720  51.4445296  56.5112007  49.2021955  52.6285086  56.2296031
  48.1827307  52.6255175  55.8438798  49.8550203  53.8122373  56.4248337
  49.3404109  54.7613194  56.2747636  51.1538276  53.7994227  56.8084381
  51.6921674  54.7344456  56.9634297  51.7887669  52.6060855  57.0010273
  52.8496066  52.5922055  57.2510806  51.1022504  51.4367576  56.8818919
  51.6001580  50.4891000  57.0871552  47.9081358  48.5701195  55.1038428
  46.8429188  48.3780367  55.6332217  48.6550471  47.6424469  54.6188439
  49.6219224  47.8569266  54.4207276  48.1648579  46.3512223  54.2709952
  47.1749195  46.2170369  54.7070173  48.0225328  46.4302237  52.7510605
  47.9622444  45.4239925  52.3363745  46.7412437  47.2059272  52.4017293
  46.8010003  48.2124783  52.8157144  46.6355016  47.2648426  51.3184718
  45.8778723  46.6909933  52.8230765  49.1104817  47.2086232  52.2321613
  49.0348484  47.2674040  51.2769521  49.1697991  45.3160993  54.8262424
  50.3586934  45.5862622  54.8912298  48.6679983  44.1877210  55.3529772
  47.6709193  44.0536966  55.4422536  49.5494625  43.1712223  55.8939219
  50.3251076  43.6898148  56.4574250  48.8096031  42.2527998  56.8277239
  48.0354022  41.7195757  56.2760128  49.5066436  41.5349934  57.2601457
  48.3499009  42.8373980  57.6246041  50.2393447  42.3780163  54.8009243
  49.7537075  42.3059180  53.6748407  51.4210092  41.8593654  55.1126938
  51.8215177  42.0858869  56.0117936  52.1798525  40.9536831  54.2114185
  51.7767964  40.9980964  53.1996515  53.6845382  41.3473943  54.1649580
  54.1448924  40.8587651  53.3062288  53.8602626  42.8705084  54.0428140
  53.4005336  43.3598317  54.9014825  54.9225294  43.1129717  54.0128164
  53.3824316  43.2196554  53.1274591  54.3488854  40.8919525  55.3517552
  55.2757951  41.1390256  55.3144234  52.1044498  39.4975989  54.6867870
  52.2741973  38.5498624  53.9155987  51.7726471  39.3477421  55.9636346
  51.7030064  40.1648632  56.5531791  51.4869343  38.0341587  56.5570550
  51.7359092  37.2462365  55.8462180  52.3191462  37.8260757  57.8322608
  52.0459038  38.6328694  58.5123503  52.0013621  36.8726130  58.2541876
  53.8323407  37.8164037  57.6371276  54.0751882  37.1636297  56.7986694
  54.1654275  38.8303963  57.4158264  54.5367072  37.3127994  58.8942300
  53.8481303  36.6641493  59.4357224  55.4119215  36.7390043  58.5895030
  54.9697573  38.4555093  59.7955771  54.2872891  39.2920196  59.6452838
  54.9105209  38.1204734  60.8311162  56.3641710  38.8912783  59.4932413
  56.4191771  39.2021738  58.5338571  56.6205266  39.6502492  60.1083387
  56.9967742  38.1164108  59.6328572  49.9974543  37.9821707  56.9186234
  49.4222565  38.9831177  57.3728596  49.3911989  36.8144107  56.7402538
  49.9069669  36.0234146  56.3819134  47.9479312  36.6652638  56.9513809
  47.4474475  37.6177774  56.7772168  47.3729680  35.6260778  55.9838259
  47.1649153  34.7301936  56.5688086  46.4378685  36.0342224  55.6002806
  48.2947212  35.2672282  54.8087344  49.1127475  34.6725255  55.2152595
  47.7103013  34.6573823  54.1197907  48.8655531  36.4770070  54.0612177
  48.7704424  37.3541205  54.7013151  49.9196664  36.2898456  53.8564858
  48.1338420  36.7220977  52.7571152  48.5403513  37.6153537  52.2828321
  48.2792227  35.8644608  52.1002876  46.6768286  36.9130908  53.0094355
  46.5418717  37.7080116  53.6177013  46.2018177  37.0753089  52.1329938
  46.2998639  36.0853247  53.4485254  47.6110122  36.3227495  58.4123667
  46.4519300  36.0369748  58.7315192  48.6099774  36.4341330  59.2909727
  49.5269524  36.7120957  58.9716093  48.4416031  36.0954003  60.6998013
  47.4144429  35.7815359  60.8856245  49.3828554  34.9474231  61.0876847
  49.0498688  34.4638336  62.0060313  49.3199105  34.2393619  60.2613753
  50.8008652  35.4013190  61.2487672  51.2966990  36.0917979  60.3356097
  51.3985201  35.1341050  62.3091230  48.6751256  37.3155748  61.5789005
  48.4981506  37.2511580  62.8044703  48.9133099  38.4824634  60.9523796
  49.0942969  38.4705140  59.9588001  48.9420464  39.7690031  61.6468513
  49.3992888  39.6403075  62.6279048  49.7440277  40.8003414  60.8684323
  49.6523253  40.5628520  59.8085791  49.3037053  41.7787882  61.0604169
  51.1905199  40.8208538  61.2513377  51.3402520  41.5823474  62.0167191
  51.4611342  39.8444306  61.6531683  52.2294324  41.1861768  59.8503931
  53.7846847  41.4144154  60.7170196  54.0443109  40.4975309  61.2461849
  54.5693983  41.6537460  59.9993525  53.6861144  42.2307666  61.4325305
  47.5420432  40.3311273  61.8651641  46.6812219  40.2440937  60.9826372
  47.3452695  40.9615865  63.0237021  48.0060093  40.8720944  63.7823280
  46.1281377  41.7367916  63.2529973  45.3523371  41.4045384  62.5631853
  45.6255759  41.5637354  64.6619022  45.7017195  40.5101866  64.9308566
  46.2526291  42.1548182  65.3293792  44.2814435  41.9846733  64.7828709
  43.9884294  41.8632656  65.6889630  46.3264604  43.2380612  62.9497507
  47.4313368  43.7601366  63.0452206  45.2218196  43.9732472  62.7376954
  45.0588357  44.8842034  63.8753131  45.7128058  44.5791789  64.6922485
  44.0233851  44.8720887  64.2155986  45.4555837  46.2195565  63.2800852
  46.4542326  46.4701951  63.6378279  44.7469456  46.9723472  63.6253959
  45.4233615  46.0997670  61.7865424  46.4136906  46.2164573  61.3463939
  44.7453459  46.8358895  61.3546649  44.9011259  44.6933915  61.5210847
  43.8148033  44.6863509  61.4319116  45.5176492  44.1236987  60.2506996
  46.7290341  44.1619979  60.0598994  44.6822246  43.5701764  59.4011769
  43.7200207  43.4312870  59.6749883  45.0890310  43.1582885  58.0480243
  46.0415850  42.6297715  58.0855746  44.0392710  42.2273010  57.4590496
  43.0926868  42.4413378  57.9553013  43.9524483  42.4575983  56.3971998
  44.3728643  40.7880010  57.6281053  44.5390962  40.5568851  58.6802713
  43.5441199  40.1884652  57.2514867  45.6012943  40.4354059  56.8635698
  45.6865949  40.7195347  55.6700692  46.5808147  39.8280377  57.5468740
  47.4350907  39.5677178  57.0751247  46.4604382  39.6332930  58.5305840
  45.2113842  44.3781876  57.1341934  45.9486414  44.3792867  56.1518535
  44.4127801  45.3951310  57.4602313  43.7245557  45.2463145  58.1843171
  44.4834140  46.7140203  56.8309510  45.5037107  46.8560284  56.4746821
  43.5185592  46.9043905  55.6477894  43.7394254  46.1671424  54.8759198
  42.4921386  46.7742390  55.9907489  43.6884234  48.3070734  55.0739852
  43.4672634  49.0449200  55.8451994  44.7145488  48.4378239  54.7303677
  42.7320491  48.4957715  53.9012252  42.9529131  47.7585228  53.1293558
  41.7056290  48.3656216  54.2441862  42.9019156  49.8984543  53.3274202
  42.6807566  50.6363016  54.0986340  43.9280394  50.0292019  52.9838011
  41.9800319  50.0803471  52.1969581  41.0291212  49.9596596  52.5152394
  42.0925339  51.0093363  51.8169286  42.1850728  49.3970118  51.4820384
  44.1461846  47.7920823  57.8221986  43.5561814  47.5492029  58.8537275
  44.5500760  48.9950701  57.4768396  45.0587724  49.1187631  56.6131108
  44.2984473  50.1826719  58.3172311  43.2261303  50.2871615  58.4825106
  45.0029616  50.0622434  59.6943929  44.5839560  50.6609658  60.5031358
  44.8848271  49.0040543  59.9275879  46.4774468  50.3358659  59.6774726
  46.9434645  51.6236715  59.6666375  46.2399368  52.4559877  59.6466795
  48.3000323  51.8680510  59.6809319  48.6561345  52.8963292  59.6181960
  49.2190869  50.8117357  59.7748827  50.2911345  51.0085288  59.7841697
  48.7558777  49.5173042  59.8557621  49.4491989  48.6785565  59.9182787
  47.3856680  49.2875246  59.8570158  47.0026429  48.2770378  59.9995220
  44.8190585  51.3737235  57.5769379  45.7286975  51.2157109  56.7769767
  44.3294833  52.5675513  57.9028630  43.5296098  52.6582498  58.5128429
  44.8608302  53.7553829  57.2958641  45.4923493  53.4817736  56.4506300
  43.7752463  54.6332775  56.8097832  42.9995756  54.3842590  57.5339545
  43.9267080  55.7126282  56.7970722  43.2570494  54.2725048  55.5074357
  43.4466199  54.9498974  54.3287812  44.1614123  55.7724460  54.3529772
  42.6718088  54.4281130  53.3482137  42.6463943  54.7186278  52.3812314
  41.9074018  53.4465059  53.8985341  40.9070771  52.6739719  53.3175980
  40.7066414  52.7979203  52.2533795  40.2337768  51.8014330  54.1254096
  39.4360889  51.1823881  53.7148278  40.5547456  51.6847245  55.4970014
  40.0045782  51.0022319  56.1447815  41.5943633  52.4459589  56.0684831
  41.7311824  52.4016324  57.1489536  42.2848847  53.3208281  55.2606012
  45.7963417  54.5073667  58.2032629  45.6254381  54.5673407  59.4205830
  46.8310011  55.0508801  57.5983943  47.0020705  54.8294734  56.6279235
  47.7565446  55.9734988  58.2777749  47.4988396  56.0668478  59.3327504
  48.7842929  55.6224556  58.1850317  47.6390007  57.3278935  57.6217081
  47.9509694  57.4891412  56.4298949  47.1322782  58.3029168  58.3718414
  46.9607793  58.1657737  59.3576808  46.7643437  59.5641077  57.7842695
  46.9445848  59.5208045  56.7101480  45.2796618  59.9041847  58.0212785
  45.2352888  60.0311974  59.1029430  45.0342543  60.8482009  57.5347513
  44.2719848  58.8304884  57.5910779  44.6338684  57.8556341  57.9178809
  42.9059089  59.0972700  58.2080782  42.5431411  60.0718169  57.8813419
  42.2059847  58.3244235  57.8904067  42.9892023  59.0868376  59.2948412
  44.1673692  58.6976929  56.0691266  45.1404661  58.4262914  55.6598307
  43.4406685  57.9242725  55.8204742  43.8464017  59.6478558  55.6421965
  47.6186032  60.6757976  58.3214541  47.7157347  60.8655353  59.5278384
  48.2141585  61.4276921  57.4285388  48.1596223  61.2071256  56.4444273
  49.0598936  62.5411247  57.8414805  49.6665612  62.3233159  58.7204645
  50.0030235  63.0093762  56.6875509  50.4724027  62.1346921  56.2373163
  49.1974004  63.7828091  55.6014152  48.7280809  64.6579453  56.0508321
  49.8714499  64.1008466  54.8060482  48.4281886  63.1315601  55.1863387
  51.1254033  63.7909615  57.2117540  51.6897822  64.0669897  56.4858853
  48.2115446  63.6980344  58.3736467  47.2868585  64.1432560  57.7537827
  48.6193732  64.1984435  59.5299752  49.2990862  63.6519069  60.0392762
  48.0434325  65.3722607  60.1838493  46.9693918  65.2282659  60.3013277
  48.6813664  65.6124362  61.6138109  48.3544125  64.7641259  62.2151179
  49.7582625  65.5520531  61.4564937  48.3397054  66.9354396  62.3556652
  48.4519765  67.7314550  61.6195569  47.2924040  66.8558304  62.6470829
  49.1981852  67.2605924  63.6015525  48.5417491  67.5375756  64.4264590
  49.7762611  66.3788964  63.8782110  50.1356843  68.3819539  63.3426456
  50.7933879  68.2111404  62.5954185  50.1924509  69.5643124  63.9936016
  51.1013622  70.5037545  63.6176389  51.7318733  70.3139699  62.8517815
  51.1416923  71.3869115  64.1060106  49.3776518  69.8298730  65.0048181
  48.7005640  69.1402906  65.2982943  49.4376417  70.7205803  65.4771956
  48.0538762  66.6516157  59.3460596  47.1700184  67.4306382  59.4648430
  49.0199898  66.8515644  58.4848831  49.7893821  66.1974210  58.4696788
  49.0744349  68.0040691  57.5924411  49.0000186  68.9250317  58.1707052
  50.4438357  68.0166393  56.7937363  50.2646841  68.6083070  55.8959985
  51.1610178  68.5332382  57.4316042  50.9770581  66.7176370  56.4189926
  51.8023599  66.8357218  55.9430382  47.8828358  68.0396272  56.6008160
  47.4970326  69.0951644  56.0851349  47.3429552  66.8639096  56.3442795
  47.7524465  66.0325251  56.7457969  46.2762361  66.7073948  55.3950934
  46.3613803  67.5295269  54.6844961  46.4712409  65.4021642  54.6509784
  46.3797447  64.5689365  55.3477281  45.7129848  65.3098385  53.8734029
  47.4614891  65.3873321  54.1956897  44.8604718  66.8472068  56.0468183
  43.8387818  66.8141234  55.3404409  44.8065507  67.0104979  57.3539531
  45.6498284  67.2033786  57.8752774  43.5318608  66.8915958  58.0992411
  42.7402626  66.5785546  57.4184500  43.6447230  65.8664158  59.2178505
  44.4082684  66.3263551  59.8451889  42.7162369  65.7784748  59.7820136
  44.1099309  64.4795423  58.7856118  45.1522560  64.5275277  58.4704029
  43.9762322  63.5038076  59.9636850  42.9340335  63.4549351  60.2791724
  44.3086668  62.5127522  59.6548207  44.5909534  63.8501140  60.7945219
  43.3987058  63.9997351  57.5041427  43.6063779  64.6949421  56.6907185
  43.7626326  63.0079911  57.2356240  42.3236931  63.9566594  57.6790464
  43.0488370  68.1991792  58.7365595  43.8476299  69.0446596  59.0955840
  41.7501922  68.2589008  58.9942823  41.1718509  67.5084506  58.6443608
  41.1057966  69.3423082  59.7399442  41.8390949  69.9317174  60.2903711
  40.4023335  70.2588184  58.7208103  41.2250736  70.5419505  58.0642784
  39.6790780  69.6657858  58.1610658  39.7268146  71.5095775  59.2531398
  39.8157923  72.2871386  58.4944682  38.2570467  71.2868658  59.5810357
  38.1672855  70.5097093  60.3400282  37.8237841  72.2134858  59.9575457
  37.7261728  70.9777058  58.6806506  40.4933071  72.0265696  60.4693953
  41.5174236  72.2629208  60.1805653  40.0074720  72.9246479  60.8508673
  40.5026658  71.2615175  61.2457372  40.0974705  68.7220035  60.7222485
  39.0780503  68.2201038  60.3091323  40.4061962  68.7067476  62.0308602
  41.7741594  68.4186862  62.4790382  42.4103563  69.2786747  62.2698168
  42.1529640  67.5482743  61.9433246  41.6145146  68.1575362  63.9748481
  42.2898536  68.8240853  64.5112514  41.8936149  67.1225414  64.1723072
  40.2180776  68.4017176  64.3427992  40.1163756  69.4156430  64.7297242
  39.8299269  67.6934235  65.0747543  39.4461197  68.2670333  63.0235588
  39.1902083  67.2285333  62.8134987  38.1723831  69.1193283  63.0089195
  38.2461325  70.3534376  62.9070552  36.9999237  68.4587802  63.0481115
  36.9507608  67.4752207  62.8238502  35.7706986  69.1898766  63.1772659
  36.0299387  70.2070375  63.4709961  34.8970441  69.2511872  61.8778453
  34.4261072  68.2790109  61.7322709  33.7716417  70.3763656  61.9820950
  34.2418663  71.3489531  62.1272224  33.1850092  70.3904396  61.0635291
  33.1177816  70.1598200  62.8268882  35.7224305  69.5579456  60.7525069
  35.1821408  69.5941737  59.9598058  34.9837063  68.7616351  64.4035437
  35.1256346  67.6093086  64.9287562  34.3890470  69.8032986  64.9819790
  34.8331623  70.7023303  64.8611361  33.1926988  69.7362897  65.7706226
  33.0518516  68.8580621  66.4006841  33.1701214  71.0102294  66.6493579
  33.9519977  70.9308719  67.4046540  33.4108771  72.2771821  65.7876402
  32.6290800  72.3574752  65.0323608  33.3908333  73.1605388  66.4259034
  34.3821511  72.2051626  65.2982129  31.8952596  71.0521651  67.5060065
  32.0408650  71.8304576  68.2551130  31.0764409  71.3342671  66.8441501
  31.5588065  69.7405901  68.1972195  32.3770176  69.4580574  68.8596436
  30.6452348  69.8601338  68.7796242  31.4125957  68.9618660  67.4486801
  31.9407713  69.6606289  64.8488319  31.5244436  70.6747540  64.2170720
  31.3080875  68.4534914  64.8000846  31.7760609  67.2381999  65.4833982
  32.3059090  67.5048541  66.3978689  32.4419336  66.6753326  64.8292629
  30.5058380  66.5208202  65.7497607  30.0367108  66.9119960  66.6525343
  30.6964584  65.4546838  65.8727176  29.6720352  66.7735578  64.5550375
  28.6108688  66.7543267  64.8033415  29.8774710  66.0321479  63.7828929
  30.0659694  68.1704175  64.0574826  30.3328861  68.2172908  63.0017096
  28.8894259  69.0947886  64.3233028  28.8766847  69.7094919  65.3612848
  27.9968299  69.2511744  63.3417688  28.1168062  68.6685035  62.5255583
  26.9503215  70.3168529  63.3036827  26.1776710  70.0143319  62.5968649
  26.2866444  70.5770057  64.6828909  26.9921335  71.0044955  65.3953773
  25.5141211  71.3106701  64.4525777  25.6517222  69.3518430  65.2803750
  26.2776608  68.2687729  65.2162968  24.5745456  69.5011551  65.9033039
  27.3423735  71.7037734  62.6842111  28.5406326  72.0076824  62.3782235
  26.2649549  72.4783366  62.4516040  25.4143655  71.9850941  62.2207169
  26.2536665  73.9562666  62.4026829  27.2600815  74.3674854  62.4809587
  25.5863869  74.4937855  61.0561022  26.2535282  75.2441729  60.6319072
  25.3362479  73.3562339  59.9975613  24.6687753  72.6056586  60.4209011
  24.8810804  73.7840963  59.1043337  26.2854074  72.8900069  59.7333092
  24.3433741  75.1654555  61.3143744  23.9691799  75.4755525  60.4864741
  25.5562469  74.5611698  63.6720615  24.8900280  75.5879594  63.5680922
  25.8136235  73.9821016  64.8652954  26.4927943  73.2351015  64.8938810
  25.0583311  74.3107440  66.1291355  24.2735445  75.0359266  65.9139162
  24.4082396  73.0392970  66.7111713  25.1624476  72.2538071  66.6634737
  24.1765638  73.2570032  67.7537788  23.1385690  72.5717880  65.9932583
  23.2081016  72.8174930  64.9335909  23.1340829  71.4886187  66.1150092
  21.8372291  73.1584753  66.5716381  21.7895703  74.3928807  66.7955667
  20.8429509  72.3915309  66.7464812  25.8647811  75.0517186  67.2749623
  25.2339480  75.5509209  68.2369445  27.2172076  74.9219610  67.2728475
  27.5821034  73.9821723  67.2116299  28.2018111  76.0680748  67.5097082
  27.7245928  76.9896541  67.1764614  28.6520041  76.2478183  69.0119078
  29.7290620  76.3398763  68.8720123  28.2690316  77.1519238  69.4852208
  28.3545883  75.0379493  69.9059531  27.1564503  74.6980847  70.0740198
  29.3079537  74.5461588  70.5737423  29.4849136  76.0459261  66.5964949
  30.5267542  76.5890246  66.9826855  29.3696900  75.5125625  65.3715934
  28.4567748  75.2487585  65.0294053  30.5453837  75.1966669  64.5408610
  31.2237053  74.6025458  65.1532327  30.1207017  74.3524949  63.3093457
  29.6101253  73.4500168  63.6454172  29.4483356  74.9373524  62.6816789
  31.3462130  73.9705461  62.5141491  31.8570986  74.8725683  62.1773217
  32.0188872  73.3852313  63.1410583  30.9284510  73.1401311  61.3026981
  30.6690027  73.7635146  60.2388932  30.8727605  71.8903255  61.4526473
  31.3243177  76.4772194  64.1155470  32.4403828  76.7635431  64.5994637
  35.5479097  77.0524459  63.2789513  35.5599583  77.0644648  62.2690951
  36.8320264  77.1977713  63.9969880  37.5342352  76.4464509  63.6357131
  37.4590036  78.6020420  63.7911710  37.6493705  78.7635598  62.7301472
  36.4963103  79.6684580  64.3026420  36.3058113  79.5078616  65.3637828
  36.9362997  80.6552054  64.1582831  35.5577487  79.6056164  63.7519564
  38.7718456  78.6904985  64.5620444  39.4602892  77.9284186  64.1968299
  39.2127388  79.6768574  64.4177918  38.5822037  78.5295305  65.6232825
  36.6125703  76.9599702  65.4984042  36.1282840  77.8612216  66.1983147
  36.8426211  75.6980795  65.9276423  36.8137660  74.9771971  65.2208218
  37.0695328  75.2915779  67.3410936  36.0966455  75.2798913  67.8324721
  37.6940543  73.8575407  67.3872384  37.0360302  73.1573808  66.8725726
  39.0555269  73.8737026  66.7003938  39.7142940  74.5733422  67.2148168
  39.4910105  72.8749837  66.7322578  38.9357805  74.1843515  65.6624838
  37.8623195  73.4228875  68.8392676  38.5206349  74.1223592  69.3544967
  36.8894320  73.4112027  69.3306462  38.4709564  72.0253308  68.8842392
  39.4441366  72.0363274  68.3934242  38.5914425  71.7141633  69.9219082
  37.8129343  71.3251710  68.3695714  37.9906350  76.3112267  68.1146200
  38.8503681  76.9479937  67.5081550  37.7454322  76.5417244  69.4151524
  36.8553588  76.2726559  69.8094503  38.7387600  77.1962535  70.3021341
  39.6875036  77.3811761  69.7983598  38.1942264  78.5265749  70.8217472
  38.0343035  79.2061277  69.9846499  37.2487251  78.3564660  71.3367136
  39.1972269  79.1423738  71.7914925  39.3573241  78.4635500  72.6291487
  40.5199915  79.3810966  71.0711228  40.3607712  80.0602410  70.2335606
  41.2372837  79.8212528  71.7638386  40.9087153  78.4326658  70.7003489
  38.6539351  80.4696603  72.3099225  37.7084350  80.2995498  72.8248900
  39.3704871  80.9102505  73.0031287  38.4940100  81.1492132  71.4728259
  39.0203040  76.2307090  71.4754430  38.0908041  75.7080646  72.0602376
  40.2862678  75.9329723  71.7802455  41.0402238  76.3249472  71.2343468
  40.6312231  74.9788479  72.8913163  40.1480749  74.0167104  72.7211445
  42.1643277  74.7565070  72.9705943  42.5196284  74.3330273  72.0311660
  42.6614556  75.7098366  73.1498330  42.7376388  73.6387107  74.2736477
  44.0318452  73.7403248  73.9845065  40.0779252  75.5430812  74.2482216
  40.0218679  76.7673337  74.4253700  39.6288514  74.6773075  75.1723891
  39.6104987  73.6885031  74.9673807  38.9922875  75.1523777  76.4482468
  38.9549727  76.2354466  76.3313339  37.5368956  74.6177604  76.6019668
  36.9616431  74.8669914  75.7103011  37.5583847  73.5354121  76.7290898
  36.8858070  75.2597567  77.8224375  37.4602809  75.0105717  78.7146187
  36.8550042  76.7740385  77.6445922  36.2802747  77.0240363  76.7528041
  36.3897117  77.2334247  78.5166977  37.8729793  77.1485330  77.5369774
  35.4613148  74.7364888  77.9728957  35.4828053  73.6541409  78.1000204
  34.9954674  75.1950674  78.8451303  34.8860619  74.9857176  77.0812298
  39.8506171  74.8641457  77.7235466  40.7395564  75.6555341  78.1162413
  39.6024054  73.8942532  78.4363854  60.8320396  56.8588677  47.5858346
  60.1674439  56.2090687  48.7767665  60.2525730  58.0471614  46.9460114
  58.9050489  56.7741406  49.3168049  58.9901780  58.6122333  47.4860497
  58.3255823  57.9624343  48.6769816  58.2411523  56.1251548  50.5068148
  58.6062295  54.7377518  50.8908693  57.1895911  56.8838174  51.3297680
  56.9459879  57.8040273  51.0769911  56.5256945  56.2348315  52.5197780
  57.3561037  55.7727765  53.7258028  55.0539634  56.0375807  52.5280509
  58.8738889  55.9537977  53.7641735  56.6912431  55.1236265  54.9160215
  54.3893677  55.3877817  53.7189828  55.2195302  54.9271186  54.9249636
  54.5558803  54.2767409  56.1150176  57.2332700  54.8308691  55.6849616
  62.0944163  56.2930529  47.0451271  64.3705892  57.3145235  46.6242997
  64.5802602  57.6604530  45.1435837  63.2860127  57.0455275  45.5807999
  63.4213285  56.7477507  47.6053306  65.7474817  57.8565532  46.8037342
  63.6230067  56.5803686  49.0424277  66.5275978  57.9631452  48.0523186
  64.8253494  56.9414763  49.8399629  66.1193320  57.5570508  49.4020336
  67.1351866  57.7967709  50.4500309  66.8293762  57.4253515  51.8451172
  68.4631854  58.4140393  50.0795258  68.4958538  59.6613613  49.2856559
  69.7824966  57.7642426  50.5166795  69.8235877  60.2792787  48.9144376
  71.1104953  58.3815110  50.1461744  71.1419348  59.6293178  49.3518000
  60.6176795  55.3199724  49.2418920  60.7450933  58.5107473  46.0786095
  58.5399423  59.5013296  47.0209242  57.3905984  58.3869119  49.0712249
  56.6552589  55.2465101  52.0532816  54.5993120  57.0325376  52.4132724
  54.8887210  55.3130298  51.7170256  53.6541469  56.1109692  54.1019073
  54.0134734  54.4415615  53.3032909  62.1090263  56.5194980  45.9684144
  62.0443689  55.2336665  47.3364304  66.3752848  57.2482593  46.1348046
  65.5263451  58.9241590  46.6556986  62.7992976  57.1424893  49.5079614
  63.7218461  55.4852375  49.0734388  67.4500228  57.3954296  47.8562953
  66.4886613  59.0539326  48.1843897  64.4433196  57.6343998  50.6039677
  65.1989788  55.9217433  50.0113682  69.7604679  56.8364236  51.1079794
  69.8449171  61.2062845  48.3240596  72.0489390  57.9062340  50.4657745
  72.1039930  60.0863401  49.0765771  89.4777221  47.7261115  68.3536810
  93.4405411  49.2740645  75.1853939  93.8235743  54.6190087  74.8224119
  91.3559949  55.8805029  70.7492626  94.7432500  51.7222348  71.2842660
  92.2281200  47.7892361  69.4278137  95.5795737  47.8138882  73.1432476
  99.0614432  48.3598619  71.3365665 102.0841745  47.9798925  68.0124271
  95.4466035  57.1400513  72.3975617  95.7611740  57.9803973  68.4315886
  95.5844436  55.1456106  68.1657511  95.2582847  56.2551731  64.6669259
  93.5009633  58.6041860  61.3420978  95.4505649  58.6136875  57.1857694
  97.0846883  59.3251705  66.5166275  93.0849828  60.6951836  74.4469565
  92.9040764  62.2079277  84.8617393  92.4447544  64.6546577  86.1004334
  94.9868814  63.4749826  76.7077445  97.6958892  64.5942642  72.9025887
  96.8967406  67.3935554  69.1170904  94.7424967  64.4457112  66.0859570
  94.4155379  62.4152651  72.0663684 101.1436955  16.7394454  22.7988756
  99.9515793  19.7900077  22.0167625  99.1775739  67.3018750  63.1519701
  98.1226689  63.6233044  65.8390671  98.9780721  59.7705616  69.2418828
  99.3736952  68.3504554  57.7590102  96.4998655  76.0968655  63.8337801
  95.2933535  73.4709807  68.3391901  94.5771908  70.3152120  71.5938209
  98.0168296  71.5204377  60.9251720  98.3183942  72.6246990  55.6428871
  94.7432502  74.7160224  58.0087963  96.1389661  69.1332997  67.1382633
  93.5476749  67.5483435  64.8305892  96.7935642  68.2667874  58.9101560
  97.5562380  67.2854410  73.3325831  95.0570197  66.0138746  74.9307554
  94.8522601  70.8183883  75.2461102  92.9607220  74.2158134  80.9272365
  91.3559948  78.8742906  84.0247319  92.9357003  54.4951678  66.9380956
  94.5216768  76.3595864  77.8494030  95.5844435  78.1393984  81.4412204
 106.4097277  47.7983384  67.7745119  95.7320028  74.9205884  74.8633441
  92.2281199  70.7830238  82.7032830 109.6322695  45.3074102  65.8103652
  97.0721721  57.8826283  54.7432444  93.8649853  68.1330511  79.4151694
 111.2384256  44.6408689  63.5718292 111.9290422  41.4708670  59.7125132
 115.6541974  39.2997945  58.6719760  96.8717865  56.2700039  51.6215200
  90.3996466  50.2650844  68.0564119  90.6242900  50.9048752  72.7433002
  91.0701632  53.1797298  75.6679794  90.2535197  51.0381377  79.9231104
  87.5146277  50.6930291  83.1288836  83.9031210  49.1165196  92.6368959
  81.2318125  51.5903422  95.4481580  86.0910614  49.5078819  86.6445888
  85.2923683  46.7563746  89.7795955  78.7145728  54.7248673  97.0929894
  75.2516859  57.1724779  99.9200582  72.6316357  58.9674758  99.6655980
  68.3890004  58.8483665  97.4152511  66.5169762  62.5665372  97.8398963
  64.3633880  62.2370315 105.2197640  62.6879822  64.8315690 107.2740399
  60.3859498  62.2079279 111.4126779  60.3426018  51.4460273 108.9168506
  65.9191547  65.9109411 105.2121908  67.4334522  65.7775835 101.6695788
  70.6648406  64.2124367  98.7817258  65.5162578  64.1519046 107.7621692
  57.7353931  51.0381379 106.4740491  68.2176061  55.2872830 132.0062205
  67.5437760  55.5904527 132.6147163  68.6041883  56.0901910 131.6567662
  72.1832802  52.8658314 133.2802028  72.8783707  53.4865006 133.4989343
  72.5255952  52.0153665 133.5554406  66.2747670  52.9720065 132.1877122
  65.7021637  53.5910252 131.7347594  66.8480464  53.5219427 132.7217044
  69.4944930  53.2557215 133.3185704  70.4275603  53.1902777 133.5218579
  69.4068143  54.0913482 132.8600237  72.1232947  52.5723086 130.2789652
  72.0446578  52.2382949 131.1725409  72.9442614  53.0644854 130.2781124
  69.6936899  49.8891081 129.8999630  70.3972749  50.0941084 130.5157285
  68.9699547  50.4567843 130.1648713  71.6023596  50.3273610 131.9498090
  72.4369200  49.8954809 131.7675565  71.4407939  50.1555624 132.8774984
  73.0637451  56.7811158 132.4633042  72.2274764  57.1185844 132.7842317
  72.9242221  56.6460137 131.5260179  72.9375832  56.6258385 129.6630949
  72.0605298  56.5047186 129.2993196  73.4133585  55.8344463 129.4109838
  70.6394300  57.5657388 133.2212605  69.9463545  57.6401743 132.5652641
  70.3946052  56.8017731 133.7434122  75.6831140  57.5622772 129.4648059
  74.7762596  57.2655885 129.5410773  75.9607121  57.2652590 128.5982346
  74.4529925  54.4209707 129.6060039  75.3149089  54.7464606 129.8655856
  74.6380269  53.6341203 129.0933104  75.4059368  51.6605750 132.8939748
  75.3938038  52.6047590 133.0508018  76.2982790  51.4775896 132.5999209
  68.2176062  32.2934953 118.7307512  67.5437761  32.5966649 119.3392469
  68.6041884  33.0964033 118.3812969  72.1832803  29.8720436 120.0047335
  72.8783708  30.4927129 120.2234649  72.5255953  29.0215787 120.2799713
  66.2747672  29.9782188 118.9122428  65.7021639  30.5972375 118.4592900
  66.8480465  30.5281550 119.4462350  69.4944931  30.2619338 120.0431011
  70.4275605  30.1964900 120.2463886  69.4068144  31.0975605 119.5845543
  72.1232948  29.5785208 117.0034958  72.0446580  29.2445072 117.8970716
  72.9442615  30.0706976 117.0026431  69.6936900  26.8953204 116.6244936
  70.3972750  27.1003206 117.2402592  68.9699549  27.4629966 116.8894020
  71.6023597  27.3335733 118.6743397  72.4369201  26.9016931 118.4920871
  71.4407940  27.1617747 119.6020291  80.2307872  37.8505384 128.7698573
  80.8686282  37.7312131 128.0661913  80.1128715  38.7986228 128.8286525
  72.8984394  39.6568289 124.6956989  72.3349259  39.5658225 123.9273277
  72.7836789  38.8368193 125.1759481  78.4783953  43.3239256 120.0071454
  77.8271933  43.9093337 119.6205468  79.2728316  43.8545451 120.0666491
  72.4039580  40.4128393 120.4058588  73.1770456  39.8657380 120.2671464
  72.7564979  41.2772643 120.6173050  74.7405858  36.5721060 118.0377038
  74.9931379  36.0502581 117.2760501  73.8030417  36.4087205 118.1403722
  79.7849141  35.5756838 125.8451781  80.5712230  35.1576261 125.4942198
  80.0487845  36.4802930 126.0133430  79.9559218  41.0129688 120.5440438
  79.3205051  41.0864315 121.2561343  79.6256625  41.6023287 119.8659517
  74.4602147  38.4749165 120.2401413  74.3438405  37.7994069 120.9082497
  74.5704407  37.9881539 119.4233566  76.8033688  37.9359313 123.9448102
  76.4391895  37.4089934 124.6561024  77.6600804  37.5457782 123.7714588
  76.4439175  32.9649212 118.9409451  76.6113577  33.8329449 119.3079922
  76.2536344  33.1276494 118.0170740  76.4228396  35.4206870 119.9256118
  76.3028021  35.8663921 120.7641598  75.7280984  35.7692187 119.3669656
  74.1835288  48.1910512 123.5746249  74.1059317  49.1418337 123.6534729
  73.5796931  47.8456384 124.2321175  82.1213462  35.8928343 120.7536452
  83.0331318  36.1255730 120.5784149  81.6123109  36.4765387 120.1911530
  80.7283044  40.8754161 128.1450033  80.0991906  41.0399876 127.4426101
  80.3408706  41.2895771 128.9160997  84.6072276  41.8108599 125.4994397
  83.9223314  42.1907501 124.9491430  84.6916125  42.4203926 126.2326345
  76.2811006  40.6128569 125.4100118  76.7449351  40.8916272 124.6204741
  76.0167804  39.7112014 125.2273209  75.2179892  36.7351722 122.2189683
  75.9203935  37.1872766 122.6863610  74.8860520  36.0935541 122.8469577
  76.4573657  43.5492664 122.2951789  76.3219331  44.3944200 122.7236636
  76.9983469  43.7511942 121.5317722  69.9103054  41.0668103 122.8679714
  70.4227574  41.8611353 123.0185278  70.5625767  40.3694393 122.8013315
  71.7197939  44.1833859 124.9502467  71.8964567  45.1051823 124.7623451
  72.5154772  43.8692278 125.3796847  72.8429254  45.7012033 130.9512809
  73.3936679  45.5729096 130.1789803  72.0040730  46.0006922 130.6007702
  67.8751971  39.3956757 123.6439284  68.7127193  39.8053765 123.4272992
  68.0530238  38.4556199 123.6139478  79.7716403  37.0631837 119.3323117
  79.2563026  37.8336442 119.5711505  79.4993711  36.3896974 119.9556179
  77.3563514  31.9081538 124.3908356  76.5005110  31.5188389 124.2113994
  77.7690466  31.9873499 123.5308141  84.7450677  39.8164192 121.2676291
  83.9680120  39.4775352 120.8231453  85.4242158  39.8216815 120.5931256
  79.5602706  34.9358930 121.1582898  79.2552842  35.2505079 122.0093042
  80.5133148  35.0140349 121.2010231  78.0049138  41.0949153 122.8075852
  77.4770499  40.3601912 122.4949090  77.5036641  41.8723829 122.5615821
  82.9841984  39.2898173 127.9242899  82.3265658  39.9797435 128.0123027
  83.7882383  39.6794605 128.2676885  81.7947443  37.6442546 125.9746840
  82.3079324  38.2772538 126.4768550  82.4448667  37.0443742 125.6090200
  73.0637453  33.7873280 119.1878349  72.2274765  34.1247967 119.5087624
  72.9242222  33.6522260 118.2505486  76.1501738  38.9129363 115.8110825
  75.2428800  38.6818617 116.0101974  76.6472770  38.1166982 115.9984807
  79.0569817  47.6226870 118.7307512  78.3831516  47.9258567 119.3392469
  79.4435639  48.4255951 118.3812969  79.0563321  36.5183417 123.3507861
  79.8035140  37.0304815 123.0414983  79.3254911  36.1967470 124.2112255
  77.3289971  39.0141958 120.3334815  76.4201191  38.7300991 120.4307285
  77.3585055  39.4341037 119.4738122  82.5609239  42.6248548 124.1025983
  82.1071566  41.7839457 124.1591173  81.9303206  43.2609946 124.4400763
  81.5042158  33.5540534 125.3326650  80.7664915  33.0417920 125.6636893
  81.7568932  33.1140915 124.5209927  81.0042178  44.4625044 125.0375801
  81.2965152  45.0230101 124.3188167  81.5140799  44.7553605 125.7928960
  75.8774866  36.6270579 126.4344611  75.9323475  35.6744415 126.3587087
  75.0666068  36.7830018 126.9185909  77.0266059  40.5550702 117.6722894
  76.5885489  39.8386561 117.2128531  77.7676500  40.7826816 117.1107985
  73.8167225  35.2447638 124.1934990  73.0035091  35.5441809 124.6000182
  74.3126220  34.8503327 124.9109472  75.9675803  45.2405395 126.1269254
  75.9251982  45.4666242 125.1977786  76.8838502  45.0068770 126.2755056
  85.1439174  38.8307899 123.7299213  85.0057073  39.0209495 122.8020402
  84.7875393  39.5927282 124.1867264  74.0841604  42.1168424 125.9231217
  74.8782203  41.6218744 125.7213792  73.3733296  41.5886287 125.5598923
  78.9036449  44.4986520 130.2743585  78.9573471  45.0677456 131.0421301
  78.0351230  44.6688405 129.9097622  70.3924368  36.2611506 121.9990970
  69.4621956  36.1995962 122.2160932  70.4881840  35.7387459 121.2027611
  76.6612880  42.6897446 129.6029054  76.5223966  42.3216231 130.4754992
  75.8727476  43.2045086 129.4313012  77.2561032  47.7906543 120.9454591
  77.4312788  47.3194586 121.7600213  76.5693820  48.4172309 121.1735851
  78.2118095  42.0679049 126.9917892  77.8767928  42.0279819 127.8875542
  77.7122041  41.4023765 126.5188302  81.1477287  39.4135083 117.2654952
  80.5306458  38.6881911 117.1688004  80.6793775  40.1744444 116.9222026
  71.8222117  50.9395906 127.7194451  72.0618716  51.5714430 128.3973469
  70.9791314  50.5883946 128.0059810  72.9375833  33.6320508 116.3876256
  72.0605299  33.5109308 116.0238503  73.4133586  32.8406586 116.1355145
  76.3349979  46.7475028 130.1235955  76.2620151  47.5529999 130.6355259
  75.8927372  46.9466994 129.2983976  76.1239759  45.9846798 123.6338776
  75.3407281  46.5268478 123.7277001  76.8232504  46.5020778 124.0333018
  78.7948663  46.6461862 132.2794114  79.5076635  47.2809327 132.2070015
  78.3038691  46.7425728 131.4634115  80.5166190  40.5513115 123.8511405
  79.5822468  40.6714577 123.6816110  80.6942858  39.6485581 123.5871415
  83.9038741  36.3930434 124.3861439  84.3699193  37.2258426 124.3121742
  84.3546241  35.9275416 125.0906698  81.9714972  42.7374255 121.3847591
  82.2474816  42.6230850 122.2941465  81.1019471  42.3391740 121.3459764
  78.6069036  46.9860606 125.0280405  78.7891431  46.1682262 125.4908157
  79.4302022  47.2028298 124.5905295  78.9411202  45.9128791 122.2895453
  79.4698968  45.4021246 121.6765616  79.2039421  45.5971321 123.1540987
  72.2966950  46.9643908 125.0493229  71.6277325  47.4490036 124.5657269
  72.1579819  47.2113128 125.9636608  76.4372218  48.9987651 131.6475888
  76.9890526  49.1619273 132.4124973  76.7778412  49.5892089 130.9755913
  67.6654527  35.2262363 121.8289162  67.9607968  34.3173041 121.7756215
  66.7642562  35.2050102 121.5070164  79.5740605  46.9469627 128.6339570
  79.4491745  46.1459367 128.1250515  80.2319697  47.4415820 128.1453540
  81.6375514  44.7478647 130.2619120  80.6905849  44.6283998 130.1897447
  81.9858287  43.8601145 130.3445381  78.6421947  44.5431363 126.4623472
  78.4946910  43.6148071 126.6431042  79.4675441  44.5651454 125.9780547
  72.5084191  33.1949430 122.3203964  72.8480264  33.7235352 121.5982573
  72.9556312  33.5329836 123.0962531  82.2456069  45.3659922 127.5488345
  83.1702616  45.1602783 127.4112796  82.0771372  45.1176323 128.4577686
  74.4952339  31.6924052 120.5197257  75.2160701  32.0705305 120.0160974
  73.8717643  32.4112929 120.6232235  78.6383461  32.3969201 121.4555589
  78.8547076  33.2793839 121.1544418  78.1577529  32.0055414 120.7261231
  82.0351385  45.8845589 122.9050436  82.2088263  45.3192012 122.1524289
  82.5280276  46.6846484 122.7229926  87.8890776  38.6482012 124.5240736
  88.3321922  37.8989338 124.1259859  87.0117287  38.6392149 124.1414468
  83.0226558  45.2012354 120.0047335  83.7177462  45.8219047 120.2234649
  83.3649708  44.3507705 120.2799713  84.9217981  42.6512059 121.5334666
  85.4469305  42.9899332 120.8083986  84.8340333  41.7159075 121.3497800
  76.6058641  48.7184043 125.8929919  76.1663632  48.2260421 126.5862775
  77.3566758  48.1757010 125.6521994  69.0850980  44.9095583 125.8954547
  69.9109000  44.6099355 125.5153190  68.7345032  44.1403206 126.3444335
  74.0532514  44.2622052 127.9652220  73.4312523  43.5992757 127.6654448
  74.7237381  44.2883184 127.2825868  73.6146021  42.8125975 121.4410681
  73.7634141  43.4961439 120.7877354  74.4212464  42.7931065 121.9560137
  71.3698654  38.8391153 122.4471750  71.1244695  37.9353483 122.6451960
  71.5394568  38.8408303 121.5051228  70.6394301  34.5719510 119.9457911
  69.9463546  34.6463865 119.2897947  70.3946053  33.8079854 120.4679428
  77.1141426  45.3074106 118.9122428  76.5415393  45.9264293 118.4592900
  77.6874220  45.8573467 119.4462350  80.3338686  45.5911256 120.0431011
  81.2669359  45.5256817 120.2463886  80.2461899  46.4267522 119.5845543
  82.9626703  44.9077126 117.0034958  82.8840334  44.5736990 117.8970716
  83.7836369  45.3998894 117.0026431  77.4988225  36.6434918 116.2538481
  78.4447329  36.5141126 116.3226899  77.1202470  35.9049580 116.7307909
  75.6831142  34.5684895 116.1893366  74.7762597  34.2718007 116.2656080
  75.9607123  34.2714713 115.3227652  77.2993207  29.1121784 122.3437607
  76.4893936  28.7668869 122.7192853  77.9877624  28.8029328 122.9325219
  74.4529926  31.4271830 116.3305345  75.3149090  31.7526728 116.5901163
  74.6380271  30.6403326 115.8178411  82.6062563  30.3000356 123.4740568
  82.0261232  30.9585160 123.0918621  82.3398496  29.4777701 123.0627986
  81.3887441  32.4600447 122.5296917  80.5013296  32.7450097 122.3117111
  81.8041430  32.2994210 121.6824193  69.3971691  47.0408198 127.6168361
  69.2626159  46.2808599 127.0506359  68.9803754  47.7649098 127.1497150
  80.5330654  42.2245121 116.6244936  81.2366504  42.4295124 117.2402592
  79.8093303  42.7921883 116.8894020  81.3628465  37.9754983 122.7447207
  81.3063666  38.4323534 121.9054839  81.9156807  37.2145667 122.5670049
  85.1733271  33.7644715 123.5697326  84.9170205  33.3641350 124.4005534
  84.5486139  34.4788508 123.4447465  72.5540817  47.9377515 127.8286804
  72.4373201  48.8822947 127.7265494  71.7333263  47.6351076 128.2172603
  82.4417352  42.6627651 118.6743397  83.2762956  42.2308849 118.4920871
  82.2801695  42.4909664 119.6020291  82.0963244  39.1659764 120.0399736
  82.0412048  39.0004035 119.0988180  81.4709299  39.8735797 120.1961926
  75.4059369  28.6667873 119.6185054  75.3938039  29.6109713 119.7753325
  76.2982791  28.4838018 119.3244515  73.5795331  48.5905777 131.0442732
  74.4822578  48.6229387 131.3609227  73.3532701  47.6606228 131.0589068
  75.3348933  47.3436763 127.7052811  74.3844564  47.3438625 127.5917183
  75.6381419  46.5969498 127.1888846  83.7378149  54.9860206 124.6956989
  83.1743014  54.8950143 123.9273277  83.6230544  54.1660111 125.1759481
  81.2842581  56.4811398 127.5341209  82.0763873  56.1402222 127.1187509
  81.5239231  56.5906373 128.4543363  89.3177708  58.6531174 120.0071454
  88.6665687  59.2385254 119.6205468  90.1122070  59.1837369 120.0666491
  83.2433335  55.7420311 120.4058588  84.0164211  55.1949298 120.2671464
  83.5958734  56.6064560 120.6173050  85.5799612  51.9012977 118.0377038
  85.8325133  51.3794498 117.2760501  84.6424172  51.7379123 118.1403722
  90.6242895  50.9048756 125.8451781  91.4105985  50.4868179 125.4942198
  90.8881600  51.8094848 126.0133430  90.7952973  56.3421606 120.5440438
  90.1598806  56.4156232 121.2561343  90.4650379  56.9315205 119.8659517
  85.2995901  53.8041083 120.2401413  85.1832159  53.1285987 120.9082497
  85.4098161  53.3173457 119.4233566  87.6427442  53.2651230 123.9448102
  87.2785649  52.7381851 124.6561024  88.4994558  52.8749699 123.7714588
  87.2832929  48.2941130 118.9409451  87.4507331  49.1621366 119.3079922
  87.0930098  48.4568412 118.0170740  83.4920744  53.2071906 126.6411986
  82.5671240  53.0748120 126.8489677  83.7405157  53.9866125 127.1381928
  87.2622150  50.7498787 119.9256118  87.1421775  51.1955838 120.7641598
  86.5674738  51.0984105 119.3669656  80.8529555  52.8505179 127.4755775
  80.9821936  53.1039658 128.3895186  80.1727006  53.4432887 127.1560430
  92.9607216  51.2220261 120.7536452  93.8725072  51.4547647 120.5784149
  92.4516863  51.8057305 120.1911530  87.1204760  55.9420487 125.4100118
  87.5843106  56.2208190 124.6204741  86.8561558  55.0403932 125.2273209
  86.0573646  52.0643640 122.2189683  86.7597690  52.5164683 122.6863610
  85.7254275  51.4227458 122.8469577  79.7998980  50.3227192 127.5206817
  79.0098034  50.5784721 127.0446928  80.2910228  51.1375530 127.6258857
  81.7513726  50.6871771 124.4790294  80.9544889  50.7990466 124.9973789
  81.5239318  51.0258424 123.6131184  78.0836683  50.5757683 129.9521808
  78.3344722  51.4604693 130.2179384  78.6196232  50.3962284 129.1796900
  87.2967411  58.8784582 122.2951789  87.1613086  59.7236118 122.7236636
  87.8377224  59.0803860 121.5317722  80.7496808  56.3960020 122.8679714
  81.2621329  57.1903270 123.0185278  81.4019521  55.6986311 122.8013315
  82.5591693  59.5125776 124.9502467  82.7358321  60.4343741 124.7623451
  83.3548527  59.1984196 125.3796847  78.7145725  54.7248674 123.6439284
  79.5520947  55.1345683 123.4272992  78.8923993  53.7848117 123.6139478
  90.6110157  52.3923755 119.3323117  90.0956781  53.1628360 119.5711505
  90.3387466  51.7188891 119.9556179  88.1957268  47.2373456 124.3908356
  87.3398865  46.8480306 124.2113994  88.6084220  47.3165417 123.5308141
  85.9699301  44.8558529 127.7966097  86.8352298  44.6601338 127.4371987
  86.0376810  44.6268881 128.7235454  95.5844431  55.1456110 121.2676291
  94.8073874  54.8067269 120.8231453  96.2635912  55.1508733 120.5931256
  90.3996460  50.2650847 121.1582898  90.0946596  50.5796996 122.0093042
  91.3526903  50.3432267 121.2010231  88.8442892  56.4241071 122.8075852
  88.3164254  55.6893830 122.4949090  88.3430395  57.2015747 122.5615821
  83.5761620  47.0860737 125.1682464  84.1505372  46.8635918 124.4355657
  84.1632602  47.1549431 125.9211065  83.9031207  49.1165198 119.1878349
  83.0668519  49.4539884 119.5087624  83.7635977  48.9814178 118.2505486
  85.8784288  43.9601986 123.8957533  85.2248700  43.6451003 123.2714148
  85.8364762  43.3377726 124.6217356  86.9895493  54.2421281 115.8110825
  86.0822554  54.0110534 116.0101974  87.4866524  53.4458900 115.9984807
  89.8963571  62.9518788 118.7307512  89.2225270  63.2550485 119.3392469
  90.2829393  63.7547868 118.3812969  89.1122028  50.4483919 128.2205181
  88.1944589  50.6698866 128.0626869  89.5282172  50.5230230 127.3616888
  89.8957076  51.8475335 123.3507861  90.6428895  52.3596732 123.0414983
  90.1648665  51.5259388 124.2112255  88.1683726  54.3433876 120.3334815
  87.2594945  54.0592909 120.4307285  88.1978810  54.7632954 119.4738122
  92.3435913  48.8832451 125.3326650  91.6058670  48.3709837 125.6636893
  92.5962686  48.4432833 124.5209927  78.7371896  52.0639390 124.3150018
  78.5396296  51.4708751 123.5901084  78.1818560  51.7591600 125.0325956
  86.7168620  51.9562496 126.4344611  86.7717230  51.0036333 126.3587087
  85.9059822  52.1121935 126.9185909  87.8659814  55.8842619 117.6722894
  87.4279244  55.1678478 117.2128531  88.6070255  56.1118734 117.1107985
  84.6560980  50.5739556 124.1934990  83.8428845  50.8733727 124.6000182
  85.1519974  50.1795245 124.9109472  95.9832929  54.1599816 123.7299213
  95.8450827  54.3501412 122.8020402  95.6269147  54.9219199 124.1867264
  84.1475055  48.1457912 129.8096225  84.7874434  48.0046671 129.1119188
  83.3152585  47.8592425 129.4334827  84.9235359  57.4460342 125.9231217
  85.7175957  56.9510662 125.7213792  84.2127051  56.9178205 125.5598923
  81.2318122  51.5903424 121.9990970  80.3015710  51.5287879 122.2160932
  81.3275594  51.0679376 121.2027611  81.1503671  48.1158237 124.5869211
  81.4110488  49.0303570 124.4778372  81.9720843  47.6482679 124.7365824
  82.6228596  49.5295994 131.7568036  83.2951650  49.3213356 131.1080685
  81.7958383  49.3318080 131.3173268  88.0954787  63.1198460 120.9454591
  88.2706542  62.6486504 121.7600213  87.4087575  63.7464227 121.1735851
  91.9871041  54.7427001 117.2654952  91.3700212  54.0173829 117.1688004
  91.5187530  55.5036361 116.9222026  83.7769587  48.9612425 116.3876256
  82.8999054  48.8401226 116.0238503  84.2527340  48.1698504 116.1355145
  75.2971727  53.7489585 126.4817763  75.9842767  53.4351315 125.8938778
  75.1419856  54.6530950 126.2085014  80.1006450  48.6379782 130.9102787
  80.0164638  48.0305451 130.1753197  79.2789156  49.1288800 130.9112283
  90.2730163  47.1233345 126.2772982  90.7698863  46.3703307 125.9574052
  89.5017145  47.1597662 125.7116191  91.3559944  55.8805032 123.8511405
  90.4216223  56.0006495 123.6816110  91.5336613  54.9777499 123.5871415
  86.8565132  49.2650728 126.0044666  86.4862920  48.7121768 126.6925572
  87.3524225  48.6608862 125.4519666  94.7432495  51.7222352 124.3861439
  95.2092948  52.5550343 124.3121742  95.1939996  51.2567333 125.0906698
  92.8108727  58.0666173 121.3847591  93.0868570  57.9522767 122.2941465
  91.9413225  57.6683658 121.3459764  89.7804956  61.2420709 122.2895453
  90.3092723  60.7313163 121.6765616  90.0433176  60.9263239 123.1540987
  74.8739704  51.8290178 128.7535230  74.9123803  51.2953769 129.5472348
  74.3679996  51.3025384 128.1346207  82.2530466  46.6754719 132.2497772
  82.3171792  47.5369550 131.8375170  82.1897586  46.0628721 131.5170131
  78.5048281  50.5554281 121.8289162  78.8001722  49.6464959 121.7756215
  77.6036317  50.5342020 121.5070164  82.0342528  48.6310277 127.8116710
  81.3129114  49.2446245 127.6724183  82.8235784  49.1668042 127.7333356
  80.2336123  48.2368378 121.9528487  79.9048829  47.3565757 121.7703593
  80.5875493  48.1816047 122.8404876  83.3477946  48.5241348 122.3203964
  83.6874018  49.0527269 121.5982573  83.7950066  48.8621754 123.0962531
  85.3346093  47.0215970 120.5197257  86.0554456  47.3997222 120.0160974
  84.7111397  47.7404846 120.6232235  89.4777216  47.7261119 121.4555589
  89.6940830  48.6085756 121.1544418  88.9971283  47.3347332 120.7261231
  84.2176437  50.6846832 128.0326334  84.0721018  50.9987135 128.9250616
  83.7401641  51.3031732 127.4797233  86.0772820  47.6749380 128.0807224
  86.0634389  46.7790473 127.7439522  86.7945248  47.6820044 128.7145510
  78.6922099  53.2252176 130.9713995  78.1475568  54.0011984 131.1034270
  79.5701449  53.5722981 130.8133117  85.4809716  46.5563760 123.3494794
  85.6025627  45.6280406 123.5485681  85.1911758  46.5702446 122.4373109
  88.3500906  44.2418670 126.4861514  88.3722603  44.3058004 125.5313493
  88.7668965  43.4023179 126.6802020  93.8620312  60.5304272 120.0047335
  94.5571217  61.1510964 120.2234649  94.2043462  59.6799623 120.2799713
  95.7611735  57.9803977 121.5334666  96.2863059  58.3191250 120.8083986
  95.6734088  57.0450992 121.3497800  79.9244735  60.2387501 125.8954547
  80.7502755  59.9391273 125.5153190  79.5738787  59.4695124 126.3444335
  78.1253340  58.1573828 126.8543480  77.2885248  57.7296002 126.6727482
  78.0976985  58.3506271 127.7914272  84.4539775  58.1417893 121.4410681
  84.6027895  58.8253357 120.7877354  85.2606219  58.1222983 121.9560137
  82.2092408  54.1683070 122.4471750  81.9638450  53.2645400 122.6451960
  82.3788323  54.1700221 121.5051228  81.4788056  49.9011428 119.9457911
  80.7857300  49.9755783 119.2897947  81.2339807  49.1371772 120.4679428
  87.9535181  60.6366023 118.9122428  87.3809148  61.2556210 118.4592900
  88.5267974  61.1865385 119.4462350  91.1732440  60.9203173 120.0431011
  92.1063114  60.8548735 120.2463886  91.0855653  61.7559440 119.5845543
  93.8020457  60.2369044 117.0034958  93.7234089  59.9028907 117.8970716
  94.6230124  60.7290812 117.0026431  88.3381979  51.9726836 116.2538481
  89.2841084  51.8433044 116.3226899  87.9596224  51.2341498 116.7307909
  86.5224896  49.8976812 116.1893366  85.6156352  49.6009925 116.2656080
  86.8000877  49.6006630 115.3227652  77.4402837  51.2183176 126.6392412
  77.1205621  50.3648484 126.3466786  76.8936265  51.4331754 127.3950380
  88.1386962  44.4413702 122.3437607  87.3287690  44.0960787 122.7192853
  88.8271379  44.1321246 122.9325219  90.0677510  43.5191749 123.9661904
  90.6208549  43.9387202 124.6251927  90.3047597  42.5927497 124.0084860
  85.2923681  46.7563748 116.3305345  86.1542845  47.0818646 116.5901163
  85.4774025  45.9695243 115.8178411  77.3091097  54.8386087 128.6085534
  76.6154568  54.4240040 128.0955488  78.0564088  54.8806624 128.0118953
  93.4456317  45.6292274 123.4740568  92.8654986  46.2877078 123.0918621
  93.1792250  44.8069619 123.0627986  79.2227839  54.7704341 126.4851549
  79.1998527  54.8692028 125.5333432  79.5328476  55.6169492 126.8068715
  92.2281195  47.7892364 122.5296917  91.3407050  48.0742015 122.3117111
  92.6435184  47.6286128 121.6824193  91.3724409  57.5537039 116.6244936
  92.0760259  57.7587042 117.2402592  90.6487058  58.1213801 116.8894020
  92.2022219  53.3046900 122.7447207  92.1457420  53.7615452 121.9054839
  92.7550562  52.5437585 122.5670049  96.0127025  49.0936632 123.5697326
  95.7563959  48.6933268 124.4005534  95.3879893  49.8080426 123.4447465
  93.2811106  57.9919568 118.6743397  94.1156710  57.5600767 118.4920871
  93.1195449  57.8201582 119.6020291  92.9356998  54.4951682 120.0399736
  92.8805802  54.3295953 119.0988180  92.3103054  55.2027714 120.1961926
  77.7249513  49.7319746 133.8661158  78.3708377  49.2218700 134.3548383
  77.5166664  50.4688428 134.4404583  86.2453124  43.9959791 119.6185054
  86.2331794  44.9401630 119.7753325  87.1376546  43.8129936 119.3244515
  94.7424962  64.4457116 119.1878349  93.9062274  64.7831802 119.5087624
  94.6029731  64.3106095 118.2505486  94.6163342  64.2904343 116.3876256
  93.7392808  64.1693144 116.0238503  95.0921095  63.4990421 116.1355145
  92.3181810  65.2303346 119.9457911  91.6251055  65.3047701 119.2897947
  92.0733562  64.4663689 120.4679428  97.3618651  65.2268730 116.1893366
  96.4550106  64.9301843 116.2656080  97.6394632  64.9298548 115.3227652
  96.1317435  62.0855665 116.3305345  96.9936599  62.4110564 116.5901163
  96.3167779  61.2987161 115.8178411  97.0846878  59.3251708 119.6185054
  97.0725548  60.2693548 119.7753325  97.9770300  59.1421854 119.3244515
  68.2176064   9.2997075 105.4552818  67.5437762   9.6028772 106.0637776
  68.6041886  10.1026156 105.1058275  72.1832804   6.8782559 106.7292641
  72.8783709   7.4989251 106.9479956  72.5255955   6.0277910 107.0045019
  66.2747673   6.9844310 105.6367735  65.7021640   7.6034498 105.1838207
  66.8480467   7.5343672 106.1707657  69.4944933   7.2681461 106.7676317
  70.4275606   7.2027022 106.9709193  69.4068145   8.1037727 106.3090850
  72.1232949   6.5847331 103.7280265  72.0446581   6.2507195 104.6216023
  72.9442616   7.0769099 103.7271737  69.6936901   3.9015326 103.3490243
  70.3972751   4.1065329 103.9647899  68.9699550   4.4692088 103.6139327
  71.6023598   4.3397856 105.3988703  72.4369202   3.9079054 105.2166178
  71.4407941   4.1679869 106.3265598  80.2307874  14.8567507 115.4943880
  80.8686284  14.7374254 114.7907220  80.1128716  15.8048351 115.5531832
  72.8984396  16.6630411 111.4202296  72.3349261  16.5720348 110.6518583
  72.7836791  15.8430316 111.9004788  78.4783954  20.3301379 106.7316760
  77.8271934  20.9155459 106.3450774  79.2728317  20.8607574 106.7911798
  72.4039581  17.4190516 107.1303895  73.1770457  16.8719503 106.9916771
  72.7564980  18.2834765 107.3418356  74.7405859  13.5783182 104.7622345
  74.9931380  13.0564703 104.0005808  73.8030418  13.4149328 104.8649028
  79.7849142  12.5818960 112.5697088  80.5712231  12.1638384 112.2187505
  80.0487846  13.4865053 112.7378736  79.9559219  18.0191811 107.2685745
  79.3205052  18.0926437 107.9806649  79.6256626  18.6085410 106.5904824
  74.4602148  15.4811288 106.9646720  74.3438406  14.8056191 107.6327804
  74.5704408  14.9943662 106.1478873  76.8033689  14.9421435 110.6693409
  76.4391896  14.4152056 111.3806330  77.6600805  14.5519904 110.4959894
  76.4439176   9.9711335 105.6654757  76.6113578  10.8391571 106.0325229
  76.2536345  10.1338617 104.7416047  76.4228397  12.4268992 106.6501424
  76.3028022  12.8726043 107.4886905  75.7280985  12.7754310 106.0914962
  74.1835289  25.1972634 110.2991556  74.1059319  26.1480459 110.3780036
  73.5796932  24.8518507 110.9566482  82.1213463  12.8990466 107.4781758
  83.0331319  13.1317852 107.3029456  81.6123110  13.4827510 106.9156837
  80.7283045  17.8816284 114.8695340  80.0991908  18.0461998 114.1671408
  80.3408707  18.2957894 115.6406304  84.6072277  18.8170722 112.2239704
  83.9223315  19.1969623 111.6736737  84.6916126  19.4266048 112.9571651
  76.2811007  17.6190692 112.1345425  76.7449353  17.8978395 111.3450047
  76.0167805  16.7174137 111.9518516  75.2179893  13.7413844 108.9434990
  75.9203937  14.1934888 109.4108916  74.8860522  13.0997663 109.5714883
  76.4573658  20.5554787 109.0197095  76.3219333  21.4006323 109.4481943
  76.9983470  20.7574065 108.2563029  69.9103055  18.0730225 109.5925020
  70.4227576  18.8673475 109.7430585  70.5625768  17.3756516 109.5258622
  71.7197940  21.1895981 111.6747774  71.8964568  22.1113946 111.4868757
  72.5154773  20.8754401 112.1042153  72.8429255  22.7074155 117.6758116
  73.3936680  22.5791219 116.9035110  72.0040731  23.0069044 117.3253009
  67.8751972  16.4018879 110.3684591  68.7127194  16.8115888 110.1518299
  68.0530240  15.4618322 110.3384785  79.7716404  14.0693960 106.0568424
  79.2563028  14.8398565 106.2956811  79.4993713  13.3959096 106.6801485
  77.3563515   8.9143661 111.1153662  76.5005111   8.5250511 110.9359301
  77.7690467   8.9935622 110.2553448  84.7450678  16.8226315 107.9921597
  83.9680121  16.4837474 107.5476759  85.4242159  16.8278938 107.3176562
  79.5602707  11.9421052 107.8828205  79.2552843  12.2567201 108.7338348
  80.5133149  12.0202472 107.9255538  78.0049139  18.1011275 109.5321159
  77.4770501  17.3664035 109.2194396  77.5036642  18.8785952 109.2861127
  82.9841985  16.2960296 114.6488205  82.3265660  16.9859557 114.7368334
  83.7882384  16.6856728 114.9922192  81.7947444  14.6504669 112.6992147
  82.3079326  15.2834660 113.2013857  82.4448668  14.0505864 112.3335507
  73.0637454  10.7935403 105.9123656  72.2274766  11.1310089 106.2332930
  72.9242223  10.6584383 104.9750793  76.1501739  15.9191486 102.5356132
  75.2428801  15.6880739 102.7347281  76.6472771  15.1229105 102.7230114
  79.0569818  24.6288993 105.4552818  78.3831517  24.9320690 106.0637776
  79.4435640  25.4318073 105.1058275  79.0563323  13.5245540 110.0753168
  79.8035141  14.0366937 109.7660290  79.3254912  13.2029593 110.9357561
  77.3289973  16.0204081 107.0580122  76.4201192  15.7363113 107.1552592
  77.3585057  16.4403159 106.1983429  82.5609240  19.6310670 110.8271290
  82.1071567  18.7901580 110.8836480  81.9303207  20.2672068 111.1646070
  81.5042160  10.5602656 112.0571957  80.7664916  10.0480042 112.3882200
  81.7568933  10.1203038 111.2455234  81.0042179  21.4687167 111.7621108
  81.2965154  22.0292224 111.0433473  81.5140800  21.7615728 112.5174267
  75.8774867  13.6332701 113.1589917  75.9323477  12.6806538 113.0832394
  75.0666069  13.7892140 113.6431216  77.0266061  17.5612824 104.3968201
  76.5885490  16.8448683 103.9373838  77.7676501  17.7888939 103.8353292
  73.8167227  12.2509761 110.9180296  73.0035092  12.5503932 111.3245488
  74.3126221  11.8565450 111.6354779  75.9675805  22.2467518 112.8514561
  75.9251983  22.4728364 111.9223093  76.8838503  22.0130892 113.0000362
  85.1439175  15.8370021 110.4544519  85.0057074  16.0271617 109.5265708
  84.7875394  16.5989404 110.9112570  74.0841605  19.1230547 112.6476524
  74.8782204  18.6280867 112.4459099  73.3733298  18.5948410 112.2844229
  78.9036450  21.5048642 116.9988891  78.9573472  22.0739579 117.7666607
  78.0351231  21.6750527 116.6342928  70.3924369  13.2673629 108.7236276
  69.4621957  13.2058084 108.9406239  70.4881841  12.7449581 107.9272918
  76.6612881  19.6959569 116.3274361  76.5223967  19.3278353 117.2000299
  75.8727478  20.2107208 116.1558319  77.2561033  24.7968665 107.6699897
  77.4312789  24.3256709 108.4845520  76.5693821  25.4234432 107.8981158
  78.2118096  19.0741172 113.7163199  77.8767929  19.0341942 114.6120849
  77.7122042  18.4085887 113.2433609  81.1477288  16.4197206 103.9900258
  80.5306459  15.6944034 103.8933311  80.6793777  17.1806566 103.6467333
  71.8222119  27.9458028 114.4439758  72.0618717  28.5776552 115.1218776
  70.9791315  27.5946068 114.7305117  72.9375834  10.6382630 103.1121563
  72.0605300  10.5171431 102.7483809  73.4133587   9.8468709 102.8600451
  76.3349980  23.7537151 116.8481262  76.2620152  24.5592122 117.3600566
  75.8927374  23.9529116 116.0229283  76.1239760  22.9908921 110.3584083
  75.3407282  23.5330601 110.4522308  76.8232505  23.5082900 110.7578324
  78.7948664  23.6523985 119.0039420  79.5076636  24.2871449 118.9315322
  78.3038693  23.7487851 118.1879422  80.5166191  17.5575237 110.5756712
  79.5822470  17.6776700 110.4061416  80.6942859  16.6547704 110.3116722
  83.9038742  13.3992557 111.1106746  84.3699194  14.2320548 111.0367049
  84.3546243  12.9337538 111.8152004  81.9714973  19.7436378 108.1092898
  82.2474817  19.6292972 109.0186772  81.1019472  19.3453863 108.0705071
  78.6069037  23.9922729 111.7525712  78.7891432  23.1744385 112.2153464
  79.4302023  24.2090421 111.3150602  78.9411203  22.9190914 109.0140760
  79.4698969  22.4083368 108.4010922  79.2039422  22.6033444 109.8786293
  72.2966951  23.9706030 111.7738536  71.6277326  24.4552158 111.2902576
  72.1579820  24.2175251 112.6881915  76.4372219  26.0049774 118.3721194
  76.9890527  26.1681396 119.1370280  76.7778413  26.5954212 117.7001219
  67.6654528  12.2324485 108.5534468  67.9607969  11.3235164 108.5001522
  66.7642564  12.2112225 108.2315471  79.5740607  23.9531750 115.3584877
  79.4491746  23.1521489 114.8495822  80.2319698  24.4477943 114.8698847
  81.6375515  21.7540770 116.9864427  80.6905851  21.6346121 116.9142753
  81.9858288  20.8663268 117.0690688  78.6421948  21.5493486 113.1868779
  78.4946911  20.6210193 113.3676349  79.4675442  21.5713577 112.7025854
  72.5084193  10.2011553 109.0449271  72.8480265  10.7297474 108.3227879
  72.9556313  10.5391959 109.8207838  82.2456070  22.3722045 114.2733652
  83.1702618  22.1664906 114.1358103  82.0771374  22.1238446 115.1822993
  74.4952340   8.6986175 107.2442564  75.2160702   9.0767427 106.7406281
  73.8717644   9.4175051 107.3477542  78.6383463   9.4031323 108.1800896
  78.8547077  10.2855961 107.8789724  78.1577530   9.0117537 107.4506538
  82.0351386  22.8907712 109.6295743  82.2088264  22.3254135 108.8769596
  82.5280278  23.6908607 109.4475233  87.8890778  15.6544135 111.2486043
  88.3321924  14.9051460 110.8505166  87.0117288  15.6454271 110.8659775
  83.0226559  22.2074476 106.7292641  83.7177464  22.8281169 106.9479956
  83.3649709  21.3569828 107.0045019  84.9217982  19.6574182 108.2579972
  85.4469306  19.9961455 107.5329292  84.8340335  18.7221197 108.0743107
  76.6058643  25.7246165 112.6175225  76.1663633  25.2322544 113.3108082
  77.3566760  25.1819133 112.3767301  69.0850982  21.9157706 112.6199853
  69.9109002  21.6161478 112.2398497  68.7345034  21.1465329 113.0689642
  74.0532515  21.2684174 114.6897527  73.4312524  20.6054879 114.3899755
  74.7237382  21.2945306 114.0071175  73.6146022  19.8188098 108.1655988
  73.7634142  20.5023562 107.5122660  74.4212465  19.7993188 108.6805443
  71.3698655  15.8453275 109.1717056  71.1244697  14.9415605 109.3697267
  71.5394569  15.8470426 108.2296534  70.6394302  11.5781633 106.6703218
  69.9463547  11.6525988 106.0143254  70.3946054  10.8141977 107.1924735
  77.1141427  22.3136228 105.6367735  76.5415394  22.9326415 105.1838207
  77.6874221  22.8635590 106.1707657  80.3338687  22.5973378 106.7676317
  81.2669360  22.5318940 106.9709193  80.2461900  23.4329645 106.3090850
  82.9626704  21.9139249 103.7280265  82.8840335  21.5799112 104.6216023
  83.7836371  22.4061016 103.7271737  77.4988226  13.6497041 102.9783787
  78.4447331  13.5203249 103.0472206  77.1202471  12.9111703 103.4553216
  75.6831143  11.5747017 102.9138673  74.7762598  11.2780130 102.9901386
  75.9607124  11.2776835 102.0472959  77.2993209   6.1183907 109.0682914
  76.4893937   5.7730992 109.4438160  77.9877626   5.8091451 109.6570526
  74.4529928   8.4333952 103.0550652  75.3149092   8.7588851 103.3146469
  74.6380272   7.6465448 102.5423718  82.6062564   7.3062479 110.1985875
  82.0261233   7.9647283 109.8163927  82.3398497   6.4839824 109.7873292
  81.3887442   9.4662569 109.2542223  80.5013297   9.7512220 109.0362418
  81.8041431   9.3056333 108.4069500  69.3971693  24.0470320 114.3413668
  69.2626160  23.2870721 113.7751666  68.9803755  24.7711220 113.8742457
  80.5330656  19.2307244 103.3490243  81.2366506  19.4357246 103.9647899
  79.8093304  19.7984006 103.6139327  81.3628466  14.9817105 109.4692513
  81.3063667  15.4385657 108.6300146  81.9156808  14.2207790 109.2915356
  85.1733272  10.7706837 110.2942633  84.9170206  10.3703473 111.1250841
  84.5486140  11.4850631 110.1692772  72.5540818  24.9439637 114.5532110
  72.4373203  25.8885070 114.4510801  71.7333265  24.6413199 114.9417910
  82.4417353  19.6689773 105.3988703  83.2762957  19.2370972 105.2166178
  82.2801696  19.4971787 106.3265598  82.0963245  16.1721886 106.7645043
  82.0412049  16.0066158 105.8233487  81.4709300  16.8797919 106.9207232
  75.4059371   5.6729995 106.3430361  75.3938040   6.6171835 106.4998632
  76.2982792   5.4900141 106.0489822  73.5795333  25.5967899 117.7688039
  74.4822579  25.6291510 118.0854534  73.3532703  24.6668350 117.7834375
  75.3348935  24.3498886 114.4298118  74.3844566  24.3500748 114.3162490
  75.6381421  23.6031620 113.9134152  91.0701628  30.1859424 115.4943880
  91.7080038  30.0666172 114.7907220  90.9522471  31.1340268 115.5531832
  87.8791334  30.1386852 115.4305405  87.5409846  30.0227917 114.5425939
  88.7481103  29.7378017 115.4106411  83.7378150  31.9922329 111.4202296
  83.1743015  31.9012266 110.6518583  83.6230545  31.1722233 111.9004788
  81.2842582  33.4873520 114.2586516  82.0763874  33.1464345 113.8432815
  81.5239232  33.5968495 115.1788669  89.3177709  35.6593297 106.7316760
  88.6665689  36.2447377 106.3450774  90.1122072  36.1899491 106.7911798
  83.2433336  32.7482434 107.1303895  84.0164212  32.2011421 106.9916771
  83.5958735  33.6126683 107.3418356  85.0818378  34.0758816 120.3370794
  84.7908244  34.9804447 120.2217460  85.7175363  34.1175344 121.0514864
  86.0074585  31.4535664 116.9272154  86.6038158  31.2291687 116.2129117
  86.0649557  30.7120410 117.5297602  85.5799614  28.9075100 104.7622345
  85.8325134  28.3856621 104.0005808  84.6424173  28.7441245 104.8649028
  90.6242897  27.9110878 112.5697088  91.4105986  27.4930301 112.2187505
  90.8881601  28.8156970 112.7378736  90.7952974  33.3483728 107.2685745
  90.1598807  33.4218355 107.9806649  90.4650380  33.9377327 106.5904824
  85.2995902  30.8103206 106.9646720  85.1832161  30.1348109 107.6327804
  85.4098162  30.3235580 106.1478873  87.6427443  30.2713353 110.6693409
  87.2785651  29.7443974 111.3806330  88.4994559  29.8811822 110.4959894
  87.2832930  25.3003253 105.6654757  87.4507333  26.1683489 106.0325229
  87.0930099  25.4630534 104.7416047  90.0408264  33.7620231 117.3320588
  89.7408987  34.6645270 117.2236395  89.6959323  33.4952415 118.1841741
  83.4920745  30.2134028 113.3657292  82.5671242  30.0810242 113.5734984
  83.7405158  30.9928248 113.8627235  87.2622151  27.7560910 106.6501424
  87.1421776  28.2017961 107.4886905  86.5674740  28.1046228 106.0914962
  80.8529556  29.8567302 114.2001081  80.9821937  30.1101781 115.1140493
  80.1727007  30.4495010 113.8805736  85.0229043  40.5264552 110.2991556
  84.9453073  41.4772377 110.3780036  84.4190687  40.1810424 110.9566482
  92.9607217  28.2282383 107.4781758  93.8725074  28.4609770 107.3029456
  92.4516864  28.8119427 106.9156837  91.5676800  33.2108202 114.8695340
  90.9385662  33.3753916 114.1671408  91.1802462  33.6249811 115.6406304
  95.4466032  34.1462640 112.2239704  94.7617070  34.5261541 111.6736737
  95.5309881  34.7557966 112.9571651  87.1204762  32.9482610 112.1345425
  87.5843107  33.2270313 111.3450047  86.8561560  32.0466054 111.9518516
  84.0128843  32.4954091 115.0725188  84.5830200  32.9241360 114.4342673
  84.6036955  32.2136676 115.7709374  86.0573648  29.0705762 108.9434990
  86.7597691  29.5226806 109.4108916  85.7254276  28.4289581 109.5714883
  79.7998982  27.3289315 114.2452124  79.0098036  27.5846843 113.7692234
  80.2910229  28.1437653 114.3504164  81.7513727  27.6933894 111.2035600
  80.9544890  27.8052588 111.7219096  81.5239319  28.0320546 110.3376491
  87.5819395  34.2178597 119.1518115  87.6463827  34.6799004 119.9876287
  86.8730319  33.5875962 119.2800425  78.0836685  27.5819805 116.6767114
  78.3344723  28.4666815 116.9424690  78.6196233  27.4024407 115.9042206
  87.2967412  35.8846705 109.0197095  87.1613087  36.7298240 109.4481943
  87.8377225  36.0865982 108.2563029  80.7496810  33.4022143 109.5925020
  81.2621330  34.1965393 109.7430585  81.4019523  32.7048433 109.5258622
  82.5591694  36.5187899 111.6747774  82.7358323  37.4405864 111.4868757
  83.3548528  36.2046318 112.1042153  81.8444051  28.5652531 121.5509937
  81.7297566  27.6637788 121.8517036  80.9888569  28.8116228 121.1994753
  83.6823010  38.0366073 117.6758116  84.2330435  37.9083136 116.9035110
  82.8434486  38.3360962 117.3253009  87.4790181  34.3017201 122.0202347
  88.0118518  33.5405489 121.7901655  86.9504262  34.0090852 122.7626501
  78.7145726  31.7310797 110.3684591  79.5520948  32.1407805 110.1518299
  78.8923994  30.7910239 110.3384785  90.6110159  29.3985878 106.0568424
  90.0956782  30.1690482 106.2956811  90.3387467  28.7251014 106.6801485
  88.1957270  24.2435579 111.1153662  87.3398866  23.8542429 110.9359301
  88.6084221  24.3227539 110.2553448  85.9699302  21.8620652 114.5211404
  86.8352299  21.6663460 114.1617293  86.0376811  21.6331003 115.4480760
  95.5844433  32.1518232 107.9921597  94.8073875  31.8129392 107.5476759
  96.2635914  32.1570856 107.3176562  90.3996462  27.2712970 107.8828205
  90.0946597  27.5859119 108.7338348  91.3526904  27.3494390 107.9255538
  88.8442894  33.4303193 109.5321159  88.3164255  32.6955953 109.2194396
  88.3430396  34.2077869 109.2861127  93.8235740  31.6252214 114.6488205
  93.1659414  32.3151475 114.7368334  94.6276139  32.0148646 114.9922192
  83.5761621  24.0922859 111.8927770  84.1505373  23.8698041 111.1600963
  84.1632604  24.1611554 112.6456372  92.6341198  29.9796586 112.6992147
  93.1473080  30.6126578 113.2013857  93.2842422  29.3797782 112.3335507
  83.9031208  26.1227320 105.9123656  83.0668521  26.4602007 106.2332930
  83.7635978  25.9876300 104.9750793  85.8784289  20.9664108 110.6202840
  85.2248701  20.6513126 109.9959455  85.8364763  20.3439849 111.3462663
  86.9895494  31.2483403 102.5356132  86.0822556  31.0172657 102.7347281
  87.4866526  30.4521023 102.7230114  89.8963573  39.9580911 105.4552818
  89.2225271  40.2612607 106.0637776  90.2829395  40.7609991 105.1058275
  89.1122029  27.4546042 114.9450488  88.1944591  27.6760989 114.7872176
  89.5282173  27.5292352 114.0862195  89.8957077  28.8537458 110.0753168
  90.6428896  29.3658855 109.7660290  90.1648667  28.5321510 110.9357561
  88.1683727  31.3495998 107.0580122  87.2594946  31.0655031 107.1552592
  88.1978811  31.7695077 106.1983429  93.4002995  34.9602588 110.8271290
  92.9465322  34.1193498 110.8836480  92.7696961  35.5963986 111.1646070
  92.3435914  25.8894574 112.0571957  91.6058671  25.3771960 112.3882200
  92.5962688  25.4494955 111.2455234  91.8435934  36.7979084 111.7621108
  92.1358908  37.3584142 111.0433473  92.3534554  37.0907645 112.5174267
  78.7371898  29.0701512 111.0395324  78.5396297  28.4770873 110.3146391
  78.1818562  28.7653723 111.7571263  86.7168621  28.9624619 113.1589917
  86.7717231  28.0098455 113.0832394  85.9059823  29.1184058 113.6431216
  87.8659815  32.8904742 104.3968201  87.4279245  32.1740601 103.9373838
  88.6070256  33.1180857 103.8353292  84.6560981  27.5801679 110.9180296
  83.8428847  27.8795849 111.3245488  85.1519975  27.1857367 111.6354779
  86.8069559  37.5759436 112.8514561  86.7645738  37.8020282 111.9223093
  87.7232258  37.3422810 113.0000362  95.9832930  31.1661939 110.4544519
  95.8450828  31.3563535 109.5265708  95.6269149  31.9281322 110.9112570
  84.1475056  25.1520034 116.5341531  84.7874435  25.0108793 115.8364495
  83.3152586  24.8654548 116.1580133  84.9235360  34.4522465 112.6476524
  85.7175958  33.9572785 112.4459099  84.2127052  33.9240328 112.2844229
  89.7430204  36.8340560 116.9988891  89.7967227  37.4031496 117.7666607
  88.8744986  37.0042445 116.6342928  81.2318123  28.5965546 108.7236276
  80.3015711  28.5350002 108.9406239  81.3275595  28.0741499 107.9272918
  81.1503672  25.1220359 111.3114518  81.4110490  26.0365692 111.2023679
  81.9720845  24.6544802 111.4611131  82.6228598  26.5358116 118.4813343
  83.2951651  26.3275478 117.8325992  81.7958384  26.3380202 118.0418575
  88.7018304  31.0000822 118.5575823  89.6310364  31.1511982 118.3844791
  88.2809334  31.0884843 117.7024470  87.5006636  35.0251487 116.3274361
  87.3617722  34.6570271 117.2000299  86.7121232  35.5399126 116.1558319
  88.0954788  40.1260583 107.6699897  88.2706543  39.6548626 108.4845520
  87.4087576  40.7526349 107.8981158  89.0511851  34.4033089 113.7163199
  88.7161684  34.3633859 114.6120849  88.5515797  33.7377805 113.2433609
  83.0256095  29.8100719 119.2415780  82.8875893  29.0780958 119.8427319
  83.9361018  29.7209619 118.9599968  91.9871043  31.7489124 103.9900258
  91.3700213  31.0235952 103.8933311  91.5187531  32.5098484 103.6467333
  85.6538396  29.5220679 118.7299459  86.3638014  28.8813871 118.6886078
  85.6107704  29.7733573 119.6525640  82.6615873  43.2749946 114.4439758
  82.9012471  43.9068470 115.1218776  81.8185070  42.9237986 114.7305117
  83.7769589  25.9674548 103.1121563  82.8999055  25.8463349 102.7483809
  84.2527342  25.1760626 102.8600451  75.2971729  30.7551708 113.2063070
  75.9842769  30.4413438 112.6184085  75.1419857  31.6593072 112.9330321
  80.1006451  25.6441904 117.6348093  80.0164640  25.0367574 116.8998503
  79.2789157  26.1350923 117.6357590  87.1743735  39.0829068 116.8481262
  87.1013906  39.8884040 117.3600566  86.7321128  39.2821034 116.0229283
  86.9633515  38.3200838 110.3584083  86.1801036  38.8622518 110.4522308
  87.6626260  38.8374818 110.7578324  90.2730165  24.1295468 113.0018288
  90.7698864  23.3765430 112.6819359  89.5017146  24.1659784 112.4361498
  89.6342418  38.9815902 119.0039420  90.3470391  39.6163367 118.9315322
  89.1432447  39.0779768 118.1879422  91.3559945  32.8867155 110.5756712
  90.4216224  33.0068617 110.4061416  91.5336614  31.9839622 110.3116722
  86.8565133  26.2712851 112.7289973  86.4862921  25.7183891 113.4170879
  87.3524226  25.6670984 112.1764973  94.7432497  28.7284474 111.1106746
  95.2092949  29.5612466 111.0367049  95.1939997  28.2629456 111.8152004
  84.6854332  36.7310346 119.8244991  85.3863791  37.3646829 119.9774385
  84.2149447  37.0725077 119.0640630  92.8108728  35.0728296 108.1092898
  93.0868572  34.9584890 109.0186772  91.9413227  34.6745780 108.0705071
  89.4462792  39.3214646 111.7525712  89.6285186  38.5036302 112.2153464
  90.2695778  39.5382339 111.3150602  89.7804957  38.2482831 109.0140760
  90.3092724  37.7375286 108.4010922  90.0433177  37.9325362 109.8786293
  80.2822050  36.2646701 116.7576094  80.8675487  35.5190389 116.8903998
  80.0846889  36.5750657 117.6412758  83.1360705  39.2997948 111.7738536
  82.4671081  39.7844076 111.2902576  82.9973575  39.5467169 112.6881915
  74.8739705  28.8352301 115.4780537  74.9123804  28.3015892 116.2717655
  74.3679998  28.3087506 114.8591514  87.2765974  41.3341692 118.3721194
  87.8284282  41.4973313 119.1370280  87.6172167  41.9246130 117.7001219
  82.2530467  23.6816841 118.9743079  82.3171794  24.5431672 118.5620477
  82.1897587  23.0690843 118.2415438  78.5048282  27.5616403 108.5534468
  78.8001723  26.6527082 108.5001522  77.6036318  27.5404143 108.2315471
  90.4134361  39.2823667 115.3584877  90.2885501  38.4813407 114.8495822
  91.0713452  39.7769861 114.8698847  82.0342529  25.6372400 114.5362017
  81.3129115  26.2508367 114.3969490  82.8235785  26.1730165 114.4578663
  92.4769270  37.0832687 116.9864427  91.5299605  36.9638038 116.9142753
  92.8252043  36.1955185 117.0690688  80.2336124  25.2430501 108.6773793
  79.9048830  24.3627880 108.4948899  80.5875495  25.1878169 109.5650183
  89.4815703  36.8785404 113.1868779  89.3340665  35.9502111 113.3676349
  90.3069196  36.9005494 112.7025854  83.3477947  25.5303471 109.0449271
  83.6874020  26.0589392 108.3227879  83.7950068  25.8683877 109.8207838
  93.0849825  37.7013962 114.2733652  94.0096372  37.4956824 114.1358103
  92.9165128  37.4530363 115.1822993  85.3346094  24.0278092 107.2442564
  86.0554457  24.4059345 106.7406281  84.7111398  24.7466969 107.3477542
  89.4777217  24.7323241 108.1800896  89.6940832  25.6147879 107.8789724
  88.9971284  24.3409455 107.4506538  84.2176439  27.6908954 114.7571641
  84.0721019  28.0049257 115.6495922  83.7401642  28.3093855 114.2042539
  86.0772821  24.6811502 114.8052530  86.0634390  23.7852596 114.4684828
  86.7945250  24.6882166 115.4390816  92.8745141  38.2199630 109.6295743
  93.0482018  37.6546052 108.8769596  93.3674032  39.0200525 109.4475233
  78.6922101  30.2314299 117.6959302  78.1475569  31.0074107 117.8279576
  79.5701451  30.5785103 117.5378423  85.4809717  23.5625883 110.0740100
  85.6025629  22.6342529 110.2730988  85.1911760  23.5764569 109.1618416
  88.3500908  21.2480793 113.2106820  88.3722605  21.3120126 112.2558800
  88.7668967  20.4085302 113.4047326  98.7284532  30.9836053 111.2486043
  99.1715678  30.2343378 110.8505166  97.8511042  30.9746189 110.8659775
  93.8620313  37.5366394 106.7292641  94.5571218  38.1573087 106.9479956
  94.2043464  36.6861745 107.0045019  79.4788123  29.3584195 120.5889459
  78.7369859  29.5066830 121.1754089  79.1580867  29.6192461 119.7256208
  95.7611736  34.9866100 108.2579972  96.2863061  35.3253372 107.5329292
  95.6734089  34.0513115 108.0743107  87.4231785  38.9000173 120.3869849
  87.7318912  38.6549320 121.2592548  88.2207267  39.1046812 119.8988719
  87.4452397  41.0538083 112.6175225  87.0057388  40.5614462 113.3108082
  88.1960514  40.5111051 112.3767301  79.9244736  37.2449624 112.6199853
  80.7502756  36.9453396 112.2398497  79.5738788  36.4757246 113.0689642
  84.8926269  36.5976092 114.6897527  84.2706279  35.9346797 114.3899755
  85.5631136  36.6237224 114.0071175  78.1253341  35.1635950 113.5788787
  77.2885250  34.7358125 113.3972788  78.0976987  35.3568394 114.5159578
  84.4539776  35.1480015 108.1655988  84.6027897  35.8315480 107.5122660
  85.2606220  35.1285105 108.6805443  82.2092409  31.1745193 109.1717056
  81.9638451  30.2707523 109.3697267  82.3788324  31.1762343 108.2296534
  81.4788057  26.9073551 106.6703218  80.7857302  26.9817906 106.0143254
  81.2339809  26.1433894 107.1924735  87.9535182  37.6428146 105.6367735
  87.3809149  38.2618333 105.1838207  88.5267976  38.1927507 106.1707657
  91.1732442  37.9265296 106.7676317  92.1063115  37.8610858 106.9709193
  91.0855654  38.7621563 106.3090850  93.8020458  37.2431166 103.7280265
  93.7234090  36.9091030 104.6216023  94.6230125  37.7352934 103.7271737
  88.3381980  28.9788959 102.9783787  89.2841085  28.8495167 103.0472206
  87.9596225  28.2403620 103.4553216  86.5224897  26.9038935 102.9138673
  85.6156353  26.6072048 102.9901386  86.8000878  26.6068753 102.0472959
  77.4402838  28.2245298 113.3637719  77.1205622  27.3710607 113.0712093
  76.8936266  28.4393876 114.1195686  81.2182745  30.9407739 117.0807226
  81.4368755  31.8724847 117.0995259  81.6308519  30.5815714 117.8662029
  88.1386963  21.4475825 109.0682914  87.3287692  21.1022910 109.4438160
  88.8271380  21.1383368 109.6570526  90.0677511  20.5253871 110.6907211
  90.6208550  20.9449325 111.3497234  90.3047598  19.5989620 110.7330167
  85.2923682  23.7625870 103.0550652  86.1542846  24.0880768 103.3146469
  85.4774026  22.9757366 102.5423718  77.3091098  31.8448210 115.3330841
  76.6154569  31.4302163 114.8200795  78.0564089  31.8868746 114.7364260
  93.4456319  22.6354397 110.1985875  92.8654988  23.2939201 109.8163927
  93.1792251  21.8131741 109.7873292  79.2227840  31.7766464 113.2096856
  79.1998529  31.8754151 112.2578739  79.5328477  32.6231614 113.5314022
  81.8815218  33.8342619 117.3243470  82.8358472  33.8026561 117.2573402
  81.6827742  33.3733242 118.1393696  82.4714600  32.4043735 119.8914268
  83.2907489  32.8987813 119.9149105  82.7451408  31.4875703 119.8631835
  92.2281197  24.7954487 109.2542223  91.3407052  25.0804138 109.0362418
  92.6435186  24.6348250 108.4069500  80.2365447  39.3762238 114.3413668
  80.1019915  38.6162639 113.7751666  79.8197509  40.1003138 113.8742457
  91.3724410  34.5599162 103.3490243  92.0760260  34.7649164 103.9647899
  90.6487059  35.1275924 103.6139327  92.2022220  30.3109023 109.4692513
  92.1457422  30.7677574 108.6300146  92.7550563  29.5499708 109.2915356
  96.0127026  26.0998755 110.2942633  95.7563960  25.6995390 111.1250841
  95.3879894  26.8142549 110.1692772  83.3934573  40.2731555 114.5532110
  83.2766957  41.2176988 114.4510801  82.5727019  39.9705117 114.9417910
  93.2811107  34.9981691 105.3988703  94.1156711  34.5662889 105.2166178
  93.1195450  34.8263705 106.3265598  92.9357000  31.5013804 106.7645043
  92.8805803  31.3358076 105.8233487  92.3103055  32.2089837 106.9207232
  77.7249515  26.7381869 120.5906465  78.3708378  26.2280823 121.0793690
  77.5166666  27.4750550 121.1649890  86.2453125  21.0021913 106.3430361
  86.2331795  21.9463753 106.4998632  87.1376547  20.8192059 106.0489822
  84.4189087  40.9259817 117.7688039  85.3216334  40.9583427 118.0854534
  84.1926457  39.9960268 117.7834375  86.1742689  39.6790804 114.4298118
  85.2238320  39.6792665 114.3162490  86.4775175  38.9323538 113.9134152
 101.9095383  45.5151342 115.4943880 102.5473793  45.3958089 114.7907220
 101.7916225  46.4632186 115.5531832  98.7185089  45.4678770 115.4305405
  98.3803600  45.3519835 114.5425939  99.5874857  45.0669935 115.4106411
  94.5771905  47.3214246 111.4202296  94.0136770  47.2304183 110.6518583
  94.4624300  46.5014151 111.9004788  92.1236336  48.8165438 114.2586516
  92.9157628  48.4756263 113.8432815  92.3632987  48.9260413 115.1788669
 100.1571463  50.9885214 106.7316760  99.5059443  51.5739295 106.3450774
 100.9515826  51.5191409 106.7911798  94.0827090  48.0774351 107.1303895
  94.8557966  47.5303338 106.9916771  94.4352489  48.9418601 107.3418356
  95.9212133  49.4050734 120.3370794  95.6301999  50.3096364 120.2217460
  96.5569117  49.4467261 121.0514864  96.8468340  46.7827582 116.9272154
  97.4431912  46.5583605 116.2129117  96.9043311  46.0412328 117.5297602
  96.4193368  44.2367017 104.7622345  96.6718889  43.7148539 104.0005808
  95.4817927  44.0733163 104.8649028 101.4636651  43.2402796 112.5697088
 102.2499740  42.8222219 112.2187505 101.7275355  44.1448888 112.7378736
 101.6346728  48.6775646 107.2685745 100.9992561  48.7510273 107.9806649
 101.3044135  49.2669245 106.5904824  96.1389657  46.1395123 106.9646720
  96.0225915  45.4640027 107.6327804  96.2491917  45.6527497 106.1478873
  98.4821198  45.6005271 110.6693409  98.1179405  45.0735891 111.3806330
  99.3388314  45.2103740 110.4959894  98.1226685  40.6295170 105.6654757
  98.2901087  41.4975407 106.0325229  97.9323854  40.7922452 104.7416047
 100.8802018  49.0912149 117.3320588 100.5802741  49.9937188 117.2236395
 100.5353078  48.8244332 118.1841741  94.3314500  45.5425946 113.3657292
  93.4064996  45.4102160 113.5734984  94.5798913  46.3220165 113.8627235
  98.1015906  43.0852828 106.6501424  97.9815531  43.5309878 107.4886905
  97.4068494  43.4338145 106.0914962  91.6923311  45.1859220 114.2001081
  91.8215692  45.4393698 115.1140493  91.0120762  45.7786928 113.8805736
  95.8622798  55.8556469 110.2991556  95.7846828  56.8064295 110.3780036
  95.2584441  55.5102342 110.9566482 103.8000972  43.5574301 107.4781758
 104.7118828  43.7901688 107.3029456 103.2910619  44.1411345 106.9156837
 102.4070554  48.5400119 114.8695340 101.7779417  48.7045833 114.1671408
 102.0196216  48.9541729 115.6406304 106.2859786  49.4754557 112.2239704
 105.6010824  49.8553459 111.6736737 106.3703635  50.0849884 112.9571651
  97.9598516  48.2774527 112.1345425  98.4236862  48.5562230 111.3450047
  97.6955314  47.3757972 111.9518516  94.8522597  47.8246009 115.0725188
  95.4223954  48.2533277 114.4342673  95.4430709  47.5428594 115.7709374
  96.8967402  44.3997680 108.9434990  97.5991445  44.8518723 109.4108916
  96.5648031  43.7581499 109.5714883  90.6392736  42.6581232 114.2452124
  89.8491790  42.9138761 113.7692234  91.1303983  43.4729570 114.3504164
  92.5907481  43.0225812 111.2035600  91.7938645  43.1344506 111.7219096
  92.3633074  43.3612464 110.3376491  98.4213149  49.5470515 119.1518115
  98.4857582  50.0090922 119.9876287  97.7124073  48.9167880 119.2800425
  88.9230439  42.9111723 116.6767114  89.1738478  43.7958733 116.9424690
  89.4589987  42.7316324 115.9042206  98.1361167  51.2138622 109.0197095
  98.0006842  52.0590158 109.4481943  98.6770979  51.4157900 108.2563029
  91.5890564  48.7314060 109.5925020  92.1015085  49.5257311 109.7430585
  92.2413277  48.0340351 109.5258622  93.3985449  51.8479817 111.6747774
  93.5752077  52.7697781 111.4868757  94.1942282  51.5338236 112.1042153
  92.6837805  43.8944449 121.5509937  92.5691321  42.9929706 121.8517036
  91.8282323  44.1408145 121.1994753  94.5216764  53.3657991 117.6758116
  95.0724189  53.2375054 116.9035110  93.6828240  53.6652880 117.3253009
  98.3183935  49.6309118 122.0202347  98.8512272  48.8697407 121.7901655
  97.7898016  49.3382770 122.7626501  89.5539481  47.0602715 110.3684591
  90.3914703  47.4699723 110.1518299  89.7317749  46.1202157 110.3384785
 101.4503913  44.7277795 106.0568424 100.9350536  45.4982400 106.2956811
 101.1781222  44.0542932 106.6801485  99.0351024  39.5727496 111.1153662
  98.1792620  39.1834347 110.9359301  99.4477976  39.6519457 110.2553448
  96.8093057  37.1912569 114.5211404  97.6746053  36.9955378 114.1617293
  96.8770566  36.9622921 115.4480760 106.4238187  47.4810150 107.9921597
 105.6467630  47.1421310 107.5476759 107.1029668  47.4862773 107.3176562
 101.2390216  42.6004888 107.8828205 100.9340352  42.9151037 108.7338348
 102.1920658  42.6786307 107.9255538  99.6836648  48.7595111 109.5321159
  99.1558010  48.0247870 109.2194396  99.1824151  49.5369787 109.2861127
 104.6629494  46.9544131 114.6488205 104.0053169  47.6443393 114.7368334
 105.4669893  47.3440563 114.9922192  94.4155376  39.4214777 111.8927770
  94.9899128  39.1989959 111.1600963  95.0026358  39.4903472 112.6456372
 103.4734953  45.3088504 112.6992147 103.9866835  45.9418496 113.2013857
 104.1236177  44.7089700 112.3335507  94.7424963  41.4519238 105.9123656
  93.9062275  41.7893925 106.2332930  94.6029732  41.3168218 104.9750793
  96.7178043  36.2956026 110.6202840  96.0642456  35.9805043 109.9959455
  96.6758518  35.6731766 111.3462663  97.8289248  46.5775321 102.5356132
  96.9216310  46.3464575 102.7347281  98.3260280  45.7812940 102.7230114
 100.7357327  55.2872828 105.4552818 100.0619026  55.5904525 106.0637776
 101.1223149  56.0901909 105.1058275  99.9515784  42.7837960 114.9450488
  99.0338345  43.0052907 114.7872176 100.3675927  42.8584270 114.0862195
 100.7350832  44.1829375 110.0753168 101.4822650  44.6950772 109.7660290
 101.0042421  43.8613428 110.9357561  99.0077482  46.6787916 107.0580122
  98.0988701  46.3946949 107.1552592  99.0372566  47.0986995 106.1983429
 104.2396749  50.2894505 110.8271290 103.7859076  49.4485415 110.8836480
 103.6090716  50.9255904 111.1646070 103.1829669  41.2186491 112.0571957
 102.4452425  40.7063878 112.3882200 103.4356442  40.7786873 111.2455234
 102.6829688  52.1271002 111.7621108 102.9752663  52.6876059 111.0433473
 103.1928309  52.4199563 112.5174267  89.5765652  44.3993430 111.0395324
  89.3790052  43.8062791 110.3146391  89.0212316  44.0945640 111.7571263
  97.5562376  44.2916537 113.1589917  97.6110986  43.3390373 113.0832394
  96.7453578  44.4475976 113.6431216  98.7053570  48.2196660 104.3968201
  98.2672999  47.5032519 103.9373838  99.4464010  48.4472774 103.8353292
  95.4954736  42.9093596 110.9180296  94.6822601  43.2087767 111.3245488
  95.9913730  42.5149285 111.6354779  97.6463314  52.9051353 112.8514561
  97.6039492  53.1312200 111.9223093  98.5626012  52.6714728 113.0000362
 106.8226684  46.4953857 110.4544519 106.6844583  46.6855453 109.5265708
 106.4662903  47.2573239 110.9112570  94.9868810  40.4811952 116.5341531
  95.6268190  40.3400711 115.8364495  94.1546341  40.1946465 116.1580133
  95.7629114  49.7814382 112.6476524  96.5569713  49.2864702 112.4459099
  95.0520807  49.2532245 112.2844229 100.5823959  52.1632478 116.9988891
 100.6360981  52.7323414 117.7666607  99.7138740  52.3334363 116.6342928
  92.0711878  43.9257464 108.7236276  91.1409466  43.8641919 108.9406239
  92.1669350  43.4033417 107.9272918  91.9897427  40.4512277 111.3114518
  92.2504244  41.3657610 111.2023679  92.8114599  39.9836719 111.4611131
  93.4622352  41.8650034 118.4813343  94.1345406  41.6567396 117.8325992
  92.6352139  41.6672120 118.0418575  99.5412059  46.3292740 118.5575823
 100.4704119  46.4803899 118.3844791  99.1203089  46.4176761 117.7024470
  98.3400390  50.3543404 116.3274361  98.2011476  49.9862189 117.2000299
  97.5514987  50.8691044 116.1558319  98.9348542  55.4552501 107.6699897
  99.1100298  54.9840544 108.4845520  98.2481330  56.0818267 107.8981158
  99.8905605  49.7325007 113.7163199  99.5555438  49.6925777 114.6120849
  99.3909551  49.0669723 113.2433609  93.8649849  45.1392637 119.2415780
  93.7269647  44.4072876 119.8427319  94.7754773  45.0501537 118.9599968
 102.8264797  47.0781041 103.9900258 102.2093968  46.3527869 103.8933311
 102.3581286  47.8390402 103.6467333  96.4932150  44.8512596 118.7299459
  97.2031769  44.2105788 118.6886078  96.4501458  45.1025491 119.6525640
  93.5009628  58.6041863 114.4439758  93.7406226  59.2360388 115.1218776
  92.6578824  58.2529903 114.7305117  94.6163343  41.2966466 103.1121563
  93.7392809  41.1755266 102.7483809  95.0921096  40.5052544 102.8600451
  86.1365483  46.0843625 113.2063070  86.8236523  45.7705355 112.6184085
  85.9813612  46.9884990 112.9330321  90.9400205  40.9733822 117.6348093
  90.8558394  40.3659491 116.8998503  90.1182912  41.4642840 117.6357590
  98.0137489  54.4120986 116.8481262  97.9407661  55.2175957 117.3600566
  97.5714883  54.6112952 116.0229283  97.8027269  53.6492756 110.3584083
  97.0194791  54.1914436 110.4522308  98.5020014  54.1666736 110.7578324
 101.1123919  39.4587385 113.0018288 101.6092619  38.7057348 112.6819359
 100.3410901  39.4951702 112.4361498 100.4736173  54.3107820 119.0039420
 101.1864145  54.9455285 118.9315322  99.9826202  54.4071686 118.1879422
 102.1953700  48.2159073 110.5756712 101.2609979  48.3360535 110.4061416
 102.3730368  47.3131539 110.3116722  97.6958888  41.6004768 112.7289973
  97.3256675  41.0475809 113.4170879  98.1917980  40.9962902 112.1764973
 105.5826251  44.0576392 111.1106746 106.0486703  44.8904383 111.0367049
 106.0333752  43.5921373 111.8152004  95.5248086  52.0602263 119.8244991
  96.2257546  52.6938746 119.9774385  95.0543201  52.4016995 119.0640630
 103.6502482  50.4020213 108.1092898 103.9262326  50.2876808 109.0186772
 102.7806981  50.0037698 108.0705071 100.2856546  54.6506564 111.7525712
 100.4678941  53.8328220 112.2153464 101.1089532  54.8674256 111.3150602
 100.6198712  53.5774749 109.0140760 101.1486478  53.0667204 108.4010922
 100.8826931  53.2617279 109.8786293  91.1215805  51.5938618 116.7576094
  91.7069241  50.8482306 116.8903998  90.9240643  51.9042575 117.6412758
  93.9754460  54.6289866 111.7738536  93.3064835  55.1135993 111.2902576
  93.8367329  54.8759086 112.6881915  85.7133459  44.1644219 115.4780537
  85.7517559  43.6307809 116.2717655  85.2073752  43.6379424 114.8591514
  98.1159728  56.6633609 118.3721194  98.6678036  56.8265231 119.1370280
  98.4565922  57.2538047 117.7001219  93.0924222  39.0108759 118.9743079
  93.1565548  39.8723590 118.5620477  93.0291342  38.3982761 118.2415438
  89.3442037  42.8908321 108.5534468  89.6395478  41.9818999 108.5001522
  88.4430073  42.8696060 108.2315471 101.2528116  54.6115585 115.3584877
 101.1279255  53.8105325 114.8495822 101.9107207  55.1061778 114.8698847
  92.8736284  40.9664317 114.5362017  92.1522870  41.5800285 114.3969490
  93.6629540  41.5022082 114.4578663 103.3163024  52.4124605 116.9864427
 102.3693360  52.2929956 116.9142753 103.6645797  51.5247103 117.0690688
  91.0729878  40.5722418 108.6773793  90.7442585  39.6919797 108.4948899
  91.4269249  40.5170087 109.5650183 100.3209457  52.2077321 113.1868779
 100.1734420  51.2794029 113.3676349 101.1462951  52.2297412 112.7025854
  94.1871702  40.8595388 109.0449271  94.5267774  41.3881310 108.3227879
  94.6343822  41.1975794 109.8207838 103.9243579  53.0305880 114.2733652
 104.8490127  52.8248741 114.1358103 103.7558883  52.7822281 115.1822993
  96.1739849  39.3570010 107.2442564  96.8948211  39.7351263 106.7406281
  95.5505153  40.0758887 107.3477542 100.3170972  40.0615159 108.1800896
 100.5334586  40.9439797 107.8789724  99.8365039  39.6701372 107.4506538
  95.0570193  43.0200872 114.7571641  94.9114774  43.3341175 115.6495922
  94.5795397  43.6385772 114.2042539  96.9166576  40.0103420 114.8052530
  96.9028145  39.1144513 114.4684828  97.6339004  40.0174084 115.4390816
 103.7138895  53.5491547 109.6295743 103.8875773  52.9837970 108.8769596
 104.2067787  54.3492442 109.4475233  89.5315855  45.5606216 117.6959302
  88.9869323  46.3366024 117.8279576  90.4095205  45.9077021 117.5378423
  96.3203472  38.8917800 110.0740100  96.4419383  37.9634447 110.2730988
  96.0305514  38.9056486 109.1618416  99.1894662  36.5772711 113.2106820
  99.2116359  36.6412044 112.2558800  99.6062721  35.7377219 113.4047326
 109.5678287  46.3127970 111.2486043 110.0109433  45.5635296 110.8505166
 108.6904797  46.3038107 110.8659775 104.7014068  52.8658312 106.7292641
 105.3964972  53.4865004 106.9479956 105.0437218  52.0153663 107.0045019
  90.3181877  44.6876113 120.5889459  89.5763613  44.8358748 121.1754089
  89.9974621  44.9484378 119.7256208 106.6005491  50.3158017 108.2579972
 107.1256815  50.6545290 107.5329292 106.5127844  49.3805033 108.0743107
  98.2625540  54.2292091 120.3869849  98.5712666  53.9841238 121.2592548
  99.0601022  54.4338729 119.8988719  98.2846152  56.3830001 112.6175225
  97.8451142  55.8906379 113.3108082  99.0354269  55.8402968 112.3767301
  90.7638491  52.5741541 112.6199853  91.5896511  52.2745313 112.2398497
  90.4132543  51.8049164 113.0689642  95.7320024  51.9268010 114.6897527
  95.1100033  51.2638715 114.3899755  96.4024891  51.9529142 114.0071175
  88.9647096  50.4927868 113.5788787  88.1279004  50.0650042 113.3972788
  88.9370741  50.6860311 114.5159578  95.2933531  50.4771933 108.1655988
  95.4421651  51.1607397 107.5122660  96.0999974  50.4577023 108.6805443
  93.0486164  46.5037111 109.1717056  92.8032206  45.5999441 109.3697267
  93.2182078  46.5054261 108.2296534  92.3181811  42.2365468 106.6703218
  91.6251056  42.3109823 106.0143254  92.0733563  41.4725812 107.1924735
  98.7928936  52.9720063 105.6367735  98.2202903  53.5910251 105.1838207
  99.3661730  53.5219425 106.1707657 102.0126196  53.2557214 106.7676317
 102.9456869  53.1902775 106.9709193 101.9249409  54.0913480 106.3090850
 104.6414213  52.5723084 103.7280265 104.5627844  52.2382948 104.6216023
 105.4623880  53.0644852 103.7271737  99.1775735  44.3080876 102.9783787
 100.1234840  44.1787084 103.0472206  98.7989980  43.5695538 103.4553216
  97.3618652  42.2330853 102.9138673  96.4550107  41.9363965 102.9901386
  97.6394633  41.9360671 102.0472959  88.2796592  43.5537216 113.3637719
  87.9599377  42.7002524 113.0712093  87.7330021  43.7685794 114.1195686
  92.0576500  46.2699657 117.0807226  92.2762510  47.2016765 117.0995259
  92.4702274  45.9107631 117.8662029  98.9780718  36.7767742 109.0682914
  98.1681446  36.4314827 109.4438160  99.6665135  36.4675286 109.6570526
 100.9071266  35.8545789 110.6907211 101.4602305  36.2741243 111.3497234
 101.1441352  34.9281537 110.7330167  96.1317437  39.0917788 103.0550652
  96.9936601  39.4172686 103.3146469  96.3167781  38.3049284 102.5423718
  88.1484852  47.1740127 115.3330841  87.4548324  46.7594080 114.8200795
  88.8957843  47.2160664 114.7364260 104.2850073  37.9646314 110.1985875
 103.7048742  38.6231118 109.8163927 104.0186006  37.1423659 109.7873292
  90.0621595  47.1058381 113.2096856  90.0392283  47.2046069 112.2578739
  90.3722231  47.9523532 113.5314022  92.7208973  49.1634536 117.3243470
  93.6752226  49.1318479 117.2573402  92.5221496  48.7025160 118.1393696
  93.3108355  47.7335652 119.8914268  94.1301244  48.2279731 119.9149105
  93.5845163  46.8167620 119.8631835 103.0674951  40.1246405 109.2542223
 102.1800806  40.4096055 109.0362418 103.4828940  39.9640168 108.4069500
  91.0759202  54.7054156 114.3413668  90.9413669  53.9454557 113.7751666
  90.6591264  55.4295056 113.8742457 102.2118165  49.8891079 103.3490243
 102.9154015  50.0941082 103.9647899 101.4880813  50.4567841 103.6139327
 103.0415975  45.6400941 109.4692513 102.9851176  46.0969492 108.6300146
 103.5944317  44.8791625 109.2915356 106.8520781  41.4290672 110.2942633
 106.5957715  41.0287308 111.1250841 106.2273649  42.1434466 110.1692772
  94.2328327  55.6023473 114.5532110  94.1160712  56.5468905 114.4510801
  93.4120774  55.2997034 114.9417910 104.1204862  50.3273609 105.3988703
 104.9550466  49.8954807 105.2166178 103.9589205  50.1555622 106.3265598
 103.7750754  46.8305722 106.7645043 103.7199558  46.6649993 105.8233487
 103.1496809  47.5381755 106.9207232  88.5643269  42.0673786 120.5906465
  89.2102133  41.5572740 121.0793690  88.3560420  42.8042468 121.1649890
  97.0846880  36.3313831 106.3430361  97.0725549  37.2755671 106.4998632
  97.9770301  36.1483976 106.0489822  95.2582842  56.2551735 117.7688039
  96.1610088  56.2875345 118.0854534  95.0320212  55.3252186 117.7834375
  97.0136444  55.0082721 114.4298118  96.0632075  55.0084583 114.3162490
  97.3168930  54.2615456 113.9134152 105.4165659  62.6506164 111.4202296
 104.8530524  62.5596101 110.6518583 105.3018054  61.8306069 111.9004788
 102.9630091  64.1457356 114.2586516 103.7551383  63.8048180 113.8432815
 103.2026741  64.2552331 115.1788669 110.9965218  66.3177132 106.7316760
 110.3453198  66.9031212 106.3450774 111.7909581  66.8483327 106.7911798
 104.9220845  63.4066269 107.1303895 105.6951721  62.8595256 106.9916771
 105.2746244  64.2710518 107.3418356 107.2587123  59.5658935 104.7622345
 107.5112643  59.0440456 104.0005808 106.3211682  59.4025081 104.8649028
 112.3030406  58.5694713 112.5697088 113.0893495  58.1514137 112.2187505
 112.5669110  59.4740806 112.7378736 112.4740483  64.0067564 107.2685745
 111.8386316  64.0802190 107.9806649 112.1437889  64.5961163 106.5904824
 106.9783411  61.4687041 106.9646720 106.8619670  60.7931944 107.6327804
 107.0885671  60.9819415 106.1478873 109.3214952  60.9297188 110.6693409
 108.9573160  60.4027809 111.3806330 110.1782068  60.5395657 110.4959894
 108.9620439  55.9587088 105.6654757 109.1294842  56.8267324 106.0325229
 108.7717608  56.1214370 104.7416047 105.1708254  60.8717864 113.3657292
 104.2458751  60.7394078 113.5734984 105.4192667  61.6512083 113.8627235
 108.9409660  58.4144745 106.6501424 108.8209285  58.8601796 107.4886905
 108.2462249  58.7630063 106.0914962 102.5317065  60.5151137 114.2001081
 102.6609446  60.7685616 115.1140493 101.8514516  61.1078845 113.8805736
 114.6394726  58.8866219 107.4781758 115.5512583  59.1193605 107.3029456
 114.1304373  59.4703263 106.9156837 108.7992271  63.6066445 112.1345425
 109.2630616  63.8854148 111.3450047 108.5349069  62.7049890 111.9518516
 107.7361157  59.7289597 108.9434990 108.4385200  60.1810641 109.4108916
 107.4041785  59.0873416 109.5714883 101.4786491  57.9873150 114.2452124
 100.6885545  58.2430679 113.7692234 101.9697738  58.8021488 114.3504164
 103.4301236  58.3517729 111.2035600 102.6332399  58.4636424 111.7219096
 103.2026828  58.6904382 110.3376491  99.7624194  58.2403641 116.6767114
 100.0132232  59.1250651 116.9424690 100.2983742  58.0608242 115.9042206
 108.9754921  66.5430540 109.0197095 108.8400596  67.3882076 109.4481943
 109.5164734  66.7449818 108.2563029 102.4284319  64.0605978 109.5925020
 102.9408839  64.8549228 109.7430585 103.0807031  63.3632269 109.5258622
 104.2379203  67.1771734 111.6747774 104.4145832  68.0989699 111.4868757
 105.0336037  66.8630154 112.1042153 100.3933235  62.3894632 110.3684591
 101.2308457  62.7991641 110.1518299 100.5711503  61.4494075 110.3384785
 112.2897668  60.0569713 106.0568424 111.7744291  60.8274318 106.2956811
 112.0174976  59.3834849 106.6801485 109.8744779  54.9019414 111.1153662
 109.0186375  54.5126264 110.9359301 110.2871730  54.9811375 110.2553448
 107.6486811  52.5204487 114.5211404 108.5139808  52.3247296 114.1617293
 107.7164320  52.2914839 115.4480760 117.2631942  62.8102068 107.9921597
 116.4861384  62.4713227 107.5476759 117.9423423  62.8154691 107.3176562
 112.0783971  57.9296805 107.8828205 111.7734106  58.2442954 108.7338348
 113.0314413  58.0078225 107.9255538 110.5230403  64.0887029 109.5321159
 109.9951764  63.3539788 109.2194396 110.0217905  64.8661705 109.2861127
 105.2549130  54.7506695 111.8927770 105.8292882  54.5281876 111.1600963
 105.8420113  54.8195389 112.6456372 105.5818717  56.7811156 105.9123656
 104.7456030  57.1185842 106.2332930 105.4423487  56.6460136 104.9750793
 107.5571798  51.6247944 110.6202840 106.9036210  51.3096961 109.9959455
 107.5152272  51.0023684 111.3462663 108.6683003  61.9067239 102.5356132
 107.7610064  61.6756492 102.7347281 109.1654035  61.1104858 102.7230114
 111.5751082  70.6164746 105.4552818 110.9012780  70.9196443 106.0637776
 111.9616904  71.4193826 105.1058275 110.7909538  58.1129877 114.9450488
 109.8732100  58.3344824 114.7872176 111.2069682  58.1876188 114.0862195
 111.5744586  59.5121293 110.0753168 112.3216405  60.0242690 109.7660290
 111.8436176  59.1905346 110.9357561 109.8471236  62.0079834 107.0580122
 108.9382455  61.7238866 107.1552592 109.8766320  62.4278912 106.1983429
 114.0223423  56.5478409 112.0571957 113.2846180  56.0355795 112.3882200
 114.2750197  56.1078791 111.2455234 100.4159407  59.7285348 111.0395324
 100.2183806  59.1354708 110.3146391  99.8606071  59.4237558 111.7571263
 108.3956130  59.6208454 113.1589917 108.4504740  58.6682291 113.0832394
 107.5847332  59.7767893 113.6431216 109.5447324  63.5488577 104.3968201
 109.1066754  62.8324436 103.9373838 110.2857765  63.7764692 103.8353292
 106.3348490  58.2385514 110.9180296 105.5216356  58.5379685 111.3245488
 106.8307484  57.8441203 111.6354779 117.6620439  61.8245774 110.4544519
 117.5238337  62.0147370 109.5265708 117.3056658  62.5865157 110.9112570
 105.8262565  55.8103870 116.5341531 106.4661944  55.6692629 115.8364495
 104.9940095  55.5238383 116.1580133 106.6022869  65.1106300 112.6476524
 107.3963467  64.6156620 112.4459099 105.8914561  64.5824163 112.2844229
 102.9105632  59.2549382 108.7236276 101.9803220  59.1933837 108.9406239
 103.0063104  58.7325334 107.9272918 102.8291181  55.7804194 111.3114518
 103.0897999  56.6949528 111.2023679 103.6508354  55.3128637 111.4611131
 104.3016107  57.1941952 118.4813343 104.9739160  56.9859314 117.8325992
 103.4745893  56.9964038 118.0418575 109.7742297  70.7844418 107.6699897
 109.9494052  70.3132462 108.4845520 109.0875085  71.4110185 107.8981158
 113.6658552  62.4072959 103.9900258 113.0487722  61.6819787 103.8933311
 113.1975040  63.1682319 103.6467333 105.4557098  56.6258383 103.1121563
 104.5786564  56.5047184 102.7483809 105.9314851  55.8344462 102.8600451
  96.9759238  61.4135543 113.2063070  97.6630277  61.0997273 112.6184085
  96.8207366  62.3176908 112.9330321 101.7793960  56.3025740 117.6348093
 101.6952149  55.6951409 116.8998503 100.9576666  56.7934758 117.6357590
 111.9517674  54.7879303 113.0018288 112.4486373  54.0349265 112.6819359
 111.1804655  54.8243620 112.4361498 113.0347454  63.5450990 110.5756712
 112.1003733  63.6652453 110.4061416 113.2124123  62.6423457 110.3116722
 108.5352642  56.9296686 112.7289973 108.1650430  56.3767726 113.4170879
 109.0311735  56.3254820 112.1764973 116.4220006  59.3868310 111.1106746
 116.8880458  60.2196301 111.0367049 116.8727506  58.9213291 111.8152004
 114.4896237  65.7312131 108.1092898 114.7656081  65.6168725 109.0186772
 113.6200736  65.3329616 108.0705071 111.4592466  68.9066667 109.0140760
 111.9880233  68.3959121 108.4010922 111.7220686  68.5909197 109.8786293
  96.5527214  59.4936136 115.4780537  96.5911313  58.9599727 116.2717655
  96.0467507  58.9671342 114.8591514 103.9317976  54.3400677 118.9743079
 103.9959303  55.2015508 118.5620477 103.8685096  53.7274678 118.2415438
 100.1835791  58.2200238 108.5534468 100.4789232  57.3110917 108.5001522
  99.2823827  58.1987978 108.2315471 103.7130038  56.2956235 114.5362017
 102.9916624  56.9092203 114.3969490 104.5023294  56.8314000 114.4578663
 101.9123633  55.9014336 108.6773793 101.5836339  55.0211715 108.4948899
 102.2663004  55.8462005 109.5650183 105.0265456  56.1887306 109.0449271
 105.3661529  56.7173227 108.3227879 105.4737577  56.5267712 109.8207838
 107.0133603  54.6861928 107.2442564 107.7341966  55.0643180 106.7406281
 106.3898907  55.4050804 107.3477542 111.1564726  55.3907077 108.1800896
 111.3728341  56.2731714 107.8789724 110.6758793  54.9993290 107.4506538
 105.8963948  58.3492790 114.7571641 105.7508528  58.6633093 115.6495922
 105.4189151  58.9677690 114.2042539 107.7560330  55.3395338 114.8052530
 107.7421899  54.4436431 114.4684828 108.4732759  55.3466001 115.4390816
 100.3709610  60.8898134 117.6959302  99.8263078  61.6657942 117.8279576
 101.2488960  61.2368939 117.5378423 107.1597226  54.2209718 110.0740100
 107.2813138  53.2926364 110.2730988 106.8699269  54.2348404 109.1618416
 110.0288417  51.9064628 113.2106820 110.0510114  51.9703962 112.2558800
 110.4456476  51.0669137 113.4047326 115.5407822  68.1950229 106.7292641
 116.2358727  68.8156922 106.9479956 115.8830972  67.3445581 107.0045019
 117.4399245  65.6449935 108.2579972 117.9650570  65.9837208 107.5329292
 117.3521598  64.7096950 108.0743107 101.6032245  67.9033459 112.6199853
 102.4290265  67.6037231 112.2398497 101.2526297  67.1341082 113.0689642
  99.8040850  65.8219786 113.5788787  98.9672759  65.3941960 113.3972788
  99.7764496  66.0152229 114.5159578 106.1327285  65.8063851 108.1655988
 106.2815406  66.4899315 107.5122660 106.9393729  65.7868941 108.6805443
 103.8879918  61.8329028 109.1717056 103.6425960  60.9291358 109.3697267
 104.0575833  61.8346179 108.2296534 103.1575566  57.5657386 106.6703218
 102.4644811  57.6401741 106.0143254 102.9127318  56.8017730 107.1924735
 109.6322691  68.3011981 105.6367735 109.0596658  68.9202168 105.1838207
 110.2055484  68.8511343 106.1707657 112.8519951  68.5849131 106.7676317
 113.7850624  68.5194693 106.9709193 112.7643163  69.4205398 106.3090850
 115.4807967  67.9015002 103.7280265 115.4021599  67.5674865 104.6216023
 116.3017634  68.3936770 103.7271737 110.0169489  59.6372794 102.9783787
 110.9628594  59.5079002 103.0472206 109.6383734  58.8987456 103.4553216
 108.2012406  57.5622770 102.9138673 107.2943862  57.2655883 102.9901386
 108.4788387  57.2652588 102.0472959  99.1190347  58.8829134 113.3637719
  98.7993131  58.0294442 113.0712093  98.5723775  59.0977712 114.1195686
 109.8174472  52.1059660 109.0682914 109.0075201  51.7606745 109.4438160
 110.5058889  51.7967204 109.6570526 111.7465020  51.1837707 110.6907211
 112.2996059  51.6033160 111.3497234 111.9835107  50.2573455 110.7330167
 106.9711191  54.4209705 103.0550652 107.8330355  54.7464604 103.3146469
 107.1561535  53.6341201 102.5423718  98.9878607  62.5032045 115.3330841
  98.2942078  62.0885998 114.8200795  99.7351598  62.5452582 114.7364260
 115.1243828  53.2938232 110.1985875 114.5442497  53.9523036 109.8163927
 114.8579760  52.4715577 109.7873292 100.9015349  62.4350299 113.2096856
 100.8786037  62.5337986 112.2578739 101.2115986  63.2815450 113.5314022
 113.9068706  55.4538322 109.2542223 113.0194561  55.7387973 109.0362418
 114.3222695  55.2932086 108.4069500 113.0511919  65.2182997 103.3490243
 113.7547769  65.4233000 103.9647899 112.3274568  65.7859759 103.6139327
 113.8809729  60.9692858 109.4692513 113.8244931  61.4261410 108.6300146
 114.4338072  60.2083543 109.2915356 117.6914535  56.7582590 110.2942633
 117.4351469  56.3579226 111.1250841 117.0667403  57.4726384 110.1692772
 114.9598616  65.6565526 105.3988703 115.7944220  65.2246725 105.2166178
 114.7982959  65.4847540 106.3265598 114.6144509  62.1597640 106.7645043
 114.5593312  61.9941911 105.8233487 113.9890564  62.8673672 106.9207232
  99.4037024  57.3965704 120.5906465 100.0495887  56.8864658 121.0793690
  99.1954175  58.1334386 121.1649890 107.9240634  51.6605749 106.3430361
 107.9119304  52.6047588 106.4998632 108.8164056  51.4775894 106.0489822
 116.4212472  72.1103073 105.9123656 115.5849784  72.4477760 106.2332930
 116.2817241  71.9752053 104.9750793 116.2950852  71.9550301 103.1121563
 115.4180318  71.8339102 102.7483809 116.7708605  71.1636379 102.8600451
 113.9969320  72.8949304 106.6703218 113.3038565  72.9693659 106.0143254
 113.7521072  72.1309647 107.1924735 119.0406161  72.8914688 102.9138673
 118.1337616  72.5947801 102.9901386 119.3182142  72.5944506 102.0472959
 117.8104946  69.7501623 103.0550652 118.6724110  70.0756521 103.3146469
 117.9955290  68.9633119 102.5423718 118.7634389  66.9897666 106.3430361
 118.7513058  67.9339506 106.4998632 119.6557810  66.8067812 106.0489822
  74.1835290   2.2034757  97.0236862  74.1059320   3.1542582  97.1025343
  73.5796934   1.8580629  97.6811788  71.8222120   4.9520151 101.1685064
  72.0618718   5.5838675 101.8464083  70.9791316   4.6008191 101.4550423
  72.2966952   0.9768153  98.4983843  71.6277327   1.4614281  98.0147883
  72.1579822   1.2237374  99.4127221  76.4372221   3.0111897 105.0966501
  76.9890529   3.1743518 105.8615586  76.7778414   3.6016334 104.4246526
  69.3971694   1.0532443 101.0658974  69.2626162   0.2932844 100.4996973
  68.9803756   1.7773343 100.5987763  72.5540820   1.9501760 101.2777417
  72.4373204   2.8947193 101.1756107  71.7333266   1.6475322 101.6663216
  73.5795334   2.6030022 104.4933346  74.4822581   2.6353632 104.8099841
  73.3532704   1.6730473 104.5079681  87.8791336   7.1448975 102.1550711
  87.5409847   7.0290040 101.2671246  88.7481104   6.7440140 102.1351717
  83.7378151   8.9984451  98.1447602  83.1743016   8.9074388  97.3763890
  83.6230546   8.1784356  98.6250095  81.2842583  10.4935643 100.9831823
  82.0763875  10.1526468 100.5678122  81.5239233  10.6030618 101.9033976
  89.3177710  12.6655419  93.4562067  88.6665690  13.2509500  93.0696081
  90.1122073  13.1961614  93.5157105  83.2433337   9.7544556  93.8549201
  84.0164213   9.2073543  93.7162077  83.5958736  10.6188806  94.0663663
  85.0818380  11.0820939 107.0616101  84.7908246  11.9866569 106.9462767
  85.7175364  11.1237466 107.7760170  86.0074587   8.4597787 103.6517460
  86.6038159   8.2353809 102.9374423  86.0649558   7.7182533 104.2542908
  90.7952975  10.3545851  93.9931051  90.1598808  10.4280478  94.7051956
  90.4650382  10.9439450  93.3150131  85.2995904   7.8165328  93.6892026
  85.1832162   7.1410232  94.3573111  85.4098164   7.3297702  92.8724179
  87.6427445   7.2775475  97.3938716  87.2785652   6.7506096  98.1051637
  88.4994561   6.8873944  97.2205201  90.0408265  10.7682354 104.0565894
  89.7408988  11.6707393 103.9481702  89.6959324  10.5014537 104.9087047
  83.4920746   7.2196151 100.0902599  82.5671243   7.0872365 100.2980291
  83.7405160   7.9990370 100.5872541  80.8529557   6.8629424 100.9246388
  80.9821939   7.1163903 101.8385800  80.1727009   7.4557132 100.6051043
  85.0229045  17.5326674  97.0236862  84.9453074  18.4834499  97.1025343
  84.4190688  17.1872547  97.6811788  91.5676801  10.2170324 101.5940646
  90.9385663  10.3816038 100.8916714  91.1802463  10.6311934 102.3651610
  95.4466033  11.1524762  98.9485010  94.7617071  11.5323663  98.3982043
  95.5309882  11.7620089  99.6816958  87.1204763   9.9544732  98.8590732
  87.5843108  10.2332435  98.0695354  86.8561561   9.0528177  98.6763822
  84.0128844   9.5016214 101.7970495  84.5830201   9.9303482 101.1587979
  84.6036956   9.2198799 102.4954680  79.7998983   4.3351437 100.9697430
  79.0098037   4.5908966 100.4937541  80.2910230   5.1499775 101.0749471
  81.7513728   4.6996017  97.9280907  80.9544892   4.8114711  98.4464403
  81.5239320   5.0382669  97.0621797  87.5819396  11.2240720 105.8763422
  87.6463828  11.6861127 106.7121593  86.8730320  10.5938085 106.0045731
  78.0836686   4.5881928 103.4012421  78.3344724   5.4728938 103.6669997
  78.6196234   4.4086529 102.6287513  87.2967414  12.8908827  95.7442402
  87.1613088  13.7360363  96.1727250  87.8377226  13.0928105  94.9808336
  80.7496811  10.4084265  96.3170327  81.2621332  11.2027516  96.4675892
  81.4019524   9.7110556  96.2503928  82.5591696  13.5250022  98.3993080
  82.7358324  14.4467986  98.2114064  83.3548529  13.2108441  98.8287460
  81.8444052   5.5714654 108.2755243  81.7297567   4.6699911 108.5762342
  80.9888570   5.8178350 107.9240060  83.6823011  15.0428195 104.4003422
  84.2330436  14.9145259 103.6280416  82.8434487  15.3423084 104.0498315
  87.4790182  11.3079323 108.7447654  88.0118519  10.5467611 108.5146962
  86.9504263  11.0152975 109.4871808  78.7145728   8.7372920  97.0929898
  79.5520950   9.1469928  96.8763605  78.8923995   7.7972362  97.0630091
  88.8442895  10.4365316  96.2566466  88.3164256   9.7018075  95.9439703
  88.3430398  11.2139992  96.0106434  93.8235741   8.6314336 101.3733512
  93.1659415   9.3213598 101.4613641  94.6276140   9.0210768 101.7167498
  86.9895495   8.2545526  89.2601439  86.0822557   8.0234779  89.4592588
  87.4866527   7.4583145  89.4475420  89.8963574  16.9643033  92.1798125
  89.2225273  17.2674730  92.7883083  90.2829396  17.7672114  91.8303582
  88.1683728   8.3558121  93.7825429  87.2594948   8.0717154  93.8797898
  88.1978812   8.7757199  92.9228736  93.4002996  11.9664710  97.5516596
  92.9465323  11.1255620  97.6081787  92.7696963  12.6026109  97.8891376
  91.8435935  13.8041207  98.4866414  92.1358910  14.3646264  97.7678780
  92.3534556  14.0969768  99.2419574  78.7371899   6.0763635  97.7640631
  78.5396299   5.4832996  97.0391698  78.1818563   5.7715845  98.4816570
  87.8659816   9.8966865  91.1213507  87.4279246   9.1802723  90.6619145
  88.6070257  10.1242979  90.5598599  86.8069560  14.5821558  99.5759868
  86.7645739  14.8082404  98.6468400  87.7232259  14.3484933  99.7245669
  84.9235361  11.4584587  99.3721830  85.7175960  10.9634907  99.1704405
  84.2127053  10.9302450  99.0089536  89.7430206  13.8402683 103.7234198
  89.7967228  14.4093619 104.4911914  88.8744987  14.0104568 103.3588235
  81.2318125   5.6027669  95.4481583  80.3015713   5.5412124  95.6651545
  81.3275597   5.0803622  94.6518224  88.7018305   8.0062945 105.2821130
  89.6310365   8.1574104 105.1090097  88.2809335   8.0946966 104.4269776
  87.5006637  12.0313609 103.0519667  87.3617723  11.6632394 103.9245606
  86.7121233  12.5461249 102.8803625  88.0954789  17.1322706  94.3945204
  88.2706545  16.6610749  95.2090827  87.4087577  17.7588472  94.6226465
  89.0511852  11.4095212 100.4408505  88.7161685  11.3695982 101.3366155
  88.5515798  10.7439928  99.9678915  83.0256096   6.8162842 105.9661086
  82.8875894   6.0843081 106.5672625  83.9361020   6.7271742 105.6845274
  91.9871044   8.7551246  90.7145565  91.3700215   8.0298074  90.6178618
  91.5187532   9.5160606  90.3712639  85.6538397   6.5282801 105.4544766
  86.3638015   5.8875993 105.4131384  85.6107705   6.7795696 106.3770947
  82.6615874  20.2812068 101.1685064  82.9012473  20.9130593 101.8464083
  81.8185071  19.9300108 101.4550423  75.2971730   7.7613830  99.9308376
  75.9842770   7.4475560  99.3429392  75.1419859   8.6655195  99.6575628
  87.1743736  16.0891191 103.5726568  87.1013908  16.8946162 104.0845873
  86.7321129  16.2883157 102.7474590  86.9633516  15.3262961  97.0829390
  86.1801038  15.8684641  97.1767614  87.6626261  15.8436940  97.4823631
  89.6342420  15.9878025 105.7284727  90.3470392  16.6225490 105.6560628
  89.1432448  16.0841891 104.9124729  91.3559947   9.8929278  97.3002018
  90.4216225  10.0130740  97.1306723  91.5336615   8.9901744  97.0362028
  84.6854333  13.7372468 106.5490298  85.3863793  14.3708951 106.7019692
  84.2149448  14.0787200 105.7885937  92.8108729  12.0790418  94.8338205
  93.0868573  11.9647013  95.7432079  91.9413228  11.6807903  94.7950378
  89.4462793  16.3276769  98.4771018  89.6285188  15.5098425  98.9398771
  90.2695779  16.5444461  98.0395908  89.7804959  15.2544954  95.7386067
  90.3092725  14.7437409  95.1256229  90.0433178  14.9387484  96.6031600
  80.2822051  13.2708823 103.4821400  80.8675488  12.5252511 103.6149305
  80.0846890  13.5812780 104.3658064  83.1360707  16.3060071  98.4983843
  82.4671082  16.7906198  98.0147883  82.9973576  16.5529291  99.4127221
  74.8739706   5.8414424 102.2025843  74.9123806   5.3078014 102.9962962
  74.3679999   5.3149629 101.5836821  87.2765975  18.3403814 105.0966501
  87.8284283  18.5035436 105.8615586  87.6172169  18.9308252 104.4246526
  78.5048284   4.5678526  95.2779775  78.8001725   3.6589204  95.2246829
  77.6036319   4.5466265  94.9560777  90.4134362  16.2885790 102.0830183
  90.2885502  15.4875530 101.5741129  91.0713454  16.7831983 101.5944153
  92.4769271  14.0894810 103.7109733  91.5299606  13.9700161 103.6388060
  92.8252044  13.2017308 103.7935995  89.4815704  13.8847526  99.9114086
  89.3340667  12.9564234 100.0921656  90.3069198  13.9067617  99.4271161
  93.0849826  14.7076085 100.9978958  94.0096373  14.5018946 100.8603409
  92.9165129  14.4592486 101.9068300  92.8745142  15.2261752  96.3541050
  93.0482020  14.6608175  95.6014902  93.3674033  16.0262647  96.1720540
  78.6922102   7.2376421 104.4204609  78.1475570   8.0136229 104.5524883
  79.5701452   7.5847226 104.2623730  93.8620315  14.5428517  93.4537948
  94.5571219  15.1635209  93.6725263  94.2043465  13.6923868  93.7290326
  79.4788124   6.3646318 107.3134765  78.7369860   6.5128953 107.8999396
  79.1580868   6.6254583 106.4501515  95.7611738  11.9928222  94.9825279
  96.2863062  12.3315495  94.2574599  95.6734090  11.0575238  94.7988413
  87.4231786  15.9062296 107.1115155  87.7318913  15.6611443 107.9837855
  88.2207268  16.1108934 106.6234026  87.4452399  18.0600206  99.3420532
  87.0057389  17.5676584 100.0353389  88.1960515  17.5173173  99.1012607
  79.9244737  14.2511746  99.3445160  80.7502757  13.9515518  98.9643804
  79.5738789  13.4819369  99.7934949  84.8926271  13.6038215 101.4142834
  84.2706280  12.9408920 101.1145062  85.5631138  13.6299346 100.7316481
  78.1253343  12.1698073 100.3034094  77.2885251  11.7420247 100.1218095
  78.0976988  12.3630516 101.2404885  84.4539778  12.1542138  94.8901294
  84.6027898  12.8377602  94.2367967  85.2606221  12.1347228  95.4050750
  82.2092411   8.1807316  95.8962363  81.9638452   7.2769646  96.0942573
  82.3788325   8.1824466  94.9541841  87.9535183  14.6490268  92.3613042
  87.3809150  15.2680456  91.9083513  88.5267977  15.1989630  92.8952964
  91.1732443  14.9327419  93.4921624  92.1063116  14.8672980  93.6954499
  91.0855656  15.7683685  93.0336157  93.8020460  14.2493289  90.4525571
  93.7234091  13.9153152  91.3461329  94.6230126  14.7415057  90.4517044
  77.4402839   5.2307421 100.0883026  77.1205623   4.3772729  99.7957400
  76.8936267   5.4455999 100.8440993  81.2182747   7.9469862 103.8052532
  81.4368756   8.8786970 103.8240566  81.6308520   7.5877836 104.5907336
  77.3091099   8.8510332 102.0576147  76.6154571   8.4364285 101.5446102
  78.0564090   8.8930869 101.4609566  79.2227842   8.7828586  99.9342162
  79.1998530   8.8816273  98.9824045  79.5328478   9.6293737 100.2559328
  81.8815220  10.8404741 104.0488777  82.8358473  10.8088684 103.9818708
  81.6827743  10.3795365 104.8639003  82.4714602   9.4105857 106.6159574
  83.2907491   9.9049936 106.6394412  82.7451409   8.4937825 106.5877142
  80.2365448  16.3824361 101.0658974  80.1019916  15.6224762 100.4996973
  79.8197511  17.1065261 100.5987763  91.3724411  11.5661284  90.0735550
  92.0760261  11.7711287  90.6893205  90.6487060  12.1338046  90.3384633
  83.3934574  17.2793678 101.2777417  83.2766958  18.2239110 101.1756107
  82.5727020  16.9767239 101.6663216  93.2811109  12.0043813  92.1234010
  94.1156713  11.5725012  91.9411485  93.1195452  11.8325827  93.0510904
  92.9357001   8.5075927  93.4890349  92.8805805   8.3420198  92.5478793
  92.3103056   9.2151960  93.6452539  77.7249516   3.7443991 107.3151771
  78.3708380   3.2342945 107.8038997  77.5166667   4.4812673 107.8895197
  84.4189088  17.9321940 104.4933346  85.3216335  17.9645550 104.8099841
  84.1926458  17.0022391 104.5079681  86.1742690  16.6852926 101.1543424
  85.2238321  16.6854788 101.0407796  86.4775176  15.9385661 100.6379459
 101.9095384  22.5213465 102.2189187 102.5473794  22.4020212 101.5152527
 101.7916227  23.4694309 102.2777139  98.7185090  22.4740893 102.1550711
  98.3803602  22.3581957 101.2671246  99.5874858  22.0732058 102.1351717
  94.5771906  24.3276369  98.1447602  94.0136771  24.2366306  97.3763890
  94.4624301  23.5076274  98.6250095  92.1236338  25.8227561 100.9831823
  92.9157630  25.4818385 100.5678122  92.3632988  25.9322536 101.9033976
 100.1571465  27.9947337  93.4562067  99.5059444  28.5801417  93.0696081
 100.9515827  28.5253532  93.5157105  94.0827092  25.0836474  93.8549201
  94.8557968  24.5365461  93.7162077  94.4352491  25.9480723  94.0663663
  95.9212134  26.4112856 107.0616101  95.6302000  27.3158487 106.9462767
  96.5569119  26.4529384 107.7760170  96.8468341  23.7889705 103.6517460
  97.4431913  23.5645727 102.9374423  96.9043313  23.0474450 104.2542908
  96.4193369  21.2429140  91.4867651  96.6718890  20.7210661  90.7251114
  95.4817929  21.0795286  91.5894335 101.4636652  20.2464918  99.2942395
 102.2499742  19.8284342  98.9432812 101.7275357  21.1511011  99.4624043
 101.6346730  25.6837769  93.9931051 100.9992563  25.7572395  94.7051956
 101.3044136  26.2731368  93.3150131  96.1389658  23.1457246  93.6892026
  96.0225916  22.4702149  94.3573111  96.2491918  22.6589620  92.8724179
  98.4821199  22.6067393  97.3938716  98.1179406  22.0798014  98.1051637
  99.3388315  22.2165862  97.2205201  98.1226686  17.6357293  92.3900064
  98.2901088  18.5037529  92.7570535  97.9323855  17.7984575  91.4661353
 100.8802019  26.0974272 104.0565894 100.5802742  26.9999311 103.9481702
 100.5353079  25.8306455 104.9087047  94.3314501  22.5488069 100.0902599
  93.4064997  22.4164283 100.2980291  94.5798914  23.3282288 100.5872541
  98.1015907  20.0914950  93.3746731  97.9815532  20.5372001  94.2132211
  97.4068495  20.4400268  92.8160269  91.6923312  22.1921342 100.9246388
  91.8215693  22.4455821 101.8385800  91.0120763  22.7849050 100.6051043
  95.8622799  32.8618592  97.0236862  95.7846829  33.8126417  97.1025343
  95.2584443  32.5164465  97.6811788 103.8000973  20.5636423  94.2027065
 104.7118829  20.7963810  94.0274763 103.2910620  21.1473468  93.6402144
 102.4070555  25.5462242 101.5940646 101.7779418  25.7107956 100.8916714
 102.0196218  25.9603851 102.3651610 106.2859787  26.4816680  98.9485010
 105.6010826  26.8615581  98.3982043 106.3703637  27.0912006  99.6816958
  97.9598517  25.2836650  98.8590732  98.4236863  25.5624353  98.0695354
  97.6955315  24.3820095  98.6763822  94.8522598  24.8308132 101.7970495
  95.4223955  25.2595400 101.1587979  95.4430710  24.5490716 102.4954680
  96.8967403  21.4059802  95.6680297  97.5991447  21.8580846  96.1354223
  96.5648032  20.7643621  96.2960190  90.6392737  19.6643355 100.9697430
  89.8491791  19.9200884 100.4937541  91.1303985  20.4791693 101.0749471
  92.5907483  20.0287934  97.9280907  91.7938646  20.1406629  98.4464403
  92.3633075  20.3674587  97.0621797  98.4213150  26.5532638 105.8763422
  98.4857583  27.0153045 106.7121593  97.7124074  25.9230002 106.0045731
  88.9230440  19.9173846 103.4012421  89.1738479  20.8020855 103.6669997
  89.4589989  19.7378447 102.6287513  98.1361168  28.2200745  95.7442402
  98.0006843  29.0652281  96.1727250  98.6770981  28.4220023  94.9808336
  91.5890565  25.7376183  96.3170327  92.1015086  26.5319433  96.4675892
  92.2413278  25.0402474  96.2503928  93.3985450  28.8541939  98.3993080
  93.5752078  29.7759904  98.2114064  94.1942284  28.5400359  98.8287460
  92.6837807  20.9006571 108.2755243  92.5691322  19.9991828 108.5762342
  91.8282324  21.1470268 107.9240060  94.5216766  30.3720113 104.4003422
  95.0724191  30.2437176 103.6280416  93.6828241  30.6715002 104.0498315
  98.3183937  26.6371241 108.7447654  98.8512273  25.8759529 108.5146962
  97.7898018  26.3444893 109.4871808  89.5539482  24.0664837  97.0929898
  90.3914704  24.4761846  96.8763605  89.7317750  23.1264280  97.0630091
 101.4503914  21.7339918  92.7813730 100.9350538  22.5044523  93.0202118
 101.1781223  21.0605054  93.4046792  99.0351025  16.5789619  97.8398969
  98.1792622  16.1896469  97.6604608  99.4477977  16.6581580  96.9798754
  96.8093058  14.1974692 101.2456710  97.6746055  14.0017500 100.8862600
  96.8770567  13.9685044 102.1726067 106.4238188  24.4872273  94.7166904
 105.6467631  24.1483432  94.2722066 107.1029669  24.4924896  94.0421869
 101.2390217  19.6067010  94.6073512 100.9340353  19.9213159  95.4583655
 102.1920660  19.6848430  94.6500845  99.6836649  25.7657233  96.2566466
  99.1558011  25.0309993  95.9439703  99.1824152  26.5431910  96.0106434
 104.6629495  23.9606254 101.3733512 104.0053170  24.6505515 101.4613641
 105.4669895  24.3502686 101.7167498  94.4155377  16.4276900  98.6173077
  94.9899129  16.2052081  97.8846270  95.0026359  16.4965594  99.3701678
 103.4734954  22.3150627  99.4237454 103.9866836  22.9480618  99.9259163
 104.1236178  21.7151822  99.0580814  94.7424964  18.4581361  92.6368962
  93.9062276  18.7956047  92.9578237  94.6029734  18.3230341  91.6996099
  96.7178045  13.3018149  97.3448147  96.0642457  12.9867166  96.7204761
  96.6758519  12.6793889  98.0707969  97.8289250  23.5837444  89.2601439
  96.9216311  23.3526697  89.4592588  98.3260282  22.7875063  89.4475420
 100.7357328  32.2934951  92.1798125 100.0619027  32.5966648  92.7883083
 101.1223150  33.0964031  91.8303582  99.9515785  19.7900082 101.6695794
  99.0338346  20.0115029 101.5117482 100.3675929  19.8646393 100.8107502
 100.7350833  21.1891498  96.7998474 101.4822652  21.7012895  96.4905597
 101.0042422  20.8675551  97.6602868  99.0077483  23.6850039  93.7825429
  98.0988702  23.4009071  93.8797898  99.0372567  24.1049117  92.9228736
 104.2396750  27.2956628  97.5516596 103.7859077  26.4547538  97.6081787
 103.6090717  27.9318026  97.8891376 103.1829670  18.2248614  98.7817264
 102.4452427  17.7126000  99.1127506 103.4356443  17.7848996  97.9700541
 102.6829690  29.1333125  98.4866414 102.9752664  29.6938182  97.7678780
 103.1928310  29.4261686  99.2419574  89.5765653  21.4055553  97.7640631
  89.3790053  20.8124913  97.0391698  89.0212317  21.1007763  98.4816570
  97.5562377  21.2978659  99.8835224  97.6110987  20.3452496  99.8077701
  96.7453579  21.4538098 100.3676523  98.7053571  25.2258782  91.1213507
  98.2673001  24.5094641  90.6619145  99.4464012  25.4534897  90.5598599
  95.4954737  19.9155719  97.6425603  94.6822602  20.2149889  98.0490795
  95.9913731  19.5211408  98.3600085  97.6463315  29.9113476  99.5759868
  97.6039494  30.1374322  98.6468400  98.5626014  29.6776850  99.7245669
 106.8226686  23.5015979  97.1789826 106.6844584  23.6917575  96.2511015
 106.4662904  24.2635362  97.6357877  94.9868812  17.4874074 103.2586838
  95.6268191  17.3462834 102.5609801  94.1546342  17.2008588 102.8825440
  95.7629116  26.7876505  99.3721830  96.5569714  26.2926825  99.1704405
  95.0520808  26.2594368  99.0089536 100.5823960  29.1694600 103.7234198
 100.6360982  29.7385537 104.4911914  99.7138741  29.3396485 103.3588235
  92.0711879  20.9319587  95.4481583  91.1409467  20.8704042  95.6651545
  92.1669351  20.4095539  94.6518224  91.9897428  17.4574399  98.0359825
  92.2504245  18.3719733  97.9268985  92.8114600  16.9898842  98.1856438
  93.4622353  18.8712157 105.2058649  94.1345407  18.6629519 104.5571298
  92.6352140  18.6734243 104.7663882  99.5412060  23.3354862 105.2821130
 100.4704120  23.4866022 105.1090097  99.1203090  23.4238883 104.4269776
  98.3400392  27.3605527 103.0519667  98.2011477  26.9924311 103.9245606
  97.5514988  27.8753166 102.8803625  98.9348544  32.4614623  94.3945204
  99.1100299  31.9902666  95.2090827  98.2481332  33.0880389  94.6226465
  99.8905607  26.7387130 100.4408505  99.5555439  26.6987899 101.3366155
  99.3909552  26.0731845  99.9678915  93.8649851  22.1454760 105.9661086
  93.7269649  21.4134998 106.5672625  94.7754774  22.0563660 105.6845274
 102.8264798  24.0843164  90.7145565 102.2093969  23.3589992  90.6178618
 102.3581287  24.8452524  90.3712639  96.4932151  21.8574719 105.4544766
  97.2031770  21.2167911 105.4131384  96.4501460  22.1087614 106.3770947
  93.5009629  35.6103986 101.1685064  93.7406227  36.2422510 101.8464083
  92.6578825  35.2592026 101.4550423  94.6163344  18.3028588  89.8366869
  93.7392811  18.1817389  89.4729116  95.0921097  17.5114666  89.5845758
  86.1365484  23.0905748  99.9308376  86.8236524  22.7767478  99.3429392
  85.9813613  23.9947113  99.6575628  90.9400207  17.9795944 104.3593400
  90.8558395  17.3721614 103.6243810  90.1182913  18.4704963 104.3602896
  98.0137491  31.4183109 103.5726568  97.9407662  32.2238080 104.0845873
  97.5714884  31.6175074 102.7474590  97.8027270  30.6554879  97.0829390
  97.0194792  31.1976559  97.1767614  98.5020015  31.1728858  97.4823631
 101.1123920  16.4649508  99.7263595 101.6092620  15.7119470  99.4064665
 100.3410902  16.5013825  99.1606804 100.4736174  31.3169943 105.7284727
 101.1864146  31.9517407 105.6560628  99.9826203  31.4133809 104.9124729
 102.1953701  25.2221195  97.3002018 101.2609980  25.3422658  97.1306723
 102.3730370  24.3193662  97.0362028  97.6958889  18.6066891  99.4535280
  97.3256677  18.0537931 100.1416185  98.1917982  18.0025024  98.9010280
 105.5826252  21.0638514  97.8352053 106.0486705  21.8966506  97.7612355
 106.0333753  20.5983496  98.5397311  95.5248088  29.0664386 106.5490298
  96.2257547  29.7000869 106.7019692  95.0543203  29.4079118 105.7885937
 103.6502484  27.4082336  94.8338205 103.9262327  27.2938930  95.7432079
 102.7806982  27.0099821  94.7950378 100.2856548  31.6568687  98.4771018
 100.4678942  30.8390343  98.9398771 101.1089534  31.8736379  98.0395908
 100.6198713  30.5836872  95.7386067 101.1486480  30.0729326  95.1256229
 100.8826933  30.2679402  96.6031600  91.1215806  28.6000741 103.4821400
  91.7069243  27.8544429 103.6149305  90.9240644  28.9104698 104.3658064
  93.9754461  31.6351988  98.4983843  93.3064836  32.1198116  98.0147883
  93.8367331  31.8821209  99.4127221  85.7133461  21.1706341 102.2025843
  85.7517560  20.6369932 102.9962962  85.2073753  20.6441547 101.5836821
  98.1159730  33.6695732 105.0966501  98.6678038  33.8327353 105.8615586
  98.4565923  34.2600170 104.4246526  93.0924223  16.0170882 105.6988386
  93.1565549  16.8785713 105.2865783  93.0291343  15.4044883 104.9660744
  89.3442038  19.8970443  95.2779775  89.6395479  18.9881122  95.2246829
  88.4430074  19.8758183  94.9560777 101.2528117  31.6177707 102.0830183
 101.1279256  30.8167447 101.5741129 101.9107208  32.1123901 101.5944153
  92.8736285  17.9726440 101.2607323  92.1522871  18.5862408 101.1214797
  93.6629541  18.5084205 101.1823969 103.3163025  29.4186728 103.7109733
 102.3693361  29.2992079 103.6388060 103.6645798  28.5309226 103.7935995
  91.0729880  17.5784541  95.4019100  90.7442586  16.6981920  95.2194206
  91.4269250  17.5232210  96.2895489 100.3209459  29.2139444  99.9114086
 100.1734421  28.2856151 100.0921656 101.1462952  29.2359534  99.4271161
  94.1871703  17.8657511  95.7694578  94.5267775  18.3943432  95.0473186
  94.6343823  18.2037917  96.5453144 103.9243580  30.0368003 100.9978958
 104.8490128  29.8310864 100.8603409 103.7558884  29.7884404 101.9068300
  96.1739850  16.3632132  93.9687870  96.8948213  16.7413385  93.4651587
  95.5505154  17.0821009  94.0722848 100.3170973  17.0677281  94.9046203
 100.5334587  17.9501919  94.6035031  99.8365040  16.6763495  94.1751845
  95.0570194  20.0262995 101.4816947  94.9114775  20.3403298 102.3741229
  94.5795398  20.6447895 100.9287846  96.9166577  17.0165543 101.5297837
  96.9028146  16.1206636 101.1930135  97.6339005  17.0236206 102.1636123
 103.7138897  30.5553670  96.3541050 103.8875774  29.9900092  95.6014902
 104.2067788  31.3554565  96.1720540  89.5315856  22.5668339 104.4204609
  88.9869325  23.3428147 104.5524883  90.4095206  22.9139144 104.2623730
  96.3203473  15.8979923  96.7985407  96.4419384  14.9696569  96.9976295
  96.0305515  15.9118609  95.8863722  99.1894663  13.5834833  99.9352127
  99.2116360  13.6474166  98.9804106  99.6062722  12.7439342 100.1292633
 109.5678288  23.3190093  97.9731349 110.0109434  22.5697418  97.5750473
 108.6904798  23.3100229  97.5905081 104.7014069  29.8720434  93.4537948
 105.3964974  30.4927127  93.6725263 105.0437219  29.0215786  93.7290326
  90.3181878  21.6938235 107.3134765  89.5763614  21.8420871 107.8999396
  89.9974623  21.9546501 106.4501515 106.6005492  27.3220140  94.9825279
 107.1256816  27.6607413  94.2574599 106.5127845  26.3867155  94.7988413
  98.2625541  31.2354214 107.1115155  98.5712667  30.9903360 107.9837855
  99.0601023  31.4400852 106.6234026  98.2846153  33.3892123  99.3420532
  97.8451143  32.8968502 100.0353389  99.0354270  32.8465091  99.1012607
  90.7638492  29.5803664  99.3445160  91.5896512  29.2807436  98.9643804
  90.4132544  28.8111286  99.7934949  95.7320025  28.9330132 101.4142834
  95.1100034  28.2700837 101.1145062  96.4024892  28.9591264 100.7316481
  88.9647097  27.4989990 100.3034094  88.1279005  27.0712165 100.1218095
  88.9370742  27.6922434 101.2404885  95.2933532  27.4834056  94.8901294
  95.4421652  28.1669520  94.2367967  96.0999976  27.4639146  95.4050750
  93.0486165  23.5099233  95.8962363  92.8032207  22.6061563  96.0942573
  93.2182080  23.5116384  94.9541841  92.3181813  19.2427591  93.3948525
  91.6251058  19.3171946  92.7388561  92.0733564  18.4787934  93.9170041
  98.7928938  29.9782186  92.3613042  98.2202905  30.5972373  91.9083513
  99.3661731  30.5281548  92.8952964 102.0126197  30.2619336  93.4921624
 102.9456871  30.1964898  93.6954499 101.9249410  31.0975603  93.0336157
 104.6414214  29.5785207  90.4525571 104.5627846  29.2445070  91.3461329
 105.4623881  30.0706974  90.4517044  99.1775736  21.3142999  89.7029094
 100.1234841  21.1849207  89.7717512  98.7989981  20.5757661  90.1798522
  97.3618653  19.2392975  89.6383979  96.4550109  18.9426088  89.7146693
  97.6394634  18.9422793  88.7718266  88.2796594  20.5599339 100.0883026
  87.9599378  19.7064647  99.7957400  87.7330022  20.7747917 100.8440993
  92.0576501  23.2761780 103.8052532  92.2762511  24.2078887 103.8240566
  92.4702275  22.9169754 104.5907336  98.9780719  13.7829865  95.7928221
  98.1681447  13.4376950  96.1683467  99.6665136  13.4737409  96.3815832
 100.9071267  12.8607912  97.4152517 101.4602306  13.2803365  98.0742540
 101.1441354  11.9343660  97.4575473  96.1317438  16.0979910  89.7795959
  96.9936602  16.4234809  90.0391776  96.3167782  15.3111406  89.2669024
  88.1484854  24.1802250 102.0576147  87.4548325  23.7656203 101.5446102
  88.8957845  24.2222787 101.4609566 104.2850074  14.9708437  96.9231182
 103.7048743  15.6293241  96.5409234 104.0186007  14.1485781  96.5118599
  90.0621596  24.1120504  99.9342162  90.0392284  24.2108191  98.9824045
  90.3722233  24.9585655 100.2559328  92.7208974  26.1696659 104.0488777
  93.6752228  26.1380601 103.9818708  92.5221498  25.7087283 104.8639003
  93.3108356  24.7397775 106.6159574  94.1301245  25.2341854 106.6394412
  93.5845164  23.8229743 106.5877142 103.0674952  17.1308527  95.9787530
 102.1800807  17.4158178  95.7607725 103.4828941  16.9702291  95.1314807
  91.0759203  31.7116278 101.0658974  90.9413671  30.9516679 100.4996973
  90.6591265  32.4357178 100.5987763 102.2118166  26.8953202  90.0735550
 102.9154016  27.1003204  90.6893205 101.4880815  27.4629964  90.3384633
 103.0415976  22.6463063  96.1937820 102.9851177  23.1031615  95.3545452
 103.5944319  21.8853748  96.0160663 106.8520782  18.4352795  97.0187939
 106.5957716  18.0349431  97.8496147 106.2273650  19.1496589  96.8938079
  94.2328329  32.6085595 101.2777417  94.1160713  33.5531028 101.1756107
  93.4120775  32.3059157 101.6663216 104.1204863  27.3335731  92.1234010
 104.9550467  26.9016930  91.9411485 103.9589206  27.1617745  93.0510904
 103.7750755  23.8367844  93.4890349 103.7199559  23.6712116  92.5478793
 103.1496811  24.5443877  93.6452539  88.5643270  19.0735909 107.3151771
  89.2102134  18.5634863 107.8038997  88.3560422  19.8104590 107.8895197
  97.0846881  13.3375953  93.0675668  97.0725551  14.2817793  93.2243938
  97.9770303  13.1546099  92.7735129  95.2582843  33.2613857 104.4933346
  96.1610090  33.2937468 104.8099841  95.0320213  32.3314308 104.5079681
  97.0136445  32.0144844 101.1543424  96.0632076  32.0146705 101.0407796
  97.3168931  31.2677578 100.6379459 112.7489138  37.8505382 102.2189187
 113.3867548  37.7312130 101.5152527 112.6309981  38.7986226 102.2777139
 109.5578845  37.8032810 102.1550711 109.2197356  37.6873875 101.2671246
 110.4268613  37.4023975 102.1351717 105.4165660  39.6568287  98.1447602
 104.8530525  39.5658224  97.3763890 105.3018055  38.8368191  98.6250095
 102.9630092  41.1519478 100.9831823 103.7551384  40.8110303 100.5678122
 103.2026742  41.2614453 101.9033976 110.9965219  43.3239254  93.4562067
 110.3453199  43.9093335  93.0696081 111.7909582  43.8545449  93.5157105
 104.9220846  40.4128392  93.8549201 105.6951722  39.8657379  93.7162077
 105.2746245  41.2772641  94.0663663 106.7605889  41.7404774 107.0616101
 106.4695755  42.6450405 106.9462767 107.3962873  41.7821301 107.7760170
 107.6862096  39.1181622 103.6517460 108.2825668  38.8937645 102.9374423
 107.7437067  38.3766368 104.2542908 107.2587124  36.5721058  91.4867651
 107.5112645  36.0502579  90.7251114 106.3211683  36.4087203  91.5894335
 112.3030407  35.5756836  99.2942395 113.0893496  35.1576259  98.9432812
 112.5669111  36.4802928  99.4624043 112.4740484  41.0129686  93.9931051
 111.8386317  41.0864313  94.7051956 112.1437891  41.6023285  93.3150131
 106.9783413  38.4749164  93.6892026 106.8619671  37.7994067  94.3573111
 107.0885673  37.9881538  92.8724179 109.3214954  37.9359311  97.3938716
 108.9573161  37.4089932  98.1051637 110.1782070  37.5457780  97.2205201
 108.9620441  32.9649210  92.3900064 109.1294843  33.8329447  92.7570535
 108.7717610  33.1276492  91.4661353 111.7195774  41.4266189 104.0565894
 111.4196497  42.3291228 103.9481702 111.3746833  41.1598373 104.9087047
 105.1708255  37.8779986 100.0902599 104.2458752  37.7456200 100.2980291
 105.4192668  38.6574205 100.5872541 108.9409662  35.4206868  93.3746731
 108.8209287  35.8663919  94.2132211 108.2462250  35.7692186  92.8160269
 102.5317066  37.5213260 100.9246388 102.6609447  37.7747739 101.8385800
 101.8514518  38.1140968 100.6051043 106.7016554  48.1910510  97.0236862
 106.6240583  49.1418335  97.1025343 106.0978197  47.8456382  97.6811788
 114.6394728  35.8928341  94.2027065 115.5512584  36.1255728  94.0274763
 114.1304375  36.4765385  93.6402144 113.2464310  40.8754160 101.5940646
 112.6173172  41.0399874 100.8916714 112.8589972  41.2895769 102.3651610
 117.1253542  41.8108597  98.9485010 116.4404580  42.1907499  98.3982043
 117.2097391  42.4203924  99.6816958 108.7992272  40.6128568  98.8590732
 109.2630617  40.8916271  98.0695354 108.5349070  39.7112012  98.6763822
 105.6916353  40.1600049 101.7970495 106.2617710  40.5887318 101.1587979
 106.2824465  39.8782634 102.4954680 107.7361158  36.7351720  95.6680297
 108.4385201  37.1872764  96.1354223 107.4041786  36.0935539  96.2960190
 101.4786492  34.9935273 100.9697430 100.6885546  35.2492801 100.4937541
 101.9697739  35.8083611 101.0749471 103.4301237  35.3579852  97.9280907
 102.6332401  35.4698546  98.4464403 103.2026829  35.6966504  97.0621797
 109.2606905  41.8824555 105.8763422 109.3251337  42.3444962 106.7121593
 108.5517829  41.2521920 106.0045731  99.7624195  35.2465763 103.4012421
 100.0132233  36.1312773 103.6669997 100.2983743  35.0670365 102.6287513
 108.9754923  43.5492663  95.7442402 108.8400597  44.3944198  96.1727250
 109.5164735  43.7511940  94.9808336 102.4284320  41.0668101  96.3170327
 102.9408840  41.8611351  96.4675892 103.0807033  40.3694391  96.2503928
 104.2379205  44.1833857  98.3993080 104.4145833  45.1051822  98.2114064
 105.0336038  43.8692276  98.8287460 103.5231561  36.2298489 108.2755243
 103.4085076  35.3283746 108.5762342 102.6676079  36.4762186 107.9240060
 105.3610520  45.7012031 104.4003422 105.9117945  45.5729094 103.6280416
 104.5221996  46.0006920 104.0498315 109.1577691  41.9663159 108.7447654
 109.6906028  41.2051447 108.5146962 108.6291772  41.6736810 109.4871808
 100.3933237  39.3956755  97.0929898 101.2308459  39.8053763  96.8763605
 100.5711504  38.4556197  97.0630091 112.2897669  37.0631836  92.7813730
 111.7744292  37.8336440  93.0202118 112.0174977  36.3896972  93.4046792
 109.8744780  31.9081536  97.8398969 109.0186376  31.5188387  97.6604608
 110.2871732  31.9873497  96.9798754 107.6486812  29.5266609 101.2456710
 108.5139809  29.3309418 100.8862600 107.7164321  29.2976961 102.1726067
 117.2631943  39.8164190  94.7166904 116.4861386  39.4775350  94.2722066
 117.9423424  39.8216813  94.0421869 112.0783972  34.9358928  94.6073512
 111.7734108  35.2505077  95.4583655 113.0314414  35.0140348  94.6500845
 110.5230404  41.0949151  96.2566466 109.9951765  40.3601911  95.9439703
 110.0217907  41.8723827  96.0106434 115.5023250  39.2898172 101.3733512
 114.8446924  39.9797433 101.4613641 116.3063649  39.6794604 101.7167498
 105.2549131  31.7568817  98.6173077 105.8292883  31.5343999  97.8846270
 105.8420114  31.8257512  99.3701678 114.3128709  37.6442544  99.4237454
 114.8260590  38.2772536  99.9259163 114.9629933  37.0443740  99.0580814
 105.5818719  33.7873278  92.6368962 104.7456031  34.1247965  92.9578237
 105.4423488  33.6522258  91.6996099 107.5571799  28.6310066  97.3448147
 106.9036211  28.3159083  96.7204761 107.5152273  28.0085807  98.0707969
 108.6683004  38.9129361  89.2601439 107.7610066  38.6818615  89.4592588
 109.1654036  38.1166981  89.4475420 111.5751083  47.6226869  92.1798125
 110.9012782  47.9258565  92.7883083 111.9616905  48.4255949  91.8303582
 110.7909540  35.1192000 101.6695794 109.8732101  35.3406947 101.5117482
 111.2069683  35.1938310 100.8107502 111.5744587  36.5183416  96.7998474
 112.3216406  37.0304813  96.4905597 111.8436177  36.1967468  97.6602868
 109.8471237  39.0141956  93.7825429 108.9382457  38.7300989  93.8797898
 109.8766321  39.4341035  92.9228736 115.0790505  42.6248546  97.5516596
 114.6252832  41.7839456  97.6081787 114.4484472  43.2609944  97.8891376
 114.0223424  33.5540532  98.7817264 113.2846181  33.0417918  99.1127506
 114.2750198  33.1140913  97.9700541 113.5223444  44.4625042  98.4866414
 113.8146418  45.0230100  97.7678780 114.0322065  44.7553603  99.2419574
 100.4159408  36.7347470  97.7640631 100.2183808  36.1416831  97.0391698
  99.8606072  36.4299681  98.4816570 108.3956131  36.6270577  99.8835224
 108.4504741  35.6744413  99.8077701 107.5847334  36.7830016 100.3676523
 109.5447325  40.5550700  91.1213507 109.1066755  39.8386559  90.6619145
 110.2857766  40.7826815  90.5598599 106.3348491  35.2447637  97.6425603
 105.5216357  35.5441807  98.0490795 106.8307486  34.8503325  98.3600085
 108.4857069  45.2405394  99.5759868 108.4433248  45.4666240  98.6468400
 109.4019768  45.0068768  99.7245669 117.6620440  38.8307897  97.1789826
 117.5238339  39.0209493  96.2511015 117.3056659  39.5927280  97.6357877
 105.8262566  32.8165992 103.2586838 106.4661945  32.6754751 102.5609801
 104.9940097  32.5300505 102.8825440 106.6022870  42.1168423  99.3721830
 107.3963469  41.6218743  99.1704405 105.8914562  41.5886286  99.0089536
 111.4217715  44.4986518 103.7234198 111.4754737  45.0677454 104.4911914
 110.5532496  44.6688403 103.3588235 102.9105634  36.2611504  95.4481583
 101.9803222  36.1995960  95.6651545 103.0063106  35.7387457  94.6518224
 102.8291183  32.7866317  98.0359825 103.0898000  33.7011650  97.9268985
 103.6508355  32.3190760  98.1856438 104.3016108  34.2004074 105.2058649
 104.9739161  33.9921436 104.5571298 103.4745894  34.0026160 104.7663882
 110.3805814  38.6646780 105.2821130 111.3097874  38.8157940 105.1090097
 109.9596844  38.7530801 104.4269776 109.1794146  42.6897445 103.0519667
 109.0405232  42.3216229 103.9245606 108.3908742  43.2045084 102.8803625
 109.7742298  47.7906541  94.3945204 109.9494054  47.3194584  95.2090827
 109.0875086  48.4172307  94.6226465 110.7299361  42.0679047 100.4408505
 110.3949194  42.0279817 101.3366155 110.2303307  41.4023763  99.9678915
 104.7043605  37.4746677 105.9661086 104.5663403  36.7426916 106.5672625
 105.6148529  37.3855577 105.6845274 113.6658553  39.4135082  90.7145565
 113.0487724  38.6881910  90.6178618 113.1975041  40.1744442  90.3712639
 107.3325906  37.1866637 105.4544766 108.0425524  36.5459829 105.4131384
 107.2895214  37.4379531 106.3770947 104.3403383  50.9395904 101.1685064
 104.5799982  51.5714428 101.8464083 103.4972580  50.5883944 101.4550423
 105.4557099  33.6320506  89.8366869 104.5786565  33.5109307  89.4729116
 105.9314852  32.8406584  89.5845758  96.9759239  38.4197666  99.9308376
  97.6630279  38.1059396  99.3429392  96.8207368  39.3239030  99.6575628
 101.7793961  33.3087862 104.3593400 101.6952150  32.7013532 103.6243810
 100.9576667  33.7996880 104.3602896 108.8531245  46.7475026 103.5726568
 108.7801417  47.5529998 104.0845873 108.4108638  46.9466992 102.7474590
 108.6421025  45.9846796  97.0829390 107.8588547  46.5268476  97.1767614
 109.3413770  46.5020776  97.4823631 111.9517675  31.7941426  99.7263595
 112.4486374  31.0411388  99.4064665 111.1804656  31.8305742  99.1606804
 111.3129929  46.6461860 105.7284727 112.0257901  47.2809325 105.6560628
 110.8219957  46.7425726 104.9124729 113.0347456  40.5513113  97.3002018
 112.1003734  40.6714575  97.1306723 113.2124124  39.6485580  97.0362028
 108.5352644  33.9358809  99.4535280 108.1650431  33.3829849 100.1416185
 109.0311736  33.3316942  98.9010280 116.4220007  36.3930432  97.8352053
 116.8880459  37.2258424  97.7612355 116.8727507  35.9275414  98.5397311
 106.3641842  44.3956304 106.5490298 107.0651302  45.0292787 106.7019692
 105.8936957  44.7371035 105.7885937 114.4896238  42.7374253  94.8338205
 114.7656082  42.6230848  95.7432079 113.6200737  42.3391738  94.7950378
 111.1250302  46.9860604  98.4771018 111.3072697  46.1682260  98.9398771
 111.9483288  47.2028297  98.0395908 111.4592468  45.9128789  95.7386067
 111.9880234  45.4021244  95.1256229 111.7220687  45.5971320  96.6031600
 101.9609560  43.9292659 103.4821400 102.5462997  43.1836347 103.6149305
 101.7634399  44.2396615 104.3658064 104.8148216  46.9643906  98.4983843
 104.1458591  47.4490034  98.0147883 104.6761085  47.2113127  99.4127221
  96.5527215  36.4998259 102.2025843  96.5911315  35.9661850 102.9962962
  96.0467508  35.9733464 101.5836821 108.9553484  48.9987650 105.0966501
 109.5071792  49.1619271 105.8615586 109.2959678  49.5892087 104.4246526
 103.9317977  31.3462799 105.6988386 103.9959304  32.2077630 105.2865783
 103.8685098  30.7336801 104.9660744 100.1835793  35.2262361  95.2779775
 100.4789234  34.3173040  95.2246829  99.2823828  35.2050101  94.9560777
 112.0921871  46.9469625 102.0830183 111.9673011  46.1459365 101.5741129
 112.7500963  47.4415819 101.5944153 103.7130040  33.3018358 101.2607323
 102.9916625  33.9154325 101.1214797 104.5023295  33.8376122 101.1823969
 114.1556780  44.7478645 103.7109733 113.2087115  44.6283996 103.6388060
 114.5039553  43.8601143 103.7935995 101.9123634  32.9076459  95.4019100
 101.5836340  32.0273838  95.2194206 102.2663005  32.8524127  96.2895489
 111.1603213  44.5431361  99.9114086 111.0128176  43.6148069 100.0921656
 111.9856707  44.5651452  99.4271161 105.0265457  33.1949429  95.7694578
 105.3661530  33.7235350  95.0473186 105.4737578  33.5329835  96.5453144
 114.7637335  45.3659920 100.9978958 115.6883882  45.1602782 100.8603409
 114.5952638  45.1176321 101.9068300 107.0133605  31.6924050  93.9687870
 107.7341967  32.0705303  93.4651587 106.3898909  32.4112927  94.0722848
 111.1564727  32.3969199  94.9046203 111.3728342  33.2793837  94.6035031
 110.6758795  32.0055413  94.1751845 105.8963949  35.3554912 101.4816947
 105.7508529  35.6695215 102.3741229 105.4189152  35.9739813 100.9287846
 107.7560332  32.3457460 101.5297837 107.7421900  31.4498554 101.1930135
 108.4732760  32.3528124 102.1636123 114.5532651  45.8845588  96.3541050
 114.7269529  45.3192010  95.6014902 115.0461542  46.6846483  96.1720540
 100.3709611  37.8960257 104.4204609  99.8263079  38.6720065 104.5524883
 101.2488961  38.2431061 104.2623730 107.1597228  31.2271841  96.7985407
 107.2813139  30.2988487  96.9976295 106.8699270  31.2410527  95.8863722
 110.0288418  28.9126751  99.9352127 110.0510115  28.9766084  98.9804106
 110.4456477  28.0731260 100.1292633 120.4072042  38.6482011  97.9731349
 120.8503188  37.8989336  97.5750473 119.5298553  38.6392147  97.5905081
 115.5407824  45.2012352  93.4537948 116.2358728  45.8219045  93.6725263
 115.8830974  44.3507703  93.7290326 101.1575633  37.0230153 107.3134765
 100.4157369  37.1712788 107.8999396 100.8368377  37.2838419 106.4501515
 117.4399247  42.6512058  94.9825279 117.9650571  42.9899330  94.2574599
 117.3521599  41.7159073  94.7988413 109.1019295  46.5646131 107.1115155
 109.4106422  46.3195278 107.9837855 109.8994777  46.7692770 106.6234026
 109.1239907  48.7184041  99.3420532 108.6844898  48.2260420 100.0353389
 109.8748024  48.1757009  99.1012607 101.6032246  44.9095582  99.3445160
 102.4290266  44.6099354  98.9643804 101.2526298  44.1403204  99.7934949
 106.5713780  44.2622050 101.4142834 105.9493789  43.5992755 101.1145062
 107.2418647  44.2883182 100.7316481  99.8040852  42.8281908 100.3034094
  98.9672760  42.4004083 100.1218095  99.7764497  43.0214352 101.2404885
 106.1327287  42.8125973  94.8901294 106.2815407  43.4961438  94.2367967
 106.9393730  42.7931063  95.4050750 103.8879920  38.8391151  95.8962363
 103.6425961  37.9353481  96.0942573 104.0575834  38.8408301  94.9541841
 103.1575567  34.5719509  93.3948525 102.4644812  34.6463863  92.7388561
 102.9127319  33.8079852  93.9170041 109.6322692  45.3074104  92.3613042
 109.0596659  45.9264291  91.9083513 110.2055486  45.8573465  92.8952964
 112.8519952  45.5911254  93.4921624 113.7850625  45.5256816  93.6954499
 112.7643165  46.4267521  93.0336157 115.4807969  44.9077124  90.4525571
 115.4021600  44.5736988  91.3461329 116.3017635  45.3998892  90.4517044
 110.0169491  36.6434916  89.7029094 110.9628595  36.5141125  89.7717512
 109.6383736  35.9049578  90.1798522 108.2012408  34.5684893  89.6383979
 107.2943863  34.2718006  89.7146693 108.4788389  34.2714711  88.7718266
  99.1190348  35.8891256 100.0883026  98.7993132  35.0356564  99.7957400
  98.5723776  36.1039834 100.8440993 102.8970256  38.6053697 103.8052532
 103.1156265  39.5370805 103.8240566 103.3096029  38.2461672 104.5907336
 109.8174473  29.1121783  95.7928221 109.0075202  28.7668868  96.1683467
 110.5058890  28.8029326  96.3815832 111.7465022  28.1899829  97.4152517
 112.2996060  28.6095283  98.0742540 111.9835108  27.2635578  97.4575473
 106.9711192  31.4271828  89.7795959 107.8330356  31.7526726  90.0391776
 107.1561537  30.6403324  89.2669024  98.9878608  39.5094168 102.0576147
  98.2942080  39.0948121 101.5446102  99.7351599  39.5514704 101.4609566
 115.1243829  30.3000355  96.9231182 114.5442498  30.9585159  96.5409234
 114.8579762  29.4777699  96.5118599 100.9015351  39.4412422  99.9342162
 100.8786039  39.5400109  98.9824045 101.2115987  40.2877572 100.2559328
 103.5602729  41.4988577 104.0488777 104.5145982  41.4672519 103.9818708
 103.3615252  41.0379200 104.8639003 104.1502111  40.0689693 106.6159574
 104.9695000  40.5633771 106.6394412 104.4238918  39.1521661 106.5877142
 113.9068707  32.4600445  95.9787530 113.0194562  32.7450096  95.7607725
 114.3222696  32.2994208  95.1314807 101.9152957  47.0408196 101.0658974
 101.7807425  46.2808597 100.4996973 101.4985020  47.7649096 100.5987763
 113.0511920  42.2245120  90.0735550 113.7547770  42.4295122  90.6893205
 112.3274569  42.7921882  90.3384633 113.8809731  37.9754981  96.1937820
 113.8244932  38.4323532  95.3545452 114.4338073  37.2145665  96.0160663
 117.6914537  33.7644713  97.0187939 117.4351471  33.3641348  97.8496147
 117.0667405  34.4788507  96.8938079 105.0722083  47.9377513 101.2777417
 104.9554467  48.8822946 101.1756107 104.2514529  47.6351075 101.6663216
 114.9598618  42.6627649  92.1234010 115.7944222  42.2308847  91.9411485
 114.7982961  42.4909662  93.0510904 114.6144510  39.1659762  93.4890349
 114.5593314  39.0004034  92.5478793 113.9890565  39.8735795  93.6452539
  99.4037025  34.4027826 107.3151771 100.0495888  33.8926780 107.8038997
  99.1954176  35.1396508 107.8895197 107.9240635  28.6667871  93.0675668
 107.9119305  29.6109711  93.2243938 108.8164057  28.4838017  92.7735129
 106.0976597  48.5905775 104.4933346 107.0003844  48.6229385 104.8099841
 105.8713967  47.6606226 104.5079681 107.8530199  47.3436762 101.1543424
 106.9025830  47.3438623 101.0407796 108.1562685  46.5969496 100.6379459
 120.3972599  53.1324728 102.1550711 120.0591111  53.0165793 101.2671246
 121.2662367  52.7315893 102.1351717 116.2559415  54.9860204  98.1447602
 115.6924280  54.8950141  97.3763890 116.1411810  54.1660109  98.6250095
 113.8023847  56.4811396 100.9831823 114.5945139  56.1402221 100.5678122
 114.0420497  56.5906371 101.9033976 115.7614601  55.7420309  93.8549201
 116.5345477  55.1949296  93.7162077 116.1140000  56.6064559  94.0663663
 117.5999643  57.0696692 107.0616101 117.3089509  57.9742322 106.9462767
 118.2356628  57.1113219 107.7760170 118.5255850  54.4473540 103.6517460
 119.1219422  54.2229562 102.9374423 118.5830822  53.7058286 104.2542908
 118.0980878  51.9012975  91.4867651 118.3506399  51.3794497  90.7251114
 117.1605438  51.7379121  91.5894335 117.8177167  53.8041081  93.6892026
 117.7013425  53.1285985  94.3573111 117.9279427  53.3173455  92.8724179
 120.1608708  53.2651228  97.3938716 119.7966915  52.7381849  98.1051637
 121.0175824  52.8749698  97.2205201 119.8014195  48.2941128  92.3900064
 119.9688597  49.1621365  92.7570535 119.6111364  48.4568410  91.4661353
 116.0102010  53.2071904 100.0902599 115.0852506  53.0748118 100.2980291
 116.2586423  53.9866123 100.5872541 119.7803416  50.7498786  93.3746731
 119.6603041  51.1955836  94.2132211 119.0856004  51.0984103  92.8160269
 113.3710821  52.8505177 100.9246388 113.5003202  53.1039656 101.8385800
 112.6908272  53.4432885 100.6051043 117.5410308  63.5202427  97.0236862
 117.4634338  64.4710252  97.1025343 116.9371952  63.1748300  97.6811788
 119.6386026  55.9420485  98.8590732 120.1024372  56.2208188  98.0695354
 119.3742824  55.0403930  98.6763822 116.5310107  55.4891967 101.7970495
 117.1011464  55.9179235 101.1587979 117.1218219  55.2074552 102.4954680
 118.5754912  52.0643638  95.6680297 119.2778956  52.5164681  96.1354223
 118.2435541  51.4227457  96.2960190 112.3180246  50.3227190 100.9697430
 111.5279300  50.5784719 100.4937541 112.8091494  51.1375528 101.0749471
 114.2694992  50.6871770  97.9280907 113.4726155  50.7990464  98.4464403
 114.0420584  51.0258422  97.0621797 120.1000659  57.2116473 105.8763422
 120.1645092  57.6736880 106.7121593 119.3911583  56.5813838 106.0045731
 110.6017949  50.5757681 103.4012421 110.8525988  51.4604691 103.6669997
 111.1377498  50.3962282 102.6287513 119.8148677  58.8784580  95.7442402
 119.6794352  59.7236116  96.1727250 120.3558490  59.0803858  94.9808336
 113.2678074  56.3960018  96.3170327 113.7802595  57.1903269  96.4675892
 113.9200787  55.6986309  96.2503928 115.0772959  59.5125775  98.3993080
 115.2539587  60.4343739  98.2114064 115.8729793  59.1984194  98.8287460
 114.3625316  51.5590407 108.2755243 114.2478831  50.6575664 108.5762342
 113.5069833  51.8054103 107.9240060 116.2004275  61.0303948 104.4003422
 116.7511700  60.9021012 103.6280416 115.3615750  61.3298837 104.0498315
 119.9971446  57.2955076 108.7447654 120.5299782  56.5343364 108.5146962
 119.4685527  57.0028728 109.4871808 111.2326991  54.7248673  97.0929898
 112.0702213  55.1345681  96.8763605 111.4105259  53.7848115  97.0630091
 120.7138534  47.2373454  97.8398969 119.8580131  46.8480305  97.6604608
 121.1265486  47.3165415  96.9798754 118.4880567  44.8558527 101.2456710
 119.3533564  44.6601336 100.8862600 118.5558076  44.6268879 102.1726067
 121.3624158  56.4241069  96.2566466 120.8345520  55.6893828  95.9439703
 120.8611661  57.2015745  96.0106434 116.0942886  47.0860735  98.6173077
 116.6686638  46.8635917  97.8846270 116.6813868  47.1549430  99.3701678
 116.4212473  49.1165196  92.6368962 115.5849785  49.4539883  92.9578237
 116.2817243  48.9814176  91.6996099 118.3965554  43.9601984  97.3448147
 117.7429966  43.6451001  96.7204761 118.3546028  43.3377724  98.0707969
 119.5076758  54.2421279  89.2601439 118.6003820  54.0110532  89.4592588
 120.0047790  53.4458898  89.4475420 120.6864992  54.3433874  93.7825429
 119.7776211  54.0592907  93.8797898 120.7160076  54.7632952  92.9228736
 111.2553162  52.0639388  97.7640631 111.0577562  51.4708749  97.0391698
 110.6999826  51.7591598  98.4816570 119.2349886  51.9562495  99.8835224
 119.2898496  51.0036331  99.8077701 118.4241088  52.1121934 100.3676523
 120.3841080  55.8842618  91.1213507 119.9460510  55.1678477  90.6619145
 121.1251521  56.1118732  90.5598599 117.1742246  50.5739554  97.6425603
 116.3610111  50.8733725  98.0490795 117.6701240  50.1795243  98.3600085
 119.3250824  60.5697311  99.5759868 119.2827003  60.7958157  98.6468400
 120.2413523  60.3360686  99.7245669 116.6656321  48.1457910 103.2586838
 117.3055700  48.0046669 102.5609801 115.8333851  47.8592423 102.8825440
 117.4416625  57.4460340  99.3721830 118.2357223  56.9510660  99.1704405
 116.7308317  56.9178203  99.0089536 113.7499388  51.5903422  95.4481583
 112.8196976  51.5287877  95.6651545 113.8456860  51.0679375  94.6518224
 113.6684937  48.1158235  98.0359825 113.9291754  49.0303568  97.9268985
 114.4902109  47.6482677  98.1856438 115.1409862  49.5295992 105.2058649
 115.8132916  49.3213354 104.5571298 114.3139649  49.3318078 104.7663882
 120.0187901  58.0189362 103.0519667 119.8798986  57.6508147 103.9245606
 119.2302497  58.5337002 102.8803625 120.6136053  63.1198459  94.3945204
 120.7887808  62.6486502  95.2090827 119.9268841  63.7464225  94.6226465
 121.5693116  57.3970965 100.4408505 121.2342948  57.3571735 101.3366155
 121.0697061  56.7315681  99.9678915 115.5437360  52.8038595 105.9661086
 115.4057158  52.0718834 106.5672625 116.4542283  52.7147495 105.6845274
 118.1719660  52.5158554 105.4544766 118.8819279  51.8751746 105.4131384
 118.1288968  52.7671449 106.3770947 115.1797138  66.2687821 101.1685064
 115.4193736  66.9006346 101.8464083 114.3366334  65.9175861 101.4550423
 116.2950853  48.9612424  89.8366869 115.4180320  48.8401224  89.4729116
 116.7708606  48.1698502  89.5845758 107.8152993  53.7489583  99.9308376
 108.5024033  53.4351313  99.3429392 107.6601122  54.6530948  99.6575628
 112.6187716  48.6379780 104.3593400 112.5345904  48.0305449 103.6243810
 111.7970422  49.1288798 104.3602896 119.6925000  62.0766944 103.5726568
 119.6195171  62.8821915 104.0845873 119.2502393  62.2758910 102.7474590
 119.4814779  61.3138714  97.0829390 118.6982301  61.8560394  97.1767614
 120.1807524  61.8312694  97.4823631 119.3746398  49.2650726  99.4535280
 119.0044186  48.7121767 100.1416185 119.8705491  48.6608860  98.9010280
 117.2035597  59.7248221 106.5490298 117.9045056  60.3584704 106.7019692
 116.7330712  60.0662953 105.7885937 112.8003315  59.2584576 103.4821400
 113.3856752  58.5128264 103.6149305 112.6028153  59.5688533 104.3658064
 115.6541970  62.2935824  98.4983843 114.9852345  62.7781951  98.0147883
 115.5154840  62.5405044  99.4127221 107.3920970  51.8290177 102.2025843
 107.4305069  51.2953767 102.9962962 106.8861262  51.3025382 101.5836821
 119.7947239  64.3279567 105.0966501 120.3465547  64.4911189 105.8615586
 120.1353432  64.9184005 104.4246526 114.7711732  46.6754717 105.6988386
 114.8353058  47.5369548 105.2865783 114.7078852  46.0628719 104.9660744
 111.0229547  50.5554279  95.2779775 111.3182988  49.6464957  95.2246829
 110.1217583  50.5342018  94.9560777 114.5523794  48.6310275 101.2607323
 113.8310380  49.2446243 101.1214797 115.3417050  49.1668040 101.1823969
 112.7517389  48.2368376  95.4019100 112.4230095  47.3565755  95.2194206
 113.1056759  48.1816045  96.2895489 115.8659212  48.5241346  95.7694578
 116.2055284  49.0527267  95.0473186 116.3131332  48.8621752  96.5453144
 117.8527359  47.0215968  93.9687870 118.5735721  47.3997221  93.4651587
 117.2292663  47.7404845  94.0722848 116.7357703  50.6846830 101.4816947
 116.5902284  50.9987133 102.3741229 116.2582907  51.3031730 100.9287846
 118.5954086  47.6749378 101.5297837 118.5815655  46.7790471 101.1930135
 119.3126514  47.6820042 102.1636123 111.2103365  53.2252174 104.4204609
 110.6656833  54.0011982 104.5524883 112.0882715  53.5722979 104.2623730
 117.9990982  46.5563758  96.7985407 118.1206893  45.6280404  96.9976295
 117.7093024  46.5702444  95.8863722 120.8682172  44.2418669  99.9352127
 120.8903869  44.3058002  98.9804106 121.2850231  43.4023177 100.1292633
 111.9969387  52.3522071 107.3134765 111.2551123  52.5004706 107.8999396
 111.6762132  52.6130336 106.4501515 119.9413050  61.8938049 107.1115155
 120.2500176  61.6487196 107.9837855 120.7388532  62.0984687 106.6234026
 119.9633662  64.0475959  99.3420532 119.5238652  63.5552337 100.0353389
 120.7141779  63.5048926  99.1012607 112.4426001  60.2387499  99.3445160
 113.2684021  59.9391271  98.9643804 112.0920053  59.4695122  99.7934949
 117.4107534  59.5913968 101.4142834 116.7887543  58.9284673 101.1145062
 118.0812401  59.6175100 100.7316481 110.6434606  58.1573826 100.3034094
 109.8066514  57.7296000 100.1218095 110.6158251  58.3506269 101.2404885
 116.9721041  58.1417891  94.8901294 117.1209161  58.8253355  94.2367967
 117.7787484  58.1222981  95.4050750 114.7273674  54.1683069  95.8962363
 114.4819716  53.2645399  96.0942573 114.8969589  54.1700219  94.9541841
 113.9969322  49.9011426  93.3948525 113.3038566  49.9755781  92.7388561
 113.7521073  49.1371770  93.9170041 120.4716447  60.6366021  92.3613042
 119.8990414  61.2556209  91.9083513 121.0449240  61.1865383  92.8952964
 119.0406162  49.8976811  89.6383979 118.1337618  49.6009923  89.7146693
 119.3182143  49.6006629  88.7718266 109.9584103  51.2183174 100.0883026
 109.6386887  50.3648482  99.7957400 109.4117531  51.4331752 100.8440993
 113.7364010  53.9345615 103.8052532 113.9550020  54.8662723 103.8240566
 114.1489784  53.5753589 104.5907336 120.6568228  44.4413700  95.7928221
 119.8468956  44.0960785  96.1683467 121.3452645  44.1321244  96.3815832
 117.8104947  46.7563746  89.7795959 118.6724111  47.0818644  90.0391776
 117.9955291  45.9695242  89.2669024 109.8272363  54.8386085 102.0576147
 109.1335834  54.4240038 101.5446102 110.5745354  54.8806622 101.4609566
 111.7409105  54.7704339  99.9342162 111.7179793  54.8692027  98.9824045
 112.0509742  55.6169490 100.2559328 114.3996483  56.8280494 104.0488777
 115.3539737  56.7964437 103.9818708 114.2009007  56.3671118 104.8639003
 114.9895865  55.3981610 106.6159574 115.8088754  55.8925689 106.6394412
 115.2632673  54.4813578 106.5877142 112.7546712  62.3700114 101.0658974
 112.6201180  61.6100515 100.4996973 112.3378774  63.0941014 100.5987763
 115.9115838  63.2669431 101.2777417 115.7948222  64.2114863 101.1756107
 115.0908284  62.9642992 101.6663216 110.2430779  49.7319744 107.3151771
 110.8889643  49.2218698 107.8038997 110.0347930  50.4688426 107.8895197
 118.7634390  43.9959789  93.0675668 118.7513060  44.9401629  93.2243938
 119.6557812  43.8129934  92.7735129 116.9370352  63.9197693 104.4933346
 117.8397598  63.9521303 104.8099841 116.7107722  62.9898144 104.5079681
 118.6923954  62.6728679 101.1543424 117.7419585  62.6730541 101.0407796
 118.9956440  61.9261414 100.6379459 118.6546748  69.0781501  99.9308376
 119.3417788  68.7643231  99.3429392 118.4994877  69.9822866  99.6575628
 118.2314724  67.1582094 102.2025843 118.2698824  66.6245685 102.9962962
 117.7255017  66.6317300 101.5836821 121.4828360  73.4865744 100.3034094
 120.6460269  73.0587918 100.1218095 121.4552006  73.6798187 101.2404885
 120.7977857  66.5475092 100.0883026 120.4780641  65.6940400  99.7957400
 120.2511285  66.7623670 100.8440993 120.6666117  70.1678003 102.0576147
 119.9729589  69.7531956 101.5446102 121.4139108  70.2098540 101.4609566
  95.8622800   9.8680715  83.7482169  95.7846830  10.8188540  83.8270649
  95.2584444   9.5226587  84.4057095  93.5009630  12.6166109  87.8930371
  93.7406228  13.2484633  88.5709389  92.6578827  12.2654149  88.1795730
  93.9754462   8.6414111  85.2229149  93.3064838   9.1260239  84.7393189
  93.8367332   8.8883331  86.1372528  98.1159731  10.6757855  91.8211808
  98.6678039  10.8389476  92.5860893  98.4565924  11.2662292  91.1491833
  91.0759204   8.7178401  87.7904281  90.9413672   7.9578802  87.2242279
  90.6591266   9.4419301  87.3233070  94.2328330   9.6147718  88.0022724
  94.1160714  10.5593150  87.9001414  93.4120776   9.3121280  88.3908523
  95.2582844  10.2675980  91.2178652  96.1610091  10.2999590  91.5345147
  95.0320214   9.3376431  91.2324988 109.5578846  14.8094933  88.8796018
 109.2197357  14.6935998  87.9916553 110.4268614  14.4086098  88.8597024
 105.4165662  16.6630409  84.8692909 104.8530527  16.5720346  84.1009197
 105.3018057  15.8430314  85.3495401 102.9630093  18.1581601  87.7077129
 103.7551385  17.8172426  87.2923429 103.2026744  18.2676576  88.6279283
 110.9965220  20.3301377  80.1807374 110.3453200  20.9155457  79.7941388
 111.7909583  20.8607572  80.2402411 104.9220847  17.4190514  80.5794508
 105.6951723  16.8719501  80.4407384 105.2746246  18.2834764  80.7908969
 106.7605890  18.7466896  93.7861407 106.4695756  19.6512527  93.6708074
 107.3962874  18.7883424  94.5005477 107.6862097  16.1243745  90.3762767
 108.2825669  15.8999767  89.6619730 107.7437068  15.3828490  90.9788215
 112.4740485  18.0191809  80.7176358 111.8386318  18.0926436  81.4297263
 112.1437892  18.6085408  80.0395437 106.9783414  15.4811286  80.4137333
 106.8619672  14.8056190  81.0818417 107.0885674  14.9943660  79.5969486
 109.3214955  14.9421433  84.1184022 108.9573162  14.4152054  84.8296944
 110.1782071  14.5519902  83.9450508 111.7195775  18.4328312  90.7811201
 111.4196498  19.3353351  90.6727008 111.3746835  18.1660495  91.6332354
 105.1708257  14.8842109  86.8147906 104.2458753  14.7518323  87.0225597
 105.4192670  15.6636328  87.3117848 102.5317068  14.5275382  87.6491695
 102.6609449  14.7809861  88.5631106 101.8514519  15.1203090  87.3296350
 106.7016555  25.1972632  83.7482169 106.6240585  26.1480457  83.8270649
 106.0978198  24.8518505  84.4057095 113.2464311  17.8816282  88.3185953
 112.6173174  18.0461996  87.6162021 112.8589973  18.2957892  89.0896917
 117.1253543  18.8170720  85.6730317 116.4404581  19.1969621  85.1227350
 117.2097392  19.4266047  86.4062265 108.7992273  17.6190690  85.5836038
 109.2630619  17.8978393  84.7940661 108.5349071  16.7174135  85.4009129
 105.6916354  17.1662172  88.5215801 106.2617711  17.5949440  87.8833286
 106.2824466  16.8844757  89.2199987 101.4786493  11.9997395  87.6942737
 100.6885547  12.2554924  87.2182847 101.9697740  12.8145733  87.7994777
 103.4301239  12.3641975  84.6526214 102.6332402  12.4760669  85.1709709
 103.2026831  12.7028627  83.7867104 109.2606906  18.8886678  92.6008728
 109.3251339  19.3507085  93.4366900 108.5517830  18.2584043  92.7291038
  99.7624196  12.2527886  90.1257728 100.0132235  13.1374896  90.3915304
 100.2983745  12.0732487  89.3532819 108.9754924  20.5554785  82.4687709
 108.8400599  21.4006321  82.8972556 109.5164736  20.7574063  81.7053642
 102.4284321  18.0730223  83.0415634 102.9408842  18.8673474  83.1921198
 103.0807034  17.3756514  82.9749235 104.2379206  21.1895980  85.1238387
 104.4145834  22.1113944  84.9359371 105.0336039  20.8754399  85.5532767
 103.5231562  13.2360612  95.0000550 103.4085078  12.3345869  95.3007649
 102.6676080  13.4824308  94.6485367 105.3610521  22.7074153  91.1248729
 105.9117946  22.5791217  90.3525723 104.5221997  23.0069042  90.7743622
 109.1577692  18.9725281  95.4692960 109.6906029  18.2113569  95.2392268
 108.6291773  18.6798933  96.2117115 100.3933238  16.4018878  83.8175204
 101.2308460  16.8115886  83.6008912 100.5711506  15.4618320  83.7875398
 110.5230405  18.1011274  82.9811772 109.9951767  17.3664033  82.6685010
 110.0217908  18.8785950  82.7351741 115.5023251  16.2960294  88.0978819
 114.8446926  16.9859556  88.1858947 116.3063650  16.6856726  88.4412805
 108.6683005  15.9191484  75.9846745 107.7610067  15.6880737  76.1837894
 109.1654037  15.1229103  76.1720727 111.5751084  24.6288991  78.9043431
 110.9012783  24.9320688  79.5128389 111.9616906  25.4318071  78.5548889
 109.8471239  16.0204079  80.5070735 108.9382458  15.7363112  80.6043205
 109.8766323  16.4403157  79.6474042 115.0790506  19.6310668  84.2761903
 114.6252833  18.7901578  84.3327093 114.4484473  20.2672067  84.6136683
 113.5223445  21.4687165  85.2111721 113.8146420  22.0292222  84.4924087
 114.0322066  21.7615726  85.9664880 100.4159409  13.7409593  84.4885938
 100.2183809  13.1478954  83.7637004  99.8606073  13.4361803  85.2061876
 109.5447327  17.5612822  77.8458814 109.1066756  16.8448681  77.3864451
 110.2857767  17.7888937  77.2843905 108.4857071  22.2467516  86.3005174
 108.4433249  22.4728362  85.3713706 109.4019769  22.0130891  86.4490975
 106.6022871  19.1230545  86.0967137 107.3963470  18.6280865  85.8949712
 105.8914564  18.5948408  85.7334843 111.4217716  21.5048641  90.4479505
 111.4754738  22.0739577  91.2157221 110.5532497  21.6750526  90.0833542
 102.9105635  13.2673627  82.1726890 101.9803223  13.2058082  82.3896852
 103.0063107  12.7449580  81.3763531 110.3805816  15.6708903  92.0066436
 111.3097876  15.8220062  91.8335404 109.9596846  15.7592923  91.1515083
 109.1794147  19.6959567  89.7764974 109.0405233  19.3278352  90.6490912
 108.3908744  20.2107207  89.6048932 109.7742299  24.7968664  81.1190511
 109.9494055  24.3256707  81.9336133 109.0875087  25.4234430  81.3471771
 110.7299362  19.0741170  87.1653812 110.3949195  19.0341940  88.0611462
 110.2303308  18.4085886  86.6924222 104.7043606  14.4808800  92.6906393
 104.5663404  13.7489039  93.2917932 105.6148530  14.3917700  92.4090581
 113.6658554  16.4197204  77.4390872 113.0487725  15.6944032  77.3423924
 113.1975043  17.1806564  77.0957946 107.3325907  14.1928759  92.1790073
 108.0425526  13.5521951  92.1376691 107.2895215  14.4441654  93.1016253
 104.3403385  27.9458026  87.8930371 104.5799983  28.5776550  88.5709389
 103.4972581  27.5946066  88.1795730  96.9759240  15.4259788  86.6553683
  97.6630280  15.1121518  86.0674698  96.8207369  16.3301153  86.3820934
 108.8531246  23.7537149  90.2971875 108.7801418  24.5592120  90.8091179
 108.4108640  23.9529115  89.4719896 108.6421026  22.9908919  83.8074696
 107.8588548  23.5330599  83.9012921 109.3413771  23.5082898  84.2068937
 111.3129930  23.6523983  92.4530033 112.0257902  24.2871448  92.3805935
 110.8219959  23.7487849  91.6370035 113.0347457  17.5575235  84.0247325
 112.1003736  17.6776698  83.8552029 113.2124125  16.6547702  83.7607335
 106.3641844  21.4018426  93.2735604 107.0651303  22.0354909  93.4264998
 105.8936958  21.7433158  92.5131244 114.4896239  19.7436376  81.5583511
 114.7656083  19.6292971  82.4677385 113.6200738  19.3453861  81.5195684
 111.1250303  23.9922727  85.2016325 111.3072698  23.1744383  85.6644077
 111.9483289  24.2090419  84.7641215 111.4592469  22.9190912  82.4631373
 111.9880235  22.4083367  81.8501535 111.7220688  22.6033442  83.3276906
 101.9609562  20.9354781  90.2066707 102.5462998  20.1898469  90.3394611
 101.7634400  21.2458738  91.0903371 104.8148217  23.9706029  85.2229149
 104.1458592  24.4552156  84.7393189 104.6761086  24.2175249  86.1372528
  96.5527216  13.5060382  88.9271150  96.5911316  12.9723972  89.7208268
  96.0467509  12.9795587  88.3082127 108.9553485  26.0049772  91.8211808
 109.5071793  26.1681394  92.5860893 109.2959679  26.5954210  91.1491833
 100.1835794  12.2324484  82.0025081 100.4789235  11.3235162  81.9492135
  99.2823830  12.2112223  81.6806084 112.0921873  23.9531748  88.8075490
 111.9673012  23.1521488  88.2986435 112.7500964  24.4477941  88.3189460
 114.1556781  21.7540768  90.4355040 113.2087117  21.6346119  90.3633367
 114.5039554  20.8663266  90.5181301 111.1603214  21.5493484  86.6359392
 111.0128177  20.6210191  86.8166962 111.9856708  21.5713575  86.1516467
 114.7637336  22.3722043  87.7224265 115.6883884  22.1664904  87.5848716
 114.5952640  22.1238444  88.6313606 114.5532652  22.8907710  83.0786356
 114.7269530  22.3254133  82.3260209 115.0461544  23.6908605  82.8965846
 100.3709612  14.9022379  91.1449915  99.8263080  15.6782187  91.2770190
 101.2488962  15.2493184  90.9869037 115.5407825  22.2074475  80.1783255
 116.2358729  22.8281167  80.3970569 115.8830975  21.3569826  80.4535633
 101.1575634  14.0292276  94.0380072 100.4157370  14.1774911  94.6244702
 100.8368378  14.2900541  93.1746821 117.4399248  19.6574180  81.7070585
 117.9650572  19.9961453  80.9819905 117.3521601  18.7221196  81.5233720
 109.1019297  23.5708254  93.8360462 109.4106423  23.3257401  94.7083162
 109.8994779  23.7754892  93.3479332 109.1239909  25.7246163  86.0665839
 108.6844899  25.2322542  86.7598695 109.8748026  25.1819131  85.8257914
 101.6032248  21.9157704  86.0690467 102.4290268  21.6161476  85.6889110
 101.2526300  21.1465327  86.5180255 106.5713781  21.2684173  88.1388140
 105.9493790  20.6054878  87.8390368 107.2418648  21.2945304  87.4561788
  99.8040853  19.8344031  87.0279400  98.9672761  19.4066205  86.8463402
  99.7764498  20.0276474  87.9650191 106.1327288  19.8188096  81.6146601
 106.2815408  20.5023560  80.9613274 106.9393731  19.7993186  82.1296057
 103.8879921  15.8453274  82.6207670 103.6425963  14.9415604  82.8187880
 104.0575835  15.8470424  81.6787148 109.6322693  22.3136226  79.0858348
 109.0596660  22.9326413  78.6328820 110.2055487  22.8635588  79.6198270
 112.8519953  22.5973376  80.2166931 113.7850626  22.5318938  80.4199806
 112.7643166  23.4329643  79.7581463 115.4807970  21.9139247  77.1770878
 115.4021601  21.5799110  78.0706636 116.3017637  22.4061015  77.1762350
  99.1190349  12.8953379  86.8128332  98.7993134  12.0418687  86.5202706
  98.5723778  13.1101957  87.5686300 102.8970257  15.6115820  90.5297839
 103.1156267  16.5432928  90.5485873 103.3096031  15.2523794  91.3152643
  98.9878609  16.5156290  88.7821454  98.2942081  16.1010243  88.2691408
  99.7351600  16.5576827  88.1854873 100.9015352  16.4474544  86.6587469
 100.8786040  16.5462231  85.7069352 101.2115988  17.2939695  86.9804635
 103.5602730  18.5050699  90.7734083 104.5145983  18.4734642  90.7064015
 103.3615253  18.0441323  91.5884309 104.1502112  17.0751815  93.3404881
 104.9695001  17.5695894  93.3639718 104.4238920  16.1583783  93.3122448
 101.9152959  24.0470319  87.7904281 101.7807426  23.2870720  87.2242279
 101.4985021  24.7711219  87.3233070 113.0511922  19.2307242  76.7980856
 113.7547772  19.4357245  77.4138512 112.3274570  19.7984004  77.0629940
 105.0722084  24.9439636  88.0022724 104.9554469  25.8885068  87.9001414
 104.2514531  24.6413197  88.3908523 114.9598619  19.6689771  78.8479316
 115.7944223  19.2370970  78.6656791 114.7982962  19.4971785  79.7756211
 114.6144511  16.1721885  80.2135656 114.5593315  16.0066156  79.2724100
 113.9890566  16.8797918  80.3697845  99.4037026  11.4089949  94.0397078
 100.0495890  10.8988903  94.5284303  99.1954177  12.1458631  94.6140503
 106.0976599  25.5967898  91.2178652 107.0003845  25.6291508  91.5345147
 105.8713969  24.6668349  91.2324988 107.8530201  24.3498884  87.8788731
 106.9025832  24.3500746  87.7653103 108.1562687  23.6031619  87.3624765
 120.3972600  30.1386851  88.8796018 120.0591112  30.0227915  87.9916553
 121.2662369  29.7378016  88.8597024 116.2559416  31.9922327  84.8692909
 115.6924281  31.9012264  84.1009197 116.1411811  31.1722231  85.3495401
 113.8023848  33.4873519  87.7077129 114.5945140  33.1464343  87.2923429
 114.0420498  33.5968494  88.6279283 115.7614602  32.7482432  80.5794508
 116.5345478  32.2011419  80.4407384 116.1140001  33.6126681  80.7908969
 117.5999644  34.0758814  93.7861407 117.3089510  34.9804445  93.6708074
 118.2356629  34.1175342  94.5005477 118.5255851  31.4535663  90.3762767
 119.1219424  31.2291685  89.6619730 118.5830823  30.7120408  90.9788215
 118.0980880  28.9075098  78.2112958 118.3506400  28.3856619  77.4496421
 117.1605439  28.7441243  78.3139642 117.8177168  30.8103204  80.4137333
 117.7013427  30.1348107  81.0818417 117.9279428  30.3235578  79.5969486
 120.1608709  30.2713351  84.1184022 119.7966917  29.7443972  84.8296944
 121.0175825  29.8811820  83.9450508 119.8014196  25.3003251  79.1145371
 119.9688599  26.1683487  79.4815842 119.6111365  25.4630532  78.1906660
 116.0102011  30.2134027  86.8147906 115.0852508  30.0810241  87.0225597
 116.2586424  30.9928246  87.3117848 119.7803417  27.7560908  80.0992038
 119.6603042  28.2017959  80.9377518 119.0856006  28.1046226  79.5405576
 113.3710822  29.8567300  87.6491695 113.5003203  30.1101779  88.5631106
 112.6908273  30.4495008  87.3296350 117.5410309  40.5264550  83.7482169
 117.4634339  41.4772375  83.8270649 116.9371953  40.1810423  84.4057095
 119.6386028  32.9482608  85.5836038 120.1024373  33.2270311  84.7940661
 119.3742826  32.0466053  85.4009129 116.5310109  32.4954090  88.5215801
 117.1011466  32.9241358  87.8833286 117.1218221  32.2136674  89.2199987
 118.5754914  29.0705760  82.3925603 119.2778957  29.5226804  82.8599530
 118.2435542  28.4289579  83.0205496 112.3180248  27.3289313  87.6942737
 111.5279302  27.5846842  87.2182847 112.8091495  28.1437651  87.7994777
 114.2694993  27.6933892  84.6526214 113.4726156  27.8052587  85.1709709
 114.0420585  28.0320544  83.7867104 120.1000661  34.2178595  92.6008728
 120.1645093  34.6799003  93.4366900 119.3911584  33.5875960  92.7291038
 110.6017951  27.5819803  90.1257728 110.8525989  28.4666813  90.3915304
 111.1377499  27.4024405  89.3532819 119.8148678  35.8846703  82.4687709
 119.6794353  36.7298239  82.8972556 120.3558491  36.0865981  81.7053642
 113.2678076  33.4022141  83.0415634 113.7802596  34.1965391  83.1921198
 113.9200788  32.7048431  82.9749235 115.0772960  36.5187897  85.1238387
 115.2539589  37.4405862  84.9359371 115.8729794  36.2046316  85.5532767
 114.3625317  28.5652529  95.0000550 114.2478832  27.6637786  95.3007649
 113.5069835  28.8116226  94.6485367 116.2004276  38.0366071  91.1248729
 116.7511701  37.9083134  90.3525723 115.3615752  38.3360960  90.7743622
 119.9971447  34.3017199  95.4692960 120.5299784  33.5405487  95.2392268
 119.4685528  34.0090851  96.2117115 111.2326992  31.7310795  83.8175204
 112.0702214  32.1407804  83.6008912 111.4105260  30.7910237  83.7875398
 120.7138536  24.2435577  84.5644275 119.8580132  23.8542427  84.3849914
 121.1265487  24.3227538  83.7044061 118.4880568  21.8620650  87.9702017
 119.3533565  21.6663458  87.6107906 118.5558077  21.6331001  88.8971374
 121.3624160  33.4303191  82.9811772 120.8345521  32.6955951  82.6685010
 120.8611662  34.2077868  82.7351741 116.0942887  24.0922858  85.3418384
 116.6686639  23.8698039  84.6091577 116.6813870  24.1611552  86.0946985
 116.4212474  26.1227319  79.3614269 115.5849787  26.4602005  79.6823544
 116.2817244  25.9876298  78.4241406 118.3965555  20.9664107  84.0693453
 117.7429967  20.6513124  83.4450068 118.3546029  20.3439847  84.7953276
 119.5076760  31.2483402  75.9846745 118.6003821  31.0172655  76.1837894
 120.0047792  30.4521021  76.1720727 120.6864993  31.3495997  80.5070735
 119.7776212  31.0655029  80.6043205 120.7160077  31.7695075  79.6474042
 111.2553164  29.0701511  84.4885938 111.0577563  28.4770871  83.7637004
 110.6999828  28.7653721  85.2061876 119.2349887  28.9624617  86.6080531
 119.2898497  28.0098454  86.5323007 118.4241089  29.1184056  87.0921829
 120.3841081  32.8904740  77.8458814 119.9460511  32.1740599  77.3864451
 121.1251522  33.1180855  77.2843905 117.1742247  27.5801677  84.3670910
 116.3610113  27.8795847  84.7736102 117.6701241  27.1857366  85.0845392
 119.3250825  37.5759434  86.3005174 119.2827004  37.8020280  85.3713706
 120.2413524  37.3422808  86.4490975 116.6656322  25.1520032  89.9832145
 117.3055701  25.0108791  89.2855108 115.8333852  24.8654546  89.6070747
 117.4416626  34.4522463  86.0967137 118.2357224  33.9572783  85.8949712
 116.7308318  33.9240326  85.7334843 113.7499389  28.5965545  82.1726890
 112.8196977  28.5350000  82.3896852 113.8456861  28.0741497  81.3763531
 113.6684938  25.1220357  84.7605131 113.9291756  26.0365691  84.6514292
 114.4902111  24.6544800  84.9101744 115.1409864  26.5358115  91.9303956
 115.8132917  26.3275477  91.2816605 114.3139650  26.3380201  91.4909188
 120.0187902  35.0251485  89.7764974 119.8798988  34.6570269  90.6490912
 119.2302498  35.5399124  89.6048932 120.6136054  40.1260581  81.1190511
 120.7887809  39.6548624  81.9336133 119.9268842  40.7526347  81.3471771
 121.5693117  34.4033087  87.1653812 121.2342950  34.3633857  88.0611462
 121.0697063  33.7377803  86.6924222 115.5437361  29.8100718  92.6906393
 115.4057159  29.0780956  93.2917932 116.4542284  29.7209618  92.4090581
 118.1719662  29.5220677  92.1790073 118.8819280  28.8813869  92.1376691
 118.1288970  29.7733572  93.1016253 115.1797139  43.2749944  87.8930371
 115.4193737  43.9068468  88.5709389 114.3366336  42.9237984  88.1795730
 116.2950855  25.9674546  76.5612176 115.4180321  25.8463347  76.1974422
 116.7708608  25.1760624  76.3091064 107.8152995  30.7551706  86.6553683
 108.5024034  30.4413436  86.0674698 107.6601123  31.6593070  86.3820934
 112.6187717  25.6441902  91.0838707 112.5345906  25.0367572  90.3489117
 111.7970423  26.1350921  91.0848203 119.6925001  39.0829066  90.2971875
 119.6195172  39.8884038  90.8091179 119.2502394  39.2821032  89.4719896
 119.4814781  38.3200836  83.8074696 118.6982302  38.8622517  83.9012921
 120.1807526  38.8374816  84.2068937 119.3746399  26.2712849  86.1780586
 119.0044187  25.7183889  86.8661492 119.8705492  25.6670982  85.6255586
 117.2035598  36.7310344  93.2735604 117.9045057  37.3646827  93.4264998
 116.7330713  37.0725075  92.5131244 112.8003316  36.2646699  90.2066707
 113.3856753  35.5190387  90.3394611 112.6028155  36.5750656  91.0903371
 115.6541971  39.2997946  85.2229149 114.9852347  39.7844074  84.7393189
 115.5154841  39.5467167  86.1372528 107.3920971  28.8352299  88.9271150
 107.4305070  28.3015890  89.7208268 106.8861264  28.3087505  88.3082127
 119.7947240  41.3341690  91.8211808 120.3465548  41.4973311  92.5860893
 120.1353433  41.9246128  91.1491833 114.7711733  23.6816840  92.4233692
 114.8353060  24.5431671  92.0111090 114.7078853  23.0690841  91.6906051
 111.0229548  27.5616401  82.0025081 111.3182989  26.6527080  81.9492135
 110.1217584  27.5404141  81.6806084 114.5523795  25.6372398  87.9852630
 113.8310381  26.2508366  87.8460103 115.3417051  26.1730163  87.9069276
 112.7517390  25.2430499  82.1264407 112.4230096  24.3627878  81.9439513
 113.1056761  25.1878168  83.0140796 115.8659213  25.5303469  82.4939884
 116.2055286  26.0589390  81.7718493 116.3131334  25.8683875  83.2698451
 117.8527360  24.0278090  80.6933177 118.5735723  24.4059343  80.1896894
 117.2292664  24.7466967  80.7968155 116.7357705  27.6908953  88.2062254
 116.5902285  28.0049256  89.0986536 116.2582908  28.3093853  87.6533153
 118.5954087  24.6811501  88.2543144 118.5815656  23.7852594  87.9175441
 119.3126516  24.6882164  88.8881430 111.2103367  30.2314297  91.1449915
 110.6656835  31.0074105  91.2770190 112.0882717  30.5785101  90.9869037
 117.9990983  23.5625881  83.5230714 118.1206895  22.6342527  83.7221601
 117.7093026  23.5764567  82.6109029 120.8682174  21.2480791  86.6597434
 120.8903871  21.3120124  85.7049413 121.2850233  20.4085300  86.8537940
 111.9969389  29.3584193  94.0380072 111.2551125  29.5066829  94.6244702
 111.6762133  29.6192459  93.1746821 119.9413051  38.9000171  93.8360462
 120.2500178  38.6549318  94.7083162 120.7388533  39.1046810  93.3479332
 119.9633663  41.0538081  86.0665839 119.5238654  40.5614460  86.7598695
 120.7141780  40.5111049  85.8257914 112.4426002  37.2449622  86.0690467
 113.2684022  36.9453394  85.6889110 112.0920054  36.4757244  86.5180255
 117.4107535  36.5976090  88.1388140 116.7887545  35.9346795  87.8390368
 118.0812402  36.6237222  87.4561788 110.6434607  35.1635948  87.0279400
 109.8066516  34.7358123  86.8463402 110.6158253  35.3568392  87.9650191
 116.9721042  35.1480014  81.6146601 117.1209163  35.8315478  80.9613274
 117.7787486  35.1285104  82.1296057 114.7273675  31.1745191  82.6207670
 114.4819717  30.2707521  82.8187880 114.8969590  31.1762342  81.6787148
 113.9969323  26.9073549  80.1193831 113.3038568  26.9817904  79.4633867
 113.7521075  26.1433892  80.6415348 120.4716448  37.6428144  79.0858348
 119.8990415  38.2618331  78.6328820 121.0449241  38.1927506  79.6198270
 119.0406163  26.9038933  76.3629286 118.1337619  26.6072046  76.4392000
 119.3182144  26.6068751  75.4963572 109.9584104  28.2245297  86.8128332
 109.6386888  27.3710605  86.5202706 109.4117532  28.4393875  87.5686300
 113.7364011  30.9407738  90.5297839 113.9550021  31.8724845  90.5485873
 114.1489785  30.5815712  91.3152643 120.6568229  21.4475823  82.5173527
 119.8468958  21.1022908  82.8928773 121.3452646  21.1383367  83.1061139
 117.8104948  23.7625868  76.5041265 118.6724112  24.0880767  76.7637083
 117.9955292  22.9757364  75.9914331 109.8272364  31.8448208  88.7821454
 109.1335835  31.4302161  88.2691408 110.5745355  31.8868745  88.1854873
 111.7409106  31.7766462  86.6587469 111.7179794  31.8754149  85.7069352
 112.0509743  32.6231613  86.9804635 114.3996484  33.8342617  90.7734083
 115.3539738  33.8026559  90.7064015 114.2009008  33.3733241  91.5884309
 114.9895866  32.4043733  93.3404881 115.8088755  32.8987812  93.3639718
 115.2632674  31.4875701  93.3122448 112.7546713  39.3762236  87.7904281
 112.6201181  38.6162637  87.2242279 112.3378775  40.1003136  87.3233070
 115.9115839  40.2731553  88.0022724 115.7948223  41.2176986  87.9001414
 115.0908285  39.9705115  88.3908523 110.2430781  26.7381867  94.0397078
 110.8889644  26.2280821  94.5284303 110.0347932  27.4750548  94.6140503
 118.7634391  21.0021911  79.7920974 118.7513061  21.9463751  79.9489245
 119.6557813  20.8192057  79.4980435 116.9370353  40.9259815  91.2178652
 117.8397600  40.9583426  91.5345147 116.7107723  39.9960266  91.2324988
 118.6923955  39.6790802  87.8788731 117.7419586  39.6792663  87.7653103
 118.9956441  38.9323536  87.3624765 118.6546749  46.0843624  86.6553683
 119.3417789  45.7705354  86.0674698 118.4994878  46.9884988  86.3820934
 118.2314725  44.1644217  88.9271150 118.2698825  43.6307808  89.7208268
 117.7255018  43.6379422  88.3082127 121.4828362  50.4927866  87.0279400
 120.6460270  50.0650040  86.8463402 121.4552007  50.6860309  87.9650191
 120.7977858  43.5537214  86.8128332 120.4780643  42.7002522  86.5202706
 120.2511287  43.7685792  87.5686300 120.6666118  47.1740126  88.7821454
 119.9729590  46.7594079  88.2691408 121.4139109  47.2160662  88.1854873
 117.5410311  17.5326673  70.4727475 117.4634340  18.4834498  70.5515956
 116.9371954  17.1872545  71.1302402 115.1797140  20.2812067  74.6175677
 115.4193739  20.9130591  75.2954696 114.3366337  19.9300107  74.9041037
 115.6541973  16.3060069  71.9474456 114.9852348  16.7906197  71.4638496
 115.5154842  16.5529289  72.8617835 119.7947241  18.3403813  78.5457114
 120.3465549  18.5035434  79.3106200 120.1353435  18.9308250  77.8737139
 112.7546714  16.3824359  74.5149588 112.6201182  15.6224760  73.9487586
 112.3378777  17.1065259  74.0478377 115.9115840  17.2793676  74.7268030
 115.7948224  18.2239108  74.6246721 115.0908286  16.9767238  75.1153830
 116.9370354  17.9321938  77.9423959 117.8397601  17.9645548  78.2590454
 116.7107724  17.0022389  77.9570295 118.6546750  23.0905746  73.3798990
 119.3417790  22.7767476  72.7920005 118.4994879  23.9947111  73.1066241
 118.2314727  21.1706339  75.6516457 118.2698826  20.6369930  76.4453575
 117.7255019  20.6441545  75.0327434 121.4828363  27.4989989  73.7524707
 120.6460271  27.0712163  73.5708708 121.4552008  27.6922432  74.6895498
 120.7977860  20.5599337  73.5373639 120.4780644  19.7064645  73.2448013
 120.2511288  20.7747915  74.2931606 120.6666120  24.1802248  75.5066761
 119.9729591  23.7656201  74.9936715 121.4139111  24.2222785  74.9100179
  46.5388552  70.6164748 132.0062202  45.8650251  70.9196444 132.6147160
  46.9254374  71.4193828 131.6567659  50.5045293  68.1950231 133.2802025
  51.1996198  68.8156924 133.4989340  50.8468443  67.3445582 133.5554403
  44.5960161  68.3011983 132.1877119  44.0234128  68.9202170 131.7347590
  45.1692955  68.8511345 132.7217041  47.8157421  68.5849133 133.3185701
  48.7488094  68.5194695 133.5218576  47.7280634  69.4205400 132.8600234
  50.4445438  67.9015003 130.2789648  50.3659069  67.5674867 131.1725406
  51.2655105  68.3936771 130.2781121  48.0149390  65.2182999 129.8999627
  48.7185240  65.4233001 130.5157282  47.2912038  65.7859761 130.1648710
  49.9236087  65.6565528 131.9498087  50.7581691  65.2246726 131.7675562
  49.7620430  65.4847542 132.8774981  51.3849942  72.1103075 132.4633039
  50.5487255  72.4477762 132.7842314  51.2454712  71.9752055 131.5260176
  51.2588323  71.9550303 129.6630946  50.3817789  71.8339103 129.2993193
  51.7346076  71.1636381 129.4109835  48.9606791  72.8949305 133.2212602
  48.2676036  72.9693660 132.5652638  48.7158543  72.1309649 133.7434118
  54.0043631  72.8914690 129.4648056  53.0975087  72.5947802 129.5410770
  54.2819613  72.5944508 128.5982343  52.7742416  69.7501625 129.6060036
  53.6361580  70.0756523 129.8655853  52.9592760  68.9633121 129.0933101
  53.7271859  66.9897668 132.8939745  53.7150529  67.9339508 133.0508015
  54.6195281  66.8067813 132.5999206  46.5388553  47.6226870 118.7307508
  45.8650252  47.9258567 119.3392466  46.9254375  48.4255951 118.3812966
  50.5045294  45.2012354 120.0047332  51.1996199  45.8219047 120.2234646
  50.8468444  44.3507705 120.2799710  44.5960163  45.3074106 118.9122425
  44.0234130  45.9264293 118.4592897  45.1692956  45.8573467 119.4462347
  47.8157422  45.5911256 120.0431008  48.7488096  45.5256817 120.2463883
  47.7280635  46.4267522 119.5845540  50.4445439  44.9077126 117.0034955
  50.3659071  44.5736990 117.8970713  51.2655106  45.3998894 117.0026427
  48.0149391  42.2245121 116.6244933  48.7185241  42.4295124 117.2402589
  47.2912040  42.7921883 116.8894017  49.9236088  42.6627651 118.6743393
  50.7581692  42.2308849 118.4920868  49.7620431  42.4909664 119.6020288
  58.5520363  53.1797302 128.7698570  59.1898773  53.0604049 128.0661910
  58.4341206  54.1278146 128.8286522  51.2196885  54.9860206 124.6956986
  50.6561750  54.8950143 123.9273274  51.1049280  54.1660111 125.1759478
  56.7996444  58.6531174 120.0071451  56.1484424  59.2385254 119.6205465
  57.5940807  59.1837369 120.0666488  50.7252071  55.7420311 120.4058585
  51.4982947  55.1949298 120.2671461  51.0777470  56.6064560 120.6173046
  53.0618349  51.9012977 118.0377035  53.3143870  51.3794498 117.2760498
  52.1242908  51.7379123 118.1403719  58.1061632  50.9048756 125.8451778
  58.8924721  50.4868179 125.4942195  58.3700336  51.8094848 126.0133427
  58.2771709  56.3421606 120.5440435  57.6417542  56.4156232 121.2561340
  57.9469116  56.9315205 119.8659514  63.5070059  50.8423989 126.7484757
  64.2395231  50.2723206 126.9822586  62.7509415  50.4545589 127.1891262
  52.7814638  53.8041083 120.2401410  52.6650896  53.1285987 120.9082494
  52.8916898  53.3173457 119.4233563  55.1246179  53.2651230 123.9448099
  54.7604386  52.7381851 124.6561021  55.9813295  52.8749699 123.7714585
  54.7651666  48.2941130 118.9409448  54.9326068  49.1621366 119.3079919
  54.5748835  48.4568412 118.0170737  54.7440887  50.7498787 119.9256115
  54.6240512  51.1955838 120.7641595  54.0493475  51.0984105 119.3669653
  52.5047779  63.5202429 123.5746246  52.4271808  64.4710254 123.6534726
  51.9009422  63.1748302 124.2321172  60.4425953  51.2220261 120.7536449
  61.3543809  51.4547647 120.5784146  59.9335600  51.8057305 120.1911527
  59.0495535  56.2046079 128.1450030  58.4204397  56.3691793 127.4426098
  58.6621197  56.6187689 128.9160994  62.9284767  57.1400517 125.4994394
  62.2435805  57.5199418 124.9491427  63.0128616  57.7495844 126.2326342
  54.6023497  55.9420487 125.4100115  55.0661842  56.2208190 124.6204738
  54.3380295  55.0403932 125.2273206  53.5392383  52.0643640 122.2189680
  54.2416426  52.5164683 122.6863607  53.2073011  51.4227458 122.8469573
  61.2981526  57.6632431 130.2712095  62.1198970  57.2612619 129.9894776
  61.2943929  57.5600666 131.2228210  69.3887520  54.0071180 126.6197066
  68.6351228  53.4378578 126.4641071  69.5235061  53.9733844 127.5667701
  54.7786148  58.8784582 122.2951786  54.6431822  59.7236118 122.7236633
  55.3195960  59.0803860 121.5317719  48.2315545  56.3960020 122.8679711
  48.7440066  57.1903270 123.0185275  48.8838258  55.6986311 122.8013312
  50.0410430  59.5125776 124.9502464  50.2177058  60.4343741 124.7623448
  50.8367263  59.1984196 125.3796844  51.1641745  61.0303950 130.9512806
  51.7149170  60.9021014 130.1789800  50.3253221  61.3298839 130.6007699
  46.1964462  54.7248674 123.6439281  47.0339684  55.1345683 123.4272989
  46.3742729  53.7848117 123.6139475  58.0928894  52.3923755 119.3323114
  57.5775517  53.1628360 119.5711502  57.8206202  51.7188891 119.9556176
  55.6776005  47.2373456 124.3908352  54.8217601  46.8480306 124.2113991
  56.0902957  47.3165417 123.5308138  63.0663168  55.1456110 121.2676288
  62.2892611  54.8067269 120.8231450  63.7454649  55.1508733 120.5931253
  57.8815197  50.2650847 121.1582895  57.5765333  50.5796996 122.0093038
  58.8345639  50.3432267 121.2010228  56.3261629  56.4241071 122.8075849
  55.7982990  55.6893830 122.4949087  55.8249132  57.2015747 122.5615818
  61.3054475  54.6190091 127.9242896  60.6478149  55.3089352 128.0123024
  62.1094874  55.0086523 128.2676882  60.1159934  52.9734464 125.9746837
  60.6291815  53.6064456 126.4768547  60.7661158  52.3735659 125.6090197
  51.3849944  49.1165198 119.1878346  50.5487256  49.4539884 119.5087621
  51.2454713  48.9814178 118.2505483  54.4714229  54.2421281 115.8110822
  53.5641291  54.0110534 116.0101971  54.9685261  53.4458900 115.9984804
  57.3782308  62.9518788 118.7307508  56.7044007  63.2550485 119.3392466
  57.7648130  63.7547868 118.3812966  57.3775812  51.8475335 123.3507858
  58.1247631  52.3596732 123.0414980  57.6467402  51.5259388 124.2112252
  55.6502462  54.3433876 120.3334812  54.7413682  54.0592909 120.4307282
  55.6797546  54.7632954 119.4738119  60.8821730  57.9540465 124.1025980
  60.4284057  57.1131375 124.1591170  60.2515697  58.5901864 124.4400760
  59.8254649  48.8832451 125.3326647  59.0877406  48.3709837 125.6636890
  60.0781423  48.4432833 124.5209924  59.3254669  59.7916962 125.0375798
  59.6177644  60.3522019 124.3188164  59.8353290  60.0845523 125.7928957
  54.1987357  51.9562496 126.4344608  54.2535966  51.0036333 126.3587084
  53.3878559  52.1121935 126.9185906  55.3478550  55.8842619 117.6722891
  54.9097980  55.1678478 117.2128528  56.0888991  56.1118734 117.1107982
  52.1379716  50.5739556 124.1934987  51.3247582  50.8733727 124.6000179
  52.6338711  50.1795245 124.9109469  54.2888294  60.5697313 126.1269251
  54.2464473  60.7958159 125.1977783  55.2050993  60.3360688 126.2755052
  63.4651665  54.1599816 123.7299210  63.3269564  54.3501412 122.8020399
  63.1087884  54.9219199 124.1867261  63.4921045  56.2276343 128.7410481
  63.9257551  56.1351632 129.5893535  64.2052625  56.2033844 128.1030497
  52.4054095  57.4460342 125.9231214  53.1994694  56.9510662 125.7213789
  51.6945787  56.9178205 125.5598920  57.2248940  59.8278438 130.2743582
  57.2785962  60.3969374 131.0421298  56.3563721  59.9980323 129.9097619
  48.7136859  51.5903424 121.9990967  47.7834447  51.5287879 122.2160929
  48.8094331  51.0679376 121.2027608  64.3536594  56.2700044 131.2743366
  64.5472484  57.1745855 131.5202641  64.2537212  55.8107463 132.1081951
  54.9825371  58.0189364 129.6029051  54.8436457  57.6508148 130.4754989
  54.1939967  58.5337003 129.4313009  55.5773523  63.1198460 120.9454588
  55.7525279  62.6486504 121.7600210  54.8906311  63.7464227 121.1735848
  56.5330586  57.3970967 126.9917889  56.1980419  57.3571737 127.8875539
  56.0334532  56.7315683 126.5188299  59.4689778  54.7427001 117.2654949
  58.8518949  54.0173829 117.1688001  59.0006266  55.5036361 116.9222023
  50.1434608  66.2687823 127.7194448  50.3831207  66.9006347 128.3973466
  49.3003805  65.9175863 128.0059807  51.2588324  48.9612425 116.3876253
  50.3817790  48.8401226 116.0238499  51.7346077  48.1698504 116.1355141
  54.6562470  62.0766946 130.1235952  54.5832642  62.8821917 130.6355256
  54.2139863  62.2758911 129.2983973  54.4452250  61.3138716 123.6338773
  53.6619772  61.8560396 123.7276998  55.1444995  61.8312695 124.0333015
  65.6078657  52.8273711 127.9191270  65.5968534  53.7098426 127.5485203
  64.7396037  52.4745261 127.7245807  57.1161154  61.9753780 132.2794110
  57.8289126  62.6101244 132.2070012  56.6251182  62.0717646 131.4634112
  58.8378681  55.8805032 123.8511402  57.9034959  56.0006495 123.6816106
  59.0155349  54.9777499 123.5871412  62.2251232  51.7222352 124.3861436
  62.6911684  52.5550343 124.3121739  62.6758733  51.2567333 125.0906695
  60.2927463  58.0666173 121.3847588  60.5687307  57.9522767 122.2941462
  59.4231962  57.6683658 121.3459761  56.9281527  62.3152524 125.0280402
  57.1103922  61.4974180 125.4908154  57.7514513  62.5320216 124.5905292
  57.2623693  61.2420709 122.2895450  57.7911459  60.7313163 121.6765613
  57.5251912  60.9263239 123.1540983  50.6179441  62.2935826 125.0493226
  49.9489816  62.7781953 124.5657266  50.4792310  62.5405046 125.9636605
  54.7584709  64.3279569 131.6475885  55.3103017  64.4911191 132.4124970
  55.0990903  64.9184007 130.9755910  45.9867018  50.5554281 121.8289158
  46.2820459  49.6464959 121.7756212  45.0855053  50.5342020 121.5070161
  57.8953096  62.2761545 128.6339567  57.7704236  61.4751284 128.1250512
  58.5532188  62.7707738 128.1453537  59.9588005  60.0770565 130.2619117
  59.0118340  59.9575916 130.1897444  60.3070778  59.1893063 130.3445378
  56.9634438  59.8723281 126.4623469  56.8159401  58.9439988 126.6431039
  57.7887932  59.8943372 125.9780544  50.8296682  48.5241348 122.3203961
  51.1692755  49.0527269 121.5982570  51.2768803  48.8621754 123.0962528
  60.5668560  60.6951840 127.5488342  61.4915107  60.4894701 127.4112793
  60.3983863  60.4468241 128.4577683  52.8164830  47.0215970 120.5197254
  53.5373192  47.3997222 120.0160971  52.1930134  47.7404846 120.6232232
  56.9595952  47.7261119 121.4555586  57.1759567  48.6085756 121.1544415
  56.4790020  47.3347332 120.7261228  60.3563876  61.2137507 122.9050433
  60.5300754  60.6483930 122.1524286  60.8492767  62.0138402 122.7229923
  66.2103267  53.9773930 124.5240733  66.6534413  53.2281255 124.1259856
  65.3329778  53.9684066 124.1414465  61.3439049  60.5304272 120.0047332
  62.0389953  61.1510964 120.2234646  61.6862199  59.6799623 120.2799710
  63.2430472  57.9803977 121.5334662  63.7681796  58.3191250 120.8083982
  63.1552824  57.0450992 121.3497797  54.9271133  64.0475960 125.8929916
  54.4876123  63.5552339 126.5862772  55.6779249  63.5048928 125.6521991
  47.4063471  60.2387501 125.8954544  48.2321491  59.9391273 125.5153187
  47.0557523  59.4695124 126.3444332  52.3745005  59.5913969 127.9652217
  51.7525014  58.9284674 127.6654445  53.0449872  59.6175101 127.2825865
  51.9358512  58.1417893 121.4410678  52.0846632  58.8253357 120.7877351
  52.7424955  58.1222983 121.9560134  65.7536132  55.4479168 126.9163181
  66.5883023  55.8868972 127.0800741  65.8895261  54.9717822 126.0971426
  49.6911145  54.1683070 122.4471747  49.4457186  53.2645400 122.6451957
  49.8607059  54.1700221 121.5051225  48.9606792  49.9011428 119.9457908
  48.2676037  49.9755783 119.2897944  48.7158544  49.1371772 120.4679425
  55.4353917  60.6366023 118.9122425  54.8627884  61.2556210 118.4592897
  56.0086711  61.1865385 119.4462347  58.6551177  60.9203173 120.0431008
  59.5881850  60.8548735 120.2463883  58.5674390  61.7559440 119.5845540
  61.2839194  60.2369044 117.0034955  61.2052825  59.9028907 117.8970713
  62.1048860  60.7290812 117.0026427  63.9817385  53.1030783 130.2111274
  63.9493705  52.1646784 130.3970958  64.5918008  53.1814820 129.4777099
  55.8200716  51.9726836 116.2538478  56.7659820  51.8433044 116.3226896
  55.4414961  51.2341498 116.7307906  69.7993935  54.1646790 129.3517310
  70.5297323  53.9032078 129.9125014  69.1900880  53.4275512 129.3919378
  67.8809232  52.3054652 129.9491762  67.1542395  52.1710617 129.3408253
  67.4656519  52.6131481 130.7548480  54.0043633  49.8976812 116.1893363
  53.0975088  49.6009925 116.2656077  54.2819614  49.6006630 115.3227649
  55.6205698  44.4413702 122.3437604  54.8106427  44.0960787 122.7192850
  56.3090115  44.1321246 122.9325216  52.7742417  46.7563748 116.3305342
  53.6361581  47.0818646 116.5901160  52.9592762  45.9695243 115.8178408
  60.9275054  45.6292274 123.4740565  60.3473723  46.2877078 123.0918618
  60.6610987  44.8069619 123.0627983  59.7099932  47.7892364 122.5296913
  58.8225787  48.0742015 122.3117108  60.1253921  47.6286128 121.6824190
  63.0614468  47.8138885 126.2451253  63.8374858  48.3035338 126.5175869
  62.3362602  48.2396940 126.7023122  65.4987027  48.5266505 127.3025193
  66.0931517  48.2862241 126.5918502  65.5713610  47.8073635 127.9298730
  47.7184182  62.3700116 127.6168358  47.5838650  61.6100516 127.0506356
  47.3016245  63.0941015 127.1497147  58.8543145  57.5537039 116.6244933
  59.5578995  57.7587042 117.2402589  58.1305794  58.1213801 116.8894017
  59.6840956  53.3046900 122.7447204  59.6276157  53.7615452 121.9054836
  60.2369298  52.5437585 122.5670046  63.4945762  49.0936632 123.5697323
  63.2382696  48.6933268 124.4005531  62.8698630  49.8080426 123.4447462
  67.8058099  51.8332705 126.0768614  67.2457657  51.9025895 126.8500177
  67.2001603  51.6573690 125.3568111  50.8753308  63.2669433 127.8286801
  50.7585692  64.2114865 127.7265491  50.0545754  62.9642994 128.2172600
  60.7629843  57.9919568 118.6743393  61.5975447  57.5600767 118.4920868
  60.6014186  57.8201582 119.6020288  60.4175735  54.4951682 120.0399733
  60.3624539  54.3295953 119.0988177  59.7921790  55.2027714 120.1961922
  53.7271860  43.9959791 119.6185051  53.7150530  44.9401630 119.7753322
  54.6195282  43.8129936 119.3244512  51.9007822  63.9197694 131.0442729
  52.8035069  63.9521305 131.3609224  51.6745192  62.9898145 131.0589065
  53.6561424  62.6728681 127.7052808  52.7057055  62.6730543 127.5917180
  53.9593910  61.9261416 127.1888842  62.0590640  70.3152124 124.6956986
  61.4955505  70.2242061 123.9273274  61.9443035  69.4952028 125.1759478
  59.6055072  71.8103315 127.5341206  60.3976364  71.4694140 127.1187506
  59.8451722  71.9198291 128.4543360  67.6390199  73.9823092 120.0071451
  66.9878178  74.5677172 119.6205465  68.4334561  74.5129287 120.0666488
  61.5645826  71.0712229 120.4058585  62.3376702  70.5241216 120.2671461
  61.9171225  71.9356478 120.6173046  63.9012104  67.2304895 118.0377035
  64.1537624  66.7086416 117.2760498  62.9636663  67.0671040 118.1403719
  68.9455386  66.2340673 125.8451778  69.7318476  65.8160096 125.4942195
  69.2094091  67.1386765 126.0133427  69.1165464  71.6713524 120.5440435
  68.4811297  71.7448150 121.2561340  68.7862870  72.2607122 119.8659514
  63.6208392  69.1333001 120.2401410  63.5044650  68.4577904 120.9082494
  63.7310652  68.6465375 119.4233563  65.9639933  68.5943148 123.9448099
  65.5998140  68.0673769 124.6561021  66.8207049  68.2041617 123.7714585
  65.6045420  63.6233048 118.9409448  65.7719823  64.4913284 119.3079919
  65.4142589  63.7860329 118.0170737  61.8133235  68.5363823 126.6411983
  60.8883731  68.4040037 126.8489674  62.0617648  69.3158043 127.1381925
  65.5834641  66.0790705 119.9256115  65.4634266  66.5247756 120.7641595
  64.8887229  66.4276023 119.3669653  59.1742046  68.1797097 127.4755772
  59.3034427  68.4331576 128.3895183  58.4939497  68.7724805 127.1560427
  71.2819707  66.5512178 120.7536449  72.1937563  66.7839565 120.5784146
  70.7729354  67.1349223 120.1911527  68.6255682  62.7270214 129.0026309
  67.7640161  63.0251468 129.2943047  68.6518117  62.9440613 128.0707342
  65.4417251  71.2712405 125.4100115  65.9055597  71.5500108 124.6204738
  65.1774049  70.3695849 125.2273206  64.3786137  67.3935557 122.2189680
  65.0810181  67.8456601 122.6863607  64.0466766  66.7519376 122.8469573
  58.1211471  65.6519110 127.5206814  57.3310525  65.9076638 127.0446924
  58.6122719  66.4667448 127.6258854  60.0726217  66.0163689 124.4790291
  59.2757380  66.1282383 124.9973786  59.8451809  66.3550341 123.6131181
  56.4049174  65.9049600 129.9521805  56.6557213  66.7896610 130.2179381
  56.9408723  65.7254202 129.1796896  65.6179902  74.2076500 122.2951786
  65.4825577  75.0528036 122.7236633  66.1589715  74.4095777 121.5317719
  59.0709299  71.7251938 122.8679711  59.5833820  72.5195188 123.0185275
  59.7232012  71.0278228 122.8013312  60.8804184  74.8417694 124.9502464
  61.0570812  75.7635659 124.7623448  61.6761018  74.5276113 125.3796844
  68.9672366  57.7307062 130.8250679  68.6236635  58.6208703 130.7489790
  69.3351328  57.5408719 129.9620264  57.0358216  70.0540592 123.6439281
  57.8733438  70.4637601 123.4272989  57.2136484  69.1140034 123.6139475
  68.9322648  67.7215673 119.3323114  68.4169272  68.4920277 119.5711502
  68.6599957  67.0480809 119.9556176  66.5169759  62.5665374 124.3908352
  65.6611356  62.1772224 124.2113991  66.9296711  62.6457334 123.5308138
  68.0468906  60.1011717 128.7899912  67.5433702  60.0641852 127.9767718
  68.3399513  61.0104460 128.8496569  64.2911792  60.1850447 127.7966094
  65.1564789  59.9893255 127.4371983  64.3589301  59.9560798 128.7235451
  73.9056922  70.4748027 121.2676288  73.1286365  70.1359187 120.8231450
  74.5848403  70.4800651 120.5931253  68.7208952  65.5942765 121.1582895
  68.4159087  65.9088914 122.0093038  69.6739394  65.6724185 121.2010228
  67.1655383  71.7532988 122.8075849  66.6376745  71.0185748 122.4949087
  66.6642886  72.5307665 122.5615818  61.8974111  62.4152655 125.1682461
  62.4717863  62.1927836 124.4355654  62.4845093  62.4841349 125.9211062
  62.2243698  64.4457116 119.1878346  61.3881010  64.7831802 119.5087621
  62.0848468  64.3106095 118.2505483  64.1996779  59.2893903 123.8957530
  63.5461191  58.9742921 123.2714145  64.1577253  58.6669644 124.6217353
  65.3107984  69.5713198 115.8110822  64.4035045  69.3402452 116.0101971
  65.8079016  68.7750818 115.9984804  68.2176062  78.2810706 118.7307508
  67.5437761  78.5842402 119.3392466  68.6041884  79.0839786 118.3812966
  67.4334519  65.7775837 128.2205178  66.5157080  65.9990784 128.0626866
  67.8494663  65.8522147 127.3616885  68.2169567  67.1767253 123.3507858
  68.9641386  67.6888650 123.0414980  68.4861156  66.8551305 124.2112252
  66.4896217  69.6725793 120.3334812  65.5807436  69.3884826 120.4307282
  66.5191301  70.0924872 119.4738119  70.6648404  64.2124369 125.3326647
  69.9271161  63.7001755 125.6636890  70.9175177  63.7724750 124.5209924
  70.7660031  56.9900621 125.9268417  71.0718908  56.1297984 125.6394332
  71.4912636  57.5818241 125.7267411  57.0584387  67.3931307 124.3150015
  56.8608787  66.8000668 123.5901081  56.5031051  67.0883518 125.0325953
  65.0381111  67.2854414 126.4344608  65.0929721  66.3328250 126.3587084
  64.2272313  67.4413853 126.9185906  66.1872305  71.2134537 117.6722891
  65.7491735  70.4970396 117.2128528  66.9282746  71.4410652 117.1107982
  62.9773471  65.9031474 124.1934987  62.1641336  66.2025644 124.6000179
  63.4732465  65.5087162 124.9109469  74.3045420  69.4891734 123.7299210
  74.1663318  69.6793330 122.8020399  73.9481638  70.2511117 124.1867261
  62.4687546  63.4749829 129.8096222  63.1086925  63.3338588 129.1119185
  61.6365076  63.1884343 129.4334824  63.2447850  72.7752260 125.9231214
  64.0388448  72.2802580 125.7213789  62.5339542  72.2470123 125.5598920
  59.5530613  66.9195341 121.9990967  58.6228201  66.8579797 122.2160929
  59.6488085  66.3971294 121.2027608  59.4716162  63.4450154 124.5869208
  59.7322979  64.3595487 124.4778369  60.2933334  62.9774597 124.7365821
  60.9441087  64.8587911 131.7568033  61.6164141  64.6505274 131.1080682
  60.1170874  64.6609997 131.3173265  66.4167278  78.4490378 120.9454588
  66.5919033  77.9778421 121.7600210  65.7300066  79.0756144 121.1735848
  70.3083532  70.0718919 117.2654949  69.6912703  69.3465747 117.1688001
  69.8400021  70.8328279 116.9222023  62.0982078  64.2904343 116.3876253
  61.2211545  64.1693144 116.0238499  62.5739831  63.4990421 116.1355141
  53.6184218  69.0781503 126.4817760  54.3055258  68.7643233 125.8938775
  53.4632347  69.9822867 126.2085011  58.4218941  63.9671699 130.9102784
  58.3377129  63.3597369 130.1753194  57.6001647  64.4580718 130.9112280
  68.5942654  62.4525263 126.2772979  69.0911354  61.6995225 125.9574049
  67.8229636  62.4889579 125.7116188  69.6772435  71.2096950 123.8511402
  68.7428714  71.3298412 123.6816106  69.8549104  70.3069417 123.5871412
  65.1777623  64.5942646 126.0044663  64.8075411  64.0413686 126.6925569
  65.6736716  63.9900779 125.4519663  73.0644986  67.0514269 124.3861436
  73.5305439  67.8842261 124.3121739  73.5152487  66.5859251 125.0906695
  71.1321218  73.3958091 121.3847588  71.4081061  73.2814685 122.2941462
  70.2625716  72.9975575 121.3459761  71.0361649  59.4194856 128.4252338
  70.1224729  59.6499083 128.5934545  71.4654751  59.5033300 129.2766370
  68.1017447  76.5712627 122.2895450  68.6305214  76.0605081 121.6765613
  68.3645667  76.2555157 123.1540983  53.1952195  67.1582096 128.7535227
  53.2336294  66.6245687 129.5472345  52.6892487  66.6317302 128.1346204
  60.5742957  62.0046637 132.2497769  60.6384283  62.8661467 131.8375167
  60.5110077  61.3920638 131.5170128  56.8260772  65.8846198 121.8289158
  57.1214213  64.9756877 121.7756212  55.9248808  65.8633938 121.5070161
  60.3555019  63.9602195 127.8116707  59.6341605  64.5738163 127.6724180
  61.1448275  64.4959960 127.7333353  58.5548614  63.5660296 121.9528484
  58.2261320  62.6857675 121.7703590  58.9087984  63.5107965 122.8404873
  61.6690437  63.8533266 122.3203961  62.0086509  64.3819187 121.5982570
  62.1162557  64.1913672 123.0962528  64.3633878  62.2370316 131.7707029
  64.0230698  61.4378129 132.1727709  63.6572884  62.5372027 131.1983863
  65.0150350  59.3219629 130.2234352  65.8376419  58.8480107 130.1013243
  65.2588413  60.1010113 130.7233039  63.6558584  62.3507887 120.5197254
  64.3766947  62.7289140 120.0160971  63.0323888  63.0696764 120.6232232
  67.7989707  63.0553036 121.4555586  68.0153321  63.9377674 121.1544415
  67.3183774  62.6639250 120.7261228  62.5388928  66.0138749 128.0326331
  62.3933509  66.3279053 128.9250613  62.0614132  66.6323650 127.4797230
  64.3985311  63.0041297 128.0807221  64.3846880  62.1082391 127.7439519
  65.1157739  63.0111961 128.7145507  66.2511442  63.4378638 130.1260348
  65.9929220  64.3595708 130.1244678  65.7196482  63.0409072 130.8160812
  57.0134590  68.5544094 130.9713992  56.4688059  69.3303902 131.1034267
  57.8913940  68.9014898 130.8133114  63.8022207  61.8855678 123.3494791
  63.9238118  60.9572324 123.5485678  63.5124249  61.8994364 122.4373106
  66.6713397  59.5710588 126.4861511  66.6935094  59.6349921 125.5313490
  67.0881457  58.7315097 126.6802017  72.1832803  75.8596189 120.0047332
  72.8783708  76.4802882 120.2234646  72.5255953  75.0091540 120.2799710
  74.0824226  73.3095895 121.5334662  74.6075550  73.6483167 120.8083982
  73.9946579  72.3742910 121.3497797  58.2457226  75.5679419 125.8954544
  59.0715246  75.2683191 125.5153187  57.8951278  74.7987041 126.3444332
  56.4465831  73.4865745 126.8543477  55.6097739  73.0587920 126.6727479
  56.4189476  73.6798189 127.7914268  62.7752266  73.4709810 121.4410678
  62.9240386  74.1545275 120.7877351  63.5818710  73.4514900 121.9560134
  60.5304899  69.4974988 122.4471747  60.2850941  68.5937318 122.6451957
  60.7000814  69.4992138 121.5051225  59.8000547  65.2303346 119.9457908
  59.1069792  65.3047701 119.2897944  59.5552298  64.4663689 120.4679425
  68.4714203  56.7898947 127.3497399  68.7515957  56.1222136 127.9757825
  69.2564810  56.9828043 126.8372063  66.2747672  75.9657941 118.9122425
  65.7021639  76.5848128 118.4592897  66.8480465  76.5157303 119.4462347
  69.4944931  76.2495091 120.0431008  70.4275605  76.1840653 120.2463883
  69.4068144  77.0851358 119.5845540  72.1232948  75.5660961 117.0034955
  72.0446580  75.2320825 117.8970713  72.9442615  76.0582729 117.0026427
  66.6594470  67.3018754 116.2538478  67.6053575  67.1724962 116.3226896
  66.2808715  66.5633416 116.7307906  72.6316355  58.9674760 126.2165370
  72.4341176  58.6589848 127.1008702  73.2416060  59.6936399 126.3463299
  64.8437387  65.2268730 116.1893363  63.9368843  64.9301843 116.2656077
  65.1213368  64.9298548 115.3227649  55.7615328  66.5475093 126.6392409
  55.4418112  65.6940402 126.3466783  55.2148756  66.7623672 127.3950377
  66.4599453  59.7705620 122.3437604  65.6500181  59.4252705 122.7192850
  67.1483870  59.4613163 122.9325216  68.3890001  58.8483667 123.9661901
  68.9421040  59.2679120 124.6251924  68.6260088  57.9219415 124.0084857
  63.6136172  62.0855665 116.3305342  64.4755336  62.4110564 116.5901160
  63.7986516  61.2987161 115.8178408  55.6303588  70.1678005 128.6085531
  54.9367059  69.7531958 128.0955485  56.3776579  70.2098541 128.0118950
  71.7668808  60.9584192 123.4740565  71.1867477  61.6168996 123.0918618
  71.5004741  60.1361536 123.0627983  70.2172375  60.3589249 125.6761885
  70.7172153  60.4705784 124.8676204  70.8607983  60.0550302 126.3162694
  57.5440330  70.0996259 126.4851546  57.5211018  70.1983946 125.5333429
  57.8540967  70.9461409 126.8068712  70.5493686  63.1184282 122.5296913
  69.6619541  63.4033933 122.3117108  70.9647675  62.9578045 121.6824190
  73.9008223  63.1430803 126.2451253  74.6768613  63.6327255 126.5175869
  73.1756357  63.5688857 126.7023122  69.6936900  72.8828957 116.6244933
  70.3972750  73.0878959 117.2402589  68.9699549  73.4505719 116.8894017
  70.5234710  68.6338818 122.7447204  70.4669912  69.0907369 121.9054836
  71.0763053  67.8729503 122.5670046  74.3339516  64.4228550 123.5697323
  74.0776450  64.0225186 124.4005531  73.7092384  65.1372344 123.4447462
  71.6023597  73.3211486 118.6743393  72.4369201  72.8892684 118.4920868
  71.4407940  73.1493500 119.6020288  71.2569489  69.8243599 120.0399733
  71.2018293  69.6587871 119.0988177  70.6315545  70.5319632 120.1961922
  56.0462004  65.0611664 133.8661155  56.6920868  64.5510618 134.3548380
  55.8379156  65.7980345 134.4404580  64.5665615  59.3251708 119.6185051
  64.5544285  60.2693548 119.7753322  65.4589037  59.1421854 119.3244512
  68.3817734  55.9194485 123.8730988  67.6150130  55.3652972 124.0187670
  68.7928439  55.9916354 124.7345140  73.0637453  79.7749033 119.1878346
  72.2274765  80.1123720 119.5087621  72.9242222  79.6398013 118.2505483
  72.9375833  79.6196261 116.3876253  72.0605299  79.4985061 116.0238499
  73.4133586  78.8282339 116.1355141  70.6394301  80.5595263 119.9457908
  69.9463546  80.6339618 119.2897944  70.3946053  79.7955607 120.4679425
  75.6831142  80.5560648 116.1893363  74.7762597  80.2593760 116.2656077
  75.9607123  80.2590466 115.3227649  74.4529926  77.4147583 116.3305342
  75.3149090  77.7402481 116.5901160  74.6380271  76.6279079 115.8178408
  75.4059369  74.6543626 119.6185051  75.3938039  75.5985466 119.7753322
  76.2982791  74.4713771 119.3244512  46.5388555  24.6288993 105.4552815
  45.8650253  24.9320690 106.0637773  46.9254377  25.4318073 105.1058272
  50.5045295  22.2074476 106.7292638  51.1996200  22.8281169 106.9479953
  50.8468446  21.3569828 107.0045016  44.5960164  22.3136228 105.6367732
  44.0234131  22.9326415 105.1838204  45.1692958  22.8635590 106.1707654
  47.8157424  22.5973378 106.7676314  48.7488097  22.5318940 106.9709190
  47.7280636  23.4329645 106.3090847  50.4445440  21.9139249 103.7280262
  50.3659072  21.5799112 104.6216020  51.2655107  22.4061016 103.7271734
  48.0149392  19.2307244 103.3490240  48.7185242  19.4357246 103.9647896
  47.2912041  19.7984006 103.6139324  49.9236090  19.6689773 105.3988700
  50.7581693  19.2370972 105.2166175  49.7620432  19.4971787 106.3265595
  58.5520365  30.1859424 115.4943877  59.1898775  30.0666172 114.7907217
  58.4341207  31.1340268 115.5531829  51.2196887  31.9922329 111.4202292
  50.6561752  31.9012266 110.6518580  51.1049282  31.1722233 111.9004785
  56.7996445  35.6593297 106.7316757  56.1484425  36.2447377 106.3450771
  57.5940808  36.1899491 106.7911795  50.7252072  32.7482434 107.1303892
  51.4982948  32.2011421 106.9916768  51.0777471  33.6126683 107.3418353
  53.0618350  28.9075100 104.7622342  53.3143871  28.3856621 104.0005805
  52.1242909  28.7441245 104.8649025  58.1061633  27.9110878 112.5697085
  58.8924722  27.4930301 112.2187502  58.3700337  28.8156970 112.7378733
  58.2771710  33.3483728 107.2685742  57.6417543  33.4218355 107.9806646
  57.9469117  33.9377327 106.5904821  63.5070060  27.8486111 113.4730063
  64.2395232  27.2785328 113.7067893  62.7509416  27.4607712 113.9136569
  52.7814639  30.8103206 106.9646717  52.6650897  30.1348109 107.6327801
  52.8916899  30.3235580 106.1478870  55.1246180  30.2713353 110.6693406
  54.7604387  29.7443974 111.3806327  55.9813296  29.8811822 110.4959891
  54.7651667  25.3003253 105.6654754  54.9326069  26.1683489 106.0325225
  54.5748836  25.4630534 104.7416044  54.7440888  27.7560910 106.6501421
  54.6240513  28.2017961 107.4886901  54.0493476  28.1046228 106.0914959
  52.5047780  40.5264552 110.2991552  52.4271810  41.4772377 110.3780033
  51.9009423  40.1810424 110.9566479  60.4425954  28.2282383 107.4781755
  61.3543810  28.4609770 107.3029453  59.9335601  28.8119427 106.9156834
  59.0495536  33.2108202 114.8695337  58.4204399  33.3753916 114.1671405
  58.6621198  33.6249811 115.6406301  62.9284768  34.1462640 112.2239700
  62.2435806  34.5261541 111.6736734  63.0128617  34.7557966 112.9571648
  54.6023498  32.9482610 112.1345422  55.0661844  33.2270313 111.3450044
  54.3380296  32.0466054 111.9518512  53.5392384  29.0705762 108.9434987
  54.2416428  29.5226806 109.4108913  53.2073013  28.4289581 109.5714880
  61.2981528  34.6694554 116.9957401  62.1198971  34.2674741 116.7140083
  61.2943931  34.5662788 117.9473517  69.3887521  31.0133302 113.3442373
  68.6351229  30.4440701 113.1886377  69.5235062  30.9795967 114.2913008
  54.7786149  35.8846705 109.0197092  54.6431824  36.7298240 109.4481940
  55.3195961  36.0865982 108.2563026  48.2315546  33.4022143 109.5925017
  48.7440067  34.1965393 109.7430582  48.8838259  32.7048433 109.5258619
  50.0410431  36.5187899 111.6747770  50.2177059  37.4405864 111.4868754
  50.8367264  36.2046318 112.1042150  51.1641746  38.0366073 117.6758113
  51.7149171  37.9083136 116.9035107  50.3253222  38.3360962 117.3253006
  46.1964463  31.7310797 110.3684588  47.0339685  32.1407805 110.1518295
  46.3742731  30.7910239 110.3384782  58.0928895  29.3985878 106.0568421
  57.5775519  30.1690482 106.2956808  57.8206204  28.7251014 106.6801482
  55.6776006  24.2435579 111.1153659  54.8217602  23.8542429 110.9359298
  56.0902958  24.3227539 110.2553445  63.0663169  32.1518232 107.9921594
  62.2892612  31.8129392 107.5476756  63.7454650  32.1570856 107.3176559
  57.8815198  27.2712970 107.8828202  57.5765334  27.5859119 108.7338345
  58.8345640  27.3494390 107.9255535  56.3261630  33.4303193 109.5321156
  55.7982992  32.6955953 109.2194393  55.8249133  34.2077869 109.2861124
  61.3054476  31.6252214 114.6488202  60.6478151  32.3151475 114.7368331
  62.1094875  32.0148646 114.9922189  60.1159935  29.9796586 112.6992144
  60.6291817  30.6126578 113.2013854  60.7661159  29.3797782 112.3335504
  51.3849945  26.1227320 105.9123653  50.5487257  26.4602007 106.2332927
  51.2454714  25.9876300 104.9750790  54.4714230  31.2483403 102.5356129
  53.5641292  31.0172657 102.7347278  54.9685262  30.4521023 102.7230110
  57.3782309  39.9580911 105.4552815  56.7044008  40.2612607 106.0637773
  57.7648131  40.7609991 105.1058272  57.3775814  28.8537458 110.0753165
  58.1247633  29.3658855 109.7660287  57.6467403  28.5321510 110.9357558
  55.6502464  31.3495998 107.0580119  54.7413683  31.0655031 107.1552589
  55.6797548  31.7695077 106.1983426  60.8821731  34.9602588 110.8271287
  60.4284058  34.1193498 110.8836477  60.2515698  35.5963986 111.1646067
  59.8254651  25.8894574 112.0571954  59.0877408  25.3771960 112.3882197
  60.0781424  25.4494955 111.2455231  59.3254670  36.7979084 111.7621105
  59.6177645  37.3584142 111.0433470  59.8353291  37.0907645 112.5174264
  54.1987358  28.9624619 113.1589914  54.2535968  28.0098455 113.0832391
  53.3878560  29.1184058 113.6431213  55.3478552  32.8904742 104.3968198
  54.9097981  32.1740601 103.9373835  56.0888992  33.1180857 103.8353289
  52.1379718  27.5801679 110.9180293  51.3247583  27.8795849 111.3245485
  52.6338712  27.1857367 111.6354775  54.2888296  37.5759436 112.8514558
  54.2464474  37.8020282 111.9223090  55.2050994  37.3422810 113.0000359
  63.4651666  31.1661939 110.4544516  63.3269565  31.3563535 109.5265705
  63.1087885  31.9281322 110.9112567  63.4921046  33.2338466 115.4655788
  63.9257553  33.1413755 116.3138842  64.2052627  33.2095966 114.8275804
  52.4054096  34.4522465 112.6476521  53.1994695  33.9572785 112.4459096
  51.6945789  33.9240328 112.2844226  57.2248941  36.8340560 116.9988888
  57.2785963  37.4031496 117.7666604  56.3563722  37.0042445 116.6342925
  48.7136860  28.5965546 108.7236273  47.7834448  28.5350002 108.9406235
  48.8094332  28.0741499 107.9272915  64.3536596  33.2762167 117.9988673
  64.5472486  34.1807977 118.2447948  64.2537214  32.8169586 118.8327258
  54.9825372  35.0251487 116.3274358  54.8436458  34.6570271 117.2000296
  54.1939969  35.5399126 116.1558316  55.5773524  40.1260583 107.6699894
  55.7525280  39.6548626 108.4845517  54.8906312  40.7526349 107.8981155
  56.5330588  34.4033089 113.7163196  56.1980420  34.3633859 114.6120845
  56.0334533  33.7377805 113.2433606  59.4689779  31.7489124 103.9900255
  58.8518950  31.0235952 103.8933308  59.0006268  32.5098484 103.6467329
  50.1434610  43.2749946 114.4439754  50.3831208  43.9068470 115.1218773
  49.3003806  42.9237986 114.7305114  51.2588325  25.9674548 103.1121559
  50.3817791  25.8463349 102.7483806  51.7346078  25.1760626 102.8600448
  54.6562471  39.0829068 116.8481258  54.5832643  39.8884040 117.3600563
  54.2139865  39.2821034 116.0229280  54.4452251  38.3200838 110.3584080
  53.6619773  38.8622518 110.4522304  55.1444996  38.8374818 110.7578321
  65.6078659  29.8335833 114.6436577  65.5968535  30.7160549 114.2730510
  64.7396038  29.4807384 114.4491114  57.1161155  38.9815902 119.0039417
  57.8289127  39.6163367 118.9315319  56.6251184  39.0779768 118.1879419
  58.8378682  32.8867155 110.5756709  57.9034961  33.0068617 110.4061413
  59.0155350  31.9839622 110.3116719  62.2251233  28.7284474 111.1106743
  62.6911685  29.5612466 111.0367046  62.6758734  28.2629456 111.8152001
  60.2927464  35.0728296 108.1092895  60.5687308  34.9584890 109.0186769
  59.4231963  34.6745780 108.0705068  56.9281528  39.3214646 111.7525709
  57.1103923  38.5036302 112.2153461  57.7514514  39.5382339 111.3150599
  57.2623694  38.2482831 109.0140757  57.7911460  37.7375286 108.4010919
  57.5251913  37.9325362 109.8786290  50.6179442  39.2997948 111.7738533
  49.9489817  39.7844076 111.2902573  50.4792312  39.5467169 112.6881912
  54.7584710  41.3341692 118.3721191  55.3103018  41.4973313 119.1370277
  55.0990904  41.9246130 117.7001216  45.9867019  27.5616403 108.5534465
  46.2820460  26.6527082 108.5001519  45.0855055  27.5404143 108.2315467
  57.8953098  39.2823667 115.3584874  57.7704237  38.4813407 114.8495819
  58.5532189  39.7769861 114.8698843  59.9588006  37.0832687 116.9864424
  59.0118342  36.9638038 116.9142750  60.3070779  36.1955185 117.0690685
  56.9634439  36.8785404 113.1868776  56.8159402  35.9502111 113.3676346
  57.7887933  36.9005494 112.7025851  50.8296684  25.5303471 109.0449268
  51.1692756  26.0589392 108.3227876  51.2768804  25.8683877 109.8207835
  60.5668561  37.7013962 114.2733649  61.4915109  37.4956824 114.1358100
  60.3983865  37.4530363 115.1822990  52.8164831  24.0278092 107.2442561
  53.5373193  24.4059345 106.7406278  52.1930135  24.7466969 107.3477539
  56.9595954  24.7323241 108.1800893  57.1759568  25.6147879 107.8789721
  56.4790021  24.3409455 107.4506535  60.3563877  38.2199630 109.6295740
  60.5300755  37.6546052 108.8769592  60.8492769  39.0200525 109.4475230
  66.2103269  30.9836053 111.2486040  66.6534415  30.2343378 110.8505163
  65.3329779  30.9746189 110.8659772  61.3439050  37.5366394 106.7292638
  62.0389955  38.1573087 106.9479953  61.6862200  36.6861745 107.0045016
  63.2430473  34.9866100 108.2579969  63.7681797  35.3253372 107.5329289
  63.1552826  34.0513115 108.0743104  54.9271134  41.0538083 112.6175222
  54.4876124  40.5614462 113.3108079  55.6779251  40.5111051 112.3767297
  47.4063473  37.2449624 112.6199850  48.2321493  36.9453396 112.2398494
  47.0557525  36.4757246 113.0689639  52.3745006  36.5976092 114.6897524
  51.7525015  35.9346797 114.3899752  53.0449873  36.6237224 114.0071172
  51.9358513  35.1480015 108.1655984  52.0846633  35.8315480 107.5122657
  52.7424956  35.1285105 108.6805440  65.7536133  32.4541291 113.6408487
  66.5883025  32.8931095 113.8046048  65.8895262  31.9779944 112.8216733
  49.6911146  31.1745193 109.1717053  49.4457188  30.2707523 109.3697264
  49.8607060  31.1762343 108.2296531  48.9606793  26.9073551 106.6703215
  48.2676038  26.9817906 106.0143251  48.7158545  26.1433894 107.1924732
  55.4353918  37.6428146 105.6367732  54.8627885  38.2618333 105.1838204
  56.0086712  38.1927507 106.1707654  58.6551178  37.9265296 106.7676314
  59.5881851  37.8610858 106.9709190  58.5674391  38.7621563 106.3090847
  61.2839195  37.2431166 103.7280262  61.2052826  36.9091030 104.6216020
  62.1048862  37.7352934 103.7271734  63.9817386  30.1092906 116.9356580
  63.9493706  29.1708906 117.1216264  64.5918010  30.1876942 116.2022405
  55.8200717  28.9788959 102.9783784  56.7659822  28.8495167 103.0472202
  55.4414962  28.2403620 103.4553213  69.7993936  31.1708912 116.0762617
  70.5297324  30.9094201 116.6370320  69.1900881  30.4337634 116.1164685
  67.8809233  29.3116775 116.6737068  67.1542397  29.1772740 116.0653560
  67.4656520  29.6193604 117.4793786  54.0043634  26.9038935 102.9138670
  53.0975089  26.6072048 102.9901383  54.2819615  26.6068753 102.0472956
  55.6205700  21.4475825 109.0682911  54.8106428  21.1022910 109.4438157
  56.3090117  21.1383368 109.6570522  52.7742419  23.7625870 103.0550649
  53.6361583  24.0880768 103.3146466  52.9592763  22.9757366 102.5423715
  60.9275055  22.6354397 110.1985872  60.3473724  23.2939201 109.8163924
  60.6610988  21.8131741 109.7873289  59.7099933  24.7954487 109.2542220
  58.8225788  25.0804138 109.0362415  60.1253922  24.6348250 108.4069497
  63.0614469  24.8201008 112.9696559  63.8374859  25.3097460 113.2421176
  62.3362603  25.2459062 113.4268429  65.4987028  25.5328627 114.0270500
  66.0931519  25.2924363 113.3163808  65.5713612  24.8135758 114.6544036
  47.7184184  39.3762238 114.3413665  47.5838652  38.6162639 113.7751663
  47.3016246  40.1003138 113.8742454  58.8543147  34.5599162 103.3490240
  59.5578997  34.7649164 103.9647896  58.1305795  35.1275924 103.6139324
  59.6840957  30.3109023 109.4692510  59.6276158  30.7677574 108.6300143
  60.2369299  29.5499708 109.2915353  63.4945763  26.0998755 110.2942630
  63.2382697  25.6995390 111.1250837  62.8698631  26.8142549 110.1692769
  67.8058101  28.8394828 112.8013921  67.2457659  28.9088017 113.5745483
  67.2001604  28.6635813 112.0813417  50.8753309  40.2731555 114.5532107
  50.7585694  41.2176988 114.4510798  50.0545756  39.9705117 114.9417907
  60.7629844  34.9981691 105.3988700  61.5975448  34.5662889 105.2166175
  60.6014187  34.8263705 106.3265595  60.4175736  31.5013804 106.7645039
  60.3624540  31.3358076 105.8233484  59.7921791  32.2089837 106.9207229
  53.7271862  21.0021913 106.3430358  53.7150531  21.9463753 106.4998629
  54.6195284  20.8192059 106.0489819  51.9007824  40.9259817 117.7688036
  52.8035070  40.9583427 118.0854531  51.6745194  39.9960268 117.7834372
  53.6561426  39.6790804 114.4298114  52.7057057  39.6792665 114.3162487
  53.9593912  38.9323538 113.9134149  69.3914119  45.5151342 115.4943877
  70.0292529  45.3958089 114.7907217  69.2734962  46.4632186 115.5531829
  66.2003825  45.4678770 115.4305402  65.8622337  45.3519835 114.5425936
  67.0693594  45.0669935 115.4106408  62.0590641  47.3214246 111.4202292
  61.4955506  47.2304183 110.6518580  61.9443036  46.5014151 111.9004785
  66.6823608  46.6213622 121.3891607  66.6712249  46.2266420 120.5172111
  66.8444248  45.8879694 121.9825379  59.6055073  48.8165438 114.2586513
  60.3976365  48.4756263 113.8432812  59.8451723  48.9260413 115.1788666
  67.6390200  50.9885214 106.7316757  66.9878180  51.5739295 106.3450771
  68.4334563  51.5191409 106.7911795  61.5645827  48.0774351 107.1303892
  62.3376703  47.5303338 106.9916768  61.9171226  48.9418601 107.3418353
  63.4030870  49.4050734 120.3370791  63.1120735  50.3096364 120.2217457
  64.0387854  49.4467261 121.0514861  64.3287076  46.7827582 116.9272151
  64.9250649  46.5583605 116.2129114  64.3862048  46.0412328 117.5297599
  63.9012105  44.2367017 104.7622342  64.1537625  43.7148539 104.0005805
  62.9636664  44.0733163 104.8649025  68.9455388  43.2402796 112.5697085
  69.7318477  42.8222219 112.2187502  69.2094092  44.1448888 112.7378733
  69.1165465  48.6775646 107.2685742  68.4811298  48.7510273 107.9806646
  68.7862871  49.2669245 106.5904821  74.3463815  43.1778029 113.4730063
  75.0788987  42.6077246 113.7067893  73.5903170  42.7899629 113.9136569
  63.6208394  46.1395123 106.9646717  63.5044652  45.4640027 107.6327801
  63.7310653  45.6527497 106.1478870  65.9639934  45.6005271 110.6693406
  65.5998142  45.0735891 111.3806327  66.8207050  45.2103740 110.4959891
  71.8689235  36.8899603 117.9324672  71.5372560  37.7595014 117.7085887
  71.2734848  36.5735887 118.6118702  65.6045421  40.6295170 105.6654754
  65.7719824  41.4975407 106.0325225  65.4142590  40.7922452 104.7416044
  68.3620755  49.0912149 117.3320585  68.0621478  49.9937188 117.2236392
  68.0171814  48.8244332 118.1841738  61.8133236  45.5425946 113.3657289
  60.8883733  45.4102160 113.5734981  62.0617649  46.3220165 113.8627232
  71.7617898  41.6094689 115.0118022  70.8534776  41.5410098 114.7176783
  71.7105494  42.0866634 115.8399848  65.5834642  43.0852828 106.6501421
  65.4634267  43.5309878 107.4886901  64.8887231  43.4338145 106.0914959
  59.1742047  45.1859220 114.2001078  59.3034428  45.4393698 115.1140490
  58.4939498  45.7786928 113.8805733  63.3441534  55.8556469 110.2991552
  63.2665564  56.8064295 110.3780033  62.7403178  55.5102342 110.9566479
  65.8358764  43.0284335 122.9552919  65.0592098  43.5878255 122.9455784
  66.4749327  43.5141118 123.4767789  73.6279545  39.8111128 116.7895896
  72.9853925  40.1043661 116.1435691  73.1234473  39.6964048 117.5949093
  71.2819708  43.5574301 107.4781755  72.1937565  43.7901688 107.3029453
  70.7729356  44.1411345 106.9156834  64.0905136  45.8369788 122.5170886
  64.8319821  46.3754832 122.2405710  63.3842122  46.4636077 122.6742438
  69.5660476  47.9798929 121.1143048  69.9743832  47.5381339 120.3697680
  68.8437738  47.4051556 121.3677241  65.9191546  42.9171535 118.4876605
  66.7652741  43.3410949 118.6311254  65.8590184  42.2605160 119.1815168
  69.8889291  48.5400119 114.8695337  69.2598153  48.7045833 114.1671405
  69.5014953  48.9541729 115.6406301  73.7678523  49.4754557 112.2239700
  73.0829561  49.8553459 111.6736734  73.8522372  50.0849884 112.9571648
  69.0690991  40.5775904 120.1457778  68.8251923  41.3317964 119.6092054
  69.3450922  40.9561251 120.9805025  71.0229454  47.1214516 118.8235044
  71.2346349  47.7646276 118.1469425  70.9759203  46.2876833 118.3556974
  68.6255683  39.7332337 115.7271616  67.7640162  40.0313590 116.0188354
  68.6518118  39.9502736 114.7952649  65.4417253  48.2774527 112.1345422
  65.9055598  48.5562230 111.3450044  65.1774051  47.3757972 111.9518512
  62.3341334  47.8246009 115.0725185  62.9042691  48.2533277 114.4342670
  62.9249446  47.5428594 115.7709371  64.3786139  44.3997680 108.9434987
  65.0810182  44.8518723 109.4108913  64.0466767  43.7581499 109.5714880
  62.8266500  42.9909436 123.3186196  62.1965161  43.6725717 123.5521593
  62.7202588  42.8792518 122.3739335  58.1211473  42.6581232 114.2452121
  57.3310527  42.9138761 113.7692231  58.6122720  43.4729570 114.3504161
  72.1375282  49.9986472 116.9957401  72.9592726  49.5966659 116.7140083
  72.1337685  49.8954706 117.9473517  60.0726218  43.0225812 111.2035597
  59.2757381  43.1344506 111.7219093  59.8451810  43.3612464 110.3376488
  65.9031886  49.5470515 119.1518112  65.9676318  50.0090922 119.9876284
  65.1942810  48.9167880 119.2800422  56.4049176  42.9111723 116.6767111
  56.6557214  43.7958733 116.9424687  56.9408724  42.7316324 115.9042203
  80.2281275  46.3425220 113.3442373  79.4744984  45.7732618 113.1886377
  80.3628816  46.3087885 114.2913008  65.6179903  51.2138622 109.0197092
  65.4825578  52.0590158 109.4481940  66.1589716  51.4157900 108.2563026
  59.0709301  48.7314060 109.5925017  59.5833821  49.5257311 109.7430582
  59.7232014  48.0340351 109.5258619  60.8804185  51.8479817 111.6747770
  61.0570814  52.7697781 111.4868754  61.6761019  51.5338236 112.1042150
  65.0215204  38.7088081 123.2731704  65.7624917  39.3095235 123.1936166
  65.2533127  37.9665719 122.7149747  60.1656542  43.8944449 121.5509934
  60.0510057  42.9929706 121.8517033  59.3101060  44.1408145 121.1994750
  67.2448380  51.8362189 123.1497434  66.8012234  51.0498567 122.8318339
  67.9065593  52.0241339 122.4841325  62.0035501  53.3657991 117.6758113
  62.5542926  53.2375054 116.9035107  61.1646977  53.6652880 117.3253006
  69.3429618  52.1164989 121.1778836  69.3248093  52.9373870 120.6859105
  70.2649538  51.9919064 121.4028977  65.8002672  49.6309118 122.0202344
  66.3331009  48.8697407 121.7901652  65.2716753  49.3382770 122.7626498
  68.9672367  34.7369184 117.5495986  68.6236636  35.6270826 117.4735096
  69.3351329  34.5470842 116.6865571  57.0358217  47.0602715 110.3684588
  57.8733439  47.4699723 110.1518295  57.2136485  46.1202157 110.3384782
  68.9322650  44.7277795 106.0568421  68.4169273  45.4982400 106.2956808
  68.6599958  44.0542932 106.6801482  66.5169761  39.5727496 111.1153659
  65.6611357  39.1834347 110.9359298  66.9296712  39.6519457 110.2553445
  68.0468907  37.1073839 115.5145219  67.5433703  37.0703975 114.7013024
  68.3399514  38.0166582 115.5741876  64.2911793  37.1912569 114.5211401
  65.1564790  36.9955378 114.1617290  64.3589302  36.9622921 115.4480757
  73.9056924  47.4810150 107.9921594  73.1286366  47.1421310 107.5476756
  74.5848405  47.4862773 107.3176559  68.7208953  42.6004888 107.8828202
  68.4159088  42.9151037 108.7338345  69.6739395  42.6786307 107.9255535
  67.1655385  48.7595111 109.5321156  66.6376746  48.0247870 109.2194393
  66.6642887  49.5369787 109.2861124  72.1448231  46.9544131 114.6488202
  71.4871905  47.6443393 114.7368331  72.9488630  47.3440563 114.9922189
  61.8974112  39.4214777 111.8927767  62.4717864  39.1989959 111.1600960
  62.4845095  39.4903472 112.6456369  70.9553689  45.3088504 112.6992144
  71.4685571  45.9418496 113.2013854  71.6054913  44.7089700 112.3335504
  62.2243699  41.4519238 105.9123653  61.3881012  41.7893925 106.2332927
  62.0848469  41.3168218 104.9750790  64.1996780  36.2956026 110.6202837
  63.5461192  35.9805043 109.9959452  64.1577254  35.6731766 111.3462660
  65.3107985  46.5775321 102.5356129  64.4035047  46.3464575 102.7347278
  65.8079017  45.7812940 102.7230110  68.2176064  55.2872828 105.4552815
  67.5437762  55.5904525 106.0637773  68.6041886  56.0901909 105.1058272
  67.4334520  42.7837960 114.9450484  66.5157082  43.0052907 114.7872173
  67.8494664  42.8584270 114.0862192  68.2169568  44.1829375 110.0753165
  68.9641387  44.6950772 109.7660287  68.4861158  43.8613428 110.9357558
  66.4896218  46.6787916 107.0580119  65.5807437  46.3946949 107.1552589
  66.5191302  47.0986995 106.1983426  71.7215486  50.2894505 110.8271287
  71.2677813  49.4485415 110.8836477  71.0909452  50.9255904 111.1646067
  70.6648405  41.2186491 112.0571954  69.9271162  40.7063878 112.3882197
  70.9175179  40.7786873 111.2455231  70.1648425  52.1271002 111.7621105
  70.4571399  52.6876059 111.0433470  70.6747045  52.4199563 112.5174264
  70.7660033  33.9962743 112.6513723  71.0718909  33.1360107 112.3639638
  71.4912637  34.5880364 112.4512717  57.0584389  44.3993430 111.0395321
  56.8608788  43.8062791 110.3146388  56.5031053  44.0945640 111.7571260
  65.0381112  44.2916537 113.1589914  65.0929722  43.3390373 113.0832391
  64.2272314  44.4475976 113.6431213  66.1872306  48.2196660 104.3968198
  65.7491736  47.5032519 103.9373835  66.9282747  48.4472774 103.8353289
  62.9773472  42.9093596 110.9180293  62.1641338  43.2087767 111.3245485
  63.4732466  42.5149285 111.6354775  65.1282050  52.9051353 112.8514558
  65.0858229  53.1312200 111.9223090  66.0444749  52.6714728 113.0000359
  68.5747684  43.3735421 119.7495187  68.9297072  43.6006894 120.6089653
  69.2219815  43.7053798 119.1272442  74.3045421  46.4953857 110.4544516
  74.1663319  46.6855453 109.5265705  73.9481640  47.2573239 110.9112567
  62.4687547  40.4811952 116.5341528  63.1086926  40.3400711 115.8364492
  61.6365078  40.1946465 116.1580130  74.3314800  48.5630384 115.4655788
  74.7651307  48.4705673 116.3138842  75.0446381  48.5387884 114.8275804
  63.2447851  49.7814382 112.6476521  64.0388449  49.2864702 112.4459096
  62.5339543  49.2532245 112.2844226  68.0642695  52.1632478 116.9988888
  68.1179718  52.7323414 117.7666604  67.1957477  52.3334363 116.6342925
  59.5530614  43.9257464 108.7236273  58.6228202  43.8641919 108.9406235
  59.6488086  43.4033417 107.9272915  59.4716163  40.4512277 111.3114515
  59.7322981  41.3657610 111.2023675  60.2933336  39.9836719 111.4611128
  60.9441089  41.8650034 118.4813340  61.6164142  41.6567396 117.8325988
  60.1170875  41.6672120 118.0418572  75.1930350  48.6054084 117.9988673
  75.3866240  49.5099895 118.2447948  75.0930968  48.1461503 118.8327258
  66.8466661  38.4911975 120.4979000  66.1994576  39.1901925 120.4043477
  67.6167676  38.9248119 120.8655249  70.2545459  48.7560827 123.5729554
  70.1030965  48.5271379 122.6559637  70.2450138  49.7131428 123.5860899
  67.0230795  46.3292740 118.5575820  67.9522855  46.4803899 118.3844787
  66.6021825  46.4176761 117.7024467  65.8219127  50.3543404 116.3274358
  65.6830213  49.9862189 117.2000296  65.0333723  50.8691044 116.1558316
  66.4167279  55.4552501 107.6699894  66.5919035  54.9840544 108.4845517
  65.7300067  56.0818267 107.8981155  67.3724342  49.7325007 113.7163196
  67.0374175  49.6925777 114.6120845  66.8728288  49.0669723 113.2433606
  61.3468586  45.1392637 119.2415777  61.2088384  44.4072876 119.8427316
  62.2573509  45.0501537 118.9599964  70.3083534  47.0781041 103.9900255
  69.6912704  46.3527869 103.8933308  69.8400022  47.8390402 103.6467329
  63.9750887  44.8512596 118.7299456  64.6850505  44.2105788 118.6886075
  63.9320195  45.1025491 119.6525637  71.9637665  51.7879950 121.6506036
  71.9050211  51.1039170 120.9836619  72.3657184  52.5298940 121.1986662
  62.6879821  41.8377814 120.5495096  62.1517178  41.3868553 121.2016692
  62.0996529  41.9723723 119.8065560  60.9828364  58.6041863 114.4439754
  61.2224962  59.2360388 115.1218773  60.1397561  58.2529903 114.7305114
  62.0982080  41.2966466 103.1121559  61.2211546  41.1755266 102.7483806
  62.5739833  40.5052544 102.8600448  71.9655073  49.7519534 119.8820015
  71.0781851  49.4145455 120.0046414  72.5353624  49.0202565 120.1188781
  53.6184220  46.0843625 113.2063067  54.3055260  45.7705355 112.6184082
  53.4632348  46.9884990 112.9330318  58.4218942  40.9733822 117.6348090
  58.3377131  40.3659491 116.8998500  57.6001648  41.4642840 117.6357587
  65.4956226  54.4120986 116.8481258  65.4226397  55.2175957 117.3600563
  65.0533619  54.6112952 116.0229280  65.2846006  53.6492756 110.3584080
  64.5013527  54.1914436 110.4522304  65.9838751  54.1666736 110.7578321
  68.5942656  39.4587385 113.0018285  69.0911355  38.7057348 112.6819356
  67.8229637  39.4951702 112.4361495  76.4472413  45.1627751 114.6436577
  76.4362289  46.0452466 114.2730510  75.5789793  44.8099302 114.4491114
  67.9554909  54.3107820 119.0039417  68.6682882  54.9455285 118.9315319
  67.4644938  54.4071686 118.1879419  69.6772436  48.2159073 110.5756709
  68.7428715  48.3360535 110.4061413  69.8549105  47.3131539 110.3116719
  65.1777624  41.6004768 112.7289970  64.8075412  41.0475809 113.4170876
  65.6736717  40.9962902 112.1764970  73.0644988  44.0576392 111.1106743
  73.5305440  44.8904383 111.0367046  73.5152488  43.5921373 111.8152001
  63.0066823  52.0602263 119.8244988  63.7076283  52.6938746 119.9774382
  62.5361938  52.4016995 119.0640627  71.1321219  50.4020213 108.1092895
  71.4081063  50.2876808 109.0186769  70.2625718  50.0037698 108.0705068
  71.0361650  36.4256979 115.1497644  70.1224730  36.6561206 115.3179851
  71.4654752  36.5095423 116.0011677  70.8068109  44.6146871 117.6497538
  70.1539559  44.8622778 116.9949991  71.1848489  43.8011009 117.3160016
  67.7675283  54.6506564 111.7525709  67.9497677  53.8328220 112.2153461
  68.5908269  54.8674256 111.3150599  68.1017448  53.5774749 109.0140757
  68.6305215  53.0667204 108.4010919  68.3645668  53.2617279 109.8786290
  66.8555682  45.3566682 124.1363575  66.1796319  45.2560811 124.8065951
  67.6783316  45.2005896 124.5999573  58.6034541  51.5938618 116.7576091
  59.1887978  50.8482306 116.8903995  58.4059380  51.9042575 117.6412754
  61.4573196  54.6289866 111.7738533  60.7883572  55.1135993 111.2902573
  61.3186066  54.8759086 112.6881912  53.1952196  44.1644219 115.4780534
  53.2336295  43.6307809 116.2717652  52.6892489  43.6379424 114.8591511
  65.5978465  56.6633609 118.3721191  66.1496773  56.8265231 119.1370277
  65.9384658  57.2538047 117.7001216  60.5742958  39.0108759 118.9743076
  60.6384285  39.8723590 118.5620474  60.5110078  38.3982761 118.2415435
  70.4489339  51.4894867 124.2269846  70.9929243  52.1024825 123.7324801
  69.8676184  52.0474445 124.7436859  56.8260773  42.8908321 108.5534465
  57.1214214  41.9818999 108.5001519  55.9248809  42.8696060 108.2315467
  68.7346852  54.6115585 115.3584874  68.6097992  53.8105325 114.8495819
  69.3925943  55.1061778 114.8698843  60.3555020  40.9664317 114.5362014
  59.6341606  41.5800285 114.3969487  61.1448276  41.5022082 114.4578660
  70.7981761  52.4124605 116.9864424  69.8512096  52.2929956 116.9142750
  71.1464534  51.5247103 117.0690685  63.1581334  38.3018744 120.8102665
  63.6815736  38.5481040 121.5728975  62.9393667  39.1338779 120.3905803
  58.5548615  40.5722418 108.6773790  58.2261321  39.6919797 108.4948896
  58.9087986  40.5170087 109.5650180  67.8028194  52.2077321 113.1868776
  67.6553156  51.2794029 113.3676346  68.6281687  52.2297412 112.7025851
  61.6690438  40.8595388 109.0449268  62.0086511  41.3881310 108.3227876
  62.1162559  41.1975794 109.8207835  71.4062316  53.0305880 114.2733649
  72.3308863  52.8248741 114.1358100  71.2377619  52.7822281 115.1822990
  64.3633879  39.2432439 118.4952336  64.0230699  38.4440252 118.8973016
  63.6572885  39.5434150 117.9229169  65.0150351  36.3281751 116.9479659
  65.8376420  35.8542230 116.8258549  65.2588414  37.1072235 117.4478345
  63.6558585  39.3570010 107.2442561  64.3766948  39.7351263 106.7406278
  63.0323889  40.0758887 107.3477539  67.7989708  40.0615159 108.1800893
  68.0153323  40.9439797 107.8789721  67.3183775  39.6701372 107.4506535
  62.5388930  43.0200872 114.7571638  62.3933510  43.3341175 115.6495919
  62.0614133  43.6385772 114.2042536  64.3985312  40.0103420 114.8052527
  64.3846881  39.1144513 114.4684825  65.1157741  40.0174084 115.4390813
  66.2511443  40.4440760 116.8505655  65.9929221  41.3657831 116.8489985
  65.7196484  40.0471195 117.5406119  71.1957632  53.5491547 109.6295740
  71.3694509  52.9837970 108.8769592  71.6886523  54.3492442 109.4475230
  57.0134592  45.5606216 117.6959299  56.4688060  46.3366024 117.8279573
  57.8913942  45.9077021 117.5378420  63.8022208  38.8917800 110.0740097
  63.9238120  37.9634447 110.2730985  63.5124251  38.9056486 109.1618413
  66.6713399  36.5772711 113.2106817  66.6935096  36.6412044 112.2558797
  67.0881458  35.7377219 113.4047323  77.0497023  46.3127970 111.2486040
  77.4928169  45.5635296 110.8505163  76.1723533  46.3038107 110.8659772
  72.1832804  52.8658312 106.7292638  72.8783709  53.4865004 106.9479953
  72.5255955  52.0153663 107.0045016  57.8000614  44.6876113 120.5889456
  57.0582350  44.8358748 121.1754086  57.4793358  44.9484378 119.7256205
  74.0824228  50.3158017 108.2579969  74.6075552  50.6545290 107.5329289
  73.9946580  49.3805033 108.0743104  65.7444276  54.2292091 120.3869846
  66.0531403  53.9841238 121.2592545  66.5419758  54.4338729 119.8988716
  65.7664888  56.3830001 112.6175222  65.3269879  55.8906379 113.3108079
  66.5173005  55.8402968 112.3767297  58.2457227  52.5741541 112.6199850
  59.0715247  52.2745313 112.2398494  57.8951279  51.8049164 113.0689639
  63.2138760  51.9268010 114.6897524  62.5918770  51.2638715 114.3899752
  63.8843627  51.9529142 114.0071172  56.4465832  50.4927868 113.5788784
  55.6097741  50.0650042 113.3972785  56.4189478  50.6860311 114.5159575
  73.7718134  50.9490921 123.5631167  72.9813677  50.9315060 123.0235666
  73.5351488  51.4879215 124.3180204  73.8916009  47.7983387 120.8763896
  73.9414014  47.6333395 121.8179418  73.7829932  46.9310646 120.4861776
  62.7752267  50.4771933 108.1655984  62.9240388  51.1607397 107.5122657
  63.5818711  50.4577023 108.6805440  71.1819771  43.7814315 122.1923202
  72.0829634  43.6420780 121.9007200  71.2567746  43.9468770 123.1321380
  65.5162576  41.1581170 121.0376389  64.6465886  41.4514736 120.7658977
  65.7522057  41.7421615 121.7583652  75.3934205  50.2180329 121.1205917
  75.1019014  50.5810309 121.9569378  74.7806337  49.5047337 120.9419249
  76.5929888  47.7833209 113.6408487  77.4276779  48.2223013 113.8046048
  76.7289017  47.3071862 112.8216733  73.6421394  45.3412943 119.5885975
  74.1175515  45.5340590 118.7804826  72.7186959  45.3972129 119.3429359
  60.5304900  46.5037111 109.1717053  60.2850942  45.5999441 109.3697264
  60.7000815  46.5054261 108.2296531  68.2201610  37.3760787 118.5541809
  68.7383554  38.1121814 118.2288298  67.8656743  37.6824780 119.3888568
  59.8000548  42.2365468 106.6703215  59.1069793  42.3109823 106.0143251
  59.5552300  41.4725812 107.1924732  68.4714204  33.7961070 114.0742706
  68.7515958  33.1284259 114.7003132  69.2564811  33.9890165 113.5617369
  66.2747673  52.9720063 105.6367732  65.7021640  53.5910251 105.1838204
  66.8480467  53.5219425 106.1707654  72.3423063  42.2178704 117.8214281
  73.2940486  42.3176801 117.8426505  72.1726513  41.4256972 118.3312365
  70.3637442  39.3034287 118.0073682  69.7687374  39.5839299 117.3120170
  70.0787139  39.7928188 118.7790423  69.4944933  53.2557214 106.7676314
  70.4275606  53.1902775 106.9709190  69.4068145  54.0913480 106.3090847
  72.1232949  52.5723084 103.7280262  72.0446581  52.2382948 104.6216020
  72.9442616  53.0644852 103.7271734  74.8211140  45.4384823 116.9356580
  74.7887461  44.5000824 117.1216264  75.4311764  45.5168860 116.2022405
  66.6594471  44.3080876 102.9783784  67.6053576  44.1787084 103.0472202
  66.2808716  43.5695538 103.4553213  74.9705629  42.2295867 116.9814864
  74.4544678  41.4454323 116.7944792  75.8545577  41.9014583 117.1461383
  72.6316356  35.9736882 112.9410676  72.4341177  35.6651970 113.8254008
  73.2416061  36.6998521 113.0708606  80.6387690  46.5000830 116.0762617
  81.3691079  46.2386118 116.6370320  80.0294636  45.7629552 116.1164685
  78.7202987  44.6408693 116.6737068  77.9936151  44.5064658 116.0653560
  78.3050274  44.9485521 117.4793786  66.5433164  48.3598622 124.4384441
  67.4636173  48.5377221 124.6324488  66.5082747  47.4154668 124.2864141
  64.8437389  42.2330853 102.9138670  63.9368844  41.9363965 102.9901383
  65.1213370  41.9360671 102.0472956  55.7615329  43.5537216 113.3637716
  55.4418113  42.7002524 113.0712090  55.2148757  43.7685794 114.1195683
  59.5395236  46.2699657 117.0807223  59.7581246  47.2016765 117.0995256
  59.9521010  45.9107631 117.8662026  66.4599454  36.7767742 109.0682911
  65.6500183  36.4314827 109.4438157  67.1483871  36.4675286 109.6570522
  68.3890003  35.8545789 110.6907208  68.9421041  36.2741243 111.3497231
  68.6260089  34.9281537 110.7330164  63.6136173  39.0917788 103.0550649
  64.4755337  39.4172686 103.3146466  63.7986517  38.3049284 102.5423715
  55.6303589  47.1740127 115.3330838  54.9367060  46.7594080 114.8200792
  56.3776580  47.2160664 114.7364256  71.7668810  37.9646314 110.1985872
  71.1867479  38.6231118 109.8163924  71.5004742  37.1423659 109.7873289
  70.2172376  37.3651372 112.4007192  70.7172154  37.4767907 111.5921511
  70.8607984  37.0612425 113.0408001  64.2754372  45.2730002 125.2875033
  63.7921454  46.0730362 125.4938922  64.3615311  45.2837946 124.3342477
  57.5440331  47.1058381 113.2096852  57.5211020  47.2046069 112.2578736
  57.8540968  47.9523532 113.5314019  60.2027709  49.1634536 117.3243467
  61.1570963  49.1318479 117.2573398  60.0040233  48.7025160 118.1393693
  60.7927091  47.7335652 119.8914265  61.6119980  48.2279731 119.9149102
  61.0663899  46.8167620 119.8631832  70.5493688  40.1246405 109.2542220
  69.6619543  40.4096055 109.0362415  70.9647677  39.9640168 108.4069497
  73.9008224  40.1492926 112.9696559  74.6768614  40.6389378 113.2421176
  73.1756358  40.5750980 113.4268429  76.3380782  40.8620545 114.0270500
  76.9325273  40.6216281 113.3163808  76.4107366  40.1427675 114.6544036
  58.5577938  54.7054156 114.3413665  58.4232406  53.9454557 113.7751663
  58.1410000  55.4295056 113.8742454  69.6936901  49.8891079 103.3490240
  70.3972751  50.0941082 103.9647896  68.9699550  50.4567841 103.6139324
  70.5234711  45.6400941 109.4692510  70.4669913  46.0969492 108.6300143
  71.0763054  44.8791625 109.2915353  74.3339517  41.4290672 110.2942630
  74.0776452  41.0287308 111.1250837  73.7092385  42.1434466 110.1692769
  78.6451855  44.1686746 112.8013921  78.0851413  44.2379935 113.5745483
  78.0395359  43.9927730 112.0813417  61.7147064  55.6023473 114.5532107
  61.5979448  56.5468905 114.4510798  60.8939510  55.2997034 114.9417907
  71.6023598  50.3273609 105.3988700  72.4369202  49.8954807 105.2166175
  71.4407941  50.1555622 106.3265595  71.2569491  46.8305722 106.7645039
  71.2018294  46.6649993 105.8233484  70.6315546  47.5381755 106.9207229
  56.0462006  42.0673786 120.5906462  56.6920869  41.5572740 121.0793687
  55.8379157  42.8042468 121.1649887  68.5715398  49.1354634 126.0898602
  69.4406557  49.3095286 125.7285237  68.0922149  49.9549051 125.9674332
  64.5665616  36.3313831 106.3430358  64.5544286  37.2755671 106.4998629
  65.4589038  36.1483976 106.0489819  62.7401578  56.2551735 117.7688036
  63.6428825  56.2875345 118.0854531  62.5138948  55.3252186 117.7834372
  64.4955180  55.0082721 114.4298114  63.5450811  55.0084583 114.3162487
  64.7987666  54.2615456 113.9134149  68.3817736  32.9256607 110.5976295
  67.6150131  32.3715094 110.7432977  68.7928441  32.9978476 111.4590446
  80.2307874  60.8443260 115.4943877  80.8686284  60.7250007 114.7907217
  80.1128716  61.7924104 115.5531829  77.0397580  60.7970688 115.4305402
  76.7016091  60.6811752 114.5425936  77.9087348  60.3961853 115.4106408
  72.8984396  62.6506164 111.4202292  72.3349261  62.5596101 110.6518580
  72.7836791  61.8306069 111.9004785  77.5217363  61.9505539 121.3891607
  77.5106004  61.5558338 120.5172111  77.6838002  61.2171612 121.9825379
  70.4448827  64.1457356 114.2586513  71.2370119  63.8048180 113.8432812
  70.6845478  64.2552331 115.1788666  78.4783954  66.3177132 106.7316757
  77.8271934  66.9031212 106.3450771  79.2728317  66.8483327 106.7911795
  72.4039581  63.4066269 107.1303892  73.1770457  62.8595256 106.9916768
  72.7564980  64.2710518 107.3418353  74.2424624  64.7342651 120.3370791
  73.9514490  65.6388282 120.2217457  74.8781608  64.7759179 121.0514861
  75.1680831  62.1119500 116.9272151  75.7644403  61.8875522 116.2129114
  75.2255802  61.3704245 117.5297599  74.7405859  59.5658935 104.7622342
  74.9931380  59.0440456 104.0005805  73.8030418  59.4025081 104.8649025
  79.7849142  58.5694713 112.5697085  80.5712231  58.1514137 112.2187502
  80.0487846  59.4740806 112.7378733  79.9559219  64.0067564 107.2685742
  79.3205052  64.0802190 107.9806646  79.6256626  64.5961163 106.5904821
  85.1857569  58.5069947 113.4730063  85.9182741  57.9369164 113.7067893
  84.4296925  58.1191547 113.9136569  74.4602148  61.4687041 106.9646717
  74.3438406  60.7931944 107.6327801  74.5704408  60.9819415 106.1478870
  76.8033689  60.9297188 110.6693406  76.4391896  60.4027809 111.3806327
  77.6600805  60.5395657 110.4959891  82.7082990  52.2191521 117.9324672
  82.3766314  53.0886932 117.7085887  82.1128603  51.9027805 118.6118702
  76.4439176  55.9587088 105.6654754  76.6113578  56.8267324 106.0325225
  76.2536345  56.1214370 104.7416044  79.2014509  64.4204067 117.3320585
  78.9015232  65.3229106 117.2236392  78.8565569  64.1536250 118.1841738
  72.6526991  60.8717864 113.3657289  71.7277487  60.7394078 113.5734981
  72.9011404  61.6512083 113.8627232  82.6011653  56.9386607 115.0118022
  81.6928530  56.8702015 114.7176783  82.5499249  57.4158552 115.8399848
  76.4228397  58.4144745 106.6501421  76.3028022  58.8601796 107.4886901
  75.7280985  58.7630063 106.0914959  70.0135802  60.5151137 114.2001078
  70.1428183  60.7685616 115.1140490  69.3333253  61.1078845 113.8805733
  74.1835289  71.1848387 110.2991552  74.1059319  72.1356212 110.3780033
  73.5796932  70.8394260 110.9566479  76.6752519  58.3576253 122.9552919
  75.8985853  58.9170173 122.9455784  77.3143082  58.8433036 123.4767789
  84.4673299  55.1403045 116.7895896  83.8247680  55.4335579 116.1435691
  83.9628228  55.0255966 117.5949093  82.1213463  58.8866219 107.4781755
  83.0331319  59.1193605 107.3029453  81.6123110  59.4703263 106.9156834
  74.9298891  61.1661706 122.5170886  75.6713575  61.7046750 122.2405710
  74.2235876  61.7927995 122.6742438  80.4054231  63.3090846 121.1143048
  80.8137587  62.8673257 120.3697680  79.6831492  62.7343474 121.3677241
  76.7585301  58.2463453 118.4876605  77.6046496  58.6702867 118.6311254
  76.6983938  57.5897077 119.1815168  80.7283045  63.8692037 114.8695337
  80.0991908  64.0337751 114.1671405  80.3408707  64.2833647 115.6406301
  84.6072277  64.8046475 112.2239700  83.9223315  65.1845376 111.6736734
  84.6916126  65.4141802 112.9571648  79.9084746  55.9067822 120.1457778
  79.6645678  56.6609882 119.6092054  80.1844676  56.2853169 120.9805025
  81.8623209  62.4506434 118.8235044  82.0740104  63.0938194 118.1469425
  81.8152957  61.6168750 118.3556974  79.4649438  55.0624255 115.7271616
  78.6033917  55.3605508 116.0188354  79.4911872  55.2794653 114.7952649
  76.2811007  63.6066445 112.1345422  76.7449353  63.8854148 111.3450044
  76.0167805  62.7049890 111.9518512  73.1735088  63.1537927 115.0725185
  73.7436445  63.5825195 114.4342670  73.7643200  62.8720511 115.7709371
  75.2179893  59.7289597 108.9434987  75.9203937  60.1810641 109.4108913
  74.8860522  59.0873416 109.5714880  73.6660255  58.3201354 123.3186196
  73.0358915  59.0017635 123.5521593  73.5596343  58.2084436 122.3739335
  68.9605227  57.9873150 114.2452121  68.1704281  58.2430679 113.7692231
  69.4516475  58.8021488 114.3504161  82.9769037  65.3278389 116.9957401
  83.7986480  64.9258577 116.7140083  82.9731440  65.2246623 117.9473517
  70.9119973  58.3517729 111.2035597  70.1151136  58.4636424 111.7219093
  70.6845565  58.6904382 110.3376488  76.7425640  64.8762433 119.1518112
  76.8070073  65.3382840 119.9876284  76.0336564  64.2459798 119.2800422
  67.2442930  58.2403641 116.6767111  67.4950969  59.1250651 116.9424687
  67.7802479  58.0608242 115.9042203  91.0675030  61.6717138 113.3442373
  90.3138738  61.1024536 113.1886377  91.2022571  61.6379802 114.2913008
  76.4573658  66.5430540 109.0197092  76.3219333  67.3882076 109.4481940
  76.9983470  66.7449818 108.2563026  72.9440997  52.6222120 125.6811447
  72.5507943  52.0688319 126.3559092  73.7607138  52.9332698 126.0717965
  69.9103055  64.0605978 109.5925017  70.4227576  64.8549228 109.7430582
  70.5625768  63.3632269 109.5258619  71.7197940  67.1771734 111.6747770
  71.8964568  68.0989699 111.4868754  72.5154773  66.8630154 112.1042150
  75.8608958  54.0379999 123.2731704  76.6018672  54.6387152 123.1936166
  76.0926881  53.2957637 122.7149747  71.0050296  59.2236366 121.5509934
  70.8903812  58.3221624 121.8517033  70.1494814  59.4700063 121.1994750
  78.0842134  67.1654107 123.1497434  77.6405988  66.3790485 122.8318339
  78.7459348  67.3533257 122.4841325  72.8429255  68.6949908 117.6758113
  73.3936680  68.5666972 116.9035107  72.0040731  68.9944797 117.3253006
  80.1823372  67.4456907 121.1778836  80.1641848  68.2665788 120.6859105
  81.1043292  67.3210982 121.4028977  76.6396426  64.9601036 122.0202344
  77.1724763  64.1989324 121.7901652  76.1110507  64.6674688 122.7626498
  79.8066121  50.0661102 117.5495986  79.4630391  50.9562744 117.4735096
  80.1745084  49.8762760 116.6865571  67.8751972  62.3894632 110.3684588
  68.7127194  62.7991641 110.1518295  68.0530240  61.4494075 110.3384782
  79.7716404  60.0569713 106.0568421  79.2563028  60.8274318 106.2956808
  79.4993713  59.3834849 106.6801482  77.3563515  54.9019414 111.1153659
  76.5005111  54.5126264 110.9359298  77.7690467  54.9811375 110.2553445
  78.8862662  52.4365757 115.5145219  78.3827457  52.3995892 114.7013024
  79.1793269  53.3458500 115.5741876  75.1305548  52.5204487 114.5211401
  75.9958544  52.3247296 114.1617290  75.1983057  52.2914839 115.4480757
  84.7450678  62.8102068 107.9921594  83.9680121  62.4713227 107.5476756
  85.4242159  62.8154691 107.3176559  79.5602707  57.9296805 107.8828202
  79.2552843  58.2442954 108.7338345  80.5133149  58.0078225 107.9255535
  78.0049139  64.0887029 109.5321156  77.4770501  63.3539788 109.2194393
  77.5036642  64.8661705 109.2861124  82.9841985  62.2836049 114.6488202
  82.3265660  62.9735310 114.7368331  83.7882384  62.6732481 114.9922189
  72.7367867  54.7506695 111.8927767  73.3111619  54.5281876 111.1600960
  73.3238849  54.8195389 112.6456369  81.7947444  60.6380422 112.6992144
  82.3079326  61.2710414 113.2013854  82.4448668  60.0381617 112.3335504
  73.0637454  56.7811156 105.9123653  72.2274766  57.1185842 106.2332927
  72.9242223  56.6460136 104.9750790  75.0390534  51.6247944 110.6202837
  74.3854947  51.3096961 109.9959452  74.9971009  51.0023684 111.3462660
  76.1501739  61.9067239 102.5356129  75.2428801  61.6756492 102.7347278
  76.6472771  61.1104858 102.7230110  79.0569818  70.6164746 105.4552815
  78.3831517  70.9196443 106.0637773  79.4435640  71.4193826 105.1058272
  78.2728275  58.1129877 114.9450484  77.3550836  58.3344824 114.7872173
  78.6888418  58.1876188 114.0862192  79.0563323  59.5121293 110.0753165
  79.8035141  60.0242690 109.7660287  79.3254912  59.1905346 110.9357558
  77.3289973  62.0079834 107.0580119  76.4201192  61.7238866 107.1552589
  77.3585057  62.4278912 106.1983426  82.5609240  65.6186423 110.8271287
  82.1071567  64.7777333 110.8836477  81.9303207  66.2547822 111.1646067
  81.5042160  56.5478409 112.0571954  80.7664916  56.0355795 112.3882197
  81.7568933  56.1078791 111.2455231  81.0042179  67.4562920 111.7621105
  81.2965154  68.0167977 111.0433470  81.5140800  67.7491481 112.5174264
  81.6053787  49.3254661 112.6513723  81.9112664  48.4652025 112.3639638
  82.3306392  49.9172281 112.4512717  67.8978143  59.7285348 111.0395321
  67.7002543  59.1354708 110.3146388  67.3424807  59.4237558 111.7571260
  75.8774867  59.6208454 113.1589914  75.9323477  58.6682291 113.0832391
  75.0666069  59.7767893 113.6431213  77.0266061  63.5488577 104.3968198
  76.5885490  62.8324436 103.9373835  77.7676501  63.7764692 103.8353289
  73.8167227  58.2385514 110.9180293  73.0035092  58.5379685 111.3245485
  74.3126221  57.8441203 111.6354775  75.9675805  68.2343271 112.8514558
  75.9251983  68.4604117 111.9223090  76.8838503  68.0006645 113.0000359
  79.4141438  58.7027338 119.7495187  79.7690826  58.9298812 120.6089653
  80.0613570  59.0345715 119.1272442  85.1439175  61.8245774 110.4544516
  85.0057074  62.0147370 109.5265705  84.7875394  62.5865157 110.9112567
  73.3081301  55.8103870 116.5341528  73.9480681  55.6692629 115.8364492
  72.4758832  55.5238383 116.1580130  85.1708555  63.8922301 115.4655788
  85.6045062  63.7997590 116.3138842  85.8840136  63.8679802 114.8275804
  74.0841605  65.1106300 112.6476521  74.8782204  64.6156620 112.4459096
  73.3733298  64.5824163 112.2844226  78.9036450  67.4924395 116.9988888
  78.9573472  68.0615332 117.7666604  78.0351231  67.6626280 116.6342925
  70.3924369  59.2549382 108.7236273  69.4621957  59.1933837 108.9406235
  70.4881841  58.7325334 107.9272915  70.3109918  55.7804194 111.3114515
  70.5716735  56.6949528 111.2023675  71.1327090  55.3128637 111.4611128
  71.7834843  57.1941952 118.4813340  72.4557897  56.9859314 117.8325988
  70.9564630  56.9964038 118.0418572  86.0324104  63.9346002 117.9988673
  86.2259995  64.8391813 118.2447948  85.9324723  63.4753421 118.8327258
  77.6860415  53.8203893 120.4979000  77.0388330  54.5193842 120.4043477
  78.4561431  54.2540037 120.8655249  81.0939213  64.0852745 123.5729554
  80.9424720  63.8563296 122.6559637  81.0843893  65.0423346 123.5860899
  77.8624550  61.6584657 118.5575820  78.7916610  61.8095817 118.3844787
  77.4415580  61.7468678 117.7024467  76.6612881  65.6835322 116.3274358
  76.5223967  65.3154106 117.2000296  75.8727478  66.1982961 116.1558316
  77.2561033  70.7844418 107.6699894  77.4312789  70.3132462 108.4845517
  76.5693821  71.4110185 107.8981155  78.2118096  65.0616925 113.7163196
  77.8767929  65.0217695 114.6120845  77.7122042  64.3961641 113.2433606
  72.1862340  60.4684555 119.2415777  72.0482138  59.7364793 119.8427316
  73.0967264  60.3793455 118.9599964  81.1477288  62.4072959 103.9900255
  80.5306459  61.6819787 103.8933308  80.6793777  63.1682319 103.6467329
  74.8144641  60.1804514 118.7299456  75.5244260  59.5397706 118.6886075
  74.7713949  60.4317409 119.6525637  82.8031420  67.1171867 121.6506036
  82.7443966  66.4331087 120.9836619  83.2050938  67.8590857 121.1986662
  73.5273575  57.1669732 120.5495096  72.9910932  56.7160470 121.2016692
  72.9390284  57.3015641 119.8065560  71.8222119  73.9333781 114.4439754
  72.0618717  74.5652305 115.1218773  70.9791315  73.5821821 114.7305114
  72.9375834  56.6258383 103.1121559  72.0605300  56.5047184 102.7483806
  73.4133587  55.8344462 102.8600448  82.8048827  65.0811451 119.8820015
  81.9175606  64.7437373 120.0046414  83.3747378  64.3494482 120.1188781
  64.4577974  61.4135543 113.2063067  65.1449014  61.0997273 112.6184082
  64.3026103  62.3176908 112.9330318  69.2612696  56.3025740 117.6348090
  69.1770885  55.6951409 116.8998500  68.4395403  56.7934758 117.6357587
  76.3349980  69.7412904 116.8481258  76.2620152  70.5467875 117.3600563
  75.8927374  69.9404869 116.0229280  76.1239760  68.9784674 110.3584080
  75.3407282  69.5206354 110.4522304  76.8232505  69.4958653 110.7578321
  79.4336410  54.7879303 113.0018285  79.9305110  54.0349265 112.6819356
  78.6623392  54.8243620 112.4361495  87.2866168  60.4919669 114.6436577
  87.2756044  61.3744384 114.2730510  86.4183547  60.1391219 114.4491114
  78.7948664  69.6399738 119.0039417  79.5076636  70.2747202 118.9315319
  78.3038693  69.7363604 118.1879419  80.5166191  63.5450990 110.5756709
  79.5822470  63.6652453 110.4061413  80.6942859  62.6423457 110.3116719
  76.0171379  56.9296686 112.7289970  75.6469166  56.3767726 113.4170876
  76.5130471  56.3254820 112.1764970  83.9038742  59.3868310 111.1106743
  84.3699194  60.2196301 111.0367046  84.3546243  58.9213291 111.8152001
  73.8460578  67.3894181 119.8244988  74.5470037  68.0230664 119.9774382
  73.3755693  67.7308913 119.0640627  81.9714973  65.7312131 108.1092895
  82.2474817  65.6168725 109.0186769  81.1019472  65.3329616 108.0705068
  81.8755405  51.7548897 115.1497644  80.9618485  51.9853123 115.3179851
  82.3048506  51.8387341 116.0011677  81.6461863  59.9438789 117.6497538
  80.9933314  60.1914696 116.9949991  82.0242243  59.1302927 117.3160016
  78.6069037  69.9798482 111.7525709  78.7891432  69.1620138 112.2153461
  79.4302023  70.1966174 111.3150599  78.9411203  68.9066667 109.0140757
  79.4698969  68.3959121 108.4010919  79.2039422  68.5909197 109.8786290
  77.6949437  60.6858600 124.1363575  77.0190074  60.5852729 124.8065951
  78.5177070  60.5297813 124.5999573  69.4428296  66.9230536 116.7576091
  70.0281732  66.1774224 116.8903995  69.2453134  67.2334493 117.6412754
  72.2966951  69.9581784 111.7738533  71.6277326  70.4427911 111.2902573
  72.1579820  70.2051004 112.6881912  64.0345950  59.4936136 115.4780534
  64.0730050  58.9599727 116.2717652  63.5286243  58.9671342 114.8591511
  76.4372219  71.9925527 118.3721191  76.9890527  72.1557149 119.1370277
  76.7778413  72.5829965 117.7001216  71.4136713  54.3400677 118.9743076
  71.4778039  55.2015508 118.5620474  71.3503833  53.7274678 118.2415435
  70.8888985  56.4123809 122.6216110  71.5161024  56.0300887 123.2353635
  70.0316904  56.1938011 122.9871803  67.6654528  58.2200238 108.5534465
  67.9607969  57.3110917 108.5001519  66.7642564  58.1987978 108.2315467
  79.5740607  69.9407503 115.3584874  79.4491746  69.1397242 114.8495819
  80.2319698  70.4353696 114.8698843  71.1948775  56.2956235 114.5362014
  70.4735361  56.9092203 114.3969487  71.9842031  56.8314000 114.4578660
  81.6375515  67.7416523 116.9864424  80.6905851  67.6221874 116.9142750
  81.9858288  66.8539021 117.0690685  73.9975088  53.6310662 120.8102665
  74.5209490  53.8772958 121.5728975  73.7787422  54.4630696 120.3905803
  69.3942369  55.9014336 108.6773790  69.0655076  55.0211715 108.4948896
  69.7481740  55.8462005 109.5650180  78.6421948  67.5369239 113.1868776
  78.4946911  66.6085946 113.3676346  79.4675442  67.5589330 112.7025851
  72.5084193  56.1887306 109.0449268  72.8480265  56.7173227 108.3227876
  72.9556313  56.5267712 109.8207835  82.2456070  68.3597798 114.2733649
  83.1702618  68.1540659 114.1358100  82.0771374  68.1114199 115.1822990
  75.2027633  54.5724357 118.4952336  74.8624454  53.7732170 118.8973016
  74.4966640  54.8726068 117.9229169  75.8544105  51.6573669 116.9479659
  76.6770175  51.1834147 116.8258549  76.0982169  52.4364153 117.4478345
  74.4952340  54.6861928 107.2442561  75.2160702  55.0643180 106.7406278
  73.8717644  55.4050804 107.3477539  78.6383463  55.3907077 108.1800893
  78.8547077  56.2731714 107.8789721  78.1577530  54.9993290 107.4506535
  73.3782684  58.3492790 114.7571638  73.2327265  58.6633093 115.6495919
  72.9007888  58.9677690 114.2042536  75.2379067  55.3395338 114.8052527
  75.2240636  54.4436431 114.4684825  75.9551495  55.3466001 115.4390813
  77.0905198  55.7732678 116.8505655  76.8322975  56.6949749 116.8489985
  76.5590238  55.3763112 117.5406119  82.0351386  68.8783465 109.6295740
  82.2088264  68.3129888 108.8769592  82.5280278  69.6784360 109.4475230
  67.8528346  60.8898134 117.6959299  67.3081814  61.6657942 117.8279573
  68.7307696  61.2368939 117.5378420  74.6415963  54.2209718 110.0740097
  74.7631874  53.2926364 110.2730985  74.3518005  54.2348404 109.1618413
  77.5107153  51.9064628 113.2106817  77.5328850  51.9703962 112.2558797
  77.9275212  51.0669137 113.4047323  87.8890778  61.6419888 111.2486040
  88.3321924  60.8927213 110.8505163  87.0117288  61.6330024 110.8659772
  83.0226559  68.1950229 106.7292638  83.7177464  68.8156922 106.9479953
  83.3649709  67.3445581 107.0045016  68.6394368  60.0168030 120.5889456
  67.8976104  60.1650666 121.1754086  68.3187112  60.2776296 119.7256205
  84.9217982  65.6449935 108.2579969  85.4469306  65.9837208 107.5329289
  84.8340335  64.7096950 108.0743104  76.5838031  69.5584009 120.3869846
  76.8925157  69.3133155 121.2592545  77.3813513  69.7630647 119.8988716
  76.6058643  71.7121918 112.6175222  76.1663633  71.2198297 113.3108079
  77.3566760  71.1694886 112.3767297  69.0850982  67.9033459 112.6199850
  69.9109002  67.6037231 112.2398494  68.7345034  67.1341082 113.0689639
  74.0532515  67.2559927 114.6897524  73.4312524  66.5930632 114.3899752
  74.7237382  67.2821059 114.0071172  67.2859587  65.8219786 113.5788784
  66.4491495  65.3941960 113.3972785  67.2583232  66.0152229 114.5159575
  74.1257042  55.7341715 124.2830030  74.1745198  56.6103838 123.9007800
  74.6679557  55.1919108 123.7101673  84.7309763  63.1275305 120.8763896
  84.7807768  62.9625312 121.8179418  84.6223686  62.2602564 120.4861776
  73.6146022  65.8063851 108.1655984  73.7634142  66.4899315 107.5122657
  74.4212465  65.7868941 108.6805440  82.0213526  59.1106233 122.1923202
  82.9223388  58.9712698 121.9007200  82.0961500  59.2760688 123.1321380
  76.3556331  56.4873088 121.0376389  75.4859640  56.7806654 120.7658977
  76.5915811  57.0713533 121.7583652  86.2327960  65.5472247 121.1205917
  85.9412768  65.9102227 121.9569378  85.6200091  64.8339255 120.9419249
  87.4323642  63.1125126 113.6408487  88.2670534  63.5514930 113.8046048
  87.5682771  62.6363780 112.8216733  84.4815148  60.6704861 119.5885975
  84.9569270  60.8632507 118.7804826  83.5580714  60.7264047 119.3429359
  71.3698655  61.8329028 109.1717053  71.1244697  60.9291358 109.3697264
  71.5394569  61.8346179 108.2296531  79.0595365  52.7052705 118.5541809
  79.5777309  53.4413732 118.2288298  78.7050497  53.0116698 119.3888568
  70.6394302  57.5657386 106.6703215  69.9463547  57.6401741 106.0143251
  70.3946054  56.8017730 107.1924732  79.3107959  49.1252987 114.0742706
  79.5909713  48.4576176 114.7003132  80.0958566  49.3182083 113.5617369
  77.1141427  68.3011981 105.6367732  76.5415394  68.9202168 105.1838204
  77.6874221  68.8511343 106.1707654  83.1816817  57.5470621 117.8214281
  84.1334240  57.6468719 117.8426505  83.0120268  56.7548890 118.3312365
  81.2031197  54.6326204 118.0073682  80.6081129  54.9131217 117.3120170
  80.9180893  55.1220105 118.7790423  80.3338687  68.5849131 106.7676314
  81.2669360  68.5194693 106.9709190  80.2461900  69.4205398 106.3090847
  82.9626704  67.9015002 103.7280262  82.8840335  67.5674865 104.6216020
  83.7836371  68.3936770 103.7271734  85.6604895  60.7676741 116.9356580
  85.6281215  59.8292742 117.1216264  86.2705519  60.8460778 116.2022405
  77.4988226  59.6372794 102.9783784  78.4447331  59.5079002 103.0472202
  77.1202471  58.8987456 103.4553213  85.8099383  57.5587784 116.9814864
  85.2938432  56.7746241 116.7944792  86.6939332  57.2306501 117.1461383
  83.4710110  51.3028800 112.9410676  83.2734932  50.9943888 113.8254008
  84.0809816  52.0290439 113.0708606  91.4781445  61.8292748 116.0762617
  92.2084833  61.5678036 116.6370320  90.8688390  61.0921470 116.1164685
  89.5596742  59.9700610 116.6737068  88.8329906  59.8356575 116.0653560
  89.1444029  60.2777439 117.4793786  77.3826918  63.6890540 124.4384441
  78.3029928  63.8669139 124.6324488  77.3476501  62.7446585 124.2864141
  75.6831143  57.5622770 102.9138670  74.7762598  57.2655883 102.9901383
  75.9607124  57.2652588 102.0472956  66.6009083  58.8829134 113.3637716
  66.2811868  58.0294442 113.0712090  66.0542512  59.0977712 114.1195683
  70.3788991  61.5991575 117.0807223  70.5975001  62.5308682 117.0995256
  70.7914765  61.2399549 117.8662026  77.2993209  52.1059660 109.0682911
  76.4893937  51.7606745 109.4438157  77.9877626  51.7967204 109.6570522
  79.2283757  51.1837707 110.6907208  79.7814796  51.6033160 111.3497231
  79.4653843  50.2573455 110.7330164  75.2516856  57.1724780 126.4709971
  75.1513583  58.1219137 126.4022063  75.0338398  56.8443019 125.5986042
  74.4529928  54.4209705 103.0550649  75.3149092  54.7464604 103.3146466
  74.6380272  53.6341201 102.5423715  66.4697343  62.5032045 115.3330838
  65.7760815  62.0885998 114.8200792  67.2170334  62.5452582 114.7364256
  82.6062564  53.2938232 110.1985872  82.0261233  53.9523036 109.8163924
  82.3398497  52.4715577 109.7873289  81.0566130  52.6943290 112.4007192
  81.5565909  52.8059824 111.5921511  81.7001738  52.3904343 113.0408001
  75.1148126  60.6021919 125.2875033  74.6315208  61.4022279 125.4938922
  75.2009065  60.6129864 124.3342477  68.3834086  62.4350299 113.2096852
  68.3604774  62.5337986 112.2578736  68.6934722  63.2815450 113.5314019
  71.0421464  64.4926454 117.3243467  71.9964717  64.4610396 117.2573398
  70.8433987  64.0317078 118.1393693  71.6320846  63.0627570 119.8914265
  72.4513735  63.5571649 119.9149102  71.9057654  62.1459538 119.8631832
  81.3887442  55.4538322 109.2542220  80.5013297  55.7387973 109.0362415
  81.8041431  55.2932086 108.4069497  84.7401978  55.4784843 112.9696559
  85.5162368  55.9681296 113.2421176  84.0150112  55.9042898 113.4268429
  87.1774537  56.1912463 114.0270500  87.7719028  55.9508198 113.3163808
  87.2501121  55.4719593 114.6544036  69.3971693  70.0346073 114.3413665
  69.2626160  69.2746474 113.7751663  68.9803755  70.7586973 113.8742454
  80.5330656  65.2182997 103.3490240  81.2366506  65.4233000 103.9647896
  79.8093304  65.7859759 103.6139324  81.3628466  60.9692858 109.4692510
  81.3063667  61.4261410 108.6300143  81.9156808  60.2083543 109.2915353
  85.1733272  56.7582590 110.2942630  84.9170206  56.3579226 111.1250837
  84.5486140  57.4726384 110.1692769  89.4845610  59.4978663 112.8013921
  88.9245168  59.5671853 113.5745483  88.8789113  59.3219648 112.0813417
  72.5540818  70.9315391 114.5532107  72.4373203  71.8760823 114.4510798
  71.7333265  70.6288952 114.9417907  82.4417353  65.6565526 105.3988700
  83.2762957  65.2246725 105.2166175  82.2801696  65.4847540 106.3265595
  82.0963245  62.1597640 106.7645039  82.0412049  61.9941911 105.8233484
  81.4709300  62.8673672 106.9207229  66.8855760  57.3965704 120.5906462
  67.5314624  56.8864658 121.0793687  66.6772911  58.1334386 121.1649887
  75.4059371  51.6605749 106.3430358  75.3938040  52.6047588 106.4998629
  76.2982792  51.4775894 106.0489819  73.5795333  71.5843652 117.7688036
  74.4822579  71.6167263 118.0854531  73.3532703  70.6544103 117.7834372
  75.3348935  70.3374639 114.4298114  74.3844566  70.3376501 114.3162487
  75.6381421  69.5907374 113.9134149  79.2211490  48.2548525 110.5976295
  78.4543886  47.7007012 110.7432977  79.6322195  48.3270394 111.4590446
  71.2253251  54.5433321 124.6881476  72.0884713  54.1870126 124.8984800
  70.6518662  54.2047216 125.3756880  83.7378150  77.9798082 111.4202292
  83.1743015  77.8888019 110.6518580  83.6230545  77.1597986 111.9004785
  81.2842582  79.4749273 114.2586513  82.0763874  79.1340098 113.8432812
  81.5239232  79.5844248 115.1788666  89.3177709  81.6469050 106.7316757
  88.6665689  82.2323130 106.3450771  90.1122072  82.1775244 106.7911795
  83.2433336  78.7358187 107.1303892  84.0164212  78.1887174 106.9916768
  83.5958735  79.6002436 107.3418353  85.5799614  74.8950853 104.7622342
  85.8325134  74.3732374 104.0005805  84.6424173  74.7316998 104.8649025
  90.6242897  73.8986631 112.5697085  91.4105986  73.4806054 112.2187502
  90.8881601  74.8032723 112.7378733  90.7952974  79.3359481 107.2685742
  90.1598807  79.4094108 107.9806646  90.4650380  79.9253080 106.5904821
  85.2995902  76.7978959 106.9646717  85.1832161  76.1223862 107.6327801
  85.4098162  76.3111333 106.1478870  87.6427443  76.2589106 110.6693406
  87.2785651  75.7319727 111.3806327  88.4994559  75.8687575 110.4959891
  87.2832930  71.2879006 105.6654754  87.4507333  72.1559242 106.0325225
  87.0930099  71.4506287 104.7416044  83.4920745  76.2009781 113.3657289
  82.5671242  76.0685995 113.5734981  83.7405158  76.9804001 113.8627232
  87.2622151  73.7436663 106.6501421  87.1421776  74.1893714 107.4886901
  86.5674740  74.0921981 106.0914959  80.8529556  75.8443055 114.2001078
  80.9821937  76.0977534 115.1140490  80.1727007  76.4370763 113.8805733
  92.9607217  74.2158136 107.4781755  93.8725074  74.4485523 107.3029453
  92.4516864  74.7995180 106.9156834  90.3043192  70.3916172 115.7271616
  89.4427671  70.6897426 116.0188354  90.3305627  70.6086571 114.7952649
  87.1204762  78.9358363 112.1345422  87.5843107  79.2146066 111.3450044
  86.8561560  78.0341807 111.9518512  86.0573648  75.0581515 108.9434987
  86.7597691  75.5102559 109.4108913  85.7254276  74.4165334 109.5714880
  79.7998982  73.3165068 114.2452121  79.0098036  73.5722596 113.7692231
  80.2910229  74.1313406 114.3504161  81.7513727  73.6809647 111.2035597
  80.9544890  73.7928341 111.7219093  81.5239319  74.0196299 110.3376488
  78.0836685  73.5695558 116.6767111  78.3344723  74.4542568 116.9424687
  78.6196233  73.3900160 115.9042203  87.2967412  81.8722458 109.0197092
  87.1613087  82.7173994 109.4481940  87.8377225  82.0741735 108.2563026
  80.7496810  79.3897896 109.5925017  81.2621330  80.1841146 109.7430582
  81.4019523  78.6924186 109.5258619  82.5591694  82.5063652 111.6747770
  82.7358323  83.4281617 111.4868754  83.3548528  82.1922071 112.1042150
  90.6459876  65.3953020 117.5495986  90.3024145  66.2854661 117.4735096
  91.0138838  65.2054677 116.6865571  78.7145726  77.7186550 110.3684588
  79.5520948  78.1283558 110.1518295  78.8923994  76.7785992 110.3384782
  90.6110159  75.3861631 106.0568421  90.0956782  76.1566235 106.2956808
  90.3387467  74.7126767 106.6801482  88.1957270  70.2311332 111.1153659
  87.3398866  69.8418182 110.9359298  88.6084221  70.3103292 110.2553445
  89.7256416  67.7657675 115.5145219  89.2221212  67.7287810 114.7013024
  90.0187023  68.6750418 115.5741876  85.9699302  67.8496405 114.5211401
  86.8352299  67.6539213 114.1617290  86.0376811  67.6206756 115.4480757
  95.5844433  78.1393985 107.9921594  94.8073875  77.8005145 107.5476756
  96.2635914  78.1446609 107.3176559  90.3996462  73.2588723 107.8828202
  90.0946597  73.5734872 108.7338345  91.3526904  73.3370143 107.9255535
  88.8442894  79.4178946 109.5321156  88.3164255  78.6831706 109.2194393
  88.3430396  80.1953623 109.2861124  83.5761621  70.0798612 111.8927767
  84.1505373  69.8573794 111.1600960  84.1632604  70.1487307 112.6456369
  83.9031208  72.1103073 105.9123653  83.0668521  72.4477760 106.2332927
  83.7635978  71.9752053 104.9750790  85.8784289  66.9539861 110.6202837
  85.2248701  66.6388879 109.9959452  85.8364763  66.3315602 111.3462660
  86.9895494  77.2359156 102.5356129  86.0822556  77.0048410 102.7347278
  87.4866526  76.4396776 102.7230110  89.8963573  85.9456664 105.4552815
  89.2225271  86.2488360 106.0637773  90.2829395  86.7485744 105.1058272
  89.1122029  73.4421795 114.9450484  88.1944591  73.6636742 114.7872173
  89.5282173  73.5168105 114.0862192  89.8957077  74.8413211 110.0753165
  90.6428896  75.3534608 109.7660287  90.1648667  74.5197263 110.9357558
  88.1683727  77.3371751 107.0580119  87.2594946  77.0530784 107.1552589
  88.1978811  77.7570830 106.1983426  92.3435914  71.8770327 112.0571954
  91.6058671  71.3647713 112.3882197  92.5962688  71.4370708 111.2455231
  92.4447542  64.6546579 112.6513723  92.7506418  63.7943942 112.3639638
  93.1700146  65.2464199 112.4512717  78.7371898  75.0577265 111.0395321
  78.5396297  74.4646626 110.3146388  78.1818562  74.7529476 111.7571260
  86.7168621  74.9500372 113.1589914  86.7717231  73.9974208 113.0832391
  85.9059823  75.1059811 113.6431213  87.8659815  78.8780495 104.3968198
  87.4279245  78.1616354 103.9373835  88.6070256  79.1056610 103.8353289
  84.6560981  73.5677432 110.9180293  83.8428847  73.8671602 111.3245485
  85.1519975  73.1733120 111.6354775  95.9832930  77.1537692 110.4544516
  95.8450828  77.3439288 109.5265705  95.6269149  77.9157075 110.9112567
  84.1475056  71.1395787 116.5341528  84.7874435  70.9984546 115.8364492
  83.3152586  70.8530301 116.1580130  84.9235360  80.4398218 112.6476521
  85.7175958  79.9448538 112.4459096  84.2127052  79.9116081 112.2844226
  81.2318123  74.5841299 108.7236273  80.3015711  74.5225755 108.9406235
  81.3275595  74.0617252 107.9272915  81.1503672  71.1096112 111.3114515
  81.4110490  72.0241445 111.2023675  81.9720845  70.6420555 111.4611128
  82.6228598  72.5233869 118.4813340  83.2951651  72.3151231 117.8325988
  81.7958384  72.3255955 118.0418572  88.0954788  86.1136336 107.6699894
  88.2706543  85.6424379 108.4845517  87.4087576  86.7402102 107.8981155
  91.9871043  77.7364877 103.9900255  91.3700213  77.0111705 103.8933308
  91.5187531  78.4974237 103.6467329  83.7769589  71.9550301 103.1121559
  82.8999055  71.8339102 102.7483806  84.2527342  71.1636379 102.8600448
  75.2971729  76.7427461 113.2063067  75.9842769  76.4289191 112.6184082
  75.1419857  77.6468825 112.9330318  80.1006451  71.6317657 117.6348090
  80.0164640  71.0243327 116.8998500  79.2789157  72.1226676 117.6357587
  90.2730165  70.1171221 113.0018285  90.7698864  69.3641183 112.6819356
  89.5017146  70.1535537 112.4361495  91.3559945  78.8742908 110.5756709
  90.4216224  78.9944370 110.4061413  91.5336614  77.9715375 110.3116719
  86.8565133  72.2588604 112.7289970  86.4862921  71.7059644 113.4170876
  87.3524226  71.6546737 112.1764970  94.7432497  74.7160227 111.1106743
  95.2092949  75.5488219 111.0367046  95.1939997  74.2505209 111.8152001
  92.8108728  81.0604049 108.1092895  93.0868572  80.9460643 109.0186769
  91.9413227  80.6621533 108.0705068  92.7149159  67.0840814 115.1497644
  91.8012239  67.3145041 115.3179851  93.1442261  67.1679258 116.0011677
  89.7804957  84.2358585 109.0140757  90.3092724  83.7251039 108.4010919
  90.0433177  83.9201115 109.8786290  74.8739705  74.8228054 115.4780534
  74.9123804  74.2891645 116.2717652  74.3679998  74.2963260 114.8591511
  82.2530467  69.6692595 118.9743076  82.3171794  70.5307425 118.5620474
  82.1897587  69.0566596 118.2415435  78.5048282  73.5492156 108.5534465
  78.8001723  72.6402835 108.5001519  77.6036318  73.5279896 108.2315467
  82.0342529  71.6248153 114.5362014  81.3129115  72.2384120 114.3969487
  82.8235785  72.1605918 114.4578660  80.2336124  71.2306254 108.6773790
  79.9048830  70.3503633 108.4948896  80.5875495  71.1753923 109.5650180
  83.3477947  71.5179224 109.0449268  83.6874020  72.0465145 108.3227876
  83.7950068  71.8559630 109.8207835  86.0421388  69.9016274 118.4952336
  85.7018208  69.1024087 118.8973016  85.3360394  70.2017985 117.9229169
  86.6937860  66.9865587 116.9479659  87.5163929  66.5126065 116.8258549
  86.9375923  67.7656071 117.4478345  85.3346094  70.0153845 107.2442561
  86.0554457  70.3935098 106.7406278  84.7111398  70.7342722 107.3477539
  89.4777217  70.7198994 108.1800893  89.6940832  71.6023632 107.8789721
  88.9971284  70.3285208 107.4506535  84.2176439  73.6784707 114.7571638
  84.0721019  73.9925010 115.6495919  83.7401642  74.2969608 114.2042536
  86.0772821  70.6687255 114.8052527  86.0634390  69.7728349 114.4684825
  86.7945250  70.6757919 115.4390813  87.9298952  71.1024596 116.8505655
  87.6716730  72.0241666 116.8489985  87.3983993  70.7055030 117.5406119
  78.6922101  76.2190052 117.6959299  78.1475569  76.9949860 117.8279573
  79.5701451  76.5660856 117.5378420  85.4809717  69.5501636 110.0740097
  85.6025629  68.6218282 110.2730985  85.1911760  69.5640322 109.1618413
  88.3500908  67.2356546 113.2106817  88.3722605  67.2995879 112.2558797
  88.7668967  66.3961055 113.4047323  93.8620313  83.5242147 106.7292638
  94.5571218  84.1448840 106.9479953  94.2043464  82.6737498 107.0045016
  95.7611736  80.9741853 108.2579969  96.2863061  81.3129125 107.5329289
  95.6734089  80.0388868 108.0743104  79.9244736  83.2325377 112.6199850
  80.7502756  82.9329149 112.2398494  79.5738788  82.4632999 113.0689639
  78.1253341  81.1511703 113.5788784  77.2885250  80.7233878 113.3972785
  78.0976987  81.3444147 114.5159575  84.4539776  81.1355768 108.1655984
  84.6027897  81.8191233 107.5122657  85.2606220  81.1160858 108.6805440
  82.2092409  77.1620946 109.1717053  81.9638451  76.2583276 109.3697264
  82.3788324  77.1638096 108.2296531  81.4788057  72.8949304 106.6703215
  80.7857302  72.9693659 106.0143251  81.2339809  72.1309647 107.1924732
  90.1501713  64.4544905 114.0742706  90.4303467  63.7868094 114.7003132
  90.9352320  64.6474001 113.5617369  87.9535182  83.6303899 105.6367732
  87.3809149  84.2494086 105.1838204  88.5267976  84.1803261 106.1707654
  91.1732442  83.9141049 106.7676314  92.1063115  83.8486611 106.9709190
  91.0855654  84.7497316 106.3090847  93.8020458  83.2306919 103.7280262
  93.7234090  82.8966783 104.6216020  94.6230125  83.7228687 103.7271734
  88.3381980  74.9664712 102.9783784  89.2841085  74.8370920 103.0472202
  87.9596225  74.2279373 103.4553213  94.3103865  66.6320718 112.9410676
  94.1128686  66.3235806 113.8254008  94.9203570  67.3582357 113.0708606
  86.5224897  72.8914688 102.9138670  85.6156353  72.5947801 102.9901383
  86.8000878  72.5944506 102.0472956  77.4402838  74.2121051 113.3637716
  77.1205622  73.3586360 113.0712090  76.8936266  74.4269630 114.1195683
  88.1386963  67.4351578 109.0682911  87.3287692  67.0898663 109.4438157
  88.8271380  67.1259121 109.6570522  90.0677511  66.5129624 110.6907208
  90.6208550  66.9325078 111.3497231  90.3047598  65.5865373 110.7330164
  85.2923682  69.7501623 103.0550649  86.1542846  70.0756521 103.3146466
  85.4774026  68.9633119 102.5423715  77.3091098  77.8323963 115.3330838
  76.6154569  77.4177916 114.8200792  78.0564089  77.8744499 114.7364256
  93.4456319  68.6230150 110.1985872  92.8654988  69.2814954 109.8163924
  93.1792251  67.8007494 109.7873289  91.8959885  68.0235207 112.4007192
  92.3959663  68.1351742 111.5921511  92.5395493  67.7196260 113.0408001
  79.2227840  77.7642217 113.2096852  79.1998529  77.8629904 112.2578736
  79.5328477  78.6107367 113.5314019  92.2281197  70.7830240 109.2542220
  91.3407052  71.0679891 109.0362415  92.6435186  70.6224003 108.4069497
  95.5795733  70.8076761 112.9696559  96.3556123  71.2973213 113.2421176
  94.8543867  71.2334815 113.4268429  91.3724410  80.5474915 103.3490240
  92.0760260  80.7524917 103.9647896  90.6487059  81.1151677 103.6139324
  92.2022220  76.2984776 109.4692510  92.1457422  76.7553327 108.6300143
  92.7550563  75.5375461 109.2915353  96.0127026  72.0874508 110.2942630
  95.7563960  71.6871143 111.1250837  95.3879894  72.8018302 110.1692769
  93.2811107  80.9857444 105.3988700  94.1156711  80.5538642 105.2166175
  93.1195450  80.8139458 106.3265595  92.9357000  77.4889557 106.7645039
  92.8805803  77.3233829 105.8233484  92.3103055  78.1965590 106.9207229
  77.7249515  72.7257622 120.5906462  78.3708378  72.2156576 121.0793687
  77.5166666  73.4626303 121.1649887  86.2453125  66.9897666 106.3430358
  86.2331795  67.9339506 106.4998629  87.1376547  66.8067812 106.0489819
  90.0605245  63.5840443 110.5976295  89.2937640  63.0298930 110.7432977
  90.4715950  63.6562312 111.4590446  94.7424963  87.4394991 105.9123653
  93.9062275  87.7769678 106.2332927  94.6029732  87.3043971 104.9750790
  94.6163343  87.2842219 103.1121559  93.7392809  87.1631019 102.7483806
  95.0921096  86.4928297 102.8600448  92.3181811  88.2241221 106.6703215
  91.6251056  88.2985576 106.0143251  92.0733563  87.4601565 107.1924732
  97.3618652  88.2206606 102.9138670  96.4550107  87.9239718 102.9901383
  97.6394633  87.9236424 102.0472956  96.1317437  85.0793541 103.0550649
  96.9936601  85.4048439 103.3146466  96.3167781  84.2925037 102.5423715
  97.0846880  82.3189584 106.3430358  97.0725549  83.2631424 106.4998629
  97.9770301  82.1359729 106.0489819  46.5388556   1.6351116  92.1798122
  45.8650255   1.9382812  92.7883080  46.9254378   2.4380196  91.8303579
  50.5045297  -0.7863401  93.4537945  51.1996201  -0.1656708  93.6725260
  50.8468447  -1.6368050  93.7290323  44.5960165  -0.6801649  92.3613039
  44.0234132  -0.0611462  91.9083510  45.1692959  -0.1302288  92.8952960
  47.8157425  -0.3964499  93.4921621  48.7488098  -0.4618937  93.6954496
  47.7280638   0.4391768  93.0336153  50.4445442  -1.0798629  90.4525568
  50.3659073  -1.4138765  91.3461326  51.2655108  -0.5876861  90.4517041
  48.0149393  -3.7630633  90.0735547  48.7185243  -3.5580631  90.6893202
  47.2912042  -3.1953872  90.3384630  49.9236091  -3.3248104  92.1234007
  50.7581695  -3.7566906  91.9411482  49.7620434  -3.4966091  93.0510901
  58.5520366   7.1921547 102.2189183  59.1898776   7.0728294 101.5152524
  58.4341209   8.1402391 102.2777136  51.2196888   8.9984451  98.1447599
  50.6561753   8.9074388  97.3763887  51.1049283   8.1784356  98.6250092
  56.7996447  12.6655419  93.4562064  56.1484426  13.2509500  93.0696078
  57.5940809  13.1961614  93.5157102  50.7252074   9.7544556  93.8549198
  51.4982950   9.2073543  93.7162074  51.0777473  10.6188806  94.0663660
  53.0618352   5.9137222  91.4867648  53.3143872   5.3918744  90.7251111
  52.1242911   5.7503368  91.5894332  58.1061634   4.9173001  99.2942392
  58.8924724   4.4992424  98.9432809  58.3700339   5.8219093  99.4624040
  58.2771712  10.3545851  93.9931048  57.6417545  10.4280478  94.7051953
  57.9469118  10.9439450  93.3150128  63.5070061   4.8548234 100.1975370
  64.2395233   4.2847451 100.4313200  62.7509417   4.4669834 100.6381876
  52.7814640   7.8165328  93.6892023  52.6650898   7.1410232  94.3573108
  52.8916900   7.3297702  92.8724176  55.1246181   7.2775475  97.3938712
  54.7604388   6.7506096  98.1051634  55.9813297   6.8873944  97.2205198
  54.7651668   2.3065375  92.3900061  54.9326071   3.1745612  92.7570532
  54.5748837   2.4692657  91.4661350  54.7440889   4.7623033  93.3746728
  54.6240514   5.2080083  94.2132208  54.0493477   5.1108350  92.8160266
  52.5047781  17.5326674  97.0236859  52.4271811  18.4834499  97.1025340
  51.9009425  17.1872547  97.6811785  60.4425955   5.2344506  94.2027062
  61.3543811   5.4671893  94.0274759  59.9335602   5.8181550  93.6402140
  59.0495538  10.2170324 101.5940643  58.4204400  10.3816038 100.8916711
  58.6621200  10.6311934 102.3651607  62.9284769  11.1524762  98.9485007
  62.2435808  11.5323663  98.3982040  63.0128619  11.7620089  99.6816955
  54.6023499   9.9544732  98.8590728  55.0661845  10.2332435  98.0695351
  54.3380298   9.0528177  98.6763819  53.5392385   6.0767885  95.6680294
  54.2416429   6.5288928  96.1354220  53.2073014   5.4351704  96.2960187
  61.2981529  11.6756677 103.7202708  62.1198973  11.2736864 103.4385390
  61.2943932  11.5724911 104.6718824  69.3887522   8.0195425 100.0687679
  68.6351230   7.4502823  99.9131684  69.5235063   7.9858090 101.0158314
  54.7786150  12.8908827  95.7442399  54.6431825  13.7360363  96.1727247
  55.3195963  13.0928105  94.9808333  48.2315547  10.4084265  96.3170324
  48.7440068  11.2027516  96.4675889  48.8838260   9.7110556  96.2503925
  50.0410432  13.5250022  98.3993077  50.2177061  14.4467986  98.2114061
  50.8367266  13.2108441  98.8287457  51.1641748  15.0428195 104.4003419
  51.7149173  14.9145259 103.6280413  50.3253224  15.3423084 104.0498312
  46.1964464   8.7372920  97.0929894  47.0339686   9.1469928  96.8763602
  46.3742732   7.7972362  97.0630088  58.0928896   6.4048000  92.7813727
  57.5775520   7.1752605  93.0202115  57.8206205   5.7313136  93.4046789
  55.6776007   1.2497701  97.8398966  54.8217604   0.8604552  97.6604604
  56.0902959   1.3289662  96.9798751  63.0663170   9.1580355  94.7166901
  62.2892613   8.8191514  94.2722063  63.7454651   9.1632978  94.0421866
  57.8815200   4.2775092  94.6073509  57.5765335   4.5921242  95.4583652
  58.8345642   4.3556512  94.6500842  56.3261631  10.4365316  96.2566463
  55.7982993   9.7018075  95.9439700  55.8249134  11.2139992  96.0106431
  61.3054477   8.6314336 101.3733509  60.6478152   9.3213598 101.4613637
  62.1094877   9.0210768 101.7167495  60.1159936   6.9858709  99.4237451
  60.6291818   7.6188701  99.9259160  60.7661160   6.3859904  99.0580811
  51.3849946   3.1289443  92.6368959  50.5487258   3.4664130  92.9578234
  51.2454716   2.9938423  91.6996096  54.4714232   8.2545526  89.2601436
  53.5641293   8.0234779  89.4592585  54.9685264   7.4583145  89.4475417
  57.3782310  16.9643033  92.1798122  56.7044009  17.2674730  92.7883080
  57.7648132  17.7672114  91.8303579  57.3775815   5.8599580  96.7998471
  58.1247634   6.3720977  96.4905593  57.6467404   5.5383633  97.6602865
  55.6502465   8.3558121  93.7825426  54.7413684   8.0717154  93.8797895
  55.6797549   8.7757199  92.9228733  60.8821732  11.9664710  97.5516593
  60.4284060  11.1255620  97.6081784  60.2515699  12.6026109  97.8891373
  59.8254652   2.8956696  98.7817261  59.0877409   2.3834083  99.1127503
  60.0781426   2.4557078  97.9700538  59.3254672  13.8041207  98.4866411
  59.6177646  14.3646264  97.7678777  59.8353292  14.0969768  99.2419570
  54.1987359   5.9686741  99.8835221  54.2535969   5.0160578  99.8077698
  53.3878561   6.1246181 100.3676519  55.3478553   9.8966865  91.1213504
  54.9097983   9.1802723  90.6619142  56.0888994  10.1242979  90.5598596
  52.1379719   4.5863801  97.6425600  51.3247585   4.8857972  98.0490792
  52.6338713   4.1919490  98.3600082  54.2888297  14.5821558  99.5759865
  54.2464476  14.8082404  98.6468397  55.2050996  14.3484933  99.7245666
  63.4651668   8.1724062  97.1789823  63.3269566   8.3625658  96.2511012
  63.1087886   8.9343444  97.6357874  63.4921047  10.2400589 102.1901094
  63.9257554  10.1475878 103.0384148  64.2052628  10.2158089 101.5521110
  52.4054098  11.4584587  99.3721827  53.1994696  10.9634907  99.1704402
  51.6945790  10.9302450  99.0089533  57.2248942  13.8402683 103.7234195
  57.2785964  14.4093619 104.4911911  56.3563723  14.0104568 103.3588232
  48.7136861   5.6027669  95.4481580  47.7834449   5.5412124  95.6651542
  48.8094333   5.0803622  94.6518221  64.3536597  10.2824289 104.7233980
  64.5472487  11.1870100 104.9693255  64.2537215   9.8231708 105.5572565
  54.9825374  12.0313609 103.0519664  54.8436459  11.6632394 103.9245602
  54.1939970  12.5461249 102.8803622  55.5773526  17.1322706  94.3945201
  55.7525281  16.6610749  95.2090824  54.8906314  17.7588472  94.6226462
  56.5330589  11.4095212 100.4408502  56.1980421  11.3695982 101.3366152
  56.0334534  10.7439928  99.9678912  59.4689780   8.7551246  90.7145562
  58.8518951   8.0298074  90.6178615  59.0006269   9.5160606  90.3712636
  50.1434611  20.2812068 101.1685061  50.3831209  20.9130593 101.8464080
  49.3003807  19.9300108 101.4550420  51.2588326   2.9736670  89.8366866
  50.3817793   2.8525471  89.4729113  51.7346079   2.1822749  89.5845755
  54.6562473  16.0891191 103.5726565  54.5832644  16.8946162 104.0845870
  54.2139866  16.2883157 102.7474586  54.4452252  15.3262961  97.0829387
  53.6619774  15.8684641  97.1767611  55.1444998  15.8436940  97.4823628
  65.6078660   6.8397956 101.3681884  65.5968536   7.7222671 100.9975817
  64.7396039   6.4869507 101.1736421  57.1161156  15.9878025 105.7284724
  57.8289128  16.6225490 105.6560625  56.6251185  16.0841891 104.9124726
  58.8378683   9.8929278  97.3002015  57.9034962  10.0130740  97.1306720
  59.0155352   8.9901744  97.0362025  62.2251235   5.7346597  97.8352050
  62.6911687   6.5674588  97.7612352  62.6758735   5.2691578  98.5397308
  60.2927466  12.0790418  94.8338202  60.5687310  11.9647013  95.7432076
  59.4231964  11.6807903  94.7950375  56.9281530  16.3276769  98.4771015
  57.1103924  15.5098425  98.9398768  57.7514516  16.5444461  98.0395905
  57.2623695  15.2544954  95.7386064  57.7911462  14.7437409  95.1256226
  57.5251915  14.9387484  96.6031597  50.6179443  16.3060071  98.4983840
  49.9489818  16.7906198  98.0147880  50.4792313  16.5529291  99.4127218
  54.7584712  18.3403814 105.0966498  55.3103020  18.5035436 105.8615583
  55.0990905  18.9308252 104.4246523  45.9867020   4.5678526  95.2779772
  46.2820461   3.6589204  95.2246825  45.0855056   4.5466265  94.9560774
  57.8953099  16.2885790 102.0830180  57.7704238  15.4875530 101.5741126
  58.5532190  16.7831983 101.5944150  59.9588007  14.0894810 103.7109730
  59.0118343  13.9700161 103.6388057  60.3070780  13.2017308 103.7935992
  56.9634441  13.8847526  99.9114082  56.8159403  12.9564234 100.0921652
  57.7887934  13.9067617  99.4271158  50.8296685   2.5365593  95.7694575
  51.1692757   3.0651514  95.0473183  51.2768805   2.8745999  96.5453141
  60.5668562  14.7076085 100.9978955  61.4915110  14.5018946 100.8603406
  60.3983866  14.4592486 101.9068297  52.8164832   1.0340215  93.9687867
  53.5373195   1.4121468  93.4651584  52.1930136   1.7529092  94.0722845
  56.9595955   1.7385364  94.9046200  57.1759569   2.6210002  94.6035028
  56.4790022   1.3471577  94.1751842  60.3563879  15.2261752  96.3541047
  60.5300756  14.6608175  95.6014899  60.8492770  16.0262647  96.1720537
  66.2103270   7.9898175  97.9731346  66.6534416   7.2405500  97.5750470
  65.3329780   7.9808312  97.5905078  61.3439051  14.5428517  93.4537945
  62.0389956  15.1635209  93.6725260  61.6862201  13.6923868  93.7290323
  63.2430474  11.9928222  94.9825276  63.7681798  12.3315495  94.2574596
  63.1552827  11.0575238  94.7988410  54.9271135  18.0600206  99.3420529
  54.4876125  17.5676584 100.0353386  55.6779252  17.5173173  99.1012604
  47.4063474  14.2511746  99.3445157  48.2321494  13.9515518  98.9643800
  47.0557526  13.4819369  99.7934946  52.3745007  13.6038215 101.4142831
  51.7525016  12.9408920 101.1145058  53.0449874  13.6299346 100.7316478
  51.9358514  12.1542138  94.8901291  52.0846634  12.8377602  94.2367964
  52.7424958  12.1347228  95.4050747  65.7536135   9.4603414 100.3653794
  66.5883026   9.8993218 100.5291354  65.8895263   8.9842067  99.5462040
  49.6911147   8.1807316  95.8962360  49.4457189   7.2769646  96.0942570
  49.8607062   8.1824466  94.9541838  48.9606795   3.9135673  93.3948521
  48.2676040   3.9880028  92.7388557  48.7158547   3.1496017  93.9170038
  55.4353920  14.6490268  92.3613039  54.8627887  15.2680456  91.9083510
  56.0086713  15.1989630  92.8952960  58.6551179  14.9327419  93.4921621
  59.5881853  14.8672980  93.6954496  58.5674392  15.7683685  93.0336153
  61.2839196  14.2493289  90.4525568  61.2052828  13.9153152  91.3461326
  62.1048863  14.7415057  90.4517041  63.9817387   7.1155028 103.6601887
  63.9493707   6.1771029 103.8461571  64.5918011   7.1939065 102.9267712
  55.8200718   5.9851081  89.7029091  56.7659823   5.8557289  89.7717509
  55.4414963   5.2465743  90.1798519  69.7993937   8.1771035 102.8007924
  70.5297326   7.9156323 103.3615627  69.1900883   7.4399757 102.8409992
  67.8809234   6.3178898 103.3982375  67.1542398   6.1834863 102.7898867
  67.4656521   6.6255726 104.2039093  54.0043635   3.9101058  89.6383976
  53.0975091   3.6134170  89.7146690  54.2819616   3.6130876  88.7718262
  55.6205701  -1.5462053  95.7928218  54.8106429  -1.8914968  96.1683464
  56.3090118  -1.8554509  96.3815829  52.7742420   0.7687993  89.7795955
  53.6361584   1.0942891  90.0391773  52.9592764  -0.0180511  89.2669021
  60.9275056  -0.3583481  96.9231178  60.3473725   0.3001323  96.5409231
  60.6610989  -1.1806136  96.5118596  59.7099934   1.8016610  95.9787527
  58.8225789   2.0866260  95.7607721  60.1253923   1.6410373  95.1314804
  63.0614471   1.8263131  99.6941866  63.8374861   2.3159583  99.9666483
  62.3362605   2.2521185 100.1513735  65.4987029   2.5390750 100.7515807
  66.0931520   2.2986486 100.0409115  65.5713613   1.8197880 101.3789343
  47.7184185  16.3824361 101.0658971  47.5838653  15.6224762 100.4996969
  47.3016247  17.1065261 100.5987760  58.8543148  11.5661284  90.0735547
  59.5578998  11.7711287  90.6893202  58.1305797  12.1338046  90.3384630
  59.6840958   7.3171146  96.1937817  59.6276160   7.7739697  95.3545449
  60.2369301   6.5561830  96.0160660  63.4945764   3.1060877  97.0187936
  63.2382698   2.7057513  97.8496144  62.8698632   3.8204671  96.8938076
  67.8058102   5.8456951  99.5259228  67.2457660   5.9150140 100.2990790
  67.2001605   5.6697935  98.8058724  50.8753311  17.2793678 101.2777414
  50.7585695  18.2239110 101.1756104  50.0545757  16.9767239 101.6663213
  60.7629845  12.0043813  92.1234007  61.5975449  11.5725012  91.9411482
  60.6014188  11.8325827  93.0510901  60.4175737   8.5075927  93.4890346
  60.3624541   8.3420198  92.5478790  59.7921793   9.2151960  93.6452536
  53.7271863  -1.9915964  93.0675664  53.7150533  -1.0474124  93.2243935
  54.6195285  -2.1745819  92.7735126  51.9007825  17.9321940 104.4933342
  52.8035072  17.9645550 104.8099837  51.6745195  17.0022391 104.5079678
  53.6561427  16.6852926 101.1543421  52.7057058  16.6854788 101.0407793
  53.9593913  15.9385661 100.6379456  69.3914120  22.5213465 102.2189183
  70.0292530  22.4020212 101.5152524  69.2734963  23.4694309 102.2777136
  66.2003827  22.4740893 102.1550708  65.8622338  22.3581957 101.2671243
  67.0693595  22.0732058 102.1351714  62.0590642  24.3276369  98.1447599
  61.4955507  24.2366306  97.3763887  61.9443037  23.5076274  98.6250092
  66.6823610  23.6275744 108.1136914  66.6712250  23.2328543 107.2417417
  66.8444249  22.8941817 108.7070685  59.6055074  25.8227561 100.9831820
  60.3976366  25.4818385 100.5678119  59.8451724  25.9322536 101.9033973
  67.6390201  27.9947337  93.4562064  66.9878181  28.5801417  93.0696078
  68.4334564  28.5253532  93.5157102  61.5645828  25.0836474  93.8549198
  62.3376704  24.5365461  93.7162074  61.9171227  25.9480723  94.0663660
  63.4030871  26.4112856 107.0616098  63.1120737  27.3158487 106.9462764
  64.0387855  26.4529384 107.7760167  64.3287078  23.7889705 103.6517457
  64.9250650  23.5645727 102.9374420  64.3862049  23.0474450 104.2542905
  63.9012106  21.2429140  91.4867648  64.1537627  20.7210661  90.7251111
  62.9636665  21.0795286  91.5894332  68.9455389  20.2464918  99.2942392
  69.7318478  19.8284342  98.9432809  69.2094093  21.1511011  99.4624040
  69.1165466  25.6837769  93.9931048  68.4811299  25.7572395  94.7051953
  68.7862873  26.2731368  93.3150128  74.3463816  20.1840152 100.1975370
  75.0788988  19.6139368 100.4313200  73.5903172  19.7961752 100.6381876
  63.6208395  23.1457246  93.6892023  63.5044653  22.4702149  94.3573108
  63.7310655  22.6589620  92.8724176  65.9639936  22.6067393  97.3938712
  65.5998143  22.0798014  98.1051634  66.8207052  22.2165862  97.2205198
  71.8689236  13.8961726 104.6569979  71.5372561  14.7657137 104.4331194
  71.2734850  13.5798010 105.3364009  65.6045423  17.6357293  92.3900061
  65.7719825  18.5037529  92.7570532  65.4142592  17.7984575  91.4661350
  68.3620756  26.0974272 104.0565891  68.0621479  26.9999311 103.9481699
  68.0171815  25.8306455 104.9087044  61.8133237  22.5488069 100.0902596
  60.8883734  22.4164283 100.2980288  62.0617651  23.3282288 100.5872538
  71.7617900  18.6156812 101.7363329  70.8534777  18.5472220 101.4422090
  71.7105495  19.0928757 102.5645154  65.5834644  20.0914950  93.3746728
  65.4634269  20.5372001  94.2132208  64.8887232  20.4400268  92.8160266
  59.1742048  22.1921342 100.9246385  59.3034430  22.4455821 101.8385797
  58.4939500  22.7849050 100.6051040  63.3441536  32.8618592  97.0236859
  63.2665565  33.8126417  97.1025340  62.7403179  32.5164465  97.6811785
  65.8358765  20.0346457 109.6798226  65.0592099  20.5940378 109.6701091
  66.4749328  20.5203240 110.2013096  73.6279546  16.8173250 103.5141203
  72.9853926  17.1105783 102.8680997  73.1234475  16.7026171 104.3194399
  71.2819710  20.5636423  94.2027062  72.1937566  20.7963810  94.0274759
  70.7729357  21.1473468  93.6402140  64.0905138  22.8431911 109.2416193
  64.8319822  23.3816955 108.9651017  63.3842123  23.4698200 109.3987745
  69.5660477  24.9861051 107.8388354  69.9743833  24.5443462 107.0942987
  68.8437739  24.4113679 108.0922547  65.9191547  19.9233658 105.2121911
  66.7652743  20.3473072 105.3556560  65.8590185  19.2667282 105.9060475
  69.8889292  25.5462242 101.5940643  69.2598154  25.7107956 100.8916711
  69.5014954  25.9603851 102.3651607  73.7678524  26.4816680  98.9485007
  73.0829562  26.8615581  98.3982040  73.8522373  27.0912006  99.6816955
  69.0690993  17.5838026 106.8703085  68.8251925  18.3380087 106.3337361
  69.3450923  17.9623374 107.7050332  71.0229456  24.1276639 105.5480351
  71.2346351  24.7708399 104.8714732  70.9759204  23.2938955 105.0802281
  68.6255684  16.7394459 102.4516923  67.7640164  17.0375713 102.7433660
  68.6518119  16.9564858 101.5197955  65.4417254  25.2836650  98.8590728
  65.9055599  25.5624353  98.0695351  65.1774052  24.3820095  98.6763819
  62.3341335  24.8308132 101.7970492  62.9042692  25.2595400 101.1587976
  62.9249447  24.5490716 102.4954677  64.3786140  21.4059802  95.6680294
  65.0810183  21.8580846  96.1354220  64.0466768  20.7643621  96.2960187
  62.8266501  19.9971559 110.0431503  62.1965162  20.6787840 110.2766900
  62.7202589  19.8854641 109.0984641  58.1211474  19.6643355 100.9697427
  57.3310528  19.9200884 100.4937538  58.6122721  20.4791693 101.0749468
  72.1375283  27.0048594 103.7202708  72.9592727  26.6028782 103.4385390
  72.1337686  26.9016828 104.6718824  60.0726219  20.0287934  97.9280904
  59.2757383  20.1406629  98.4464400  59.8451811  20.3674587  97.0621794
  65.9031887  26.5532638 105.8763418  65.9676319  27.0153045 106.7121590
  65.1942811  25.9230002 106.0045728  56.4049177  19.9173846 103.4012418
  56.6557215  20.8020855 103.6669994  56.9408725  19.7378447 102.6287510
  80.2281277  23.3487343 100.0687679  79.4744985  22.7794741  99.9131684
  80.3628818  23.3150007 101.0158314  65.6179905  28.2200745  95.7442399
  65.4825579  29.0652281  96.1727247  66.1589717  28.4220023  94.9808333
  59.0709302  25.7376183  96.3170324  59.5833823  26.5319433  96.4675889
  59.7232015  25.0402474  96.2503925  60.8804187  28.8541939  98.3993077
  61.0570815  29.7759904  98.2114061  61.6761020  28.5400359  98.8287457
  65.0215205  15.7150204 109.9977011  65.7624919  16.3157357 109.9181473
  65.2533128  14.9727842 109.4395053  60.1656543  20.9006571 108.2755240
  60.0510058  19.9991828 108.5762339  59.3101061  21.1470268 107.9240057
  67.2448381  28.8424312 109.8742741  66.8012235  28.0560690 109.5563645
  67.9065595  29.0303462 109.2086632  62.0035502  30.3720113 104.4003419
  62.5542927  30.2437176 103.6280413  61.1646978  30.6715002 104.0498312
  69.3429619  29.1227111 107.9024142  69.3248094  29.9435993 107.4104411
  70.2649539  28.9981187 108.1274283  65.8002673  26.6371241 108.7447651
  66.3331010  25.8759529 108.5146958  65.2716754  26.3444893 109.4871805
  68.9672368  11.7431307 104.2741292  68.6236638  12.6332949 104.1980403
  69.3351331  11.5532965 103.4110877  57.0358219  24.0664837  97.0929894
  57.8733441  24.4761846  96.8763602  57.2136486  23.1264280  97.0630088
  68.9322651  21.7339918  92.7813727  68.4169274  22.5044523  93.0202115
  68.6599959  21.0605054  93.4046789  66.5169762  16.5789619  97.8398966
  65.6611358  16.1896469  97.6604604  66.9296714  16.6581580  96.9798751
  68.0468909  14.1135962 102.2390526  67.5433704  14.0766097 101.4258331
  68.3399515  15.0228705 102.2987182  64.2911794  14.1974692 101.2456707
  65.1564791  14.0017500 100.8862597  64.3589303  13.9685044 102.1726064
  73.9056925  24.4872273  94.7166901  73.1286368  24.1483432  94.2722063
  74.5848406  24.4924896  94.0421866  68.7208954  19.6067010  94.6073509
  68.4159090  19.9213159  95.4583652  69.6739396  19.6848430  94.6500842
  67.1655386  25.7657233  96.2566463  66.6376747  25.0309993  95.9439700
  66.6642889  26.5431910  96.0106431  72.1448232  23.9606254 101.3733509
  71.4871906  24.6505515 101.4613637  72.9488631  24.3502686 101.7167495
  61.8974113  16.4276900  98.6173074  62.4717865  16.2052081  97.8846267
  62.4845096  16.4965594  99.3701675  70.9553691  22.3150627  99.4237451
  71.4685572  22.9480618  99.9259160  71.6054915  21.7151822  99.0580811
  62.2243701  18.4581361  92.6368959  61.3881013  18.7956047  92.9578234
  62.0848470  18.3230341  91.6996096  64.1996781  13.3018149  97.3448143
  63.5461194  12.9867166  96.7204758  64.1577255  12.6793889  98.0707966
  65.3107986  23.5837444  89.2601436  64.4035048  23.3526697  89.4592585
  65.8079018  22.7875063  89.4475417  68.2176065  32.2934951  92.1798122
  67.5437764  32.5966648  92.7883080  68.6041887  33.0964031  91.8303579
  67.4334522  19.7900082 101.6695791  66.5157083  20.0115029 101.5117479
  67.8494665  19.8646393 100.8107498  68.2169569  21.1891498  96.7998471
  68.9641388  21.7012895  96.4905593  68.4861159  20.8675551  97.6602865
  66.4896219  23.6850039  93.7825426  65.5807439  23.4009071  93.8797895
  66.5191303  24.1049117  92.9228733  71.7215487  27.2956628  97.5516593
  71.2677814  26.4547538  97.6081784  71.0909454  27.9318026  97.8891373
  70.6648406  18.2248614  98.7817261  69.9271163  17.7126000  99.1127503
  70.9175180  17.7848996  97.9700538  70.1648426  29.1333125  98.4866411
  70.4571401  29.6938182  97.7678777  70.6747047  29.4261686  99.2419570
  70.7660034  11.0024866  99.3759030  71.0718911  10.1422230  99.0884945
  71.4912639  11.5942486  99.1758024  57.0584390  21.4055553  97.7640628
  56.8608790  20.8124913  97.0391694  56.5031054  21.1007763  98.4816567
  65.0381114  21.2978659  99.8835221  65.0929723  20.3452496  99.8077698
  64.2272316  21.4538098 100.3676519  66.1872307  25.2258782  91.1213504
  65.7491737  24.5094641  90.6619142  66.9282748  25.4534897  90.5598596
  62.9773473  19.9155719  97.6425600  62.1641339  20.2149889  98.0490792
  63.4732468  19.5211408  98.3600082  65.1282051  29.9113476  99.5759865
  65.0858230  30.1374322  98.6468397  66.0444750  29.6776850  99.7245666
  68.5747685  20.3797543 106.4740494  68.9297073  20.6069017 107.3334960
  69.2219816  20.7115920 105.8517749  74.3045422  23.5015979  97.1789823
  74.1663321  23.6917575  96.2511012  73.9481641  24.2635362  97.6357874
  62.4687548  17.4874074 103.2586835  63.1086928  17.3462834 102.5609798
  61.6365079  17.2008588 102.8825437  74.3314802  25.5692506 102.1901094
  74.7651308  25.4767795 103.0384148  75.0446382  25.5450007 101.5521110
  63.2447852  26.7876505  99.3721827  64.0388451  26.2926825  99.1704402
  62.5339545  26.2594368  99.0089533  68.0642697  29.1694600 103.7234195
  68.1179719  29.7385537 104.4911911  67.1957478  29.3396485 103.3588232
  59.5530616  20.9319587  95.4481580  58.6228204  20.8704042  95.6651542
  59.6488088  20.4095539  94.6518221  59.4716165  17.4574399  98.0359822
  59.7322982  18.3719733  97.9268982  60.2933337  16.9898842  98.1856434
  60.9441090  18.8712157 105.2058646  61.6164143  18.6629519 104.5571295
  60.1170876  18.6734243 104.7663878  75.1930351  25.6116207 104.7233980
  75.3866241  26.5162017 104.9693255  75.0930969  25.1523626 105.5572565
  66.8466662  15.4974098 107.2224307  66.1994577  16.1964047 107.1288783
  67.6167677  15.9310241 107.5900555  70.2545460  25.7622950 110.2974860
  70.1030966  25.5333501 109.3804944  70.2450139  26.7193551 110.3106205
  67.0230796  23.3354862 105.2821127  67.9522856  23.4866022 105.1090094
  66.6021826  23.4238883 104.4269773  65.8219128  27.3605527 103.0519664
  65.6830214  26.9924311 103.9245602  65.0333724  27.8753166 102.8803622
  66.4167280  32.4614623  94.3945201  66.5919036  31.9902666  95.2090824
  65.7300068  33.0880389  94.6226462  67.3724343  26.7387130 100.4408502
  67.0374176  26.6987899 101.3366152  66.8728289  26.0731845  99.9678912
  61.3468587  22.1454760 105.9661083  61.2088385  21.4134998 106.5672622
  62.2573511  22.0563660 105.6845271  70.3083535  24.0843164  90.7145562
  69.6912706  23.3589992  90.6178615  69.8400023  24.8452524  90.3712636
  63.9750888  21.8574719 105.4544763  64.6850506  21.2167911 105.4131381
  63.9320196  22.1087614 106.3770944  71.9637667  28.7942072 108.3751342
  71.9050213  28.1101292 107.7081925  72.3657185  29.5361062 107.9231968
  62.6879822  18.8439937 107.2740402  62.1517179  18.3930675 107.9261999
  62.0996530  18.9785846 106.5310867  60.9828365  35.6103986 101.1685061
  61.2224964  36.2422510 101.8464080  60.1397562  35.2592026 101.4550420
  62.0982081  18.3028588  89.8366866  61.2211547  18.1817389  89.4729113
  62.5739834  17.5114666  89.5845755  71.9655074  26.7581656 106.6065322
  71.0781853  26.4207578 106.7291721  72.5353625  26.0264687 106.8434087
  53.6184221  23.0905748  99.9308373  54.3055261  22.7767478  99.3429389
  53.4632350  23.9947113  99.6575625  58.4218943  17.9795944 104.3593397
  58.3377132  17.3721614 103.6243807  57.6001650  18.4704963 104.3602893
  65.4956227  31.4183109 103.5726565  65.4226399  32.2238080 104.0845870
  65.0533620  31.6175074 102.7474586  65.2846007  30.6554879  97.0829387
  64.5013529  31.1976559  97.1767611  65.9838752  31.1728858  97.4823628
  68.5942657  16.4649508  99.7263592  69.0911357  15.7119470  99.4064662
  67.8229638  16.5013825  99.1606801  76.4472414  22.1689874 101.3681884
  76.4362291  23.0514589 100.9975817  75.5789794  21.8161424 101.1736421
  67.9554911  31.3169943 105.7284724  68.6682883  31.9517407 105.6560625
  67.4644939  31.4133809 104.9124726  69.6772438  25.2221195  97.3002015
  68.7428716  25.3422658  97.1306720  69.8549106  24.3193662  97.0362025
  65.1777626  18.6066891  99.4535277  64.8075413  18.0537931 100.1416182
  65.6736718  18.0025024  98.9010277  73.0644989  21.0638514  97.8352050
  73.5305441  21.8966506  97.7612352  73.5152490  20.5983496  98.5397308
  63.0066824  29.0664386 106.5490295  63.7076284  29.7000869 106.7019689
  62.5361939  29.4079118 105.7885934  71.1321220  27.4082336  94.8338202
  71.4081064  27.2938930  95.7432076  70.2625719  27.0099821  94.7950375
  71.0361652  13.4319101 101.8742951  70.1224732  13.6623328 102.0425158
  71.4654753  13.5157546 102.7256983  70.8068110  21.6208993 104.3742845
  70.1539560  21.8684901 103.7195298  71.1848490  20.8073132 104.0405322
  67.7675284  31.6568687  98.4771015  67.9497679  30.8390343  98.9398768
  68.5908270  31.8736379  98.0395905  68.1017450  30.5836872  95.7386064
  68.6305216  30.0729326  95.1256226  68.3645669  30.2679402  96.6031597
  66.8555683  22.3628805 110.8608882  66.1796320  22.2622934 111.5311257
  67.6783317  22.2068018 111.3244879  58.6034542  28.6000741 103.4821397
  59.1887979  27.8544429 103.6149301  58.4059381  28.9104698 104.3658061
  61.4573198  31.6351988  98.4983840  60.7883573  32.1198116  98.0147880
  61.3186067  31.8821209  99.4127218  53.1952197  21.1706341 102.2025840
  53.2336297  20.6369932 102.9962958  52.6892490  20.6441547 101.5836818
  65.5978466  33.6695732 105.0966498  66.1496774  33.8327353 105.8615583
  65.9384660  34.2600170 104.4246523  60.5742959  16.0170882 105.6988383
  60.6384286  16.8785713 105.2865780  60.5110080  15.4044883 104.9660741
  70.4489340  28.4956989 110.9515152  70.9929244  29.1086948 110.4570107
  69.8676185  29.0536568 111.4682165  56.8260775  19.8970443  95.2779772
  57.1214216  18.9881122  95.2246825  55.9248810  19.8758183  94.9560774
  68.7346853  31.6177707 102.0830180  68.6097993  30.8167447 101.5741126
  69.3925945  32.1123901 101.5944150  60.3555022  17.9726440 101.2607320
  59.6341607  18.5862408 101.1214794  61.1448277  18.5084205 101.1823966
  70.7981762  29.4186728 103.7109730  69.8512097  29.2992079 103.6388057
  71.1464535  28.5309226 103.7935992  63.1581335  15.3080866 107.5347972
  63.6815737  15.5543163 108.2974281  62.9393668  16.1400901 107.1151109
  58.5548616  17.5784541  95.4019097  58.2261322  16.6981920  95.2194203
  58.9087987  17.5232210  96.2895486  67.8028195  29.2139444  99.9114082
  67.6553158  28.2856151 100.0921652  68.6281689  29.2359534  99.4271158
  61.6690439  17.8657511  95.7694575  62.0086512  18.3943432  95.0473183
  62.1162560  18.2037917  96.5453141  71.4062317  30.0368003 100.9978955
  72.3308864  29.8310864 100.8603406  71.2377620  29.7884404 101.9068297
  64.3633880  16.2494562 105.2197643  64.0230701  15.4502375 105.6218323
  63.6572886  16.5496272 104.6474476  65.0150352  13.3343874 103.6724966
  65.8376421  12.8604352 103.5503856  65.2588416  14.1134358 104.1723652
  63.6558587  16.3632132  93.9687867  64.3766949  16.7413385  93.4651584
  63.0323891  17.0821009  94.0722845  67.7989709  17.0677281  94.9046200
  68.0153324  17.9501919  94.6035028  67.3183777  16.6763495  94.1751842
  62.5388931  20.0262995 101.4816944  62.3933512  20.3403298 102.3741226
  62.0614134  20.6447895 100.9287843  64.3985314  17.0165543 101.5297834
  64.3846882  16.1206636 101.1930132  65.1157742  17.0236206 102.1636120
  66.2511444  17.4502883 103.5750961  65.9929222  18.3719953 103.5735292
  65.7196485  17.0533317 104.2651425  71.1957633  30.5553670  96.3541047
  71.3694511  29.9900092  95.6014899  71.6886524  31.3554565  96.1720537
  57.0134593  22.5668339 104.4204605  56.4688061  23.3428147 104.5524880
  57.8913943  22.9139144 104.2623727  63.8022210  15.8979923  96.7985404
  63.9238121  14.9696569  96.9976291  63.5124252  15.9118609  95.8863719
  66.6713400  13.5834833  99.9352124  66.6935097  13.6474166  98.9804103
  67.0881459  12.7439342 100.1292630  77.0497024  23.3190093  97.9731346
  77.4928170  22.5697418  97.5750470  76.1723535  23.3100229  97.5905078
  72.1832806  29.8720434  93.4537945  72.8783710  30.4927127  93.6725260
  72.5255956  29.0215786  93.7290323  57.8000615  21.6938235 107.3134762
  57.0582351  21.8420871 107.8999393  57.4793359  21.9546501 106.4501512
  74.0824229  27.3220140  94.9825276  74.6075553  27.6607413  94.2574596
  73.9946581  26.3867155  94.7988410  65.7444277  31.2354214 107.1115152
  66.0531404  30.9903360 107.9837852  66.5419759  31.4400852 106.6234023
  65.7664890  33.3892123  99.3420529  65.3269880  32.8968502 100.0353386
  66.5173006  32.8465091  99.1012604  58.2457229  29.5803664  99.3445157
  59.0715248  29.2807436  98.9643800  57.8951280  28.8111286  99.7934946
  63.2138762  28.9330132 101.4142831  62.5918771  28.2700837 101.1145058
  63.8843629  28.9591264 100.7316478  56.4465834  27.4989990 100.3034091
  55.6097742  27.0712165 100.1218092  56.4189479  27.6922434 101.2404882
  73.7718135  27.9553044 110.2876474  72.9813679  27.9377182 109.7480973
  73.5351489  28.4941337 111.0425510  73.8916010  24.8045510 107.6009202
  73.9414015  24.6395517 108.5424725  73.7829933  23.9372769 107.2107083
  62.7752269  27.4834056  94.8901291  62.9240389  28.1669520  94.2367964
  63.5818712  27.4639146  95.4050747  71.1819772  20.7876438 108.9168509
  72.0829635  20.6482903 108.6252507  71.2567747  20.9530893 109.8566686
  65.5162578  18.1643293 107.7621695  64.6465887  18.4576859 107.4904284
  65.7522058  18.7483738 108.4828959  75.3934207  27.2242451 107.8451224
  75.1019015  27.5872432 108.6814685  74.7806338  26.5109460 107.6664556
  76.5929889  24.7895331 100.3653794  77.4276780  25.2285135 100.5291354
  76.7289018  24.3133984  99.5462040  73.6421395  22.3475066 106.3131282
  74.1175517  22.5402712 105.5050133  72.7186960  22.4034252 106.0674665
  60.5304902  23.5099233  95.8962360  60.2850944  22.6061563  96.0942570
  60.7000816  23.5116384  94.9541838  68.2201611  14.3822910 105.2787116
  68.7383555  15.1183937 104.9533604  67.8656744  14.6886903 106.1133875
  59.8000549  19.2427591  93.3948521  59.1069794  19.3171946  92.7388557
  59.5552301  18.4787934  93.9170038  68.4714206  10.8023192 100.7988012
  68.7515959  10.1346381 101.4248439  69.2564813  10.9952288 100.2862676
  66.2747674  29.9782186  92.3613039  65.7021641  30.5972373  91.9083510
  66.8480468  30.5281548  92.8952960  72.3423064  19.2240826 104.5459587
  73.2940487  19.3238924 104.5671811  72.1726514  18.4319095 105.0557672
  70.3637443  16.3096409 104.7318988  69.7687376  16.5901422 104.0365477
  70.0787140  16.7990310 105.5035729  69.4944934  30.2619336  93.4921621
  70.4275607  30.1964898  93.6954496  69.4068147  31.0975603  93.0336153
  72.1232951  29.5785207  90.4525568  72.0446582  29.2445070  91.3461326
  72.9442617  30.0706974  90.4517041  74.8211142  22.4446946 103.6601887
  74.7887462  21.5062947 103.8461571  75.4311765  22.5230983 102.9267712
  66.6594473  21.3142999  89.7029091  67.6053577  21.1849207  89.7717509
  66.2808718  20.5757661  90.1798519  74.9705630  19.2357989 103.7060170
  74.4544679  18.4516446 103.5190099  75.8545579  18.9076706 103.8706690
  72.6316357  12.9799005  99.6655983  72.4341178  12.6714093 100.5499315
  73.2416063  13.7060644  99.7953913  80.6387692  23.5062953 102.8007924
  81.3691080  23.2448241 103.3615627  80.0294637  22.7691675 102.8409992
  78.7202989  21.6470815 103.3982375  77.9936152  21.5126780 102.7898867
  78.3050276  21.9547644 104.2039093  66.5433165  25.3660745 111.1629748
  67.4636175  25.5439344 111.3569795  66.5082748  24.4216790 111.0109447
  64.8437390  19.2392975  89.6383976  63.9368845  18.9426088  89.7146690
  65.1213371  18.9422793  88.7718262  55.7615330  20.5599339 100.0883023
  55.4418114  19.7064647  99.7957397  55.2148758  20.7747917 100.8440990
  59.5395238  23.2761780 103.8052529  59.7581247  24.2078887 103.8240563
  59.9521012  22.9169754 104.5907333  66.4599455  13.7829865  95.7928218
  65.6500184  13.4376950  96.1683464  67.1483872  13.4737409  96.3815829
  68.3890004  12.8607912  97.4152514  68.9421042  13.2803365  98.0742537
  68.6260090  11.9343660  97.4575470  63.6136174  16.0979910  89.7795955
  64.4755338  16.4234809  90.0391773  63.7986519  15.3111406  89.2669021
  55.6303590  24.1802250 102.0576144  54.9367062  23.7656203 101.5446099
  56.3776581  24.2222787 101.4609563  71.7668811  14.9708437  96.9231178
  71.1867480  15.6293241  96.5409231  71.5004744  14.1485781  96.5118596
  70.2172377  14.3713495  99.1252499  70.7172156  14.4830029  98.3166818
  70.8607985  14.0674547  99.7653307  64.2754373  22.2792124 112.0120340
  63.7921455  23.0792484 112.2184229  64.3615312  22.2900069 111.0587784
  57.5440333  24.1120504  99.9342159  57.5211021  24.2108191  98.9824042
  57.8540969  24.9585655 100.2559325  60.2027711  26.1696659 104.0488774
  61.1570964  26.1380601 103.9818705  60.0040234  25.7087283 104.8638999
  60.7927093  24.7397775 106.6159571  61.6119982  25.2341854 106.6394408
  61.0663900  23.8229743 106.5877139  70.5493689  17.1308527  95.9787527
  69.6619544  17.4158178  95.7607721  70.9647678  16.9702291  95.1314804
  73.9008225  17.1555048  99.6941866  74.6768615  17.6451501  99.9666483
  73.1756359  17.5813102 100.1513735  76.3380784  17.8682667 100.7515807
  76.9325274  17.6278403 100.0409115  76.4107367  17.1489798 101.3789343
  58.5577939  31.7116278 101.0658971  58.4232407  30.9516679 100.4996969
  58.1410002  32.4357178 100.5987760  69.6936902  26.8953202  90.0735547
  70.3972752  27.1003204  90.6893202  68.9699551  27.4629964  90.3384630
  70.5234713  22.6463063  96.1937817  70.4669914  23.1031615  95.3545449
  71.0763055  21.8853748  96.0160660  74.3339519  18.4352795  97.0187936
  74.0776453  18.0349431  97.8496144  73.7092387  19.1496589  96.8938076
  78.6451856  21.1748868  99.5259228  78.0851414  21.2442058 100.2990790
  78.0395360  20.9989853  98.8058724  61.7147065  32.6085595 101.2777414
  61.5979449  33.5531028 101.1756104  60.8939511  32.3059157 101.6663213
  71.6023600  27.3335731  92.1234007  72.4369204  26.9016930  91.9411482
  71.4407943  27.1617745  93.0510901  71.2569492  23.8367844  93.4890346
  71.2018296  23.6712116  92.5478790  70.6315547  24.5443877  93.6452536
  56.0462007  19.0735909 107.3151768  56.6920871  18.5634863 107.8038993
  55.8379158  19.8104590 107.8895194  68.5715399  26.1416756 112.8143909
  69.4406559  26.3157409 112.4530544  68.0922151  26.9611173 112.6919638
  64.5665617  13.3375953  93.0675664  64.5544287  14.2817793  93.2243935
  65.4589039  13.1546099  92.7735126  62.7401579  33.2613857 104.4933342
  63.6428826  33.2937468 104.8099837  62.5138949  32.3314308 104.5079678
  64.4955181  32.0144844 101.1543421  63.5450812  32.0146705 101.0407793
  64.7987668  31.2677578 100.6379456  68.3817737   9.9318730  97.3221601
  67.6150133   9.3777217  97.4678284  68.7928442  10.0040599  98.1835753
  80.2307875  37.8505382 102.2189183  80.8686285  37.7312130 101.5152524
  80.1128718  38.7986226 102.2777136  77.0397581  37.8032810 102.1550708
  76.7016093  37.6873875 101.2671243  77.9087349  37.4023975 102.1351714
  72.8984397  39.6568287  98.1447599  72.3349262  39.5658224  97.3763887
  72.7836792  38.8368191  98.6250092  77.5217364  38.9567662 108.1136914
  77.5106005  38.5620460 107.2417417  77.6838004  38.2233735 108.7070685
  70.4448829  41.1519478 100.9831820  71.2370121  40.8110303 100.5678119
  70.6845479  41.2614453 101.9033973  78.4783956  43.3239254  93.4562064
  77.8271935  43.9093335  93.0696078  79.2728318  43.8545449  93.5157102
  72.4039583  40.4128392  93.8549198  73.1770459  39.8657379  93.7162074
  72.7564982  41.2772641  94.0663660  74.2424625  41.7404774 107.0616098
  73.9514491  42.6450405 106.9462764  74.8781610  41.7821301 107.7760167
  75.1680832  39.1181622 103.6517457  75.7644404  38.8937645 102.9374420
  75.2255804  38.3766368 104.2542905  74.7405861  36.5721058  91.4867648
  74.9931381  36.0502579  90.7251111  73.8030420  36.4087203  91.5894332
  79.7849143  35.5756836  99.2942392  80.5712233  35.1576259  98.9432809
  80.0487848  36.4802928  99.4624040  79.9559221  41.0129686  93.9931048
  79.3205054  41.0864313  94.7051953  79.6256627  41.6023285  93.3150128
  85.1857570  35.5132069 100.1975370  85.9182742  34.9431286 100.4313200
  84.4296926  35.1253670 100.6381876  74.4602149  38.4749164  93.6892023
  74.3438407  37.7994067  94.3573108  74.5704409  37.9881538  92.8724176
  76.8033690  37.9359311  97.3938712  76.4391897  37.4089932  98.1051634
  77.6600806  37.5457780  97.2205198  82.7082991  29.2253643 104.6569979
  82.3766316  30.0949054 104.4331194  82.1128604  28.9089927 105.3364009
  76.4439177  32.9649210  92.3900061  76.6113580  33.8329447  92.7570532
  76.2536346  33.1276492  91.4661350  79.2014510  41.4266189 104.0565891
  78.9015233  42.3291228 103.9481699  78.8565570  41.1598373 104.9087044
  72.6526992  37.8779986 100.0902596  71.7277488  37.7456200 100.2980288
  72.9011405  38.6574205 100.5872538  82.6011654  33.9448730 101.7363329
  81.6928531  33.8764138 101.4422090  82.5499250  34.4220675 102.5645154
  76.4228398  35.4206868  93.3746728  76.3028023  35.8663919  94.2132208
  75.7280986  35.7692186  92.8160266  70.0135803  37.5213260 100.9246385
  70.1428184  37.7747739 101.8385797  69.3333254  38.1140968 100.6051040
  74.1835290  48.1910510  97.0236859  74.1059320  49.1418335  97.1025340
  73.5796934  47.8456382  97.6811785  76.6752520  35.3638375 109.6798226
  75.8985854  35.9232295 109.6701091  77.3143083  35.8495158 110.2013096
  84.4673301  32.1465168 103.5141203  83.8247681  32.4397701 102.8680997
  83.9628229  32.0318088 104.3194399  82.1213464  35.8928341  94.2027062
  83.0331320  36.1255728  94.0274759  81.6123111  36.4765385  93.6402140
  74.9298892  38.1723829 109.2416193  75.6713577  38.7108872 108.9651017
  74.2235878  38.7990117 109.3987745  80.4054232  40.3152969 107.8388354
  80.8137588  39.8735380 107.0942987  79.6831493  39.7405597 108.0922547
  76.7585302  35.2525576 105.2121911  77.6046497  35.6764989 105.3556560
  76.6983940  34.5959200 105.9060475  80.7283047  40.8754160 101.5940643
  80.0991909  41.0399874 100.8916711  80.3408709  41.2895769 102.3651607
  84.6072278  41.8108597  98.9485007  83.9223317  42.1907499  98.3982040
  84.6916128  42.4203924  99.6816955  79.9084747  32.9129944 106.8703085
  79.6645679  33.6672005 106.3337361  80.1844678  33.2915292 107.7050332
  81.8623210  39.4568556 105.5480351  82.0740105  40.1000316 104.8714732
  81.8152958  38.6230873 105.0802281  79.4649439  32.0686377 102.4516923
  78.6033918  32.3667631 102.7433660  79.4911874  32.2856776 101.5197955
  76.2811008  40.6128568  98.8590728  76.7449354  40.8916271  98.0695351
  76.0167806  39.7112012  98.6763819  73.1735089  40.1600049 101.7970492
  73.7436447  40.5887318 101.1587976  73.7643201  39.8782634 102.4954677
  75.2179894  36.7351720  95.6680294  75.9203938  37.1872764  96.1354220
  74.8860523  36.0935539  96.2960187  73.6660256  35.3263477 110.0431503
  73.0358917  36.0079758 110.2766900  73.5596344  35.2146558 109.0984641
  68.9605228  34.9935273 100.9697427  68.1704282  35.2492801 100.4937538
  69.4516476  35.8083611 101.0749468  82.9769038  42.3340512 103.7202708
  83.7986482  41.9320699 103.4385390  82.9731441  42.2308746 104.6718824
  70.9119974  35.3579852  97.9280904  70.1151137  35.4698546  98.4464400
  70.6845566  35.6966504  97.0621794  76.7425641  41.8824555 105.8763418
  76.8070074  42.3444962 106.7121590  76.0336565  41.2521920 106.0045728
  67.2442931  35.2465763 103.4012418  67.4950970  36.1312773 103.6669994
  67.7802480  35.0670365 102.6287510  91.0675031  38.6779260 100.0687679
  90.3138739  38.1086658  99.9131684  91.2022572  38.6441925 101.0158314
  76.4573659  43.5492663  95.7442399  76.3219334  44.3944198  96.1727247
  76.9983472  43.7511940  94.9808333  72.9440999  29.6284243 112.4056754
  72.5507944  29.0750441 113.0804398  73.7607139  29.9394821 112.7963272
  69.9103056  41.0668101  96.3170324  70.4227577  41.8611351  96.4675889
  70.5625769  40.3694391  96.2503925  71.7197941  44.1833857  98.3993077
  71.8964569  45.1051822  98.2114061  72.5154775  43.8692276  98.8287457
  75.8608960  31.0442122 109.9977011  76.6018673  31.6449275 109.9181473
  76.0926883  30.3019759 109.4395053  71.0050298  36.2298489 108.2755240
  70.8903813  35.3283746 108.5762339  70.1494815  36.4762186 107.9240057
  78.0842135  44.1716229 109.8742741  77.6405990  43.3852608 109.5563645
  78.7459349  44.3595380 109.2086632  72.8429257  45.7012031 104.4003419
  73.3936682  45.5729094 103.6280413  72.0040733  46.0006920 104.0498312
  80.1823374  44.4519029 107.9024142  80.1641849  45.2727910 107.4104411
  81.1043294  44.3273104 108.1274283  76.6396428  41.9663159 108.7447651
  77.1724764  41.2051447 108.5146958  76.1110509  41.6736810 109.4871805
  79.8066123  27.0723225 104.2741292  79.4630392  27.9624866 104.1980403
  80.1745085  26.8824882 103.4110877  67.8751973  39.3956755  97.0929894
  68.7127195  39.8053763  96.8763602  68.0530241  38.4556197  97.0630088
  79.7716405  37.0631836  92.7813727  79.2563029  37.8336440  93.0202115
  79.4993714  36.3896972  93.4046789  77.3563516  31.9081536  97.8398966
  76.5005113  31.5188387  97.6604604  77.7690468  31.9873497  96.9798751
  78.8862663  29.4427880 102.2390526  78.3827459  29.4058015 101.4258331
  79.1793270  30.3520622 102.2987182  75.1305549  29.5266609 101.2456707
  75.9958546  29.3309418 100.8862597  75.1983058  29.2976961 102.1726064
  84.7450679  39.8164190  94.7166901  83.9680122  39.4775350  94.2722063
  85.4242160  39.8216813  94.0421866  79.5602709  34.9358928  94.6073509
  79.2552844  35.2505077  95.4583652  80.5133151  35.0140348  94.6500842
  78.0049140  41.0949151  96.2566463  77.4770502  40.3601911  95.9439700
  77.5036643  41.8723827  96.0106431  82.9841986  39.2898172 101.3733509
  82.3265661  39.9797433 101.4613637  83.7882386  39.6794604 101.7167495
  72.7367868  31.7568817  98.6173074  73.3111620  31.5343999  97.8846267
  73.3238850  31.8257512  99.3701675  81.7947445  37.6442544  99.4237451
  82.3079327  38.2772536  99.9259160  82.4448669  37.0443740  99.0580811
  73.0637455  33.7873278  92.6368959  72.2274767  34.1247965  92.9578234
  72.9242225  33.6522258  91.6996096  75.0390536  28.6310066  97.3448143
  74.3854948  28.3159083  96.7204758  74.9971010  28.0085807  98.0707966
  76.1501741  38.9129361  89.2601436  75.2428802  38.6818615  89.4592585
  76.6472773  38.1166981  89.4475417  79.0569819  47.6226869  92.1798122
  78.3831518  47.9258565  92.7883080  79.4435641  48.4255949  91.8303579
  78.2728276  35.1192000 101.6695791  77.3550837  35.3406947 101.5117479
  78.6888420  35.1938310 100.8107498  79.0563324  36.5183416  96.7998471
  79.8035143  37.0304813  96.4905593  79.3254913  36.1967468  97.6602865
  77.3289974  39.0141956  93.7825426  76.4201193  38.7300989  93.8797895
  77.3585058  39.4341035  92.9228733  82.5609241  42.6248546  97.5516593
  82.1071568  41.7839456  97.6081784  81.9303208  43.2609944  97.8891373
  81.5042161  33.5540532  98.7817261  80.7664918  33.0417918  99.1127503
  81.7568934  33.1140913  97.9700538  81.0042181  44.4625042  98.4866411
  81.2965155  45.0230100  97.7678777  81.5140801  44.7553603  99.2419570
  81.6053788  26.3316784  99.3759030  81.9112665  25.4714147  99.0884945
  82.3306393  26.9234404  99.1758024  67.8978144  36.7347470  97.7640628
  67.7002544  36.1416831  97.0391694  67.3424808  36.4299681  98.4816567
  75.8774868  36.6270577  99.8835221  75.9323478  35.6744413  99.8077698
  75.0666070  36.7830016 100.3676519  77.0266062  40.5550700  91.1213504
  76.5885492  39.8386559  90.6619142  77.7676503  40.7826815  90.5598596
  73.8167228  35.2447637  97.6425600  73.0035093  35.5441807  98.0490792
  74.3126222  34.8503325  98.3600082  75.9675806  45.2405394  99.5759865
  75.9251985  45.4666240  98.6468397  76.8838505  45.0068768  99.7245666
  79.4141440  35.7089461 106.4740494  79.7690827  35.9360934 107.3334960
  80.0613571  36.0407838 105.8517749  85.1439177  38.8307897  97.1789823
  85.0057075  39.0209493  96.2511012  84.7875395  39.5927280  97.6357874
  73.3081303  32.8165992 103.2586835  73.9480682  32.6754751 102.5609798
  72.4758833  32.5300505 102.8825437  85.1708556  40.8984424 102.1901094
  85.6045063  40.8059713 103.0384148  85.8840137  40.8741924 101.5521110
  74.0841607  42.1168423  99.3721827  74.8782205  41.6218743  99.1704402
  73.3733299  41.5886286  99.0089533  78.9036451  44.4986518 103.7234195
  78.9573473  45.0677454 104.4911911  78.0351232  44.6688403 103.3588232
  70.3924370  36.2611504  95.4481580  69.4621958  36.1995960  95.6651542
  70.4881842  35.7387457  94.6518221  70.3109919  32.7866317  98.0359822
  70.5716736  33.7011650  97.9268982  71.1327091  32.3190760  98.1856434
  71.7834844  34.2004074 105.2058646  72.4557898  33.9921436 104.5571295
  70.9564631  34.0026160 104.7663878  86.0324106  40.9408125 104.7233980
  86.2259996  41.8453935 104.9693255  85.9324724  40.4815544 105.5572565
  77.6860416  30.8266015 107.2224307  77.0388332  31.5255965 107.1288783
  78.4561432  31.2602159 107.5900555  81.0939214  41.0914867 110.2974860
  80.9424721  40.8625419 109.3804944  81.0843894  42.0485469 110.3106205
  77.8624551  38.6646780 105.2821127  78.7916611  38.8157940 105.1090094
  77.4415581  38.7530801 104.4269773  76.6612883  42.6897445 103.0519664
  76.5223968  42.3216229 103.9245602  75.8727479  43.2045084 102.8803622
  77.2561035  47.7906541  94.3945201  77.4312790  47.3194584  95.2090824
  76.5693823  48.4172307  94.6226462  78.2118098  42.0679047 100.4408502
  77.8767930  42.0279817 101.3366152  77.7122043  41.4023763  99.9678912
  72.1862342  37.4746677 105.9661083  72.0482140  36.7426916 106.5672622
  73.0967265  37.3855577 105.6845271  81.1477289  39.4135082  90.7145562
  80.5306460  38.6881910  90.6178615  80.6793778  40.1744442  90.3712636
  74.8144642  37.1866637 105.4544763  75.5244261  36.5459829 105.4131381
  74.7713951  37.4379531 106.3770944  82.8031421  44.1233990 108.3751342
  82.7443967  43.4393210 107.7081925  83.2050939  44.8652980 107.9231968
  73.5273576  34.1731854 107.2740402  72.9910933  33.7222593 107.9261999
  72.9390285  34.3077763 106.5310867  71.8222120  50.9395904 101.1685061
  72.0618718  51.5714428 101.8464080  70.9791316  50.5883944 101.4550420
  72.9375835  33.6320506  89.8366866  72.0605302  33.5109307  89.4729113
  73.4133588  32.8406584  89.5845755  82.8048828  42.0873574 106.6065322
  81.9175607  41.7499496 106.7291721  83.3747379  41.3556605 106.8434087
  64.4577975  38.4197666  99.9308373  65.1449015  38.1059396  99.3429389
  64.3026104  39.3239030  99.6575625  69.2612698  33.3087862 104.3593397
  69.1770886  32.7013532 103.6243807  68.4395404  33.7996880 104.3602893
  76.3349982  46.7475026 103.5726565  76.2620153  47.5529998 104.0845870
  75.8927375  46.9466992 102.7474586  76.1239761  45.9846796  97.0829387
  75.3407283  46.5268476  97.1767611  76.8232507  46.5020776  97.4823628
  79.4336411  31.7941426  99.7263592  79.9305111  31.0411388  99.4064662
  78.6623393  31.8305742  99.1606801  87.2866169  37.4981791 101.3681884
  87.2756045  38.3806507 100.9975817  86.4183548  37.1453342 101.1736421
  78.7948665  46.6461860 105.7284724  79.5076637  47.2809325 105.6560625
  78.3038694  46.7425726 104.9124726  80.5166192  40.5513113  97.3002015
  79.5822471  40.6714575  97.1306720  80.6942861  39.6485580  97.0362025
  76.0171380  33.9358809  99.4535277  75.6469168  33.3829849 100.1416182
  76.5130473  33.3316942  98.9010277  83.9038743  36.3930432  97.8352050
  84.3699196  37.2258424  97.7612352  84.3546244  35.9275414  98.5397308
  73.8460579  44.3956304 106.5490295  74.5470038  45.0292787 106.7019689
  73.3755694  44.7371035 105.7885934  81.9714975  42.7374253  94.8338202
  82.2474819  42.6230848  95.7432076  81.1019473  42.3391738  94.7950375
  81.8755406  28.7611019 101.8742951  80.9618486  28.9915246 102.0425158
  82.3048508  28.8449463 102.7256983  81.6461865  36.9500911 104.3742845
  80.9933315  37.1976819 103.7195298  82.0242245  36.1365049 104.0405322
  78.6069039  46.9860604  98.4771015  78.7891433  46.1682260  98.9398768
  79.4302025  47.2028297  98.0395905  78.9411204  45.9128789  95.7386064
  79.4698971  45.4021244  95.1256226  79.2039424  45.5971320  96.6031597
  77.6949438  37.6920722 110.8608882  77.0190075  37.5914852 111.5311257
  78.5177072  37.5359936 111.3244879  69.4428297  43.9292659 103.4821397
  70.0281734  43.1836347 103.6149301  69.2453135  44.2396615 104.3658061
  72.2966952  46.9643906  98.4983840  71.6277327  47.4490034  98.0147880
  72.1579822  47.2113127  99.4127218  64.0345952  36.4998259 102.2025840
  64.0730051  35.9661850 102.9962958  63.5286244  35.9733464 101.5836818
  76.4372221  48.9987650 105.0966498  76.9890529  49.1619271 105.8615583
  76.7778414  49.5892087 104.4246523  71.4136714  31.3462799 105.6988383
  71.4778040  32.2077630 105.2865780  71.3503834  30.7336801 104.9660741
  70.8888986  33.4185932 109.3461417  71.5161025  33.0363009 109.9598941
  70.0316905  33.2000134 109.7117109  81.2883095  43.8248907 110.9515152
  81.8322999  44.4378865 110.4570107  80.7069940  44.3828486 111.4682165
  67.6654529  35.2262361  95.2779772  67.9607970  34.3173040  95.2246825
  66.7642565  35.2050101  94.9560774  79.5740608  46.9469625 102.0830180
  79.4491747  46.1459365 101.5741126  80.2319699  47.4415819 101.5944150
  71.1948776  33.3018358 101.2607320  70.4735362  33.9154325 101.1214794
  71.9842032  33.8376122 101.1823966  81.6375516  44.7478645 103.7109730
  80.6905852  44.6283996 103.6388057  81.9858289  43.8601143 103.7935992
  73.9975090  30.6372784 107.5347972  74.5209491  30.8835081 108.2974281
  73.7787423  31.4692819 107.1151109  69.3942371  32.9076459  95.4019097
  69.0655077  32.0273838  95.2194203  69.7481741  32.8524127  96.2895486
  78.6421950  44.5431361  99.9114082  78.4946912  43.6148069 100.0921652
  79.4675443  44.5651452  99.4271158  72.5084194  33.1949429  95.7694575
  72.8480266  33.7235350  95.0473183  72.9556314  33.5329835  96.5453141
  82.2456071  45.3659920 100.9978955  83.1702619  45.1602782 100.8603406
  82.0771375  45.1176321 101.9068297  75.2027635  31.5786479 105.2197643
  74.8624455  30.7794292 105.6218323  74.4966641  31.8788190 104.6474476
  75.8544107  28.6635792 103.6724966  76.6770176  28.1896270 103.5503856
  76.0982170  29.4426275 104.1723652  74.4952341  31.6924050  93.9687867
  75.2160704  32.0705303  93.4651584  73.8717645  32.4112927  94.0722845
  78.6383464  32.3969199  94.9046200  78.8547078  33.2793837  94.6035028
  78.1577531  32.0055413  94.1751842  73.3782685  35.3554912 101.4816944
  73.2327266  35.6695215 102.3741226  72.9007889  35.9739813 100.9287843
  75.2379068  32.3457460 101.5297834  75.2240637  31.4498554 101.1930132
  75.9551496  32.3528124 102.1636120  77.0905199  32.7794801 103.5750961
  76.8322977  33.7011871 103.5735292  76.5590239  32.3825235 104.2651425
  82.0351388  45.8845588  96.3541047  82.2088265  45.3192010  95.6014899
  82.5280279  46.6846483  96.1720537  67.8528347  37.8960257 104.4204605
  67.3081816  38.6720065 104.5524880  68.7307697  38.2431061 104.2623727
  74.6415964  31.2271841  96.7985404  74.7631875  30.2988487  96.9976291
  74.3518006  31.2410527  95.8863719  77.5107155  28.9126751  99.9352124
  77.5328851  28.9766084  98.9804103  77.9275214  28.0731260 100.1292630
  87.8890779  38.6482011  97.9731346  88.3321925  37.8989336  97.5750470
  87.0117289  38.6392147  97.5905078  83.0226560  45.2012352  93.4537945
  83.7177465  45.8219045  93.6725260  83.3649710  44.3507703  93.7290323
  68.6394369  37.0230153 107.3134762  67.8976105  37.1712788 107.8999393
  68.3187114  37.2838419 106.4501512  84.9217983  42.6512058  94.9825276
  85.4469307  42.9899330  94.2574596  84.8340336  41.7159073  94.7988410
  76.5838032  46.5646131 107.1115152  76.8925158  46.3195278 107.9837852
  77.3813514  46.7692770 106.6234023  76.6058644  48.7184041  99.3420529
  76.1663634  48.2260420 100.0353386  77.3566761  48.1757009  99.1012604
  69.0850983  44.9095582  99.3445157  69.9109003  44.6099354  98.9643800
  68.7345035  44.1403204  99.7934946  74.0532516  44.2622050 101.4142831
  73.4312525  43.5992755 101.1145058  74.7237383  44.2883182 100.7316478
  67.2859588  42.8281908 100.3034091  66.4491496  42.4004083 100.1218092
  67.2583233  43.0214352 101.2404882  74.1257044  32.7403838 111.0075337
  74.1745199  33.6165961 110.6253106  74.6679558  32.1981231 110.4346980
  84.6111889  43.2844961 110.2876474  83.8207433  43.2669100 109.7480973
  84.3745244  43.8233255 111.0425510  84.7309764  40.1337428 107.6009202
  84.7807769  39.9687435 108.5424725  84.6223688  39.2664687 107.2107083
  73.6146023  42.8125973  94.8901291  73.7634143  43.4961438  94.2367964
  74.4212467  42.7931063  95.4050747  82.0213527  36.1168356 108.9168509
  82.9223390  35.9774820 108.6252507  82.0961501  36.2822810 109.8566686
  76.3556332  33.4935210 107.7621695  75.4859642  33.7868776 107.4904284
  76.5915812  34.0775655 108.4828959  86.2327961  42.5534369 107.8451224
  85.9412770  42.9164350 108.6814685  85.6200092  41.8401377 107.6664556
  87.4323644  40.1187249 100.3653794  88.2670535  40.5577053 100.5291354
  87.5682772  39.6425902  99.5462040  84.4815149  37.6766984 106.3131282
  84.9569271  37.8694630 105.5050133  83.5580715  37.7326170 106.0674665
  71.3698656  38.8391151  95.8962360  71.1244698  37.9353481  96.0942570
  71.5394571  38.8408301  94.9541838  79.0595366  29.7114827 105.2787116
  79.5777310  30.4475854 104.9533604  78.7050499  30.0178821 106.1133875
  70.6394304  34.5719509  93.3948521  69.9463549  34.6463863  92.7388557
  70.3946055  33.8079852  93.9170038  79.3107960  26.1315110 100.7988012
  79.5909714  25.4638299 101.4248439  80.0958567  26.3244205 100.2862676
  77.1141429  45.3074104  92.3613039  76.5415396  45.9264291  91.9083510
  77.6874222  45.8573465  92.8952960  83.1816818  34.5532744 104.5459587
  84.1334241  34.6530841 104.5671811  83.0120269  33.7611012 105.0557672
  81.2031198  31.6388327 104.7318988  80.6081130  31.9193340 104.0365477
  80.9180895  32.1282228 105.5035729  80.3338688  45.5911254  93.4921621
  81.2669362  45.5256816  93.6954496  80.2461901  46.4267521  93.0336153
  82.9626705  44.9077124  90.4525568  82.8840337  44.5736988  91.3461326
  83.7836372  45.3998892  90.4517041  85.6604896  37.7738864 103.6601887
  85.6281216  36.8354864 103.8461571  86.2705520  37.8522900 102.9267712
  77.4988227  36.6434916  89.7029091  78.4447332  36.5141125  89.7717509
  77.1202472  35.9049578  90.1798519  85.8099385  34.5649907 103.7060170
  85.2938433  33.7808364 103.5190099  86.6939333  34.2368624 103.8706690
  83.4710112  28.3090923  99.6655983  83.2734933  28.0006011 100.5499315
  84.0809817  29.0352561  99.7953913  91.4781446  38.8354870 102.8007924
  92.2084835  38.5740158 103.3615627  90.8688392  38.0983592 102.8409992
  89.5596743  36.9762733 103.3982375  88.8329907  36.8418698 102.7898867
  89.1444030  37.2839562 104.2039093  77.3826920  40.6952663 111.1629748
  78.3029929  40.8731262 111.3569795  77.3476503  39.7508708 111.0109447
  75.6831144  34.5684893  89.6383976  74.7762600  34.2718006  89.7146690
  75.9607125  34.2714711  88.7718262  66.6009085  35.8891256 100.0883023
  66.2811869  35.0356564  99.7957397  66.0542513  36.1039834 100.8440990
  70.3788992  38.6053697 103.8052529  70.5975002  39.5370805 103.8240563
  70.7914766  38.2461672 104.5907333  77.2993210  29.1121783  95.7928218
  76.4893938  28.7668868  96.1683464  77.9877627  28.8029326  96.3815829
  79.2283758  28.1899829  97.4152514  79.7814797  28.6095283  98.0742537
  79.4653845  27.2635578  97.4575470  75.2516857  34.1786903 113.1955278
  75.1513584  35.1281260 113.1267369  75.0338400  33.8505142 112.3231348
  74.4529929  31.4271828  89.7795955  75.3149093  31.7526726  90.0391773
  74.6380273  30.6403324  89.2669021  66.4697345  39.5094168 102.0576144
  65.7760816  39.0948121 101.5446099  67.2170336  39.5514704 101.4609563
  82.6062565  30.3000355  96.9231178  82.0261234  30.9585159  96.5409231
  82.3398498  29.4777699  96.5118596  81.0566132  29.7005412  99.1252499
  81.5565910  29.8121947  98.3166818  81.7001740  29.3966465  99.7653307
  75.1148128  37.6084042 112.0120340  74.6315209  38.4084402 112.2184229
  75.2009067  37.6191987 111.0587784  68.3834087  39.4412422  99.9342159
  68.3604775  39.5400109  98.9824042  68.6934724  40.2877572 100.2559325
  71.0421465  41.4988577 104.0488774  71.9964719  41.4672519 103.9818705
  70.8433989  41.0379200 104.8638999  71.6320847  40.0689693 106.6159571
  72.4513736  40.5633771 106.6394408  71.9057655  39.1521661 106.5877139
  81.3887443  32.4600445  95.9787527  80.5013298  32.7450096  95.7607721
  81.8041432  32.2994208  95.1314804  84.7401980  32.4846966  99.6941866
  85.5162370  32.9743418  99.9666483  84.0150114  32.9105020 100.1513735
  87.1774538  33.1974585 100.7515807  87.7719029  32.9570321 100.0409115
  87.2501122  32.4781716 101.3789343  69.3971694  47.0408196 101.0658971
  69.2626162  46.2808597 100.4996969  68.9803756  47.7649096 100.5987760
  80.5330657  42.2245120  90.0735547  81.2366507  42.4295122  90.6893202
  79.8093306  42.7921882  90.3384630  81.3628467  37.9754981  96.1937817
  81.3063669  38.4323532  95.3545449  81.9156810  37.2145665  96.0160660
  85.1733273  33.7644713  97.0187936  84.9170207  33.3641348  97.8496144
  84.5486141  34.4788507  96.8938076  89.4845611  36.5040786  99.5259228
  88.9245169  36.5733975 100.2990790  88.8789114  36.3281771  98.8058724
  72.5540820  47.9377513 101.2777414  72.4373204  48.8822946 101.1756104
  71.7333266  47.6351075 101.6663213  82.4417354  42.6627649  92.1234007
  83.2762958  42.2308847  91.9411482  82.2801697  42.4909662  93.0510901
  82.0963246  39.1659762  93.4890346  82.0412050  39.0004034  92.5478790
  81.4709302  39.8735795  93.6452536  66.8855761  34.4027826 107.3151768
  67.5314625  33.8926780 107.8038993  66.6772913  35.1396508 107.8895194
  79.4109154  41.4708674 112.8143909  80.2800313  41.6449326 112.4530544
  78.9315905  42.2903091 112.6919638  75.4059372  28.6667871  93.0675664
  75.3938042  29.6109711  93.2243935  76.2982794  28.4838017  92.7735126
  73.5795334  48.5905775 104.4933342  74.4822581  48.6229385 104.8099837
  73.3532704  47.6606226 104.5079678  75.3348936  47.3436762 101.1543421
  74.3844567  47.3438623 101.0407793  75.6381422  46.5969496 100.6379456
  79.2211491  25.2610648  97.3221601  78.4543887  24.7069134  97.4678284
  79.6322196  25.3332517  98.1835753  71.2253252  31.5495444 111.4126782
  72.0884714  31.1932248 111.6230107  70.6518663  31.2109338 112.1002187
  91.0701629  53.1797300 102.2189183  91.7080039  53.0604047 101.5152524
  90.9522472  54.1278144 102.2777136  87.8791336  53.1324728 102.1550708
  87.5409847  53.0165793 101.2671243  88.7481104  52.7315893 102.1351714
  83.7378151  54.9860204  98.1447599  83.1743016  54.8950141  97.3763887
  83.6230546  54.1660109  98.6250092  88.3611119  54.2859580 108.1136914
  88.3499759  53.8912378 107.2417417  88.5231758  53.5525652 108.7070685
  81.2842583  56.4811396 100.9831820  82.0763875  56.1402221 100.5678119
  81.5239233  56.5906371 101.9033973  89.3177710  58.6531172  93.4562064
  88.6665690  59.2385253  93.0696078  90.1122073  59.1837367  93.5157102
  83.2433337  55.7420309  93.8549198  84.0164213  55.1949296  93.7162074
  83.5958736  56.6064559  94.0663660  85.0818380  57.0696692 107.0616098
  84.7908246  57.9742322 106.9462764  85.7175364  57.1113219 107.7760167
  86.0074587  54.4473540 103.6517457  86.6038159  54.2229562 102.9374420
  86.0649558  53.7058286 104.2542905  85.5799615  51.9012975  91.4867648
  85.8325136  51.3794497  90.7251111  84.6424174  51.7379121  91.5894332
  90.6242898  50.9048754  99.2942392  91.4105987  50.4868177  98.9432809
  90.8881602  51.8094846  99.4624040  90.7952975  56.3421604  93.9931048
  90.1598808  56.4156231  94.7051953  90.4650382  56.9315203  93.3150128
  96.0251325  50.8423987 100.1975370  96.7576497  50.2723204 100.4313200
  95.2690681  50.4545587 100.6381876  85.2995904  53.8041081  93.6892023
  85.1832162  53.1285985  94.3573108  85.4098164  53.3173455  92.8724176
  87.6427445  53.2651228  97.3938712  87.2785652  52.7381849  98.1051634
  88.4994561  52.8749698  97.2205198  93.5476745  44.5545561 104.6569979
  93.2160070  45.4240972 104.4331194  92.9522359  44.2381845 105.3364009
  87.2832932  48.2941128  92.3900061  87.4507334  49.1621365  92.7570532
  87.0930101  48.4568410  91.4661350  90.0408265  56.7558107 104.0565891
  89.7408988  57.6583146 103.9481699  89.6959324  56.4890290 104.9087044
  83.4920746  53.2071904 100.0902596  82.5671243  53.0748118 100.2980288
  83.7405160  53.9866123 100.5872538  93.4405409  49.2740647 101.7363329
  92.5322286  49.2056056 101.4422090  93.3893004  49.7512592 102.5645154
  87.2622153  50.7498786  93.3746728  87.1421778  51.1955836  94.2132208
  86.5674741  51.0984103  92.8160266  80.8529557  52.8505177 100.9246385
  80.9821939  53.1039656 101.8385797  80.1727009  53.4432885 100.6051040
  85.0229045  63.5202427  97.0236859  84.9453074  64.4710252  97.1025340
  84.4190688  63.1748300  97.6811785  87.5146274  50.6930293 109.6798226
  86.7379608  51.2524213 109.6701091  88.1536837  51.1787076 110.2013096
  95.3067055  47.4757086 103.5141203  94.6641435  47.7689619 102.8680997
  94.8021984  47.3610006 104.3194399  92.9607219  51.2220259  94.2027062
  93.8725075  51.4547646  94.0274759  92.4516866  51.8057303  93.6402140
  85.7692647  53.5015746 109.2416193  86.5107331  54.0400790 108.9651017
  85.0629632  54.1282035 109.3987745  91.2447986  55.6444887 107.8388354
  91.6531342  55.2027297 107.0942987  90.5225248  55.0697514 108.0922547
  87.5979056  50.5817493 105.2121911  88.4440252  51.0056907 105.3556560
  87.5377694  49.9251118 105.9060475  91.5676801  56.2046077 101.5940643
  90.9385663  56.3691791 100.8916711  91.1802463  56.6187687 102.3651607
  95.4466033  57.1400515  98.9485007  94.7617071  57.5199417  98.3982040
  95.5309882  57.7495842  99.6816955  90.7478502  48.2421862 106.8703085
  90.5039434  48.9963922 106.3337361  91.0238432  48.6207209 107.7050332
  92.7016964  54.7860474 105.5480351  92.9133860  55.4292234 104.8714732
  92.6546713  53.9522791 105.0802281  90.3043193  47.3978295 102.4516923
  89.4427672  47.6959548 102.7433660  90.3305628  47.6148694 101.5197955
  87.1204763  55.9420485  98.8590728  87.5843108  56.2208188  98.0695351
  86.8561561  55.0403930  98.6763819  84.0128844  55.4891967 101.7970492
  84.5830201  55.9179235 101.1587976  84.6036956  55.2074552 102.4954677
  86.0573649  52.0643638  95.6680294  86.7597692  52.5164681  96.1354220
  85.7254277  51.4227457  96.2960187  84.5054010  50.6555394 110.0431503
  83.8752671  51.3371675 110.2766900  84.3990098  50.5438476 109.0984641
  79.7998983  50.3227190 100.9697427  79.0098037  50.5784719 100.4937538
  80.2910230  51.1375528 101.0749468  93.8162792  57.6632430 103.7202708
  94.6380236  57.2612617 103.4385390  93.8125195  57.5600664 104.6718824
  81.7513728  50.6871770  97.9280904  80.9544892  50.7990464  98.4464400
  81.5239320  51.0258422  97.0621794  87.5819396  57.2116473 105.8763418
  87.6463828  57.6736880 106.7121590  86.8730320  56.5813838 106.0045728
  78.0836686  50.5757681 103.4012418  78.3344724  51.4604691 103.6669994
  78.6196234  50.3962282 102.6287510 101.9068785  54.0071178 100.0687679
 101.1532494  53.4378576  99.9131684 102.0416327  53.9733843 101.0158314
  87.2967414  58.8784580  95.7442399  87.1613088  59.7236116  96.1727247
  87.8377226  59.0803858  94.9808333  83.7834753  44.9576160 112.4056754
  83.3901699  44.4042359 113.0804398  84.6000894  45.2686739 112.7963272
  80.7496811  56.3960018  96.3170324  81.2621332  57.1903269  96.4675889
  81.4019524  55.6986309  96.2503925  82.5591696  59.5125775  98.3993077
  82.7358324  60.4343739  98.2114061  83.3548529  59.1984194  98.8287457
  86.7002714  46.3734039 109.9977011  87.4412428  46.9741192 109.9181473
  86.9320637  45.6311677 109.4395053  81.8444052  51.5590407 108.2755240
  81.7297567  50.6575664 108.5762339  80.9888570  51.8054103 107.9240057
  88.9235890  59.5008147 109.8742741  88.4799744  58.7144525 109.5563645
  89.5853104  59.6887297 109.2086632  83.6823011  61.0303948 104.4003419
  84.2330436  60.9021012 103.6280413  82.8434487  61.3298837 104.0498312
  91.0217128  59.7810947 107.9024142  91.0035603  60.6019828 107.4104411
  91.9437048  59.6565022 108.1274283  87.4790182  57.2955076 108.7447651
  88.0118519  56.5343364 108.5146958  86.9504263  57.0028728 109.4871805
  90.6459877  42.4015142 104.2741292  90.3024147  43.2916784 104.1980403
  91.0138840  42.2116800 103.4110877  90.6110160  52.3923753  92.7813727
  90.0956783  53.1628358  93.0202115  90.3387468  51.7188890  93.4046789
  88.1957271  47.2373454  97.8398966  87.3398867  46.8480305  97.6604604
  88.6084223  47.3165415  96.9798751  89.7256418  44.7719797 102.2390526
  89.2221213  44.7349933 101.4258331  90.0187024  45.6812540 102.2987182
  85.9699303  44.8558527 101.2456707  86.8352300  44.6601336 100.8862597
  86.0376812  44.6268879 102.1726064  95.5844434  55.1456108  94.7166901
  94.8073877  54.8067268  94.2722063  96.2635915  55.1508731  94.0421866
  90.3996463  50.2650845  94.6073509  90.0946599  50.5796995  95.4583652
  91.3526905  50.3432265  94.6500842  88.8442895  56.4241069  96.2566463
  88.3164256  55.6893828  95.9439700  88.3430398  57.2015745  96.0106431
  93.8235741  54.6190089 101.3733509  93.1659415  55.3089351 101.4613637
  94.6276140  55.0086521 101.7167495  83.5761622  47.0860735  98.6173074
  84.1505374  46.8635917  97.8846267  84.1632605  47.1549430  99.3701675
  92.6341200  52.9734462  99.4237451  93.1473081  53.6064454  99.9259160
  93.2842424  52.3735657  99.0580811  85.8784290  43.9601984  97.3448143
  85.2248703  43.6451001  96.7204758  85.8364764  43.3377724  98.0707966
  86.9895495  54.2421279  89.2601436  86.0822557  54.0110532  89.4592585
  87.4866527  53.4458898  89.4475417  89.8963574  62.9518786  92.1798122
  89.2225273  63.2550483  92.7883080  90.2829396  63.7547867  91.8303579
  89.1122031  50.4483917 101.6695791  88.1944592  50.6698865 101.5117479
  89.5282174  50.5230228 100.8107498  89.8957078  51.8475333  96.7998471
  90.6428897  52.3596730  96.4905593  90.1648668  51.5259386  97.6602865
  88.1683728  54.3433874  93.7825426  87.2594948  54.0592907  93.8797895
  88.1978812  54.7632952  92.9228733  93.4002996  57.9540463  97.5516593
  92.9465323  57.1131373  97.6081784  92.7696963  58.5901862  97.8891373
  92.3435915  48.8832449  98.7817261  91.6058672  48.3709836  99.1127503
  92.5962689  48.4432831  97.9700538  91.8435935  59.7916960  98.4866411
  92.1358910  60.3522017  97.7678777  92.3534556  60.0845521  99.2419570
  92.4447543  41.6608701  99.3759030  92.7506420  40.8006065  99.0884945
  93.1700148  42.2526322  99.1758024  78.7371899  52.0639388  97.7640628
  78.5396299  51.4708749  97.0391694  78.1818563  51.7591598  98.4816567
  86.7168623  51.9562495  99.8835221  86.7717232  51.0036331  99.8077698
  85.9059825  52.1121934 100.3676519  87.8659816  55.8842618  91.1213504
  87.4279246  55.1678477  90.6619142  88.6070257  56.1118732  90.5598596
  84.6560982  50.5739554  97.6425600  83.8428848  50.8733725  98.0490792
  85.1519977  50.1795243  98.3600082  86.8069560  60.5697311  99.5759865
  86.7645739  60.7958157  98.6468397  87.7232259  60.3360686  99.7245666
  90.2535194  51.0381379 106.4740494  90.6084582  51.2652852 107.3334960
  90.9007325  51.3699756 105.8517749  95.9832931  54.1599815  97.1789823
  95.8450830  54.3501411  96.2511012  95.6269150  54.9219197  97.6357874
  84.1475057  48.1457910 103.2586835  84.7874437  48.0046669 102.5609798
  83.3152588  47.8592423 102.8825437  96.0102311  56.2276342 102.1901094
  96.4438817  56.1351631 103.0384148  96.7233891  56.2033842 101.5521110
  84.9235361  57.4460340  99.3721827  85.7175960  56.9510660  99.1704402
  84.2127053  56.9178203  99.0089533  89.7430206  59.8278436 103.7234195
  89.7967228  60.3969372 104.4911911  88.8744987  59.9980321 103.3588232
  81.1503674  48.1158235  98.0359822  81.4110491  49.0303568  97.9268982
  81.9720846  47.6482677  98.1856434  82.6228599  49.5295992 105.2058646
  83.2951652  49.3213354 104.5571295  81.7958385  49.3318078 104.7663878
  96.8717860  56.2700042 104.7233980  97.0653750  57.1745853 104.9693255
  96.7718478  55.8107461 105.5572565  88.5254171  46.1557933 107.2224307
  87.8782086  46.8547883 107.1288783  89.2955186  46.5894077 107.5900555
  91.9332969  56.4206785 110.2974860  91.7818475  56.1917337 109.3804944
  91.9237648  57.3777386 110.3106205  88.7018305  53.9938698 105.2821127
  89.6310365  54.1449857 105.1090094  88.2809335  54.0822719 104.4269773
  87.5006637  58.0189362 103.0519664  87.3617723  57.6508147 103.9245602
  86.7121233  58.5337002 102.8803622  88.0954789  63.1198459  94.3945201
  88.2706545  62.6486502  95.2090824  87.4087577  63.7464225  94.6226462
  89.0511852  57.3970965 100.4408502  88.7161685  57.3571735 101.3366152
  88.5515798  56.7315681  99.9678912  83.0256096  52.8038595 105.9661083
  82.8875894  52.0718834 106.5672622  83.9361020  52.7147495 105.6845271
  91.9871044  54.7426999  90.7145562  91.3700215  54.0173827  90.6178615
  91.5187532  55.5036359  90.3712636  85.6538397  52.5158554 105.4544763
  86.3638015  51.8751746 105.4131381  85.6107705  52.7671449 106.3770944
  93.6425176  59.4525908 108.3751342  93.5837722  58.7685128 107.7081925
  94.0444694  60.1944898 107.9231968  84.3667331  49.5023772 107.2740402
  83.8304688  49.0514511 107.9261999  83.7784039  49.6369681 106.5310867
  82.6615874  66.2687821 101.1685061  82.9012473  66.9006346 101.8464080
  81.8185071  65.9175861 101.4550420  83.7769590  48.9612424  89.8366866
  82.8999056  48.8401224  89.4729113  84.2527343  48.1698502  89.5845755
  93.6442583  57.4165492 106.6065322  92.7569362  57.0791413 106.7291721
  94.2141134  56.6848523 106.8434087  75.2971730  53.7489583  99.9308373
  75.9842770  53.4351313  99.3429389  75.1419859  54.6530948  99.6575625
  80.1006452  48.6379780 104.3593397  80.0164641  48.0305449 103.6243807
  79.2789158  49.1288798 104.3602893  87.1743736  62.0766944 103.5726565
  87.1013908  62.8821915 104.0845870  86.7321129  62.2758910 102.7474586
  86.9633516  61.3138714  97.0829387  86.1801038  61.8560394  97.1767611
  87.6626261  61.8312694  97.4823628  90.2730166  47.1233343  99.7263592
  90.7698865  46.3703306  99.4064662  89.5017147  47.1597660  99.1606801
  98.1259923  52.8273709 101.3681884  98.1149800  53.7098424 100.9975817
  97.2577303  52.4745260 101.1736421  89.6342420  61.9753778 105.7284724
  90.3470392  62.6101243 105.6560625  89.1432448  62.0717644 104.9124726
  91.3559947  55.8805031  97.3002015  90.4216225  56.0006493  97.1306720
  91.5336615  54.9777497  97.0362025  86.8565135  49.2650726  99.4535277
  86.4862922  48.7121767 100.1416182  87.3524227  48.6608860  98.9010277
  94.7432498  51.7222350  97.8352050  95.2092950  52.5550341  97.7612352
  95.1939998  51.2567331  98.5397308  84.6854333  59.7248221 106.5490295
  85.3863793  60.3584704 106.7019689  84.2149448  60.0662953 105.7885934
  92.8108729  58.0666171  94.8338202  93.0868573  57.9522766  95.7432076
  91.9413228  57.6683656  94.7950375  92.7149161  44.0902937 101.8742951
  91.8012241  44.3207164 102.0425158  93.1442262  44.1741381 102.7256983
  92.4855619  52.2792829 104.3742845  91.8327069  52.5268736 103.7195298
  92.8635999  51.4656967 104.0405322  89.4462793  62.3152522  98.4771015
  89.6285188  61.4974178  98.9398768  90.2695779  62.5320214  98.0395905
  89.7804959  61.2420707  95.7386064  90.3092725  60.7313162  95.1256226
  90.0433178  60.9263237  96.6031597  88.5343192  53.0212640 110.8608882
  87.8583829  52.9206769 111.5311257  89.3570826  52.8651854 111.3244879
  80.2822051  59.2584576 103.4821397  80.8675488  58.5128264 103.6149301
  80.0846890  59.5688533 104.3658061  83.1360707  62.2935824  98.4983840
  82.4671082  62.7781951  98.0147880  82.9973576  62.5405044  99.4127218
  74.8739706  51.8290177 102.2025840  74.9123806  51.2953767 102.9962958
  74.3679999  51.3025382 101.5836818  87.2765975  64.3279567 105.0966498
  87.8284283  64.4911189 105.8615583  87.6172169  64.9184005 104.4246523
  82.2530468  46.6754717 105.6988383  82.3171795  47.5369548 105.2865780
  82.1897589  46.0628719 104.9660741  81.7282741  48.7477850 109.3461417
  82.3554780  48.3654927 109.9598941  80.8710660  48.5292052 109.7117109
  92.1276849  59.1540825 110.9515152  92.6716753  59.7670783 110.4570107
  91.5463694  59.7120403 111.4682165  78.5048284  50.5554279  95.2779772
  78.8001725  49.6464957  95.2246825  77.6036319  50.5342018  94.9560774
  90.4134362  62.2761543 102.0830180  90.2885502  61.4751283 101.5741126
  91.0713454  62.7707736 101.5944150  82.0342531  48.6310275 101.2607320
  81.3129116  49.2446243 101.1214794  82.8235786  49.1668040 101.1823966
  92.4769271  60.0770563 103.7109730  91.5299606  59.9575914 103.6388057
  92.8252044  59.1893061 103.7935992  84.8368844  45.9664702 107.5347972
  85.3603246  46.2126998 108.2974281  84.6181177  46.7984737 107.1151109
  80.2336125  48.2368376  95.4019097  79.9048831  47.3565755  95.2194203
  80.5875496  48.1816045  96.2895486  89.4815704  59.8723279  99.9114082
  89.3340667  58.9439987 100.0921652  90.3069198  59.8943370  99.4271158
  83.3477948  48.5241346  95.7694575  83.6874021  49.0527267  95.0473183
  83.7950069  48.8621752  96.5453141  93.0849826  60.6951838 100.9978955
  94.0096373  60.4894699 100.8603406  92.9165129  60.4468239 101.9068297
  86.0421389  46.9078397 105.2197643  85.7018210  46.1086210 105.6218323
  85.3360395  47.2080108 104.6474476  86.6937861  43.9927709 103.6724966
  87.5163930  43.5188188 103.5503856  86.9375925  44.7718193 104.1723652
  85.3346096  47.0215968  93.9687867  86.0554458  47.3997221  93.4651584
  84.7111400  47.7404845  94.0722845  89.4777218  47.7261117  94.9046200
  89.6940833  48.6085755  94.6035028  88.9971286  47.3347330  94.1751842
  84.2176440  50.6846830 101.4816944  84.0721021  50.9987133 102.3741226
  83.7401643  51.3031730 100.9287843  86.0772823  47.6749378 101.5297834
  86.0634391  46.7790471 101.1930132  86.7945251  47.6820042 102.1636120
  87.9298953  48.1086718 103.5750961  87.6716731  49.0303789 103.5735292
  87.3983994  47.7117153 104.2651425  92.8745142  61.2137505  96.3541047
  93.0482020  60.6483928  95.6014899  93.3674033  62.0138400  96.1720537
  78.6922102  53.2252174 104.4204605  78.1475570  54.0011982 104.5524880
  79.5701452  53.5722979 104.2623727  85.4809719  46.5563758  96.7985404
  85.6025630  45.6280404  96.9976291  85.1911761  46.5702444  95.8863719
  88.3500909  44.2418669  99.9352124  88.3722606  44.3058002  98.9804103
  88.7668968  43.4023177 100.1292630  98.7284533  53.9773928  97.9731346
  99.1715679  53.2281253  97.5750470  97.8511044  53.9684065  97.5905078
  93.8620315  60.5304270  93.4537945  94.5571219  61.1510962  93.6725260
  94.2043465  59.6799621  93.7290323  79.4788124  52.3522071 107.3134762
  78.7369860  52.5004706 107.8999393  79.1580868  52.6130336 106.4501512
  95.7611738  57.9803975  94.9825276  96.2863062  58.3191248  94.2574596
  95.6734090  57.0450991  94.7988410  87.4231786  61.8938049 107.1115152
  87.7318913  61.6487196 107.9837852  88.2207268  62.0984687 106.6234023
  87.4452399  64.0475959  99.3420529  87.0057389  63.5552337 100.0353386
  88.1960515  63.5048926  99.1012604  79.9244737  60.2387499  99.3445157
  80.7502757  59.9391271  98.9643800  79.5738789  59.4695122  99.7934946
  84.8926271  59.5913968 101.4142831  84.2706280  58.9284673 101.1145058
  85.5631138  59.6175100 100.7316478  78.1253343  58.1573826 100.3034091
  77.2885251  57.7296000 100.1218092  78.0976988  58.3506269 101.2404882
  84.9650798  48.0695756 111.0075337  85.0138954  48.9457878 110.6253106
  85.5073312  47.5273149 110.4346980  95.4505644  58.6136879 110.2876474
  94.6601188  58.5961018 109.7480973  95.2138998  59.1525173 111.0425510
  95.5703519  55.4629345 107.6009202  95.6201524  55.2979353 108.5424725
  95.4617442  54.5956604 107.2107083  84.4539778  58.1417891  94.8901291
  84.6027898  58.8253355  94.2367964  85.2606221  58.1222981  95.4050747
  92.8607281  51.4460273 108.9168509  93.7617144  51.3066738 108.6252507
  92.9355256  51.6114728 109.8566686  87.1950087  48.8227128 107.7621695
  86.3253396  49.1160694 107.4904284  87.4309567  49.4067573 108.4828959
  97.0721716  57.8826287 107.8451224  96.7806524  58.2456267 108.6814685
  96.4593847  57.1693295 107.6664556  98.2717398  55.4479167 100.3653794
  99.1064289  55.8868971 100.5291354  98.4076527  54.9717820  99.5462040
  95.3208904  53.0058901 106.3131282  95.7963026  53.1986548 105.5050133
  94.3974469  53.0618087 106.0674665  82.2092411  54.1683069  95.8962360
  81.9638452  53.2645399  96.0942570  82.3788325  54.1700219  94.9541838
  89.8989120  45.0406745 105.2787116  90.4171064  45.7767772 104.9533604
  89.5444253  45.3470738 106.1133875  81.4788058  49.9011426  93.3948521
  80.7857303  49.9755781  92.7388557  81.2339810  49.1371770  93.9170038
  90.1501715  41.4607028 100.7988012  90.4303468  40.7930217 101.4248439
  90.9352322  41.6536123 100.2862676  87.9535183  60.6366021  92.3613039
  87.3809150  61.2556209  91.9083510  88.5267977  61.1865383  92.8952960
  94.0210573  49.8824661 104.5459587  94.9727996  49.9822759 104.5671811
  93.8514023  49.0902930 105.0557672  92.0424952  46.9680245 104.7318988
  91.4474885  47.2485257 104.0365477  91.7574649  47.4574146 105.5035729
  91.1732443  60.9203172  93.4921621  92.1063116  60.8548733  93.6954496
  91.0855656  61.7559438  93.0336153  93.8020460  60.2369042  90.4525568
  93.7234091  59.9028905  91.3461326  94.6230126  60.7290810  90.4517041
  96.4998651  53.1030781 103.6601887  96.4674971  52.1646782 103.8461571
  97.1099274  53.1814818 102.9267712  88.3381982  51.9726834  89.7029091
  89.2841086  51.8433042  89.7717509  87.9596227  51.2341496  90.1798519
  96.6493139  49.8941825 103.7060170  96.1332188  49.1100281 103.5190099
  97.5333088  49.5660541 103.8706690  94.3103866  43.6382840  99.6655983
  94.1128687  43.3297928 100.5499315  94.9203572  44.3644479  99.7953913
 102.3175201  54.1646788 102.8007924 103.0478589  53.9032076 103.3615627
 101.7082146  53.4275510 102.8409992 100.3990498  52.3054651 103.3982375
  99.6723661  52.1710616 102.7898867  99.9837785  52.6131479 104.2039093
  88.2220674  56.0244580 111.1629748  89.1423684  56.2023179 111.3569795
  88.1870257  55.0800626 111.0109447  86.5224899  49.8976811  89.6383976
  85.6156354  49.6009923  89.7146690  86.8000880  49.6006629  88.7718262
  77.4402839  51.2183174 100.0883023  77.1205623  50.3648482  99.7957397
  76.8936267  51.4331752 100.8440990  81.2182747  53.9345615 103.8052529
  81.4368756  54.8662723 103.8240563  81.6308520  53.5753589 104.5907333
  88.1386964  44.4413700  95.7928218  87.3287693  44.0960785  96.1683464
  88.8271381  44.1321244  96.3815829  90.0677513  43.5191747  97.4152514
  90.6208551  43.9387200  98.0742537  90.3047599  42.5927495  97.4575470
  86.0910612  49.5078821 113.1955278  85.9907339  50.4573178 113.1267369
  85.8732154  49.1797060 112.3231348  77.3091099  54.8386085 102.0576144
  76.6154571  54.4240038 101.5446099  78.0564090  54.8806622 101.4609563
  93.4456320  45.6292272  96.9231178  92.8654989  46.2877076  96.5409231
  93.1792253  44.8069617  96.5118596  91.8959886  45.0297330  99.1252499
  92.3959665  45.1413864  98.3166818  92.5395494  44.7258383  99.7653307
  85.9541882  52.9375960 112.0120340  85.4708964  53.7376320 112.2184229
  86.0402821  52.9483904 111.0587784  79.2227842  54.7704339  99.9342159
  79.1998530  54.8692027  98.9824042  79.5328478  55.6169490 100.2559325
  81.8815220  56.8280494 104.0488774  82.8358473  56.7964437 103.9818705
  81.6827743  56.3671118 104.8638999  82.4714602  55.3981610 106.6159571
  83.2907491  55.8925689 106.6394408  82.7451409  54.4813578 106.5877139
  92.2281198  47.7892363  95.9787527  91.3407053  48.0742013  95.7607721
  92.6435187  47.6286126  95.1314804  95.5795734  47.8138884  99.6941866
  96.3556124  48.3035336  99.9666483  94.8543868  48.2396938 100.1513735
  98.0168293  48.5266503 100.7515807  98.6112783  48.2862239 100.0409115
  98.0894876  47.8073633 101.3789343  80.2365448  62.3700114 101.0658971
  80.1019916  61.6100515 100.4996969  79.8197511  63.0941014 100.5987760
  91.3724411  57.5537037  90.0735547  92.0760261  57.7587040  90.6893202
  90.6487060  58.1213799  90.3384630  92.2022222  53.3046899  96.1937817
  92.1457423  53.7615450  95.3545449  92.7550564  52.5437583  96.0160660
  96.0127028  49.0936630  97.0187936  95.7563962  48.6933266  97.8496144
  95.3879896  49.8080424  96.8938076 100.3239365  51.8332704  99.5259228
  99.7638923  51.9025893 100.2990790  99.7182869  51.6573688  98.8058724
  83.3934574  63.2669431 101.2777414  83.2766958  64.2114863 101.1756104
  82.5727020  62.9642992 101.6663213  93.2811109  57.9919566  92.1234007
  94.1156713  57.5600765  91.9411482  93.1195452  57.8201580  93.0510901
  92.9357001  54.4951680  93.4890346  92.8805805  54.3295951  92.5478790
  92.3103056  55.2027713  93.6452536  77.7249516  49.7319744 107.3151768
  78.3708380  49.2218698 107.8038993  77.5166667  50.4688426 107.8895194
  90.2502908  56.8000592 112.8143909  91.1194068  56.9741244 112.4530544
  89.7709660  57.6195008 112.6919638  86.2453126  43.9959789  93.0675664
  86.2331796  44.9401629  93.2243935  87.1376548  43.8129934  92.7735126
  84.4189088  63.9197693 104.4933342  85.3216335  63.9521303 104.8099837
  84.1926458  62.9898144 104.5079678  86.1742690  62.6728679 101.1543421
  85.2238321  62.6730541 101.0407793  86.4775176  61.9261414 100.6379456
  90.0605246  40.5902565  97.3221601  89.2937642  40.0361052  97.4678284
  90.4715951  40.6624434  98.1835753  82.0647007  46.8787361 111.4126782
  82.9278468  46.5224166 111.6230107  81.4912418  46.5401256 112.1002187
 101.9095384  68.5089218 102.2189183 102.5473794  68.3895965 101.5152524
 101.7916227  69.4570062 102.2777136  98.7185090  68.4616646 102.1550708
  98.3803602  68.3457710 101.2671243  99.5874858  68.0607811 102.1351714
  94.5771906  70.3152122  98.1447599  94.0136771  70.2242059  97.3763887
  94.4624301  69.4952027  98.6250092  99.2004873  69.6151497 108.1136914
  99.1893514  69.2204296 107.2417417  99.3625513  68.8817570 108.7070685
  92.1236338  71.8103314 100.9831820  92.9157630  71.4694138 100.5678119
  92.3632988  71.9198289 101.9033973 100.1571465  73.9823090  93.4562064
  99.5059444  74.5677170  93.0696078 100.9515827  74.5129285  93.5157102
  94.0827092  71.0712227  93.8549198  94.8557968  70.5241214  93.7162074
  94.4352491  71.9356476  94.0663660  95.9212134  72.3988609 107.0616098
  95.6302000  73.3034240 106.9462764  96.5569119  72.4405137 107.7760167
  96.8468341  69.7765458 103.6517457  97.4431913  69.5521480 102.9374420
  96.9043313  69.0350203 104.2542905  96.4193369  67.2304893  91.4867648
  96.6718890  66.7086414  90.7251111  95.4817929  67.0671039  91.5894332
 101.4636652  66.2340671  99.2942392 102.2499742  65.8160095  98.9432809
 101.7275357  67.1386764  99.4624040 101.6346730  71.6713522  93.9931048
 100.9992563  71.7448148  94.7051953 101.3044136  72.2607121  93.3150128
 106.8645079  66.1715905 100.1975370 107.5970251  65.6015121 100.4313200
 106.1084435  65.7837505 100.6381876  96.1389658  69.1332999  93.6892023
  96.0225916  68.4577902  94.3573108  96.2491918  68.6465373  92.8724176
  98.4821199  68.5943146  97.3938712  98.1179406  68.0673767  98.1051634
  99.3388315  68.2041615  97.2205198 104.3870500  59.8837479 104.6569979
 104.0553825  60.7532890 104.4331194 103.7916113  59.5673763 105.3364009
  98.1226686  63.6233046  92.3900061  98.2901088  64.4913282  92.7570532
  97.9323855  63.7860328  91.4661350 100.8802019  72.0850025 104.0565891
 100.5802742  72.9875064 103.9481699 100.5353079  71.8182208 104.9087044
  94.3314501  68.5363822 100.0902596  93.4064997  68.4040036 100.2980288
  94.5798914  69.3158041 100.5872538 104.2799163  64.6032565 101.7363329
 103.3716040  64.5347973 101.4422090 104.2286759  65.0804510 102.5645154
  98.1015907  66.0790703  93.3746728  97.9815532  66.5247754  94.2132208
  97.4068495  66.4276021  92.8160266  91.6923312  68.1797095 100.9246385
  91.8215693  68.4331574 101.8385797  91.0120763  68.7724803 100.6051040
  95.8622799  78.8494345  97.0236859  95.7846829  79.8002170  97.1025340
  95.2584443  78.5040218  97.6811785  98.3540029  66.0222211 109.6798226
  97.5773363  66.5816131 109.6701091  98.9930592  66.5078993 110.2013096
 106.1460810  62.8049003 103.5141203 105.5035190  63.0981536 102.8680997
 105.6415738  62.6901924 104.3194399 103.8000973  66.5512177  94.2027062
 104.7118829  66.7839563  94.0274759 103.2910620  67.1349221  93.6402140
  96.6086401  68.8307664 109.2416193  97.3501086  69.3692708 108.9651017
  95.9023387  69.4573953 109.3987745 102.0841741  70.9736804 107.8388354
 102.4925097  70.5319215 107.0942987 101.3619002  70.3989432 108.0922547
  98.4372811  65.9109411 105.2121911  99.2834006  66.3348825 105.3556560
  98.3771449  65.2543035 105.9060475 102.4070555  71.5337995 101.5940643
 101.7779418  71.6983709 100.8916711 102.0196218  71.9479605 102.3651607
 106.2859787  72.4692433  98.9485007 105.6010826  72.8491334  98.3982040
 106.3703637  73.0787759  99.6816955 101.5872256  63.5713779 106.8703085
 101.3433188  64.3255840 106.3337361 101.8632187  63.9499127 107.7050332
 103.5410719  70.1152392 105.5480351 103.7527614  70.7584152 104.8714732
 103.4940467  69.2814708 105.0802281 101.1436948  62.7270212 102.4516923
 100.2821427  63.0251466 102.7433660 101.1699383  62.9440611 101.5197955
  97.9598517  71.2712403  98.8590728  98.4236863  71.5500106  98.0695351
  97.6955315  70.3695848  98.6763819  94.8522598  70.8183885 101.7970492
  95.4223955  71.2471153 101.1587976  95.4430710  70.5366469 102.4954677
  96.8967403  67.3935555  95.6680294  97.5991447  67.8456599  96.1354220
  96.5648032  66.7519374  96.2960187  95.3447765  65.9847312 110.0431503
  94.7146426  66.6663593 110.2766900  95.2383853  65.8730394 109.0984641
  90.6392737  65.6519108 100.9697427  89.8491791  65.9076637 100.4937538
  91.1303985  66.4667446 101.0749468 104.6556547  72.9924347 103.7202708
 105.4773991  72.5904535 103.4385390 104.6518950  72.8892581 104.6718824
  92.5907483  66.0163687  97.9280904  91.7938646  66.1282382  98.4464400
  92.3633075  66.3550340  97.0621794  98.4213150  72.5408391 105.8763418
  98.4857583  73.0028798 106.7121590  97.7124074  71.9105755 106.0045728
  88.9230440  65.9049599 103.4012418  89.1738479  66.7896608 103.6669994
  89.4589989  65.7254200 102.6287510 112.7462540  69.3363096 100.0687679
 111.9926248  68.7670494  99.9131684 112.8810081  69.3025760 101.0158314
  98.1361168  74.2076498  95.7442399  98.0006843  75.0528034  96.1727247
  98.6770981  74.4095776  94.9808333  94.6228508  60.2868078 112.4056754
  94.2295453  59.7334276 113.0804398  95.4394648  60.5978656 112.7963272
  91.5890565  71.7251936  96.3170324  92.1015086  72.5195186  96.4675889
  92.2413278  71.0278227  96.2503925  93.3985450  74.8417692  98.3993077
  93.5752078  75.7635657  98.2114061  94.1942284  74.5276112  98.8287457
  97.5396469  61.7025957 109.9977011  98.2806182  62.3033110 109.9181473
  97.7714391  60.9603595 109.4395053  92.6837807  66.8882324 108.2755240
  92.5691322  65.9867581 108.5762339  91.8282324  67.1346021 107.9240057
  99.7629644  74.8300065 109.8742741  99.3193499  74.0436443 109.5563645
 100.4246858  75.0179215 109.2086632  94.5216766  76.3595866 104.4003419
  95.0724191  76.2312930 103.6280413  93.6828241  76.6590755 104.0498312
 101.8610882  75.1102864 107.9024142 101.8429358  75.9311746 107.4104411
 102.7830803  74.9856940 108.1274283  98.3183937  72.6246994 108.7447651
  98.8512273  71.8635282 108.5146958  97.7898018  72.3320646 109.4871805
 101.4853632  57.7307060 104.2741292 101.1417901  58.6208702 104.1980403
 101.8532594  57.5408718 103.4110877  89.5539482  70.0540590  97.0929894
  90.3914704  70.4637599  96.8763602  89.7317750  69.1140033  97.0630088
 101.4503914  67.7215671  92.7813727 100.9350538  68.4920276  93.0202115
 101.1781223  67.0480807  93.4046789  99.0351025  62.5665372  97.8398966
  98.1792622  62.1772222  97.6604604  99.4477977  62.6457333  96.9798751
 100.5650172  60.1011715 102.2390526 100.0614968  60.0641850 101.4258331
 100.8580779  61.0104458 102.2987182  96.8093058  60.1850445 101.2456707
  97.6746055  59.9893253 100.8862597  96.8770567  59.9560797 102.1726064
 106.4238188  70.4748026  94.7166901 105.6467631  70.1359185  94.2722063
 107.1029669  70.4800649  94.0421866 101.2390217  65.5942763  94.6073509
 100.9340353  65.9088912  95.4583652 102.1920660  65.6724183  94.6500842
  99.6836649  71.7532986  96.2566463  99.1558011  71.0185746  95.9439700
  99.1824152  72.5307663  96.0106431 104.6629495  69.9482007 101.3733509
 104.0053170  70.6381268 101.4613637 105.4669895  70.3378439 101.7167495
  94.4155377  62.4152653  98.6173074  94.9899129  62.1927834  97.8846267
  95.0026359  62.4841347  99.3701675 103.4734954  68.3026380  99.4237451
 103.9866836  68.9356371  99.9259160 104.1236178  67.7027575  99.0580811
  94.7424964  64.4457114  92.6368959  93.9062276  64.7831800  92.9578234
  94.6029734  64.3106094  91.6996096  96.7178045  59.2893902  97.3448143
  96.0642457  58.9742919  96.7204758  96.6758519  58.6669642  98.0707966
  97.8289250  69.5713197  89.2601436  96.9216311  69.3402450  89.4592585
  98.3260282  68.7750816  89.4475417 100.7357328  78.2810704  92.1798122
 100.0619027  78.5842401  92.7883080 101.1223150  79.0839784  91.8303579
  99.9515785  65.7775835 101.6695791  99.0338346  65.9990782 101.5117479
 100.3675929  65.8522146 100.8107498 100.7350833  67.1767251  96.7998471
 101.4822652  67.6888648  96.4905593 101.0042422  66.8551304  97.6602865
  99.0077483  69.6725792  93.7825426  98.0988702  69.3884824  93.8797895
  99.0372567  70.0924870  92.9228733 104.2396750  73.2832381  97.5516593
 103.7859077  72.4423291  97.6081784 103.6090717  73.9193779  97.8891373
 103.1829670  64.2124367  98.7817261 102.4452427  63.7001753  99.1127503
 103.4356443  63.7724749  97.9700538 102.6829690  75.1208878  98.4866411
 102.9752664  75.6813935  97.7678777 103.1928310  75.4137439  99.2419570
 103.2841297  56.9900619  99.3759030 103.5900174  56.1297983  99.0884945
 104.0093902  57.5818239  99.1758024  89.5765653  67.3931306  97.7640628
  89.3790053  66.8000666  97.0391694  89.0212317  67.0883516  98.4816567
  97.5562377  67.2854412  99.8835221  97.6110987  66.3328249  99.8077698
  96.7453579  67.4413851 100.3676519  98.7053571  71.2134535  91.1213504
  98.2673001  70.4970394  90.6619142  99.4464012  71.4410650  90.5598596
  95.4954737  65.9031472  97.6425600  94.6822602  66.2025642  98.0490792
  95.9913731  65.5087161  98.3600082  97.6463315  75.8989229  99.5759865
  97.6039494  76.1250075  98.6468397  98.5626014  75.6652603  99.7245666
 101.0928949  66.3673296 106.4740494 101.4478336  66.5944770 107.3334960
 101.7401080  66.6991673 105.8517749 106.8226686  69.4891732  97.1789823
 106.6844584  69.6793328  96.2511012 106.4662904  70.2511115  97.6357874
  94.9868812  63.4749827 103.2586835  95.6268191  63.3338587 102.5609798
  94.1546342  63.1884341 102.8825437 106.8496065  71.5568259 102.1901094
 107.2832572  71.4643548 103.0384148 107.5627646  71.5325760 101.5521110
  95.7629116  72.7752258  99.3721827  96.5569714  72.2802578  99.1704402
  95.0520808  72.2470121  99.0089533 100.5823960  75.1570353 103.7234195
 100.6360982  75.7261290 104.4911911  99.7138741  75.3272238 103.3588232
  92.0711879  66.9195340  95.4481580  91.1409467  66.8579795  95.6651542
  92.1669351  66.3971292  94.6518221  91.9897428  63.4450152  98.0359822
  92.2504245  64.3595486  97.9268982  92.8114600  62.9774595  98.1856434
  93.4622353  64.8587910 105.2058646  94.1345407  64.6505272 104.5571295
  92.6352140  64.6609996 104.7663878 107.7111615  71.5991960 104.7233980
 107.9047505  72.5037770 104.9693255 107.6112233  71.1399379 105.5572565
  99.3647925  61.4849851 107.2224307  98.7175840  62.1839800 107.1288783
 100.1348941  61.9185994 107.5900555 102.7726723  71.7498703 110.2974860
 102.6212230  71.5209254 109.3804944 102.7631403  72.7069304 110.3106205
  99.5412060  69.3230615 105.2821127 100.4704120  69.4741775 105.1090094
  99.1203090  69.4114636 104.4269773  98.3400392  73.3481280 103.0519664
  98.2011477  72.9800064 103.9245602  97.5514988  73.8628919 102.8803622
  98.9348544  78.4490376  94.3945201  99.1100299  77.9778420  95.2090824
  98.2481332  79.0756143  94.6226462  99.8905607  72.7262883 100.4408502
  99.5555439  72.6863653 101.3366152  99.3909552  72.0607598  99.9678912
  93.8649851  68.1330513 105.9661083  93.7269649  67.4010751 106.5672622
  94.7754774  68.0439413 105.6845271 102.8264798  70.0718917  90.7145562
 102.2093969  69.3465745  90.6178615 102.3581287  70.8328277  90.3712636
  96.4932151  67.8450472 105.4544763  97.2031770  67.2043664 105.4131381
  96.4501460  68.0963367 106.3770944 104.4818930  74.7817825 108.3751342
 104.4231476  74.0977045 107.7081925 104.8838448  75.5236815 107.9231968
  95.2061085  64.8315690 107.2740402  94.6698442  64.3806428 107.9261999
  94.6177794  64.9661599 106.5310867  93.5009629  81.5979739 101.1685061
  93.7406227  82.2298263 101.8464080  92.6578825  81.2467779 101.4550420
  94.6163344  64.2904341  89.8366866  93.7392811  64.1693142  89.4729113
  95.0921097  63.4990420  89.5845755 104.4836337  72.7457409 106.6065322
 103.5963116  72.4083331 106.7291721 105.0534888  72.0140440 106.8434087
  86.1365484  69.0781501  99.9308373  86.8236524  68.7643231  99.3429389
  85.9813613  69.9822866  99.6575625  90.9400207  63.9671697 104.3593397
  90.8558395  63.3597367 103.6243807  90.1182913  64.4580716 104.3602893
  98.0137491  77.4058862 103.5726565  97.9407662  78.2113833 104.0845870
  97.5714884  77.6050827 102.7474586  97.8027270  76.6430632  97.0829387
  97.0194792  77.1852312  97.1767611  98.5020015  77.1604611  97.4823628
 101.1123920  62.4525261  99.7263592 101.6092620  61.6995223  99.4064662
 100.3410902  62.4889578  99.1606801 108.9653678  68.1565627 101.3681884
 108.9543554  69.0390342 100.9975817 108.0971057  67.8037177 101.1736421
 100.4736174  77.3045696 105.7284724 101.1864146  77.9393160 105.6560625
  99.9826203  77.4009562 104.9124726 102.1953701  71.2096948  97.3002015
 101.2609980  71.3298411  97.1306720 102.3730370  70.3069415  97.0362025
  97.6958889  64.5942644  99.4535277  97.3256677  64.0413684 100.1416182
  98.1917982  63.9900777  98.9010277 105.5826252  67.0514268  97.8352050
 106.0486705  67.8842259  97.7612352 106.0333753  66.5859249  98.5397308
  95.5248088  75.0540139 106.5490295  96.2257547  75.6876622 106.7019689
  95.0543203  75.3954871 105.7885934 103.6502484  73.3958089  94.8338202
 103.9262327  73.2814683  95.7432076 102.7806982  72.9975574  94.7950375
 103.5542915  59.4194855 101.8742951 102.6405995  59.6499081 102.0425158
 103.9836017  59.5033299 102.7256983 103.3249374  67.6084746 104.3742845
 102.6720824  67.8560654 103.7195298 103.7029754  66.7948885 104.0405322
 100.2856548  77.6444440  98.4771015 100.4678942  76.8266096  98.9398768
 101.1089534  77.8612132  98.0395905 100.6198713  76.5712625  95.7386064
 101.1486480  76.0605079  95.1256226 100.8826933  76.2555155  96.6031597
  99.3736947  68.3504558 110.8608882  98.6977584  68.2498687 111.5311257
 100.1964581  68.1943771 111.3244879  91.1215806  74.5876494 103.4821397
  91.7069243  73.8420182 103.6149301  90.9240644  74.8980451 104.3658061
  93.9754461  77.6227741  98.4983840  93.3064836  78.1073869  98.0147880
  93.8367331  77.8696962  99.4127218  85.7133461  67.1582094 102.2025840
  85.7517560  66.6245685 102.9962958  85.2073753  66.6317300 101.5836818
  98.1159730  79.6571485 105.0966498  98.6678038  79.8203106 105.8615583
  98.4565923  80.2475923 104.4246523  93.0924223  62.0046635 105.6988383
  93.1565549  62.8661466 105.2865780  93.0291343  61.3920636 104.9660741
  92.5676495  64.0769767 109.3461417  93.1948534  63.6946845 109.9598941
  91.7104414  63.8583969 109.7117109  89.3442038  65.8846196  95.2779772
  89.6395479  64.9756875  95.2246825  88.4430074  65.8633936  94.9560774
 101.2528117  77.6053461 102.0830180 101.1279256  76.8043200 101.5741126
 101.9107208  78.0999654 101.5944150  92.8736285  63.9602193 101.2607320
  92.1522871  64.5738161 101.1214794  93.6629541  64.4959958 101.1823966
 103.3163025  75.4062481 103.7109730 102.3693361  75.2867832 103.6388057
 103.6645798  74.5184979 103.7935992  95.6762599  61.2956620 107.5347972
  96.1997000  61.5418916 108.2974281  95.4574932  62.1276654 107.1151109
  91.0729880  63.5660294  95.4019097  90.7442586  62.6857673  95.2194203
  91.4269250  63.5107963  96.2895486 100.3209459  75.2015197  99.9114082
 100.1734421  74.2731904 100.0921652 101.1462952  75.2235288  99.4271158
  94.1871703  63.8533264  95.7694575  94.5267775  64.3819185  95.0473183
  94.6343823  64.1913670  96.5453141 103.9243580  76.0243756 100.9978955
 104.8490128  75.8186617 100.8603406 103.7558884  75.7760157 101.9068297
  96.8815144  62.2370315 105.2197643  96.5411964  61.4378128 105.6218323
  96.1754150  62.5372025 104.6474476  97.5331616  59.3219627 103.6724966
  98.3557685  58.8480105 103.5503856  97.7769679  60.1010111 104.1723652
  96.1739850  62.3507885  93.9687867  96.8948213  62.7289138  93.4651584
  95.5505154  63.0696762  94.0722845 100.3170973  63.0553034  94.9046200
 100.5334587  63.9377672  94.6035028  99.8365040  62.6639248  94.1751842
  95.0570194  66.0138748 101.4816944  94.9114775  66.3279051 102.3741226
  94.5795398  66.6323648 100.9287843  96.9166577  63.0041296 101.5297834
  96.9028146  62.1082389 101.1930132  97.6339005  63.0111959 102.1636120
  98.7692708  63.4378636 103.5750961  98.5110486  64.3595707 103.5735292
  98.2377748  63.0409070 104.2651425 103.7138897  76.5429423  96.3541047
 103.8875774  75.9775845  95.6014899 104.2067788  77.3430318  96.1720537
  89.5315856  68.5544092 104.4204605  88.9869325  69.3303900 104.5524880
  90.4095206  68.9014897 104.2623727  96.3203473  61.8855676  96.7985404
  96.4419384  60.9572322  96.9976291  96.0305515  61.8994362  95.8863719
  99.1894663  59.5710586  99.9352124  99.2116360  59.6349919  98.9804103
  99.6062722  58.7315095 100.1292630 109.5678288  69.3065846  97.9731346
 110.0109434  68.5573171  97.5750470 108.6904798  69.2975982  97.5905078
 104.7014069  75.8596187  93.4537945 105.3964974  76.4802880  93.6725260
 105.0437219  75.0091539  93.7290323  90.3181878  67.6813988 107.3134762
  89.5763614  67.8296624 107.8999393  89.9974623  67.9422254 106.4501512
 106.6005492  73.3095893  94.9825276 107.1256816  73.6483166  94.2574596
 106.5127845  72.3742908  94.7988410  98.2625541  77.2229967 107.1115152
  98.5712667  76.9779113 107.9837852  99.0601023  77.4276605 106.6234023
  98.2846153  79.3767876  99.3420529  97.8451143  78.8844255 100.0353386
  99.0354270  78.8340844  99.1012604  90.7638492  75.5679417  99.3445157
  91.5896512  75.2683189  98.9643800  90.4132544  74.7987040  99.7934946
  95.7320025  74.9205885 101.4142831  95.1100034  74.2576590 101.1145058
  96.4024892  74.9467017 100.7316478  88.9647097  73.4865744 100.3034091
  88.1279005  73.0587918 100.1218092  88.9370742  73.6798187 101.2404882
  95.8044553  63.3987673 111.0075337  95.8532708  64.2749796 110.6253106
  96.3467067  62.8565066 110.4346980 106.4097273  70.7921263 107.6009202
 106.4595278  70.6271270 108.5424725 106.3011197  69.9248522 107.2107083
  95.2933532  73.4709809  94.8901291  95.4421652  74.1545273  94.2367964
  96.0999976  73.4514899  95.4050747 103.7001036  66.7752191 108.9168509
 104.6010899  66.6358656 108.6252507 103.7749010  66.9406646 109.8566686
  98.0343841  64.1519046 107.7621695  97.1647150  64.4452612 107.4904284
  98.2703321  64.7359491 108.4828959 107.9115470  73.2118204 107.8451224
 107.6200278  73.5748185 108.6814685 107.2987601  72.4985213 107.6664556
 109.1111153  70.7771084 100.3653794 109.9458044  71.2160888 100.5291354
 109.2470281  70.3009737  99.5462040 106.1602658  68.3350819 106.3131282
 106.6356780  68.5278465 105.5050133 105.2368224  68.3910005 106.0674665
  93.0486165  69.4974986  95.8962360  92.8032207  68.5937316  96.0942570
  93.2182080  69.4992137  94.9541838 100.7382875  60.3698663 105.2787116
 101.2564819  61.1059690 104.9533604 100.3838008  60.6762656 106.1133875
  92.3181813  65.2303344  93.3948521  91.6251058  65.3047699  92.7388557
  92.0733564  64.4663687  93.9170038 100.9895469  56.7898945 100.7988012
 101.2697223  56.1222134 101.4248439 101.7746076  56.9828041 100.2862676
  98.7928938  75.9657939  92.3613039  98.2202905  76.5848126  91.9083510
  99.3661731  76.5157301  92.8952960 104.8604327  65.2116579 104.5459587
 105.8121750  65.3114677 104.5671811 104.6907778  64.4194848 105.0557672
 102.8818707  62.2972162 104.7318988 102.2868639  62.5777175 104.0365477
 102.5968404  62.7866063 105.5035729 102.0126197  76.2495089  93.4921621
 102.9456871  76.1840651  93.6954496 101.9249410  77.0851356  93.0336153
 104.6414214  75.5660960  90.4525568 104.5627846  75.2320823  91.3461326
 105.4623881  76.0582727  90.4517041 107.3392405  68.4322699 103.6601887
 107.3068725  67.4938700 103.8461571 107.9493029  68.5106736 102.9267712
  99.1775736  67.3018752  89.7029091 100.1234841  67.1724960  89.7717509
  98.7989981  66.5633414  90.1798519 107.4886894  65.2233742 103.7060170
 106.9725942  64.4392199 103.5190099 108.3726842  64.8952459 103.8706690
 105.1497621  58.9674758  99.6655983 104.9522442  58.6589846 100.5499315
 105.7597326  59.6936397  99.7953913 113.1568955  69.4938706 102.8007924
 113.8872344  69.2323994 103.3615627 112.5475901  68.7567428 102.8409992
 111.2384252  67.6346568 103.3982375 110.5117416  67.5002533 102.7898867
 110.8231539  67.9423397 104.2039093  99.0614429  71.3536498 111.1629748
  99.9817438  71.5315097 111.3569795  99.0264012  70.4092543 111.0109447
  97.3618653  65.2268728  89.6383976  96.4550109  64.9301841  89.7146690
  97.6394634  64.9298546  88.7718262  88.2796594  66.5475092 100.0883023
  87.9599378  65.6940400  99.7957397  87.7330022  66.7623670 100.8440990
  92.0576501  69.2637533 103.8052529  92.2762511  70.1954640 103.8240563
  92.4702275  68.9045507 104.5907333  98.9780719  59.7705618  95.7928218
  98.1681447  59.4252703  96.1683464  99.6665136  59.4613162  96.3815829
 100.9071267  58.8483665  97.4152514 101.4602306  59.2679118  98.0742537
 101.1441354  57.9219413  97.4575470  96.9304366  64.8370738 113.1955278
  96.8301093  65.7865095 113.1267369  96.7125909  64.5088977 112.3231348
  96.1317438  62.0855663  89.7795955  96.9936602  62.4110562  90.0391773
  96.3167782  61.2987159  89.2669021  88.1484854  70.1678003 102.0576144
  87.4548325  69.7531956 101.5446099  88.8957845  70.2098540 101.4609563
 104.2850074  60.9584190  96.9231178 103.7048743  61.6168994  96.5409231
 104.0186007  60.1361535  96.5118596 102.7353641  60.3589248  99.1252499
 103.2353419  60.4705782  98.3166818 103.3789249  60.0550300  99.7653307
  96.7935637  68.2667877 112.0120340  96.3102718  69.0668237 112.2184229
  96.8796576  68.2775822 111.0587784  90.0621596  70.0996257  99.9342159
  90.0392284  70.1983944  98.9824042  90.3722233  70.9461408 100.2559325
  92.7208974  72.1572412 104.0488774  93.6752228  72.1256354 103.9818705
  92.5221498  71.6963036 104.8638999  93.3108356  70.7273528 106.6159571
  94.1301245  71.2217607 106.6394408  93.5845164  69.8105496 106.5877139
 103.0674952  63.1184280  95.9787527 102.1800807  63.4033931  95.7607721
 103.4828941  62.9578044  95.1314804 106.4189488  63.1430801  99.6941866
 107.1949879  63.6327254  99.9666483 105.6937623  63.5688855 100.1513735
 108.8562047  63.8558420 100.7515807 109.4506538  63.6154156 100.0409115
 108.9288631  63.1365551 101.3789343  91.0759203  77.6992031 101.0658971
  90.9413671  76.9392432 100.4996969  90.6591265  78.4232931 100.5987760
 102.2118166  72.8828955  90.0735547 102.9154016  73.0878957  90.6893202
 101.4880815  73.4505717  90.3384630 103.0415976  68.6338816  96.1937817
 102.9851177  69.0907368  95.3545449 103.5944319  67.8729501  96.0160660
 106.8520782  64.4228548  97.0187936 106.5957716  64.0225184  97.8496144
 106.2273650  65.1372342  96.8938076 111.1633120  67.1624621  99.5259228
 110.6032678  67.2317811 100.2990790 110.5576623  66.9865606  98.8058724
  94.2328329  78.5961348 101.2777414  94.1160713  79.5406781 101.1756104
  93.4120775  78.2934910 101.6663213 104.1204863  73.3211484  92.1234007
 104.9550467  72.8892683  91.9411482 103.9589206  73.1493498  93.0510901
 103.7750755  69.8243597  93.4890346 103.7199559  69.6587869  92.5478790
 103.1496811  70.5319630  93.6452536  88.5643270  65.0611662 107.3151768
  89.2102134  64.5510616 107.8038993  88.3560422  65.7980343 107.8895194
  97.0846881  59.3251706  93.0675664  97.0725551  60.2693546  93.2243935
  97.9770303  59.1421852  92.7735126  95.2582843  79.2489610 104.4933342
  96.1610090  79.2813221 104.8099837  95.0320213  78.3190061 104.5079678
  97.0136445  78.0020597 101.1543421  96.0632076  78.0022458 101.0407793
  97.3168931  77.2553331 100.6379456 100.8999000  55.9194483  97.3221601
 100.1331396  55.3652970  97.4678284 101.3109705  55.9916352  98.1835753
  92.9040761  62.2079279 111.4126782  93.7672223  61.8516084 111.6230107
  92.3306172  61.8693174 112.1002187 105.4165660  85.6444040  98.1447599
 104.8530525  85.5533977  97.3763887 105.3018055  84.8243944  98.6250092
 102.9630092  87.1395231 100.9831820 103.7551384  86.7986056 100.5678119
 103.2026742  87.2490206 101.9033973 110.9965219  89.3115007  93.4562064
 110.3453199  89.8969088  93.0696078 111.7909582  89.8421202  93.5157102
 104.9220846  86.4004145  93.8549198 105.6951722  85.8533132  93.7162074
 105.2746245  87.2648394  94.0663660 107.2587124  82.5596811  91.4867648
 107.5112645  82.0378332  90.7251111 106.3211683  82.3962956  91.5894332
 112.3030407  81.5632589  99.2942392 113.0893496  81.1452012  98.9432809
 112.5669111  82.4678681  99.4624040 112.4740484  87.0005439  93.9931048
 111.8386317  87.0740066  94.7051953 112.1437891  87.5899038  93.3150128
 106.9783413  84.4624917  93.6892023 106.8619671  83.7869820  94.3573108
 107.0885673  83.9757291  92.8724176 109.3214954  83.9235064  97.3938712
 108.9573161  83.3965685  98.1051634 110.1782070  83.5333533  97.2205198
 108.9620441  78.9524964  92.3900061 109.1294843  79.8205200  92.7570532
 108.7717610  79.1152245  91.4661350 105.1708255  83.8655739 100.0902596
 104.2458752  83.7331953 100.2980288 105.4192668  84.6449959 100.5872538
 108.9409662  81.4082621  93.3746728 108.8209287  81.8539672  94.2132208
 108.2462250  81.7567939  92.8160266 102.5317066  83.5089013 100.9246385
 102.6609447  83.7623492 101.8385797 101.8514518  84.1016721 100.6051040
 114.6394728  81.8804094  94.2027062 115.5512584  82.1131481  94.0274759
 114.1304375  82.4641138  93.6402140 111.9830702  78.0562130 102.4516923
 111.1215181  78.3543384 102.7433660 112.0093137  78.2732529 101.5197955
 108.7992272  86.6004321  98.8590728 109.2630617  86.8792024  98.0695351
 108.5349070  85.6987765  98.6763819 107.7361158  82.7227473  95.6680294
 108.4385201  83.1748517  96.1354220 107.4041786  82.0811292  96.2960187
 101.4786492  80.9811026 100.9697427 100.6885546  81.2368554 100.4937538
 101.9697739  81.7959364 101.0749468 103.4301237  81.3455605  97.9280904
 102.6332401  81.4574299  98.4464400 103.2026829  81.6842257  97.0621794
  99.7624195  81.2341516 103.4012418 100.0132233  82.1188526 103.6669994
 100.2983743  81.0546118 102.6287510 108.9754923  89.5368416  95.7442399
 108.8400597  90.3819951  96.1727247 109.5164735  89.7387693  94.9808333
 102.4284320  87.0543854  96.3170324 102.9408840  87.8487104  96.4675889
 103.0807033  86.3570144  96.2503925 104.2379205  90.1709610  98.3993077
 104.4145833  91.0927575  98.2114061 105.0336038  89.8568029  98.8287457
 112.3247386  73.0598978 104.2741292 111.9811655  73.9500619 104.1980403
 112.6926349  72.8700635 103.4110877 100.3933237  85.3832508  97.0929894
 101.2308459  85.7929516  96.8763602 100.5711504  84.4431950  97.0630088
 112.2897669  83.0507589  92.7813727 111.7744292  83.8212193  93.0202115
 112.0174977  82.3772725  93.4046789 109.8744780  77.8957289  97.8398966
 109.0186376  77.5064140  97.6604604 110.2871732  77.9749250  96.9798751
 111.4043926  75.4303633 102.2390526 110.9008722  75.3933768 101.4258331
 111.6974533  76.3396375 102.2987182 107.6486812  75.5142362 101.2456707
 108.5139809  75.3185171 100.8862597 107.7164321  75.2852714 102.1726064
 117.2631943  85.8039943  94.7166901 116.4861386  85.4651103  94.2722063
 117.9423424  85.8092567  94.0421866 112.0783972  80.9234681  94.6073509
 111.7734108  81.2380830  95.4583652 113.0314414  81.0016101  94.6500842
 110.5230404  87.0824904  96.2566463 109.9951765  86.3477664  95.9439700
 110.0217907  87.8599580  96.0106431 105.2549131  77.7444570  98.6173074
 105.8292883  77.5219752  97.8846267 105.8420114  77.8133265  99.3701675
 105.5818719  79.7749031  92.6368959 104.7456031  80.1123718  92.9578234
 105.4423488  79.6398011  91.6996096 107.5571799  74.6185819  97.3448143
 106.9036211  74.3034836  96.7204758 107.5152273  73.9961560  98.0707966
 108.6683004  84.9005114  89.2601436 107.7610066  84.6694368  89.4592585
 109.1654036  84.1042734  89.4475417 111.5751083  93.6102622  92.1798122
 110.9012782  93.9134318  92.7883080 111.9616905  94.4131702  91.8303579
 110.7909540  81.1067753 101.6695791 109.8732101  81.3282700 101.5117479
 111.2069683  81.1814063 100.8107498 111.5744587  82.5059169  96.7998471
 112.3216406  83.0180566  96.4905593 111.8436177  82.1843221  97.6602865
 109.8471237  85.0017709  93.7825426 108.9382457  84.7176742  93.8797895
 109.8766321  85.4216788  92.9228733 114.0223424  79.5416285  98.7817261
 113.2846181  79.0293671  99.1127503 114.2750198  79.1016666  97.9700538
 114.1235052  72.3192537  99.3759030 114.4293929  71.4589900  99.0884945
 114.8487657  72.9110157  99.1758024 100.4159408  82.7223223  97.7640628
 100.2183808  82.1292584  97.0391694  99.8606072  82.4175434  98.4816567
 108.3956131  82.6146330  99.8835221 108.4504741  81.6620166  99.8077698
 107.5847334  82.7705769 100.3676519 109.5447325  86.5426453  91.1213504
 109.1066755  85.8262312  90.6619142 110.2857766  86.7702568  90.5598596
 106.3348491  81.2323390  97.6425600 105.5216357  81.5317560  98.0490792
 106.8307486  80.8379078  98.3600082 117.6620440  84.8183650  97.1789823
 117.5238339  85.0085246  96.2511012 117.3056659  85.5803033  97.6357874
 105.8262566  78.8041745 103.2586835 106.4661945  78.6630504 102.5609798
 104.9940097  78.5176259 102.8825437 106.6022870  88.1044176  99.3721827
 107.3963469  87.6094496  99.1704402 105.8914562  87.5762039  99.0089533
 102.9105634  82.2487257  95.4481580 101.9803222  82.1871713  95.6651542
 103.0063106  81.7263210  94.6518221 102.8291183  78.7742070  98.0359822
 103.0898000  79.6887403  97.9268982 103.6508355  78.3066513  98.1856434
 104.3016108  80.1879827 105.2058646 104.9739161  79.9797189 104.5571295
 103.4745894  79.9901913 104.7663878 109.7742298  93.7782294  94.3945201
 109.9494054  93.3070337  95.2090824 109.0875086  94.4048060  94.6226462
 113.6658553  85.4010835  90.7145562 113.0487724  84.6757663  90.6178615
 113.1975041  86.1620195  90.3712636 105.4557099  79.6196259  89.8366866
 104.5786565  79.4985060  89.4729113 105.9314852  78.8282337  89.5845755
  96.9759239  84.4073419  99.9308373  97.6630279  84.0935149  99.3429389
  96.8207368  85.3114783  99.6575625 101.7793961  79.2963615 104.3593397
 101.6952150  78.6889285 103.6243807 100.9576667  79.7872633 104.3602893
 111.9517675  77.7817179  99.7263592 112.4486374  77.0287141  99.4064662
 111.1804656  77.8181495  99.1606801 113.0347456  86.5388866  97.3002015
 112.1003734  86.6590328  97.1306720 113.2124124  85.6361333  97.0362025
 108.5352644  79.9234562  99.4535277 108.1650431  79.3705602 100.1416182
 109.0311736  79.3192695  98.9010277 116.4220007  82.3806185  97.8352050
 116.8880459  83.2134177  97.7612352 116.8727507  81.9151167  98.5397308
 114.4896238  88.7250006  94.8338202 114.7656082  88.6106601  95.7432076
 113.6200737  88.3267491  94.7950375 114.3936670  74.7486772 101.8742951
 113.4799750  74.9790999 102.0425158 114.8229771  74.8325216 102.7256983
 111.4592468  91.9004542  95.7386064 111.9880234  91.3896997  95.1256226
 111.7220687  91.5847073  96.6031597  96.5527215  82.4874012 102.2025840
  96.5911315  81.9537603 102.9962958  96.0467508  81.9609217 101.5836818
 103.9317977  77.3338552 105.6988383 103.9959304  78.1953383 105.2865780
 103.8685098  76.7212554 104.9660741 100.1835793  81.2138114  95.2779772
 100.4789234  80.3048793  95.2246825  99.2823828  81.1925854  94.9560774
 103.7130040  79.2894111 101.2607320 102.9916625  79.9030078 101.1214794
 104.5023295  79.8251876 101.1823966 101.9123634  78.8952212  95.4019097
 101.5836340  78.0149591  95.2194203 102.2663005  78.8399880  96.2895486
 105.0265457  79.1825182  95.7694575 105.3661530  79.7111103  95.0473183
 105.4737578  79.5205588  96.5453141 107.7208898  77.5662232 105.2197643
 107.3805719  76.7670045 105.6218323 107.0147904  77.8663943 104.6474476
 108.3725370  74.6511545 103.6724966 109.1951439  74.1772023 103.5503856
 108.6163434  75.4302028 104.1723652 107.0133605  77.6799803  93.9687867
 107.7341967  78.0581056  93.4651584 106.3898909  78.3988680  94.0722845
 111.1564727  78.3844952  94.9046200 111.3728342  79.2669590  94.6035028
 110.6758795  77.9931166  94.1751842 105.8963949  81.3430665 101.4816944
 105.7508529  81.6570968 102.3741226 105.4189152  81.9615566 100.9287843
 107.7560332  78.3333213 101.5297834 107.7421900  77.4374307 101.1930132
 108.4732760  78.3403877 102.1636120 109.6086462  78.7670554 103.5750961
 109.3504240  79.6887624 103.5735292 109.0771503  78.3700988 104.2651425
 100.3709611  83.8836010 104.4204605  99.8263079  84.6595818 104.5524880
 101.2488961  84.2306814 104.2623727 107.1597228  77.2147594  96.7985404
 107.2813139  76.2864240  96.9976291 106.8699270  77.2286280  95.8863719
 110.0288418  74.9002504  99.9352124 110.0510115  74.9641837  98.9804103
 110.4456477  74.0607013 100.1292630 115.5407824  91.1888105  93.4537945
 116.2358728  91.8094798  93.6725260 115.8830974  90.3383456  93.7290323
 117.4399247  88.6387811  94.9825276 117.9650571  88.9775083  94.2574596
 117.3521599  87.7034826  94.7988410 101.6032246  90.8971335  99.3445157
 102.4290266  90.5975107  98.9643800 101.2526298  90.1278957  99.7934946
  99.8040852  88.8157661 100.3034091  98.9672760  88.3879836 100.1218092
  99.7764497  89.0090105 101.2404882 106.1327287  88.8001726  94.8901291
 106.2815407  89.4837191  94.2367964 106.9393730  88.7806816  95.4050747
 103.8879920  84.8266904  95.8962360 103.6425961  83.9229234  96.0942570
 104.0575834  84.8284054  94.9541838 103.1575567  80.5595262  93.3948521
 102.4644812  80.6339617  92.7388557 102.9127319  79.7955605  93.9170038
 111.8289224  72.1190863 100.7988012 112.1090977  71.4514052 101.4248439
 112.6139830  72.3119958 100.2862676 109.6322692  91.2949857  92.3613039
 109.0596659  91.9140044  91.9083510 110.2055486  91.8449218  92.8952960
 112.8519952  91.5787007  93.4921621 113.7850625  91.5132569  93.6954496
 112.7643165  92.4143274  93.0336153 115.4807969  90.8952877  90.4525568
 115.4021600  90.5612741  91.3461326 116.3017635  91.3874645  90.4517041
 110.0169491  82.6310670  89.7029091 110.9628595  82.5016878  89.7717509
 109.6383736  81.8925331  90.1798519 115.9891375  74.2966676  99.6655983
 115.7916196  73.9881764 100.5499315 116.5991081  75.0228314  99.7953913
 108.2012408  80.5560646  89.6383976 107.2943863  80.2593759  89.7146690
 108.4788389  80.2590464  88.7718262  99.1190348  81.8767009 100.0883023
  98.7993132  81.0232318  99.7957397  98.5723776  82.0915587 100.8440990
 109.8174473  75.0997536  95.7928218 109.0075202  74.7544621  96.1683464
 110.5058890  74.7905079  96.3815829 111.7465022  74.1775582  97.4152514
 112.2996060  74.5971036  98.0742537 111.9835108  73.2511331  97.4575470
 106.9711192  77.4147581  89.7795955 107.8330356  77.7402479  90.0391773
 107.1561537  76.6279077  89.2669021  98.9878608  85.4969921 102.0576144
  98.2942080  85.0823874 101.5446099  99.7351599  85.5390457 101.4609563
 115.1243829  76.2876108  96.9231178 114.5442498  76.9460912  96.5409231
 114.8579762  75.4653452  96.5118596 113.5747395  75.6881165  99.1252499
 114.0747174  75.7997700  98.3166818 114.2183003  75.3842218  99.7653307
 100.9015351  85.4288175  99.9342159 100.8786039  85.5275862  98.9824042
 101.2115987  86.2753325 100.2559325 113.9068707  78.4476198  95.9787527
 113.0194562  78.7325849  95.7607721 114.3222696  78.2869961  95.1314804
 117.2583243  78.4722719  99.6941866 118.0343633  78.9619171  99.9666483
 116.5331377  78.8980773 100.1513735 113.0511920  88.2120873  90.0735547
 113.7547770  88.4170875  90.6893202 112.3274569  88.7797635  90.3384630
 113.8809731  83.9630734  96.1937817 113.8244932  84.4199285  95.3545449
 114.4338073  83.2021418  96.0160660 117.6914537  79.7520466  97.0187936
 117.4351471  79.3517101  97.8496144 117.0667405  80.4664260  96.8938076
 114.9598618  88.6503402  92.1234007 115.7944222  88.2184600  91.9411482
 114.7982961  88.4785416  93.0510901 114.6144510  85.1535515  93.4890346
 114.5593314  84.9879787  92.5478790 113.9890565  85.8611548  93.6452536
  99.4037025  80.3903580 107.3151768 100.0495888  79.8802534 107.8038993
  99.1954176  81.1272261 107.8895194 107.9240635  74.6543624  93.0675664
 107.9119305  75.5985464  93.2243935 108.8164057  74.4713770  92.7735126
 111.7392755  71.2486401  97.3221601 110.9725151  70.6944887  97.4678284
 112.1503460  71.3208270  98.1835753 116.4212473  95.1040949  92.6368959
 115.5849785  95.4415636  92.9578234 116.2817243  94.9689929  91.6996096
 116.2950853  94.9488177  89.8366866 115.4180320  94.8276977  89.4729113
 116.7708606  94.1574255  89.5845755 113.9969322  95.8887179  93.3948521
 113.3038566  95.9631534  92.7388557 113.7521073  95.1247523  93.9170038
 119.0406162  95.8852564  89.6383976 118.1337618  95.5885676  89.7146690
 119.3182143  95.5882382  88.7718262 117.8104947  92.7439499  89.7795955
 118.6724111  93.0694397  90.0391773 117.9955291  91.9570995  89.2669021
 118.7634390  89.9835542  93.0675664 118.7513060  90.9277382  93.2243935
 119.6557812  89.8005687  92.7735126  52.5047782  -5.4611203  83.7482166
  52.4271812  -4.5103378  83.8270646  51.9009426  -5.8065331  84.4057092
  50.1434612  -2.7125809  87.8930368  50.3831210  -2.0807285  88.5709386
  49.3003809  -3.0637769  88.1795727  50.6179444  -6.6877807  85.2229146
  49.9489820  -6.2031679  84.7393186  50.4792314  -6.4408586  86.1372525
  54.7584713  -4.6534063  91.8211805  55.3103021  -4.4902442  92.5860890
  55.0990906  -4.0629625  91.1491829  47.7184186  -6.6113517  87.7904278
  47.5838654  -7.3713116  87.2242276  47.3016248  -5.8872617  87.3233067
  50.8753312  -5.7144200  88.0022721  50.7585696  -4.7698767  87.9001411
  50.0545758  -6.0170638  88.3908520  51.9007826  -5.0615938  91.2178649
  52.8035073  -5.0292327  91.5345144  51.6745196  -5.9915487  91.2324985
  66.2003828  -0.5196985  88.8796015  65.8622339  -0.6355920  87.9916550
  67.0693596  -0.9205820  88.8597021  62.0590644   1.3338492  84.8692906
  61.4955509   1.2428429  84.1009194  61.9443039   0.5138396  85.3495398
  66.6823611   0.6337867  94.8382220  66.6712252   0.2390665  93.9662724
  66.8444250  -0.0996060  95.4315992  59.6055076   2.8289683  87.7077126
  60.3976367   2.4880508  87.2923426  59.8451726   2.9384658  88.6279280
  67.6390202   5.0009459  80.1807371  66.9878182   5.5863540  79.7941384
  68.4334565   5.5315654  80.2402408  61.5645829   2.0898597  80.5794505
  62.3376705   1.5427584  80.4407381  61.9171228   2.9542846  80.7908966
  63.4030872   3.4174979  93.7861404  63.1120738   4.3220610  93.6708071
  64.0387856   3.4591506  94.5005474  64.3287079   0.7951827  90.3762764
  64.9250651   0.5707850  89.6619727  64.3862050   0.0536573  90.9788212
  69.1165467   2.6899891  80.7176355  68.4811300   2.7634518  81.4297260
  68.7862874   3.2793490  80.0395434  63.6208396   0.1519369  80.4137330
  63.5044654  -0.5235728  81.0818414  63.7310656  -0.3348257  79.5969483
  65.9639937  -0.3870484  84.1184019  65.5998144  -0.9139863  84.8296941
  66.8207053  -0.7772015  83.9450505  68.3620757   3.1036394  90.7811198
  68.0621480   4.0061433  90.6727005  68.0171817   2.8368578  91.6332351
  61.8133239  -0.4449809  86.8147902  60.8883735  -0.5773595  87.0225594
  62.0617652   0.3344410  87.3117845  59.1742050  -0.8016535  87.6491692
  59.3034431  -0.5482056  88.5631103  58.4939501  -0.2088827  87.3296347
  63.3441537   9.8680715  83.7482166  63.2665567  10.8188540  83.8270646
  62.7403180   9.5226587  84.4057092  64.0905139  -0.1505967  95.9661500
  64.8319823   0.3879077  95.6896323  63.3842124   0.4760322  96.1233051
  69.5660479   1.9923174  94.5633661  69.9743835   1.5505584  93.8188293
  68.8437740   1.4175801  94.8167854  69.8889293   2.5524365  88.3185950
  69.2598156   2.7170079  87.6162018  69.5014955   2.9665974  89.0896914
  73.7678525   3.4878802  85.6730314  73.0829563   3.8677704  85.1227347
  73.8522374   4.0974129  86.4062261  71.0229457   1.1338761  92.2725657
  71.2346352   1.7770521  91.5960038  70.9759205   0.3001078  91.8047587
  65.4417255   2.2898773  85.5836035  65.9055601   2.5686476  84.7940658
  65.1774053   1.3882217  85.4009126  62.3341336   1.8370254  88.5215798
  62.9042693   2.2657523  87.8833283  62.9249448   1.5552839  89.2199984
  58.1211475  -3.3294522  87.6942734  57.3310529  -3.0736994  87.2182844
  58.6122723  -2.5146184  87.7994774  72.1375285   4.0110717  90.4448015
  72.9592728   3.6090904  90.1630696  72.1337688   3.9078951  91.3964130
  60.0726221  -2.9649943  84.6526210  59.2757384  -2.8531249  85.1709706
  59.8451813  -2.6263291  83.7867101  65.9031888   3.5594760  92.6008725
  65.9676321   4.0215167  93.4366897  65.1942812   2.9292125  92.7291035
  56.4049178  -3.0764032  90.1257725  56.6557217  -2.1917022  90.3915301
  56.9408727  -3.2559430  89.3532816  65.6179906   5.2262868  82.4687705
  65.4825581   6.0714403  82.8972553  66.1589718   5.4282145  81.7053639
  59.0709303   2.7438306  83.0415631  59.5833824   3.5381556  83.1921195
  59.7232016   2.0464596  82.9749232  60.8804188   5.8604062  85.1238384
  61.0570816   6.7822027  84.9359368  61.6761021   5.5462481  85.5532763
  60.1656544  -2.0931306  95.0000547  60.0510060  -2.9946049  95.3007646
  59.3101062  -1.8467609  94.6485363  67.2448382   5.8486434  96.5988048
  66.8012236   5.0622813  96.2808952  67.9065596   6.0365585  95.9331938
  62.0035503   7.3782236  91.1248726  62.5542929   7.2499299  90.3525720
  61.1646979   7.6777125  90.7743619  69.3429620   6.1289234  94.6269449
  69.3248096   6.9498115  94.1349718  70.2649540   6.0043309  94.8519590
  65.8002674   3.6433364  95.4692957  66.3331011   2.8821652  95.2392265
  65.2716756   3.3507015  96.2117112  57.0358220   1.0726960  83.8175201
  57.8733442   1.4823968  83.6008909  57.2136488   0.1326402  83.7875395
  67.1655387   2.7719356  82.9811769  66.6376749   2.0372116  82.6685007
  66.6642890   3.5494032  82.7351738  72.1448233   0.9668377  88.0978815
  71.4871908   1.6567638  88.1858944  72.9488632   1.3564808  88.4412802
  65.3107987   0.5899566  75.9846742  64.4035049   0.3588820  76.1837891
  65.8079019  -0.2062814  76.1720724  68.2176066   9.2997073  78.9043428
  67.5437765   9.6028770  79.5128386  68.6041888  10.1026154  78.5548885
  66.4896221   0.6912161  80.5070732  65.5807440   0.4071194  80.6043202
  66.5191305   1.1111240  79.6474039  71.7215488   4.3018751  84.2761900
  71.2677815   3.4609661  84.3327090  71.0909455   4.9380149  84.6136680
  70.1648427   6.1395247  85.2111718  70.4571402   6.7000304  84.4924084
  70.6747048   6.4323808  85.9664877  57.0584391  -1.5882325  84.4885935
  56.8608791  -2.1812964  83.7637001  56.5031055  -1.8930115  85.2061873
  66.1872309   2.2320905  77.8458811  65.7491738   1.5156764  77.3864448
  66.9282749   2.4597020  77.2843902  65.1282053   6.9175598  86.3005171
  65.0858231   7.1436445  85.3713703  66.0444751   6.6838973  86.4490972
  74.3314803   2.5754629  88.9146401  74.7651310   2.4829918  89.7629455
  75.0446384   2.5512129  88.2766417  63.2447853   3.7938627  86.0967134
  64.0388452   3.2988948  85.8949709  62.5339546   3.2656491  85.7334839
  68.0642698   6.1756723  90.4479502  68.1179720   6.7447659  91.2157217
  67.1957479   6.3458608  90.0833539  59.5530617  -2.0618291  82.1726887
  58.6228205  -2.1233835  82.3896849  59.6488089  -2.5842338  81.3763528
  75.1930353   2.6178330  91.4479286  75.3866243   3.5224140  91.6938561
  75.0930971   2.1585749  92.2817871  70.2545461   2.7685072  97.0220167
  70.1030968   2.5395624  96.1050251  70.2450141   3.7255674  97.0351512
  67.0230798   0.3416985  92.0066433  67.9522858   0.4928145  91.8335401
  66.6021828   0.4301006  91.1515080  65.8219129   4.3667649  89.7764971
  65.6830215   3.9986434  90.6490909  65.0333726   4.8815289  89.6048929
  66.4167281   9.4676746  81.1190508  66.5919037   8.9964789  81.9336130
  65.7300069  10.0942512  81.3471768  67.3724345   3.7449252  87.1653809
  67.0374177   3.7050022  88.0611459  66.8728290   3.0793968  86.6924219
  61.3468588  -0.8483118  92.6906390  61.2088386  -1.5802879  93.2917929
  62.2573512  -0.9374218  92.4090578  70.3083536   1.0905286  77.4390868
  69.6912707   0.3652115  77.3423921  69.8400025   1.8514647  77.0957943
  63.9750889  -1.1363159  92.1790070  64.6850508  -1.7769966  92.1376688
  63.9320197  -0.8850264  93.1016250  71.9637668   5.8004195  95.0996649
  71.9050214   5.1163415  94.4327232  72.3657186   6.5423185  94.6477275
  60.9828367  12.6166109  87.8930368  61.2224965  13.2484633  88.5709386
  60.1397563  12.2654149  88.1795727  71.9655075   3.7643779  93.3310628
  71.0781854   3.4269701  93.4537027  72.5353626   3.0326810  93.5679394
  53.6184222   0.0967870  86.6553680  54.3055262  -0.2170399  86.0674695
  53.4632351   1.0009235  86.3820931  65.4956228   8.4245231  90.2971872
  65.4226400   9.2300203  90.8091176  65.0533622   8.6237197  89.4719893
  65.2846008   7.6617001  83.8074693  64.5013530   8.2038681  83.9012918
  65.9838753   8.1790981  84.2068934  67.9554912   8.3232065  92.4530030
  68.6682884   8.9579530  92.3805932  67.4644941   8.4195931  91.6370032
  69.6772439   2.2283318  84.0247322  68.7428718   2.3484780  83.8552026
  69.8549107   1.3255785  83.7607332  63.0066826   6.0726509  93.2735601
  63.7076285   6.7062992  93.4264995  62.5361941   6.4141240  92.5131240
  71.1321221   4.4144458  81.5583508  71.4081065   4.3001053  82.4677382
  70.2625720   4.0161943  81.5195681  67.7675285   8.6630809  85.2016322
  67.9497680   7.8452465  85.6644074  68.5908271   8.8798501  84.7641212
  68.1017451   7.5898994  82.4631370  68.6305217   7.0791449  81.8501532
  68.3645670   7.2741525  83.3276903  66.8555685  -0.6309073  97.5854189
  66.1796322  -0.7314944  98.2556564  67.6783318  -0.7869859  98.0490186
  58.6034544   5.6062864  90.2066704  59.1887980   4.8606552  90.3394608
  58.4059382   5.9166820  91.0903368  61.4573199   8.6414111  85.2229146
  60.7883574   9.1260239  84.7393186  61.3186069   8.8883331  86.1372525
  53.1952198  -1.8231536  88.9271147  53.2336298  -2.3567945  89.7208265
  52.6892491  -2.3496331  88.3082124  65.5978467  10.6757855  91.8211805
  66.1496775  10.8389476  92.5860890  65.9384661  11.2662292  91.1491829
  70.4489342   5.5019112  97.6760459  70.9929246   6.1149070  97.1815414
  69.8676187   6.0598690  98.1927472  56.8260776  -3.0967434  82.0025078
  57.1214217  -4.0056756  81.9492132  55.9248812  -3.1179695  81.6806081
  68.7346855   8.6239830  88.8075487  68.6097994   7.8229570  88.2986432
  69.3925946   9.1186023  88.3189457  70.7981763   6.4248850  90.4355037
  69.8512099   6.3054201  90.3633364  71.1464536   5.5371348  90.5181298
  67.8028196   6.2201566  86.6359389  67.6553159   5.2918274  86.8166959
  68.6281690   6.2421657  86.1516464  71.4062318   7.0430125  87.7224262
  72.3308866   6.8372986  87.5848713  71.2377622   6.7946526  88.6313603
  71.1957634   7.5615793  83.0786353  71.3694512   6.9962215  82.3260206
  71.6886526   8.3616687  82.8965843  57.0134594  -0.4269538  91.1449912
  56.4688062   0.3490270  91.2770186  57.8913944  -0.0798734  90.9869034
  72.1832807   6.8782557  80.1783252  72.8783712   7.4989250  80.3970566
  72.5255957   6.0277908  80.4535629  57.8000616  -1.2999642  94.0380069
  57.0582352  -1.1517007  94.6244699  57.4793360  -1.0391376  93.1746818
  74.0824230   4.3282263  81.7070582  74.6075554   4.6669535  80.9819902
  73.9946583   3.3929278  81.5233717  65.7444279   8.2416336  93.8360459
  66.0531405   7.9965483  94.7083159  66.5419761   8.4462975  93.3479329
  65.7664891  10.3954246  86.0665836  65.3269881   9.9030624  86.7598692
  66.5173008   9.8527213  85.8257911  58.2457230   6.5865787  86.0690464
  59.0715250   6.2869559  85.6889107  57.8951282   5.8173409  86.5180252
  63.2138763   5.9392255  88.1388137  62.5918772   5.2762960  87.8390365
  63.8843630   5.9653387  87.4561785  56.4465835   4.5052113  87.0279397
  55.6097743   4.0774287  86.8463398  56.4189480   4.6984556  87.9650188
  73.7718136   4.9615166  97.0121780  72.9813680   4.9439305  96.4726280
  73.5351491   5.5003460  97.7670817  62.7752270   4.4896178  81.6146598
  62.9240390   5.1731643  80.9613270  63.5818713   4.4701268  82.1296053
  75.3934208   4.2304574  94.5696530  75.1019016   4.5934555  95.4059991
  74.7806339   3.5171582  94.3909862  60.5304903   0.5161356  82.6207667
  60.2850945  -0.3876314  82.8187877  60.7000817   0.5178506  81.6787145
  66.2747675   6.9844309  79.0858345  65.7021642   7.6034496  78.6328817
  66.8480469   7.5343670  79.6198267  69.4944935   7.2681459  80.2166927
  70.4275608   7.2027020  80.4199803  69.4068148   8.1037726  79.7581460
  72.1232952   6.5847329  77.1770875  72.0446583   6.2507193  78.0706633
  72.9442619   7.0769097  77.1762347  66.5433166   2.3722868  97.8875055
  67.4636176   2.5501467  98.0815101  66.5082749   1.4278913  97.7354754
  55.7615331  -2.4338539  86.8128329  55.4418116  -3.2873231  86.5202703
  55.2148760  -2.2189961  87.5686297  59.5395239   0.2823902  90.5297836
  59.7581249   1.2141010  90.5485870  59.9521013  -0.0768123  91.3152640
  55.6303591   1.1864373  88.7821451  54.9367063   0.7718325  88.2691405
  56.3776582   1.2284909  88.1854870  64.2754374  -0.7145753  98.7365646
  63.7921456   0.0854607  98.9429535  64.3615313  -0.7037808  97.7833090
  57.5440334   1.1182626  86.6587466  57.5211022   1.2170314  85.7069349
  57.8540970   1.9647777  86.9804632  60.2027712   3.1758781  90.7734080
  61.1570965   3.1442724  90.7064012  60.0040235   2.7149405  91.5884306
  60.7927094   1.7459898  93.3404878  61.6119983   2.2403976  93.3639715
  61.0663902   0.8291866  93.3122445  58.5577941   8.7178401  87.7904278
  58.4232409   7.9578802  87.2242276  58.1410003   9.4419301  87.3233067
  69.6936904   3.9015325  76.7980853  70.3972754   4.1065327  77.4138509
  68.9699552   4.4692086  77.0629937  61.7147066   9.6147718  88.0022721
  61.5979451  10.5593150  87.9001411  60.8939513   9.3121280  88.3908520
  71.6023601   4.3397854  78.8479313  72.4369205   3.9079052  78.6656788
  71.4407944   4.1679867  79.7756208  71.2569493   0.8429967  80.2135653
  71.2018297   0.6774238  79.2724097  70.6315548   1.5506000  80.3697842
  56.0462008  -3.9201969  94.0397075  56.6920872  -4.4303015  94.5284300
  55.8379159  -3.1833287  94.6140500  68.5715400   3.1478879  99.5389215
  69.4406560   3.3219531  99.1775850  68.0922152   3.9673296  99.4164945
  62.7401581  10.2675980  91.2178649  63.6428827  10.2999590  91.5345144
  62.5138951   9.3376431  91.2324985  64.4955183   9.0206966  87.8788728
  63.5450814   9.0208828  87.7653100  64.7987669   8.2739701  87.3624762
  80.2307876  14.8567505  88.9434490  80.8686286  14.7374252  88.2397830
  80.1128719  15.8048349  89.0022442  77.0397582  14.8094933  88.8796015
  76.7016094  14.6935998  87.9916550  77.9087351  14.4086098  88.8597021
  72.8984398  16.6630409  84.8692906  72.3349263  16.5720346  84.1009194
  72.7836793  15.8430314  85.3495398  77.5217365  15.9629785  94.8382220
  77.5106006  15.5682583  93.9662724  77.6838005  15.2295857  95.4315992
  70.4448830  18.1581601  87.7077126  71.2370122  17.8172426  87.2923426
  70.6845480  18.2676576  88.6279280  78.4783957  20.3301377  80.1807371
  77.8271937  20.9155457  79.7941384  79.2728320  20.8607572  80.2402408
  72.4039584  17.4190514  80.5794505  73.1770460  16.8719501  80.4407381
  72.7564983  18.2834764  80.7908966  74.2424627  18.7466896  93.7861404
  73.9514492  19.6512527  93.6708071  74.8781611  18.7883424  94.5005474
  75.1680833  16.1243745  90.3762764  75.7644406  15.8999767  89.6619727
  75.2255805  15.3828490  90.9788212  74.7405862  13.5783180  78.2112955
  74.9931382  13.0564702  77.4496418  73.8030421  13.4149326  78.3139639
  79.7849145  12.5818959  86.0187698  80.5712234  12.1638382  85.6678115
  80.0487849  13.4865051  86.1869347  79.9559222  18.0191809  80.7176355
  79.3205055  18.0926436  81.4297260  79.6256628  18.6085408  80.0395434
  85.1857572  12.5194192  86.9220677  85.9182744  11.9493409  87.1558506
  84.4296927  12.1315792  87.3627182  74.4602151  15.4811286  80.4137330
  74.3438409  14.8056190  81.0818414  74.5704410  14.9943660  79.5969483
  76.8033691  14.9421433  84.1184019  76.4391899  14.4152054  84.8296941
  77.6600807  14.5519902  83.9450505  82.7082992   6.2315766  91.3815285
  82.3766317   7.1011177  91.1576500  82.1128605   5.9152050  92.0609316
  76.4439178   9.9711333  79.1145368  76.6113581  10.8391569  79.4815839
  76.2536347  10.1338615  78.1906657  79.2014512  18.4328312  90.7811198
  78.9015235  19.3353351  90.6727005  78.8565571  18.1660495  91.6332351
  72.6526993  14.8842109  86.8147902  71.7277490  14.7518323  87.0225594
  72.9011406  15.6636328  87.3117845  82.6011655  10.9510852  88.4608635
  81.6928533  10.8826261  88.1667396  82.5499251  11.4282797  89.2890461
  76.4228399  12.4268991  80.0992034  76.3028024  12.8726041  80.9377515
  75.7280988  12.7754308  79.5405573  70.0135804  14.5275382  87.6491692
  70.1428185  14.7809861  88.5631103  69.3333255  15.1203090  87.3296347
  74.1835291  25.1972632  83.7482166  74.1059321  26.1480457  83.8270646
  73.5796935  24.8518505  84.4057092  76.6752521  12.3700498  96.4043533
  75.8985855  12.9294418  96.3946397  77.3143084  12.8557281  96.9258403
  84.4673302   9.1527291  90.2386509  83.8247682   9.4459824  89.5926304
  83.9628230   9.0380211  91.0439706  82.1213465  12.8990464  80.9272369
  83.0331322  13.1317851  80.7520066  81.6123113  13.4827508  80.3647447
  74.9298893  15.1785951  95.9661500  75.6713578  15.7170995  95.6896323
  74.2235879  15.8052240  96.1233051  80.4054233  17.3215092  94.5633661
  80.8137589  16.8797502  93.8188293  79.6831495  16.7467719  94.8167854
  76.7585303  12.2587698  91.9367218  77.6046498  12.6827112  92.0801867
  76.6983941  11.6021323  92.6305781  80.7283048  17.8816282  88.3185950
  80.0991910  18.0461996  87.6162018  80.3408710  18.2957892  89.0896914
  84.6072280  18.8170720  85.6730314  83.9223318  19.1969621  85.1227347
  84.6916129  19.4266047  86.4062261  79.9084748   9.9192067  93.5948392
  79.6645680  10.6734127  93.0582667  80.1844679  10.2977414  94.4295639
  81.8623211  16.4630679  92.2725657  82.0740107  17.1062439  91.5960038
  81.8152960  15.6292996  91.8047587  79.4649440   9.0748500  89.1762229
  78.6033919   9.3729753  89.4678967  79.4911875   9.2918899  88.2443262
  76.2811010  17.6190690  85.5836035  76.7449355  17.8978393  84.7940658
  76.0167808  16.7174135  85.4009126  73.1735091  17.1662172  88.5215798
  73.7436448  17.5949440  87.8833283  73.7643203  16.8844757  89.2199984
  75.2179896  13.7413843  82.3925600  75.9203939  14.1934886  82.8599527
  74.8860524  13.0997662  83.0205493  73.6660257  12.3325599  96.7676810
  73.0358918  13.0141880  97.0012206  73.5596345  12.2208681  95.8229948
  68.9605230  11.9997395  87.6942734  68.1704284  12.2554924  87.2182844
  69.4516477  12.8145733  87.7994774  82.9769039  19.3402635  90.4448015
  83.7986483  18.9382822  90.1630696  82.9731442  19.2370869  91.3964130
  70.9119975  12.3641975  84.6526210  70.1151138  12.4760669  85.1709706
  70.6845567  12.7028627  83.7867101  76.7425643  18.8886678  92.6008725
  76.8070075  19.3507085  93.4366897  76.0336567  18.2584043  92.7291035
  67.2442933  12.2527886  90.1257725  67.4950971  13.1374896  90.3915301
  67.7802481  12.0732487  89.3532816  91.0675032  15.6841383  86.7932986
  90.3138741  15.1148781  86.6376991  91.2022573  15.6504047  87.7403621
  76.4573660  20.5554785  82.4687705  76.3219335  21.4006321  82.8972553
  76.9983473  20.7574063  81.7053639  72.9441000   6.6346365  99.1302061
  72.5507946   6.0812564  99.8049705  73.7607140   6.9456944  99.5208578
  69.9103058  18.0730223  83.0415631  70.4227578  18.8673474  83.1921195
  70.5625771  17.3756514  82.9749232  71.7197942  21.1895980  85.1238384
  71.8964571  22.1113944  84.9359368  72.5154776  20.8754399  85.5532763
  75.8608961   8.0504244  96.7222317  76.6018674   8.6511397  96.6426780
  76.0926884   7.3081882  96.1640360  71.0050299  13.2360612  95.0000547
  70.8903814  12.3345869  95.3007646  70.1494817  13.4824308  94.6485363
  78.0842137  21.1778352  96.5988048  77.6405991  20.3914730  96.2808952
  78.7459350  21.3657502  95.9331938  72.8429258  22.7074153  91.1248726
  73.3936683  22.5791217  90.3525720  72.0040734  23.0069042  90.7743619
  80.1823375  21.4581152  94.6269449  80.1641850  22.2790033  94.1349718
  81.1043295  21.3335227  94.8519590  76.6396429  18.9725281  95.4692957
  77.1724766  18.2113569  95.2392265  76.1110510  18.6798933  96.2117112
  79.8066124   4.0785347  90.9986599  79.4630393   4.9686989  90.9225709
  80.1745086   3.8887005  90.1356184  67.8751974  16.4018878  83.8175201
  68.7127196  16.8115886  83.6008909  68.0530242  15.4618320  83.7875395
  79.7716407  14.0693958  79.5059034  79.2563030  14.8398563  79.7447421
  79.4993715  13.3959094  80.1292095  77.3563518   8.9143659  84.5644272
  76.5005114   8.5250509  84.3849911  77.7690469   8.9935620  83.7044058
  78.8862664   6.4490002  88.9635832  78.3827460   6.4120137  88.1503637
  79.1793271   7.3582745  89.0232489  75.1305550   6.5328732  87.9702014
  75.9958547   6.3371541  87.6107903  75.1983059   6.3039084  88.8971371
  84.7450681  16.8226313  81.4412207  83.9680124  16.4837472  80.9967370
  85.4242162  16.8278936  80.7667173  79.5602710  11.9421050  81.3318815
  79.2552845  12.2567200  82.1828958  80.5133152  12.0202470  81.3746148
  78.0049142  18.1011274  82.9811769  77.4770503  17.3664033  82.6685007
  77.5036644  18.8785950  82.7351738  82.9841988  16.2960294  88.0978815
  82.3265662  16.9859556  88.1858944  83.7882387  16.6856726  88.4412802
  72.7367869   8.7630940  85.3418381  73.3111621   8.5406121  84.6091574
  73.3238852   8.8319634  86.0946982  81.7947446  14.6504667  86.1482757
  82.3079328  15.2834659  86.6504467  82.4448670  14.0505862  85.7826117
  73.0637456  10.7935401  79.3614266  72.2274769  11.1310088  79.6823541
  72.9242226  10.6584381  78.4241403  75.0390537   5.6372189  84.0693450
  74.3854949   5.3221206  83.4450065  74.9971011   5.0147929  84.7953273
  76.1501742  15.9191484  75.9846742  75.2428804  15.6880737  76.1837891
  76.6472774  15.1229103  76.1720724  79.0569821  24.6288991  78.9043428
  78.3831519  24.9320688  79.5128386  79.4435643  25.4318071  78.5548885
  78.2728277  12.1254122  88.3941098  77.3550839  12.3469069  88.2362786
  78.6888421  12.2000433  87.5352805  79.0563325  13.5245538  83.5243778
  79.8035144  14.0366935  83.2150900  79.3254915  13.2029591  84.3848172
  77.3289975  16.0204079  80.5070732  76.4201194  15.7363112  80.6043202
  77.3585059  16.4403157  79.6474039  82.5609243  19.6310668  84.2761900
  82.1071570  18.7901578  84.3327090  81.9303209  20.2672067  84.6136680
  81.5042162  10.5602654  85.5062567  80.7664919  10.0480041  85.8372810
  81.7568936  10.1203036  84.6945844  81.0042182  21.4687165  85.2111718
  81.2965156  22.0292222  84.4924084  81.5140802  21.7615726  85.9664877
  67.8978146  13.7409593  84.4885935  67.7002545  13.1478954  83.7637001
  67.3424810  13.4361803  85.2061873  75.8774869  13.6332699  86.6080528
  75.9323479  12.6806536  86.5323004  75.0666071  13.7892139  87.0921826
  77.0266063  17.5612822  77.8458811  76.5885493  16.8448681  77.3864448
  77.7676504  17.7888937  77.2843902  73.8167229  12.2509759  84.3670907
  73.0035095  12.5503930  84.7736099  74.3126223  11.8565448  85.0845389
  75.9675807  22.2467516  86.3005171  75.9251986  22.4728362  85.3713703
  76.8838506  22.0130891  86.4490972  79.4141441  12.7151584  93.1985800
  79.7690829  12.9423057  94.0580266  80.0613572  13.0469960  92.5763056
  85.1439178  15.8370020  83.9035129  85.0057076  16.0271616  82.9756319
  84.7875397  16.5989402  84.3603181  73.3081304   9.8228115  89.9832141
  73.9480683   9.6816874  89.2855105  72.4758835   9.5362628  89.6070743
  85.1708557  17.9046547  88.9146401  85.6045064  17.8121836  89.7629455
  85.8840138  17.8804047  88.2766417  74.0841608  19.1230545  86.0967134
  74.8782206  18.6280865  85.8949709  73.3733300  18.5948408  85.7334839
  78.9036452  21.5048641  90.4479502  78.9573475  22.0739577  91.2157217
  78.0351234  21.6750526  90.0833539  70.3924371  13.2673627  82.1726887
  69.4621959  13.2058082  82.3896849  70.4881843  12.7449580  81.3763528
  70.3109920   9.7928440  84.7605128  70.5716738  10.7073773  84.6514289
  71.1327093   9.3252882  84.9101741  71.7834846  11.2066197  91.9303953
  72.4557899  10.9983559  91.2816602  70.9564632  11.0088283  91.4909185
  86.0324107  17.9470247  91.4479286  86.2259997  18.8516058  91.6938561
  85.9324725  17.4877666  92.2817871  77.6860418   7.8328138  93.9469614
  77.0388333   8.5318087  93.8534090  78.4561433   8.2664282  94.3145862
  81.0939216  18.0976990  97.0220167  80.9424722  17.8687542  96.1050251
  81.0843895  19.0547591  97.0351512  77.8624552  15.6708903  92.0066433
  78.7916612  15.8220062  91.8335401  77.4415582  15.7592923  91.1515080
  76.6612884  19.6959567  89.7764971  76.5223970  19.3278352  90.6490909
  75.8727480  20.2107207  89.6048929  77.2561036  24.7968664  81.1190508
  77.4312792  24.3256707  81.9336130  76.5693824  25.4234430  81.3471768
  78.2118099  19.0741170  87.1653809  77.8767932  19.0341940  88.0611459
  77.7122045  18.4085886  86.6924219  72.1862343  14.4808800  92.6906390
  72.0482141  13.7489039  93.2917929  73.0967266  14.3917700  92.4090578
  81.1477291  16.4197204  77.4390868  80.5306461  15.6944032  77.3423921
  80.6793779  17.1806564  77.0957943  74.8144644  14.1928759  92.1790070
  75.5244262  13.5521951  92.1376688  74.7713952  14.4441654  93.1016250
  82.8031422  21.1296112  95.0996649  82.7443968  20.4455333  94.4327232
  83.2050941  21.8715102  94.6477275  73.5273578  11.1793977  93.9985709
  72.9910935  10.7284715  94.6507305  72.9390286  11.3139886  93.2556173
  71.8222121  27.9458026  87.8930368  72.0618719  28.5776550  88.5709386
  70.9791318  27.5946066  88.1795727  72.9375837  10.6382628  76.5612173
  72.0605303  10.5171429  76.1974419  73.4133590   9.8468707  76.3091061
  82.8048830  19.0935696  93.3310628  81.9175608  18.7561618  93.4537027
  83.3747381  18.3618728  93.5679394  64.4577977  15.4259788  86.6553680
  65.1449017  15.1121518  86.0674695  64.3026105  16.3301153  86.3820931
  69.2612699  10.3149985  91.0838704  69.1770888   9.7075654  90.3489114
  68.4395405  10.8059003  91.0848200  76.3349983  23.7537149  90.2971872
  76.2620154  24.5592120  90.8091176  75.8927376  23.9529115  89.4719893
  76.1239763  22.9908919  83.8074693  75.3407284  23.5330599  83.9012918
  76.8232508  23.5082898  84.2068934  79.4336413   8.8003548  86.4508899
  79.9305112   8.0473511  86.1309969  78.6623394   8.8367865  85.8852108
  87.2866170  14.5043914  88.0927190  87.2756046  15.3868629  87.7221123
  86.4183550  14.1515465  87.8981727  78.7948667  23.6523983  92.4530030
  79.5076639  24.2871448  92.3805932  78.3038695  23.7487849  91.6370032
  80.5166193  17.5575235  84.0247322  79.5822472  17.6776698  83.8552026
  80.6942862  16.6547702  83.7607332  76.0171381  10.9420931  86.1780583
  75.6469169  10.3891972  86.8661489  76.5130474  10.3379065  85.6255583
  83.9038745  13.3992555  84.5597356  84.3699197  14.2320546  84.4857659
  84.3546245  12.9337536  85.2642615  73.8460580  21.4018426  93.2735601
  74.5470040  22.0354909  93.4264995  73.3755695  21.7433158  92.5131240
  81.9714976  19.7436376  81.5583508  82.2474820  19.6292971  82.4677382
  81.1019475  19.3453861  81.5195681  81.8755408   5.7673142  88.5988258
  80.9618487   5.9977369  88.7670464  82.3048509   5.8511586  89.4502290
  81.6461866  13.9563034  91.0988152  80.9933316  14.2038941  90.4440604
  82.0242246  13.1427172  90.7650629  78.6069040  23.9922727  85.2016322
  78.7891434  23.1744383  85.6644074  79.4302026  24.2090419  84.7641212
  78.9411205  22.9190912  82.4631370  79.4698972  22.4083367  81.8501532
  79.2039425  22.6033442  83.3276903  77.6949439  14.6982845  97.5854189
  77.0190076  14.5976974  98.2556564  78.5177073  14.5422059  98.0490186
  69.4428298  20.9354781  90.2066704  70.0281735  20.1898469  90.3394608
  69.2453137  21.2458738  91.0903368  72.2966953  23.9706029  85.2229146
  71.6277329  24.4552156  84.7393186  72.1579823  24.2175249  86.1372525
  64.0345953  13.5060382  88.9271147  64.0730052  12.9723972  89.7208265
  63.5286246  12.9795587  88.3082124  76.4372222  26.0049772  91.8211805
  76.9890530  26.1681394  92.5860890  76.7778415  26.5954210  91.1491829
  71.4136715   8.3524922  92.4233689  71.4778042   9.2139753  92.0111087
  71.3503835   7.7398924  91.6906048  70.8888988  10.4248055  96.0706724
  71.5161026  10.0425132  96.6844248  70.0316907  10.2062257  96.4362416
  81.2883096  20.8311030  97.6760459  81.8323000  21.4440988  97.1815414
  80.7069941  21.3890608  98.1927472  67.6654530  12.2324484  82.0025078
  67.9607971  11.3235162  81.9492132  66.7642566  12.2112223  81.6806081
  79.5740609  23.9531748  88.8075487  79.4491749  23.1521488  88.2986432
  80.2319700  24.4477941  88.3189457  71.1948777  10.3080480  87.9852627
  70.4735363  10.9216448  87.8460100  71.9842033  10.8438245  87.9069273
  81.6375518  21.7540768  90.4355037  80.6905853  21.6346119  90.3633364
  81.9858291  20.8663266  90.5181298  73.9975091   7.6434907  94.2593279
  74.5209493   7.8897203  95.0219588  73.7787424   8.4754942  93.8396416
  69.3942372   9.9138581  82.1264404  69.0655078   9.0335960  81.9439509
  69.7481743   9.8586250  83.0140793  78.6421951  21.5493484  86.6359389
  78.4946913  20.6210191  86.8166959  79.4675444  21.5713575  86.1516464
  72.5084195  10.2011551  82.4939881  72.8480268  10.7297472  81.7718490
  72.9556316  10.5391957  83.2698448  82.2456073  22.3722043  87.7224262
  83.1702620  22.1664904  87.5848713  82.0771376  22.1238444  88.6313603
  75.2027636   8.5848602  91.9442949  74.8624456   7.7856415  92.3463629
  74.4966642   8.8850313  91.3719782  75.8544108   5.6697914  90.3970272
  76.6770177   5.1958392  90.2749163  76.0982171   6.4488398  90.8968959
  74.4952342   8.6986173  80.6933174  75.2160705   9.0767426  80.1896891
  73.8717646   9.4175050  80.7968152  78.6383465   9.4031322  81.6291506
  78.8547080  10.2855960  81.3280334  78.1577532   9.0117535  80.8997148
  73.3782687  12.3617035  88.2062251  73.2327267  12.6757338  89.0986532
  72.9007890  12.9801935  87.6533150  75.2379069   9.3519583  88.2543140
  75.2240638   8.4560676  87.9175438  75.9551498   9.3590247  88.8881427
  77.0905200   9.7856923  90.2996268  76.8322978  10.7073994  90.2980598
  76.5590241   9.3887358  90.9896732  82.0351389  22.8907710  83.0786353
  82.2088266  22.3254133  82.3260206  82.5280280  23.6908605  82.8965843
  67.8528349  14.9022379  91.1449912  67.3081817  15.6782187  91.2770186
  68.7307699  15.2493184  90.9869034  74.6415965   8.2333963  83.5230711
  74.7631877   7.3050609  83.7221598  74.3518008   8.2472649  82.6109026
  77.5107156   5.9188874  86.6597430  77.5328853   5.9828207  85.7049410
  77.9275215   5.0793382  86.8537937  87.8890780  15.6544133  84.6976653
  88.3321926  14.9051458  84.2995776  87.0117290  15.6454270  84.3150385
  83.0226561  22.2074475  80.1783252  83.7177466  22.8281167  80.3970566
  83.3649712  21.3569826  80.4535629  68.6394371  14.0292276  94.0380069
  67.8976107  14.1774911  94.6244699  68.3187115  14.2900541  93.1746818
  84.9217985  19.6574180  81.7070582  85.4469309  19.9961453  80.9819902
  84.8340337  18.7221196  81.5233717  76.5838033  23.5708254  93.8360459
  76.8925160  23.3257401  94.7083159  77.3813515  23.7754892  93.3479329
  76.6058645  25.7246163  86.0665836  76.1663636  25.2322542  86.7598692
  77.3566762  25.1819131  85.8257911  69.0850984  21.9157704  86.0690464
  69.9109004  21.6161476  85.6889107  68.7345036  21.1465327  86.5180252
  74.0532517  21.2684173  88.1388137  73.4312527  20.6054878  87.8390365
  74.7237384  21.2945304  87.4561785  67.2859589  19.8344031  87.0279397
  66.4491498  19.4066205  86.8463398  67.2583235  20.0276474  87.9650188
  74.1257045   9.7465961  97.7320643  74.1745200  10.6228083  97.3498413
  74.6679559   9.2043354  97.1592286  84.6111891  20.2907084  97.0121780
  83.8207434  20.2731223  96.4726280  84.3745245  20.8295378  97.7670817
  84.7309766  17.1399550  94.3254509  84.7807771  16.9749558  95.2670032
  84.6223689  16.2726809  93.9352390  73.6146024  19.8188096  81.6146598
  73.7634145  20.5023560  80.9613270  74.4212468  19.7993186  82.1296053
  82.0213528  13.1230478  95.6413816  82.9223391  12.9836943  95.3497813
  82.0961503  13.2884933  96.5811993  76.3556333  10.4997333  94.4867002
  75.4859643  10.7930899  94.2149590  76.5915814  11.0837778  95.2074265
  86.2327962  19.5596492  94.5696530  85.9412771  19.9226472  95.4059991
  85.6200094  18.8463500  94.3909862  87.4323645  17.1249371  87.0899101
  88.2670536  17.5639176  87.2536661  87.5682774  16.6488025  86.2707346
  84.4815151  14.6829106  93.0376588  84.9569272  14.8756753  92.2295440
  83.5580716  14.7388292  92.7919972  71.3698657  15.8453274  82.6207667
  71.1244699  14.9415604  82.8187877  71.5394572  15.8470424  81.6787145
  79.0595367   6.7176950  92.0032422  79.5777311   7.4537977  91.6778911
  78.7050500   7.0240943  92.8379181  70.6394305  11.5781631  80.1193828
  69.9463550  11.6525986  79.4633864  70.3946057  10.8141975  80.6415345
  77.1141430  22.3136226  79.0858345  76.5415397  22.9326413  78.6328817
  77.6874224  22.8635588  79.6198267  83.1816820  11.5594866  91.2704894
  84.1334243  11.6592964  91.2917118  83.0120270  10.7673135  91.7802978
  81.2031199   8.6450450  91.4564295  80.6081131   8.9255462  90.7610784
  80.9180896   9.1344351  92.2281036  80.3338690  22.5973376  80.2166927
  81.2669363  22.5318938  80.4199803  80.2461902  23.4329643  79.7581460
  82.9626706  21.9139247  77.1770875  82.8840338  21.5799110  78.0706633
  83.7836373  22.4061015  77.1762347  85.6604897  14.7800986  90.3847194
  85.6281218  13.8416987  90.5706877  86.2705521  14.8585023  89.6513018
  77.4988228  13.6497039  76.4274398  78.4447333  13.5203247  76.4962816
  77.1202473  12.9111701  76.9043826  85.8099386  11.5712030  90.4305477
  85.2938435  10.7870486  90.2435406  86.6939335  11.2430746  90.5951996
  83.4710113   5.3153045  86.3901289  83.2734934   5.0068133  87.2744621
  84.0809818   6.0414684  86.5199219  91.4781447  15.8416993  89.5253230
  92.2084836  15.5802281  90.0860934  90.8688393  15.1045715  89.5655298
  89.5596744  13.9824856  90.1227682  88.8329908  13.8480820  89.5144173
  89.1444031  14.2901684  90.9284400  77.3826921  17.7014785  97.8875055
  78.3029930  17.8793384  98.0815101  77.3476504  16.7570831  97.7354754
  75.6831146  11.5747015  76.3629283  74.7762601  11.2780128  76.4391996
  75.9607127  11.2776834  75.4963569  66.6009086  12.8953379  86.8128329
  66.2811870  12.0418687  86.5202703  66.0542514  13.1101957  87.5686297
  70.3788993  15.6115820  90.5297836  70.5975003  16.5432928  90.5485870
  70.7914767  15.2523794  91.3152640  77.2993211   6.1183905  82.5173524
  76.4893940   5.7730990  82.8928770  77.9877628   5.8091449  83.1061136
  79.2283760   5.1961952  84.1397821  79.7814798   5.6157405  84.7987844
  79.4653846   4.2697700  84.1820777  75.2516859  11.1849026  99.9200585
  75.1513586  12.1343383  99.8512676  75.0338401  10.8567265  99.0476655
  74.4529930   8.4333951  76.5041262  75.3149094   8.7588849  76.7637079
  74.6380274   7.6465447  75.9914328  66.4697346  16.5156290  88.7821451
  65.7760817  16.1010243  88.2691405  67.2170337  16.5576827  88.1854870
  82.6062567   7.3062477  83.6476485  82.0261236   7.9647281  83.2654537
  82.3398499   6.4839822  83.2363903  81.0566133   6.7067535  85.8497805
  81.5565911   6.8184069  85.0412124  81.7001741   6.4028588  86.4898614
  75.1148129  14.6146164  98.7365646  74.6315211  15.4146525  98.9429535
  75.2009068  14.6254109  97.7833090  68.3834088  16.4474544  86.6587466
  68.3604777  16.5462231  85.7069349  68.6934725  17.2939695  86.9804632
  71.0421466  18.5050699  90.7734080  71.9964720  18.4734642  90.7064012
  70.8433990  18.0441323  91.5884306  71.6320848  17.0751815  93.3404878
  72.4513737  17.5695894  93.3639715  71.9057656  16.1583783  93.3122445
  81.3887445   9.4662568  82.7032833  80.5013300   9.7512218  82.4853028
  81.8041434   9.3056331  81.8560110  84.7401981   9.4909089  86.4187173
  85.5162371   9.9805541  86.6911789  84.0150115   9.9167143  86.8759042
  87.1774539  10.2036708  87.4761113  87.7719030   9.9632444  86.7654421
  87.2501123   9.4843838  88.1034649  69.3971695  24.0470319  87.7904278
  69.2626163  23.2870720  87.2242276  68.9803757  24.7711219  87.3233067
  80.5330658  19.2307242  76.7980853  81.2366508  19.4357245  77.4138509
  79.8093307  19.7984004  77.0629937  81.3628468  14.9817103  82.9183123
  81.3063670  15.4385655  82.0790756  81.9156811  14.2207788  82.7405966
  85.1733274  10.7706835  83.7433243  84.9170209  10.3703471  84.5741451
  84.5486142  11.4850629  83.6183382  89.4845612  13.5102909  86.2504534
  88.9245170  13.5796098  87.0236096  88.8789116  13.3343893  85.5304031
  72.5540821  24.9439636  88.0022721  72.4373205  25.8885068  87.9001411
  71.7333267  24.6413197  88.3908520  82.4417355  19.6689771  78.8479313
  83.2762959  19.2370970  78.6656788  82.2801698  19.4971785  79.7756208
  82.0963248  16.1721885  80.2135653  82.0412051  16.0066156  79.2724097
  81.4709303  16.8797918  80.3697842  66.8855763  11.4089949  94.0397075
  67.5314626  10.8988903  94.5284300  66.6772914  12.1458631  94.6140500
  79.4109155  18.4770797  99.5389215  80.2800314  18.6511449  99.1775850
  78.9315906  19.2965213  99.4164945  75.4059373   5.6729994  79.7920971
  75.3938043   6.6171834  79.9489242  76.2982795   5.4900139  79.4980432
  73.5795335  25.5967898  91.2178649  74.4822582  25.6291508  91.5345144
  73.3532705  24.6668349  91.2324985  75.3348937  24.3498884  87.8788728
  74.3844568  24.3500746  87.7653100  75.6381423  23.6031619  87.3624762
  71.2253254   8.5557566  98.1372089  72.0884715   8.1994371  98.3475414
  70.6518664   8.2171461  98.8247493  91.0701631  30.1859423  88.9434490
  91.7080041  30.0666170  88.2397830  90.9522473  31.1340266  89.0022442
  87.8791337  30.1386851  88.8796015  87.5409848  30.0227915  87.9916550
  88.7481105  29.7378016  88.8597021  83.7378153  31.9922327  84.8692906
  83.1743018  31.9012264  84.1009194  83.6230548  31.1722231  85.3495398
  88.3611120  31.2921702  94.8382220  88.3499761  30.8974501  93.9662724
  88.5231759  30.5587775  95.4315992  81.2842585  33.4873519  87.7077126
  82.0763876  33.1464343  87.2923426  81.5239235  33.5968494  88.6279280
  89.3177711  35.6593295  80.1807371  88.6665691  36.2447375  79.7941384
  90.1122074  36.1899490  80.2402408  83.2433338  32.7482432  80.5794505
  84.0164214  32.2011419  80.4407381  83.5958737  33.6126681  80.7908966
  85.0818381  34.0758814  93.7861404  84.7908247  34.9804445  93.6708071
  85.7175365  34.1175342  94.5005474  86.0074588  31.4535663  90.3762764
  86.6038160  31.2291685  89.6619727  86.0649559  30.7120408  90.9788212
  85.5799616  28.9075098  78.2112955  85.8325137  28.3856619  77.4496418
  84.6424175  28.7441243  78.3139639  90.6242899  27.9110876  86.0187698
  91.4105988  27.4930300  85.6678115  90.8881603  28.8156969  86.1869347
  90.7952976  33.3483727  80.7176355  90.1598809  33.4218353  81.4297260
  90.4650383  33.9377326  80.0395434  96.0251326  27.8486110  86.9220677
  96.7576498  27.2785326  87.1558506  95.2690682  27.4607710  87.3627182
  85.2995905  30.8103204  80.4137330  85.1832163  30.1348107  81.0818414
  85.4098165  30.3235578  79.5969483  87.6427446  30.2713351  84.1184019
  87.2785653  29.7443972  84.8296941  88.4994562  29.8811820  83.9450505
  93.5476747  21.5607684  91.3815285  93.2160071  22.4303095  91.1576500
  92.9522360  21.2443968  92.0609316  87.2832933  25.3003251  79.1145368
  87.4507335  26.1683487  79.4815839  87.0930102  25.4630532  78.1906657
  90.0408266  33.7620230  90.7811198  89.7408989  34.6645268  90.6727005
  89.6959326  33.4952413  91.6332351  83.4920748  30.2134027  86.8147902
  82.5671244  30.0810241  87.0225594  83.7405161  30.9928246  87.3117845
  93.4405410  26.2802770  88.4608635  92.5322287  26.2118178  88.1667396
  93.3893006  26.7574715  89.2890461  87.2622154  27.7560908  80.0992034
  87.1421779  28.2017959  80.9377515  86.5674742  28.1046226  79.5405573
  80.8529559  29.8567300  87.6491692  80.9821940  30.1101779  88.5631103
  80.1727010  30.4495008  87.3296347  85.0229046  40.5264550  83.7482166
  84.9453076  41.4772375  83.8270646  84.4190689  40.1810423  84.4057092
  87.5146276  27.6992415  96.4043533  86.7379610  28.2586336  96.3946397
  88.1536839  28.1849198  96.9258403  95.3067056  24.4819208  90.2386509
  94.6641437  24.7751741  89.5926304  94.8021985  24.3672129  91.0439706
  92.9607220  28.2282381  80.9272369  93.8725076  28.4609768  80.7520066
  92.4516867  28.8119426  80.3647447  85.7692648  30.5077869  95.9661500
  86.5107332  31.0462913  95.6896323  85.0629633  31.1344158  96.1233051
  91.2447988  32.6507009  94.5633661  91.6531344  32.2089420  93.8188293
  90.5225249  32.0759637  94.8167854  87.5979058  27.5879616  91.9367218
  88.4440253  28.0119030  92.0801867  87.5377695  26.9313240  92.6305781
  91.5676802  33.2108200  88.3185950  90.9385665  33.3753914  87.6162018
  91.1802464  33.6249809  89.0896914  95.4466034  34.1462638  85.6730314
  94.7617072  34.5261539  85.1227347  95.5309883  34.7557964  86.4062261
  90.7478503  25.2483984  93.5948392  90.5039435  26.0026045  93.0582667
  91.0238433  25.6269332  94.4295639  92.7016966  31.7922597  92.2725657
  92.9133861  32.4354357  91.5960038  92.6546714  30.9584913  91.8047587
  90.3043195  24.4040417  89.1762229  89.4427674  24.7021671  89.4678967
  90.3305629  24.6210816  88.2443262  87.1204764  32.9482608  85.5836035
  87.5843110  33.2270311  84.7940658  86.8561562  32.0466053  85.4009126
  84.0128845  32.4954090  88.5215798  84.5830202  32.9241358  87.8833283
  84.6036957  32.2136674  89.2199984  86.0573650  29.0705760  82.3925600
  86.7597694  29.5226804  82.8599527  85.7254279  28.4289579  83.0205493
  84.5054012  27.6617517  96.7676810  83.8752672  28.3433798  97.0012206
  84.3990100  27.5500599  95.8229948  79.7998984  27.3289313  87.6942734
  79.0098038  27.5846842  87.2182844  80.2910232  28.1437651  87.7994774
  93.8162794  34.6694552  90.4448015  94.6380237  34.2674739  90.1630696
  93.8125197  34.5662786  91.3964130  81.7513730  27.6933892  84.6526210
  80.9544893  27.8052587  85.1709706  81.5239322  28.0320544  83.7867101
  87.5819397  34.2178595  92.6008725  87.6463830  34.6799003  93.4366897
  86.8730321  33.5875960  92.7291035  78.0836687  27.5819803  90.1257725
  78.3344726  28.4666813  90.3915301  78.6196236  27.4024405  89.3532816
 101.9068787  31.0133301  86.7932986 101.1532495  30.4440699  86.6376991
 102.0416328  30.9795965  87.7403621  87.2967415  35.8846703  82.4687705
  87.1613090  36.7298239  82.8972553  87.8377227  36.0865981  81.7053639
  83.7834754  21.9638283  99.1302061  83.3901700  21.4104481  99.8049705
  84.6000895  22.2748861  99.5208578  80.7496812  33.4022141  83.0415631
  81.2621333  34.1965391  83.1921195  81.4019525  32.7048431  82.9749232
  82.5591697  36.5187897  85.1238384  82.7358325  37.4405862  84.9359368
  83.3548530  36.2046316  85.5532763  86.7002715  23.3796162  96.7222317
  87.4412429  23.9803315  96.6426780  86.9320638  22.6373800  96.1640360
  81.8444053  28.5652529  95.0000547  81.7297569  27.6637786  95.3007646
  80.9888571  28.8116226  94.6485363  88.9235891  36.5070269  96.5988048
  88.4799745  35.7206648  96.2808952  89.5853105  36.6949420  95.9331938
  83.6823012  38.0366071  91.1248726  84.2330437  37.9083134  90.3525720
  82.8434488  38.3360960  90.7743619  91.0217129  36.7873069  94.6269449
  91.0035605  37.6081950  94.1349718  91.9437049  36.6627145  94.8519590
  87.4790183  34.3017199  95.4692957  88.0118520  33.5405487  95.2392265
  86.9504265  34.0090851  96.2117112  90.6459878  19.4077265  90.9986599
  90.3024148  20.2978907  90.9225709  91.0138841  19.2178922  90.1356184
  78.7145729  31.7310795  83.8175201  79.5520951  32.1407804  83.6008909
  78.8923997  30.7910237  83.7875395  90.6110161  29.3985876  79.5059034
  90.0956785  30.1690481  79.7447421  90.3387470  28.7251012  80.1292095
  88.1957272  24.2435577  84.5644272  87.3398868  23.8542427  84.3849911
  88.6084224  24.3227538  83.7044058  89.7256419  21.7781920  88.9635832
  89.2221214  21.7412055  88.1503637  90.0187026  22.6874663  89.0232489
  85.9699305  21.8620650  87.9702014  86.8352301  21.6663458  87.6107903
  86.0376814  21.6331001  88.8971371  95.5844435  32.1518231  81.4412207
  94.8073878  31.8129390  80.9967370  96.2635916  32.1570854  80.7667173
  90.3996464  27.2712968  81.3318815  90.0946600  27.5859117  82.1828958
  91.3526906  27.3494388  81.3746148  88.8442896  33.4303191  82.9811769
  88.3164258  32.6955951  82.6685007  88.3430399  34.2077868  82.7351738
  93.8235742  31.6252212  88.0978815  93.1659417  32.3151473  88.1858944
  94.6276141  32.0148644  88.4412802  83.5761624  24.0922858  85.3418381
  84.1505376  23.8698039  84.6091574  84.1632606  24.1611552  86.0946982
  92.6341201  29.9796585  86.1482757  93.1473083  30.6126576  86.6504467
  93.2842425  29.3797780  85.7826117  83.9031211  26.1227319  79.3614266
  83.0668523  26.4602005  79.6823541  83.7635980  25.9876298  78.4241403
  85.8784291  20.9664107  84.0693450  85.2248704  20.6513124  83.4450065
  85.8364766  20.3439847  84.7953273  86.9895496  31.2483402  75.9846742
  86.0822558  31.0172655  76.1837891  87.4866528  30.4521021  76.1720724
  89.8963575  39.9580909  78.9043428  89.2225274  40.2612606  79.5128386
  90.2829397  40.7609989  78.5548885  89.1122032  27.4546040  88.3941098
  88.1944593  27.6760987  88.2362786  89.5282175  27.5292351  87.5352805
  89.8957080  28.8537456  83.5243778  90.6428898  29.3658853  83.2150900
  90.1648669  28.5321509  84.3848172  88.1683730  31.3495997  80.5070732
  87.2594949  31.0655029  80.6043202  88.1978814  31.7695075  79.6474039
  93.4002997  34.9602586  84.2761900  92.9465324  34.1193496  84.3327090
  92.7696964  35.5963984  84.6136680  92.3435917  25.8894572  85.5062567
  91.6058674  25.3771958  85.8372810  92.5962690  25.4494954  84.6945844
  91.8435936  36.7979083  85.2111718  92.1358911  37.3584140  84.4924084
  92.3534557  37.0907644  85.9664877  92.4447544  18.6670824  86.1004337
  92.7506421  17.8068187  85.8130252  93.1700149  19.2588444  85.9003330
  78.7371900  29.0701511  84.4885935  78.5396300  28.4770871  83.7637001
  78.1818564  28.7653721  85.2061873  86.7168624  28.9624617  86.6080528
  86.7717234  28.0098454  86.5323004  85.9059826  29.1184056  87.0921826
  87.8659818  32.8904740  77.8458811  87.4279247  32.1740599  77.3864448
  88.6070258  33.1180855  77.2843902  84.6560984  27.5801677  84.3670907
  83.8428849  27.8795847  84.7736099  85.1519978  27.1857366  85.0845389
  86.8069562  37.5759434  86.3005171  86.7645740  37.8020280  85.3713703
  87.7232260  37.3422808  86.4490972  90.2535195  28.0443501  93.1985800
  90.6084583  28.2714974  94.0580266  90.9007327  28.3761878  92.5763056
  95.9832932  31.1661937  83.9035129  95.8450831  31.3563533  82.9756319
  95.6269151  31.9281320  84.3603181  84.1475058  25.1520032  89.9832141
  84.7874438  25.0108791  89.2855105  83.3152589  24.8654546  89.6070743
  96.0102312  33.2338464  88.9146401  96.4438819  33.1413753  89.7629455
  96.7233893  33.2095965  88.2766417  84.9235362  34.4522463  86.0967134
  85.7175961  33.9572783  85.8949709  84.2127055  33.9240326  85.7334839
  89.7430207  36.8340558  90.4479502  89.7967229  37.4031495  91.2157217
  88.8744988  37.0042443  90.0833539  81.2318126  28.5965545  82.1726887
  80.3015714  28.5350000  82.3896849  81.3275598  28.0741497  81.3763528
  81.1503675  25.1220357  84.7605128  81.4110492  26.0365691  84.6514289
  81.9720847  24.6544800  84.9101741  82.6228600  26.5358115  91.9303953
  83.2951654  26.3275477  91.2816602  81.7958387  26.3380201  91.4909185
  96.8717861  33.2762165  91.4479286  97.0653752  34.1807975  91.6938561
  96.7718480  32.8169584  92.2817871  88.5254172  23.1620055  93.9469614
  87.8782087  23.8610005  93.8534090  89.2955188  23.5956199  94.3145862
  91.9332970  33.4268908  97.0220167  91.7818477  33.1979459  96.1050251
  91.9237650  34.3839509  97.0351512  88.7018307  31.0000820  92.0066433
  89.6310367  31.1511980  91.8335401  88.2809337  31.0884841  91.1515080
  87.5006638  35.0251485  89.7764971  87.3617724  34.6570269  90.6490909
  86.7121235  35.5399124  89.6048929  88.0954790  40.1260581  81.1190508
  88.2706546  39.6548624  81.9336130  87.4087578  40.7526347  81.3471768
  89.0511853  34.4033087  87.1653809  88.7161686  34.3633857  88.0611459
  88.5515799  33.7377803  86.6924219  83.0256097  29.8100718  92.6906390
  82.8875895  29.0780956  93.2917929  83.9361021  29.7209618  92.4090578
  91.9871045  31.7489122  77.4390868  91.3700216  31.0235950  77.3423921
  91.5187534  32.5098482  77.0957943  85.6538398  29.5220677  92.1790070
  86.3638017  28.8813869  92.1376688  85.6107706  29.7733572  93.1016250
  93.6425177  36.4588030  95.0996649  93.5837723  35.7747250  94.4327232
  94.0444695  37.2007020  94.6477275  84.3667332  26.5085895  93.9985709
  83.8304689  26.0576633  94.6507305  83.7784041  26.6431804  93.2556173
  82.6615876  43.2749944  87.8930368  82.9012474  43.9068468  88.5709386
  81.8185072  42.9237984  88.1795727  83.7769591  25.9674546  76.5612173
  82.8999057  25.8463347  76.1974419  84.2527344  25.1760624  76.3091061
  93.6442584  34.4227614  93.3310628  92.7569363  34.0853536  93.4537027
  94.2141135  33.6910645  93.5679394  75.2971731  30.7551706  86.6553680
  75.9842771  30.4413436  86.0674695  75.1419860  31.6593070  86.3820931
  80.1006453  25.6441902  91.0838704  80.0164642  25.0367572  90.3489114
  79.2789160  26.1350921  91.0848200  87.1743737  39.0829066  90.2971872
  87.1013909  39.8884038  90.8091176  86.7321131  39.2821032  89.4719893
  86.9633517  38.3200836  83.8074693  86.1801039  38.8622517  83.9012918
  87.6626262  38.8374816  84.2068934  90.2730167  24.1295466  86.4508899
  90.7698867  23.3765428  86.1309969  89.5017149  24.1659783  85.8852108
  98.1259925  29.8335831  88.0927190  98.1149801  30.7160547  87.7221123
  97.2577304  29.4807382  87.8981727  89.6342421  38.9815900  92.4530030
  90.3470393  39.6163365  92.3805932  89.1432450  39.0779766  91.6370032
  91.3559948  32.8867153  84.0247322  90.4216227  33.0068616  83.8552026
  91.5336616  31.9839620  83.7607332  86.8565136  26.2712849  86.1780583
  86.4862923  25.7183889  86.8661489  87.3524228  25.6670982  85.6255583
  94.7432499  28.7284472  84.5597356  95.2092951  29.5612464  84.4857659
  95.1940000  28.2629454  85.2642615  84.6854335  36.7310344  93.2735601
  85.3863794  37.3646827  93.4264995  84.2149450  37.0725075  92.5131240
  92.8108730  35.0728294  81.5583508  93.0868574  34.9584888  82.4677382
  91.9413229  34.6745779  81.5195681  92.7149162  21.0965059  88.5988258
  91.8012242  21.3269286  88.7670464  93.1442263  21.1803504  89.4502290
  92.4855620  29.2854951  91.0988152  91.8327071  29.5330859  90.4440604
  92.8636000  28.4719090  90.7650629  89.4462794  39.3214645  85.2016322
  89.6285189  38.5036301  85.6644074  90.2695780  39.5382337  84.7641212
  89.7804960  38.2482830  82.4631370  90.3092726  37.7375284  81.8501532
  90.0433179  37.9325360  83.3276903  88.5343194  30.0274762  97.5854189
  87.8583831  29.9268892  98.2556564  89.3570827  29.8713976  98.0490186
  80.2822053  36.2646699  90.2066704  80.8675489  35.5190387  90.3394608
  80.0846891  36.5750656  91.0903368  83.1360708  39.2997946  85.2229146
  82.4671083  39.7844074  84.7393186  82.9973578  39.5467167  86.1372525
  74.8739707  28.8352299  88.9271147  74.9123807  28.3015890  89.7208265
  74.3680000  28.3087505  88.3082124  87.2765976  41.3341690  91.8211805
  87.8284284  41.4973311  92.5860890  87.6172170  41.9246128  91.1491829
  82.2530470  23.6816840  92.4233689  82.3171796  24.5431671  92.0111087
  82.1897590  23.0690841  91.6906048  81.7282742  25.7539972  96.0706724
  82.3554781  25.3717050  96.6844248  80.8710661  25.5354174  96.4362416
  92.1276851  36.1602947  97.6760459  92.6716755  36.7732906  97.1815414
  91.5463696  36.7182526  98.1927472  78.5048285  27.5616401  82.0025078
  78.8001726  26.6527080  81.9492132  77.6036321  27.5404141  81.6806081
  90.4134364  39.2823665  88.8075487  90.2885503  38.4813405  88.2986432
  91.0713455  39.7769859  88.3189457  82.0342532  25.6372398  87.9852627
  81.3129118  26.2508366  87.8460100  82.8235788  26.1730163  87.9069273
  92.4769272  37.0832686  90.4355037  91.5299608  36.9638037  90.3633364
  92.8252045  36.1955184  90.5181298  84.8368845  22.9726824  94.2593279
  85.3603247  23.2189121  95.0219588  84.6181179  23.8046859  93.8396416
  80.2336126  25.2430499  82.1264404  79.9048833  24.3627878  81.9439509
  80.5875497  25.1878168  83.0140793  89.4815705  36.8785402  86.6359389
  89.3340668  35.9502109  86.8166959  90.3069199  36.9005492  86.1516464
  83.3477950  25.5303469  82.4939881  83.6874022  26.0589390  81.7718490
  83.7950070  25.8683875  83.2698448  93.0849827  37.7013960  87.7224262
  94.0096375  37.4956822  87.5848713  92.9165131  37.4530362  88.6313603
  86.0421390  23.9140520  91.9442949  85.7018211  23.1148333  92.3463629
  85.3360397  24.2142230  91.3719782  86.6937862  20.9989832  90.3970272
  87.5163932  20.5250310  90.2749163  86.9375926  21.7780316  90.8968959
  85.3346097  24.0278090  80.6933174  86.0554459  24.4059343  80.1896891
  84.7111401  24.7466967  80.7968152  89.4777220  24.7323239  81.6291506
  89.6940834  25.6147877  81.3280334  88.9971287  24.3409453  80.8997148
  84.2176441  27.6908953  88.2062251  84.0721022  28.0049256  89.0986532
  83.7401645  28.3093853  87.6533150  86.0772824  24.6811501  88.2543140
  86.0634393  23.7852594  87.9175438  86.7945252  24.6882164  88.8881427
  87.9298955  25.1148841  90.2996268  87.6716732  26.0365911  90.2980598
  87.3983995  24.7179275  90.9896732  92.8745143  38.2199628  83.0786353
  93.0482021  37.6546050  82.3260206  93.3674035  39.0200523  82.8965843
  78.6922103  30.2314297  91.1449912  78.1475571  31.0074105  91.2770186
  79.5701453  30.5785101  90.9869034  85.4809720  23.5625881  83.5230711
  85.6025631  22.6342527  83.7221598  85.1911762  23.5764567  82.6109026
  88.3500910  21.2480791  86.6597430  88.3722607  21.3120124  85.7049410
  88.7668969  20.4085300  86.8537937  98.7284535  30.9836051  84.6976653
  99.1715681  30.2343376  84.2995776  97.8511045  30.9746187  84.3150385
  93.8620316  37.5366392  80.1783252  94.5571221  38.1573085  80.3970566
  94.2043466  36.6861744  80.4535629  79.4788125  29.3584193  94.0380069
  78.7369861  29.5066829  94.6244699  79.1580869  29.6192459  93.1746818
  95.7611739  34.9866098  81.7070582  96.2863063  35.3253371  80.9819902
  95.6734092  34.0513113  81.5233717  87.4231788  38.9000171  93.8360459
  87.7318914  38.6549318  94.7083159  88.2207270  39.1046810  93.3479329
  87.4452400  41.0538081  86.0665836  87.0057390  40.5614460  86.7598692
  88.1960517  40.5111049  85.8257911  79.9244739  37.2449622  86.0690464
  80.7502759  36.9453394  85.6889107  79.5738791  36.4757244  86.5180252
  84.8926272  36.5976090  88.1388137  84.2706281  35.9346795  87.8390365
  85.5631139  36.6237222  87.4561785  78.1253344  35.1635948  87.0279397
  77.2885252  34.7358123  86.8463398  78.0976989  35.3568392  87.9650188
  84.9650799  25.0757878  97.7320643  85.0138955  25.9520001  97.3498413
  85.5073314  24.5335271  97.1592286  95.4505645  35.6199001  97.0121780
  94.6601189  35.6023140  96.4726280  95.2139000  36.1587295  97.7670817
  95.5703520  32.4691468  94.3254509  95.6201525  32.3041475  95.2670032
  95.4617443  31.6018727  93.9352390  84.4539779  35.1480014  81.6146598
  84.6027899  35.8315478  80.9613270  85.2606222  35.1285104  82.1296053
  92.8607283  28.4522396  95.6413816  93.7617145  28.3128861  95.3497813
  92.9355257  28.6176851  96.5811993  87.1950088  25.8289251  94.4867002
  86.3253397  26.1222817  94.2149590  87.4309568  26.4129696  95.2074265
  97.0721717  34.8888409  94.5696530  96.7806525  35.2518390  95.4059991
  96.4593848  34.1755418  94.3909862  98.2717399  32.4541289  87.0899101
  99.1064291  32.8931093  87.2536661  98.4076528  31.9779942  86.2707346
  95.3208905  30.0121024  93.0376588  95.7963027  30.2048670  92.2295440
  94.3974471  30.0680210  92.7919972  82.2092412  31.1745191  82.6207667
  81.9638454  30.2707521  82.8187877  82.3788326  31.1762342  81.6787145
  89.8989122  22.0468868  92.0032422  90.4171066  22.7829894  91.6778911
  89.5444254  22.3532861  92.8379181  81.4788059  26.9073549  80.1193828
  80.7857304  26.9817904  79.4633864  81.2339811  26.1433892  80.6415345
  90.1501716  18.4669150  87.5233319  90.4303470  17.7992339  88.1493745
  90.9352323  18.6598246  87.0107983  87.9535184  37.6428144  79.0858345
  87.3809151  38.2618331  78.6328817  88.5267978  38.1927506  79.6198267
  94.0210574  26.8886784  91.2704894  94.9727997  26.9884882  91.2917118
  93.8514025  26.0965053  91.7802978  92.0424954  23.9742367  91.4564295
  91.4474886  24.2547380  90.7610784  91.7574650  24.4636268  92.2281036
  91.1732444  37.9265294  80.2166927  92.1063117  37.8610856  80.4199803
  91.0855657  38.7621561  79.7581460  93.8020461  37.2431164  77.1770875
  93.7234092  36.9091028  78.0706633  94.6230128  37.7352932  77.1762347
  96.4998652  30.1092904  90.3847194  96.4674972  29.1708905  90.5706877
  97.1099276  30.1876941  89.6513018  88.3381983  28.9788957  76.4274398
  89.2841088  28.8495165  76.4962816  87.9596228  28.2403619  76.9043826
  96.6493140  26.9003947  90.4305477  96.1332189  26.1162404  90.2435406
  97.5333089  26.5722664  90.5951996  94.3103867  20.6444963  86.3901289
  94.1128689  20.3360051  87.2744621  94.9203573  21.3706602  86.5199219
 102.3175202  31.1708911  89.5253230 103.0478590  30.9094199  90.0860934
 101.7082147  30.4337633  89.5655298 100.3990499  29.3116773  90.1227682
  99.6723663  29.1772738  89.5144173  99.9837786  29.6193602  90.9284400
  88.2220675  33.0306703  97.8875055  89.1423685  33.2085302  98.0815101
  88.1870258  32.0862748  97.7354754  86.5224900  26.9038933  76.3629283
  85.6156355  26.6072046  76.4391996  86.8000881  26.6068751  75.4963569
  77.4402840  28.2245297  86.8128329  77.1205625  27.3710605  86.5202703
  76.8936269  28.4393875  87.5686297  81.2182748  30.9407738  90.5297836
  81.4368758  31.8724845  90.5485870  81.6308522  30.5815712  91.3152640
  88.1386966  21.4475823  82.5173524  87.3287694  21.1022908  82.8928770
  88.8271383  21.1383367  83.1061136  90.0677514  20.5253870  84.1397821
  90.6208553  20.9449323  84.7987844  90.3047600  19.5989618  84.1820777
  86.0910613  26.5140943  99.9200585  85.9907340  27.4635300  99.8512676
  85.8732155  26.1859182  99.0476655  85.2923685  23.7625868  76.5041262
  86.1542849  24.0880767  76.7637079  85.4774029  22.9757364  75.9914328
  77.3091100  31.8448208  88.7821451  76.6154572  31.4302161  88.2691405
  78.0564091  31.8868745  88.1854870  93.4456321  22.6354395  83.6476485
  92.8654990  23.2939199  83.2654537  93.1792254  21.8131739  83.2363903
  91.8959887  22.0359453  85.8497805  92.3959666  22.1475987  85.0412124
  92.5395495  21.7320505  86.4898614  85.9541883  29.9438082  98.7365646
  85.4708965  30.7438442  98.9429535  86.0402822  29.9546027  97.7833090
  79.2227843  31.7766462  86.6587466  79.1998531  31.8754149  85.7069349
  79.5328479  32.6231613  86.9804632  81.8815221  33.8342617  90.7734080
  82.8358474  33.8026559  90.7064012  81.6827744  33.3733241  91.5884306
  82.4714603  32.4043733  93.3404878  83.2907492  32.8987812  93.3639715
  82.7451411  31.4875701  93.3122445  92.2281199  24.7954485  82.7032833
  91.3407054  25.0804136  82.4853028  92.6435188  24.6348249  81.8560110
  95.5795735  24.8201006  86.4187173  96.3556125  25.3097459  86.6911789
  94.8543869  25.2459060  86.8759042  98.0168294  25.5328625  87.4761113
  98.6112785  25.2924361  86.7654421  98.0894878  24.8135756  88.1034649
  80.2365450  39.3762236  87.7904278  80.1019918  38.6162637  87.2242276
  79.8197512  40.1003136  87.3233067  91.3724413  34.5599160  76.7980853
  92.0760263  34.7649162  77.4138509  90.6487061  35.1275922  77.0629937
  92.2022223  30.3109021  82.9183123  92.1457424  30.7677573  82.0790756
  92.7550565  29.5499706  82.7405966  96.0127029  26.0998753  83.7433243
  95.7563963  25.6995389  84.5741451  95.3879897  26.8142547  83.6183382
 100.3239367  28.8394826  86.2504534  99.7638925  28.9088016  87.0236096
  99.7182870  28.6635811  85.5304031  83.3934575  40.2731553  88.0022721
  83.2766960  41.2176986  87.9001411  82.5727022  39.9705115  88.3908520
  93.2811110  34.9981689  78.8479313  94.1156714  34.5662888  78.6656788
  93.1195453  34.8263703  79.7756208  92.9357002  31.5013802  80.2135653
  92.8805806  31.3358074  79.2724097  92.3103057  32.2089835  80.3697842
  77.7249517  26.7381867  94.0397075  78.3708381  26.2280821  94.5284300
  77.5166668  27.4750548  94.6140500  90.2502909  33.8062714  99.5389215
  91.1194069  33.9803367  99.1775850  89.7709661  34.6257131  99.4164945
  86.2453128  21.0021911  79.7920971  86.2331797  21.9463751  79.9489242
  87.1376550  20.8192057  79.4980432  84.4189090  40.9259815  91.2178649
  85.3216336  40.9583426  91.5345144  84.1926460  39.9960266  91.2324985
  86.1742692  39.6790802  87.8788728  85.2238323  39.6792663  87.7653100
  86.4775178  38.9323536  87.3624762  90.0605247  17.5964688  84.0466908
  89.2937643  17.0423175  84.1923590  90.4715952  17.6686557  84.9081059
  82.0647008  23.8849484  98.1372089  82.9278470  23.5286289  98.3475414
  81.4912419  23.5463379  98.8247493 101.9095385  45.5151340  88.9434490
 102.5473795  45.3958088  88.2397830 101.7916228  46.4632184  89.0022442
  98.7185091  45.4678768  88.8796015  98.3803603  45.3519833  87.9916550
  99.5874860  45.0669933  88.8597021  94.5771907  47.3214245  84.8692906
  94.0136772  47.2304182  84.1009194  94.4624302  46.5014149  85.3495398
  99.2004874  46.6213620  94.8382220  99.1893515  46.2266418  93.9662724
  99.3625514  45.8879693  95.4315992  92.1236339  48.8165436  87.7077126
  92.9157631  48.4756261  87.2923426  92.3632989  48.9260411  88.6279280
 100.1571466  50.9885212  80.1807371  99.5059446  51.5739293  79.7941384
 100.9515829  51.5191407  80.2402408  94.0827093  48.0774350  80.5794505
  94.8557969  47.5303337  80.4407381  94.4352492  48.9418599  80.7908966
  95.9212135  49.4050732  93.7861404  95.6302001  50.3096363  93.6708071
  96.5569120  49.4467259  94.5005474  96.8468342  46.7827580  90.3762764
  97.4431915  46.5583603  89.6619727  96.9043314  46.0412326  90.9788212
  96.4193371  44.2367016  78.2112955  96.6718891  43.7148537  77.4496418
  95.4817930  44.0733161  78.3139639 101.4636654  43.2402794  86.0187698
 102.2499743  42.8222217  85.6678115 101.7275358  44.1448886  86.1869347
 101.6346731  48.6775644  80.7176355 100.9992564  48.7510271  81.4297260
 101.3044137  49.2669243  80.0395434 106.8645081  43.1778027  86.9220677
 107.5970253  42.6077244  87.1558506 106.1084436  42.7899628  87.3627182
  96.1389659  46.1395122  80.4137330  96.0225918  45.4640025  81.0818414
  96.2491919  45.6527496  79.5969483  98.4821200  45.6005269  84.1184019
  98.1179408  45.0735890  84.8296941  99.3388316  45.2103738  83.9450505
 104.3870501  36.8899601  91.3815285 104.0553826  37.7595012  91.1576500
 103.7916114  36.5735885  92.0609316  98.1226687  40.6295168  79.1145368
  98.2901090  41.4975405  79.4815839  97.9323856  40.7922450  78.1906657
 100.8802021  49.0912147  90.7811198 100.5802744  49.9937186  90.6727005
 100.5353080  48.8244331  91.6332351  94.3314502  45.5425944  86.8147902
  93.4064999  45.4102158  87.0225594  94.5798915  46.3220163  87.3117845
 104.2799164  41.6094688  88.4608635 103.3716042  41.5410096  88.1667396
 104.2286760  42.0866632  89.2890461  98.1015908  43.0852826  80.0992034
  97.9815533  43.5309877  80.9377515  97.4068497  43.4338144  79.5405573
  91.6923313  45.1859218  87.6491692  91.8215694  45.4393697  88.5631103
  91.0120764  45.7786926  87.3296347  95.8622800  55.8556468  83.7482166
  95.7846830  56.8064293  83.8270646  95.2584444  55.5102340  84.4057092
  98.3540030  43.0284333  96.4043533  97.5773364  43.5878253  96.3946397
  98.9930593  43.5141116  96.9258403 106.1460811  39.8111126  90.2386509
 105.5035191  40.1043659  89.5926304 105.6415739  39.6964046  91.0439706
 103.8000974  43.5574299  80.9272369 104.7118831  43.7901686  80.7520066
 103.2910622  44.1411343  80.3647447  96.6086402  45.8369786  95.9661500
  97.3501087  46.3754830  95.6896323  95.9023388  46.4636075  96.1233051
 102.0841742  47.9798927  94.5633661 102.4925098  47.5381337  93.8188293
 101.3619004  47.4051554  94.8167854  98.4372812  42.9171534  91.9367218
  99.2834007  43.3410947  92.0801867  98.3771450  42.2605158  92.6305781
 102.4070557  48.5400118  88.3185950 101.7779419  48.7045832  87.6162018
 102.0196219  48.9541727  89.0896914 106.2859789  49.4754555  85.6730314
 105.6010827  49.8553457  85.1227347 106.3703638  50.0849882  86.4062261
 101.5872257  40.5775902  93.5948392 101.3433189  41.3317963  93.0582667
 101.8632188  40.9561250  94.4295639 103.5410720  47.1214514  92.2725657
 103.7527615  47.7646274  91.5960038 103.4940468  46.2876831  91.8047587
 101.1436949  39.7332335  89.1762229 100.2821428  40.0313589  89.4678967
 101.1699384  39.9502734  88.2443262  97.9598519  48.2774526  85.5836035
  98.4236864  48.5562229  84.7940658  97.6955317  47.3757970  85.4009126
  94.8522600  47.8246007  88.5215798  95.4223957  48.2533276  87.8833283
  95.4430712  47.5428592  89.2199984  96.8967405  44.3997678  82.3925600
  97.5991448  44.8518722  82.8599527  96.5648033  43.7581497  83.0205493
  95.3447766  42.9909435  96.7676810  94.7146427  43.6725716  97.0012206
  95.2383854  42.8792516  95.8229948  90.6392739  42.6581231  87.6942734
  89.8491793  42.9138759  87.2182844  91.1303986  43.4729569  87.7994774
 104.6556548  49.9986470  90.4448015 105.4773992  49.5966657  90.1630696
 104.6518951  49.8954704  91.3964130  92.5907484  43.0225810  84.6526210
  91.7938647  43.1344504  85.1709706  92.3633076  43.3612462  83.7867101
  98.4213152  49.5470513  92.6008725  98.4857584  50.0090920  93.4366897
  97.7124076  48.9167878  92.7291035  88.9230442  42.9111721  90.1257725
  89.1738480  43.7958731  90.3915301  89.4589990  42.7316323  89.3532816
 112.7462541  46.3425218  86.7932986 111.9926250  45.7732616  86.6376991
 112.8810082  46.3087883  87.7403621  98.1361169  51.2138621  82.4687705
  98.0006844  52.0590156  82.8972553  98.6770982  51.4157898  81.7053639
  94.6228509  37.2930200  99.1302061  94.2295454  36.7396399  99.8049705
  95.4394649  37.6040779  99.5208578  91.5890567  48.7314059  83.0415631
  92.1015087  49.5257309  83.1921195  92.2413280  48.0340349  82.9749232
  93.3985451  51.8479815  85.1238384  93.5752080  52.7697780  84.9359368
  94.1942285  51.5338234  85.5532763  97.5396470  38.7088080  96.7222317
  98.2806183  39.3095233  96.6426780  97.7714393  37.9665717  96.1640360
  92.6837808  43.8944447  95.0000547  92.5691323  42.9929704  95.3007646
  91.8282326  44.1408144  94.6485363  99.7629646  51.8362187  96.5988048
  99.3193500  51.0498566  96.2808952 100.4246859  52.0241338  95.9331938
  94.5216767  53.3657989  91.1248726  95.0724192  53.2375052  90.3525720
  93.6828243  53.6652878  90.7743619 101.8610884  52.1164987  94.6269449
 101.8429359  52.9373868  94.1349718 102.7830804  51.9919062  94.8519590
  98.3183938  49.6309117  95.4692957  98.8512275  48.8697405  95.2392265
  97.7898019  49.3382768  96.2117112 101.4853633  34.7369183  90.9986599
 101.1417902  35.6270824  90.9225709 101.8532595  34.5470840  90.1356184
  89.5539483  47.0602713  83.8175201  90.3914705  47.4699721  83.6008909
  89.7317751  46.1202155  83.7875395 101.4503916  44.7277794  79.5059034
 100.9350539  45.4982398  79.7447421 101.1781224  44.0542930  80.1292095
  99.0351027  39.5727494  84.5644272  98.1792623  39.1834345  84.3849911
  99.4477978  39.6519455  83.7044058 100.5650173  37.1073838  88.9635832
 100.0614969  37.0703973  88.1503637 100.8580780  38.0166580  89.0232489
  96.8093059  37.1912567  87.9702014  97.6746056  36.9955376  87.6107903
  96.8770568  36.9622919  88.8971371 106.4238190  47.4810148  81.4412207
 105.6467632  47.1421308  80.9967370 107.1029671  47.4862771  80.7667173
 101.2390219  42.6004886  81.3318815 100.9340354  42.9151035  82.1828958
 102.1920661  42.6786306  81.3746148  99.6836651  48.7595109  82.9811769
  99.1558012  48.0247869  82.6685007  99.1824153  49.5369785  82.7351738
 104.6629497  46.9544130  88.0978815 104.0053171  47.6443391  88.1858944
 105.4669896  47.3440561  88.4412802  94.4155378  39.4214775  85.3418381
  94.9899130  39.1989957  84.6091574  95.0026361  39.4903470  86.0946982
 103.4734955  45.3088502  86.1482757 103.9866837  45.9418494  86.6504467
 104.1236179  44.7089698  85.7826117  94.7424965  41.4519236  79.3614266
  93.9062278  41.7893923  79.6823541  94.6029735  41.3168216  78.4241403
  96.7178046  36.2956024  84.0693450  96.0642458  35.9805041  83.4450065
  96.6758520  35.6731765  84.7953273  97.8289251  46.5775319  75.9846742
  96.9216313  46.3464573  76.1837891  98.3260283  45.7812939  76.1720724
 100.7357330  55.2872827  78.9043428 100.0619028  55.5904523  79.5128386
 101.1223152  56.0901907  78.5548885  99.9515786  42.7837958  88.3941098
  99.0338348  43.0052905  88.2362786 100.3675930  42.8584268  87.5352805
 100.7350834  44.1829373  83.5243778 101.4822653  44.6950771  83.2150900
 101.0042424  43.8613426  84.3848172  99.0077484  46.6787914  80.5070732
  98.0988703  46.3946947  80.6043202  99.0372568  47.0986993  79.6474039
 104.2396752  50.2894504  84.2761900 103.7859079  49.4485414  84.3327090
 103.6090718  50.9255902  84.6136680 103.1829671  41.2186490  85.5062567
 102.4452428  40.7063876  85.8372810 103.4356445  40.7786871  84.6945844
 102.6829691  52.1271000  85.2111718 102.9752665  52.6876057  84.4924084
 103.1928311  52.4199561  85.9664877 103.2841299  33.9962742  86.1004337
 103.5900175  33.1360105  85.8130252 104.0093903  34.5880362  85.9003330
  89.5765655  44.3993428  84.4885935  89.3790054  43.8062789  83.7637001
  89.0212319  44.0945638  85.2061873  97.5562378  44.2916535  86.6080528
  97.6110988  43.3390371  86.5323004  96.7453580  44.4475974  87.0921826
  98.7053572  48.2196658  77.8458811  98.2673002  47.5032517  77.3864448
  99.4464013  48.4472773  77.2843902  95.4954738  42.9093595  84.3670907
  94.6822604  43.2087765  84.7736099  95.9913732  42.5149283  85.0845389
  97.6463316  52.9051351  86.3005171  97.6039495  53.1312198  85.3713703
  98.5626015  52.6714726  86.4490972 101.0928950  43.3735419  93.1985800
 101.4478338  43.6006892  94.0580266 101.7401081  43.7053796  92.5763056
 106.8226687  46.4953855  83.9035129 106.6844585  46.6855451  82.9756319
 106.4662906  47.2573238  84.3603181  94.9868813  40.4811950  89.9832141
  95.6268192  40.3400709  89.2855105  94.1546343  40.1946463  89.6070743
 106.8496066  48.5630382  88.9146401 107.2832573  48.4705671  89.7629455
 107.5627647  48.5387882  88.2766417  95.7629117  49.7814380  86.0967134
  96.5569715  49.2864701  85.8949709  95.0520809  49.2532244  85.7334839
 100.5823961  52.1632476  90.4479502 100.6360984  52.7323412  91.2157217
  99.7138743  52.3334361  90.0833539  92.0711880  43.9257462  82.1726887
  91.1409468  43.8641918  82.3896849  92.1669352  43.4033415  81.3763528
  91.9897429  40.4512275  84.7605128  92.2504247  41.3657608  84.6514289
  92.8114602  39.9836718  84.9101741  93.4622355  41.8650032  91.9303953
  94.1345408  41.6567394  91.2816602  92.6352141  41.6672118  91.4909185
 107.7111616  48.6054083  91.4479286 107.9047506  49.5099893  91.6938561
 107.6112234  48.1461502  92.2817871  99.3647927  38.4911973  93.9469614
  98.7175842  39.1901923  93.8534090 100.1348942  38.9248117  94.3145862
 102.7726725  48.7560825  97.0220167 102.6212231  48.5271377  96.1050251
 102.7631404  49.7131427  97.0351512  99.5412061  46.3292738  92.0066433
 100.4704121  46.4803898  91.8335401  99.1203091  46.4176759  91.1515080
  98.3400393  50.3543402  89.7764971  98.2011479  49.9862187  90.6490909
  97.5514989  50.8691042  89.6048929  98.9348545  55.4552499  81.1190508
  99.1100300  54.9840542  81.9336130  98.2481333  56.0818265  81.3471768
  99.8905608  49.7325005  87.1653809  99.5555441  49.6925775  88.0611459
  99.3909554  49.0669721  86.6924219  93.8649852  45.1392635  92.6906390
  93.7269650  44.4072874  93.2917929  94.7754775  45.0501535  92.4090578
 102.8264800  47.0781039  77.4390868 102.2093970  46.3527868  77.3423921
 102.3581288  47.8390400  77.0957943  96.4932153  44.8512595  92.1790070
  97.2031771  44.2105787  92.1376688  96.4501461  45.1025489  93.1016250
 104.4818931  51.7879948  95.0996649 104.4231477  51.1039168  94.4327232
 104.8838450  52.5298938  94.6477275  95.2061087  41.8377812  93.9985709
  94.6698444  41.3868551  94.6507305  94.6177795  41.9723721  93.2556173
  93.5009630  58.6041862  87.8930368  93.7406228  59.2360386  88.5709386
  92.6578827  58.2529902  88.1795727  94.6163346  41.2966464  76.5612173
  93.7392812  41.1755265  76.1974419  95.0921099  40.5052542  76.3091061
 104.4836339  49.7519532  93.3310628 103.5963117  49.4145454  93.4537027
 105.0534890  49.0202563  93.5679394  86.1365486  46.0843624  86.6553680
  86.8236526  45.7705354  86.0674695  85.9813614  46.9884988  86.3820931
  90.9400208  40.9733820  91.0838704  90.8558397  40.3659490  90.3489114
  90.1182914  41.4642838  91.0848200  98.0137492  54.4120984  90.2971872
  97.9407663  55.2175956  90.8091176  97.5714885  54.6112950  89.4719893
  97.8027272  53.6492754  83.8074693  97.0194793  54.1914434  83.9012918
  98.5020017  54.1666734  84.2068934 101.1123922  39.4587384  86.4508899
 101.6092621  38.7057346  86.1309969 100.3410903  39.4951700  85.8852108
 108.9653679  45.1627749  88.0927190 108.9543555  46.0452465  87.7221123
 108.0971059  44.8099300  87.8981727 100.4736175  54.3107818  92.4530030
 101.1864148  54.9455283  92.3805932  99.9826204  54.4071684  91.6370032
 102.1953702  48.2159071  84.0247322 101.2609981  48.3360533  83.8552026
 102.3730371  47.3131538  83.7607332  97.6958890  41.6004767  86.1780583
  97.3256678  41.0475807  86.8661489  98.1917983  40.9962900  85.6255583
 105.5826254  44.0576390  84.5597356 106.0486706  44.8904382  84.4857659
 106.0333754  43.5921372  85.2642615  95.5248089  52.0602262  93.2735601
  96.2257549  52.6938745  93.4264995  95.0543204  52.4016993  92.5131240
 103.6502485  50.4020211  81.5583508 103.9262329  50.2876806  82.4677382
 102.7806984  50.0037696  81.5195681 103.5542916  36.4256977  88.5988258
 102.6405996  36.6561204  88.7670464 103.9836018  36.5095421  89.4502290
 103.3249375  44.6146869  91.0988152 102.6720825  44.8622777  90.4440604
 103.7029755  43.8011007  90.7650629 100.2856549  54.6506562  85.2016322
 100.4678943  53.8328218  85.6644074 101.1089535  54.8674255  84.7641212
 100.6198714  53.5774747  82.4631370 101.1486481  53.0667202  81.8501532
 100.8826934  53.2617278  83.3276903  99.3736948  45.3566680  97.5854189
  98.6977585  45.2560809  98.2556564 100.1964582  45.2005894  98.0490186
  91.1215807  51.5938617  90.2066704  91.7069244  50.8482305  90.3394608
  90.9240646  51.9042573  91.0903368  93.9754462  54.6289864  85.2229146
  93.3064838  55.1135992  84.7393186  93.8367332  54.8759085  86.1372525
  85.7133462  44.1644217  88.9271147  85.7517561  43.6307808  89.7208265
  85.2073755  43.6379422  88.3082124  98.1159731  56.6633608  91.8211805
  98.6678039  56.8265229  92.5860890  98.4565924  57.2538045  91.1491829
  93.0924224  39.0108757  92.4233689  93.1565551  39.8723588  92.0111087
  93.0291344  38.3982759  91.6906048  92.5676497  41.0831890  96.0706724
  93.1948535  40.7008967  96.6844248  91.7104415  40.8646092  96.4362416
 102.9670605  51.4894865  97.6760459 103.5110509  52.1024823  97.1815414
 102.3857450  52.0474444  98.1927472  89.3442039  42.8908319  82.0025078
  89.6395480  41.9818997  81.9492132  88.4430075  42.8696058  81.6806081
 101.2528118  54.6115583  88.8075487 101.1279258  53.8105323  88.2986432
 101.9107209  55.1061776  88.3189457  92.8736286  40.9664316  87.9852627
  92.1522872  41.5800283  87.8460100  93.6629542  41.5022080  87.9069273
 103.3163027  52.4124603  90.4355037 102.3693362  52.2929954  90.3633364
 103.6645800  51.5247101  90.5181298  95.6762600  38.3018742  94.2593279
  96.1997002  38.5481039  95.0219588  95.4574933  39.1338777  93.8396416
  91.0729881  40.5722417  82.1264404  90.7442587  39.6919796  81.9439509
  91.4269252  40.5170085  83.0140793 100.3209460  52.2077319  86.6359389
 100.1734422  51.2794027  86.8166959 101.1462953  52.2297410  86.1516464
  94.1871704  40.8595386  82.4939881  94.5267777  41.3881308  81.7718490
  94.6343825  41.1975793  83.2698448 103.9243582  53.0305878  87.7224262
 104.8490129  52.8248739  87.5848713 103.7558885  52.7822279  88.6313603
  96.8815145  39.2432437  91.9442949  96.5411965  38.4440250  92.3463629
  96.1754151  39.5434148  91.3719782  97.5331617  36.3281750  90.3970272
  98.3557686  35.8542228  90.2749163  97.7769680  37.1072233  90.8968959
  96.1739851  39.3570008  80.6933174  96.8948214  39.7351261  80.1896891
  95.5505155  40.0758885  80.7968152 100.3170974  40.0615157  81.6291506
 100.5334589  40.9439795  81.3280334  99.8365041  39.6701370  80.8997148
  95.0570196  43.0200870  88.2062251  94.9114776  43.3341173  89.0986532
  94.5795399  43.6385771  87.6533150  96.9166578  40.0103418  88.2543140
  96.9028147  39.1144512  87.9175438  97.6339007  40.0174082  88.8881427
  98.7692709  40.4440758  90.2996268  98.5110487  41.3657829  90.2980598
  98.2377750  40.0471193  90.9896732 103.7138898  53.5491546  83.0786353
 103.8875775  52.9837968  82.3260206 104.2067789  54.3492440  82.8965843
  89.5315858  45.5606215  91.1449912  88.9869326  46.3366023  91.2770186
  90.4095208  45.9077019  90.9869034  96.3203474  38.8917799  83.5230711
  96.4419386  37.9634445  83.7221598  96.0305517  38.9056485  82.6109026
  99.1894665  36.5772709  86.6597430  99.2116362  36.6412042  85.7049410
  99.6062724  35.7377218  86.8537937 109.5678289  46.3127969  84.6976653
 110.0109435  45.5635294  84.2995776 108.6904799  46.3038105  84.3150385
 104.7014070  52.8658310  80.1783252 105.3964975  53.4865003  80.3970566
 105.0437221  52.0153661  80.4535629  90.3181880  44.6876111  94.0380069
  89.5763616  44.8358746  94.6244699  89.9974624  44.9484377  93.1746818
 106.6005494  50.3158016  81.7070582 107.1256818  50.6545288  80.9819902
 106.5127846  49.3805031  81.5233717  98.2625542  54.2292089  93.8360459
  98.5712669  53.9841236  94.7083159  99.0601024  54.4338728  93.3479329
  98.2846154  56.3829999  86.0665836  97.8451145  55.8906378  86.7598692
  99.0354271  55.8402966  85.8257911  90.7638493  52.5741540  86.0690464
  91.5896513  52.2745312  85.6889107  90.4132545  51.8049162  86.5180252
  95.7320026  51.9268008  88.1388137  95.1100036  51.2638713  87.8390365
  96.4024893  51.9529140  87.4561785  88.9647098  50.4927866  87.0279397
  88.1279007  50.0650040  86.8463398  88.9370744  50.6860309  87.9650188
  95.8044554  40.4049796  97.7320643  95.8532709  41.2811919  97.3498413
  96.3467068  39.8627189  97.1592286 106.2899400  50.9490919  97.0121780
 105.4994943  50.9315058  96.4726280 106.0532754  51.4879213  97.7670817
 106.4097275  47.7983386  94.3254509 106.4595280  47.6333393  95.2670032
 106.3011198  46.9310645  93.9352390  95.2933533  50.4771931  81.6146598
  95.4421654  51.1607396  80.9613270  96.0999977  50.4577021  82.1296053
 103.7001037  43.7814314  95.6413816 104.6010900  43.6420778  95.3497813
 103.7749012  43.9468768  96.5811993  98.0343842  41.1581168  94.4867002
  97.1647152  41.4514734  94.2149590  98.2703323  41.7421613  95.2074265
 107.9115471  50.2180327  94.5696530 107.6200280  50.5810308  95.4059991
 107.2987603  49.5047335  94.3909862 109.1111154  47.7833207  87.0899101
 109.9458045  48.2223011  87.2536661 109.2470283  47.3071860  86.2707346
 106.1602660  45.3412942  93.0376588 106.6356781  45.5340588  92.2295440
 105.2368225  45.3972128  92.7919972  93.0486166  46.5037109  82.6207667
  92.8032208  45.5999439  82.8187877  93.2182081  46.5054259  81.6787145
 100.7382876  37.3760785  92.0032422 101.2564820  38.1121812  91.6778911
 100.3838009  37.6824779  92.8379181  92.3181814  42.2365466  80.1193828
  91.6251059  42.3109821  79.4633864  92.0733566  41.4725810  80.6415345
 100.9895470  33.7961068  87.5233319 101.2697224  33.1284257  88.1493745
 101.7746077  33.9890163  87.0107983  98.7928939  52.9720062  79.0858345
  98.2202906  53.5910249  78.6328817  99.3661733  53.5219423  79.6198267
 104.8604329  42.2178702  91.2704894 105.8121752  42.3176799  91.2917118
 104.6907779  41.4256970  91.7802978 102.8818708  39.3034285  91.4564295
 102.2868640  39.5839298  90.7610784 102.5968405  39.7928186  92.2281036
 102.0126199  53.2557212  80.2166927 102.9456872  53.1902773  80.4199803
 101.9249411  54.0913479  79.7581460 104.6414215  52.5723082  77.1770875
 104.5627847  52.2382946  78.0706633 105.4623882  53.0644850  77.1762347
 107.3392406  45.4384821  90.3847194 107.3068727  44.5000822  90.5706877
 107.9493030  45.5168858  89.6513018  99.1775737  44.3080874  76.4274398
 100.1234842  44.1787083  76.4962816  98.7989982  43.5695536  76.9043826
 107.4886895  42.2295865  90.4305477 106.9725944  41.4454322  90.2435406
 108.3726843  41.9014582  90.5951996 105.1497622  35.9736880  86.3901289
 104.9522443  35.6651969  87.2744621 105.7597327  36.6998519  86.5199219
 113.1568956  46.5000828  89.5253230 113.8872345  46.2386116  90.0860934
 112.5475902  45.7629550  89.5655298 111.2384253  44.6408691  90.1227682
 110.5117417  44.5064656  89.5144173 110.8231540  44.9485520  90.9284400
  99.0614430  48.3598621  97.8875055  99.9817439  48.5377220  98.0815101
  99.0264013  47.4154666  97.7354754  97.3618654  42.2330851  76.3629283
  96.4550110  41.9363964  76.4391996  97.6394635  41.9360669  75.4963569
  88.2796595  43.5537214  86.8128329  87.9599379  42.7002522  86.5202703
  87.7330023  43.7685792  87.5686297  92.0576502  46.2699655  90.5297836
  92.2762512  47.2016763  90.5485870  92.4702276  45.9107630  91.3152640
  98.9780720  36.7767741  82.5173524  98.1681449  36.4314826  82.8928770
  99.6665137  36.4675284  83.1061136 100.9071268  35.8545787  84.1397821
 101.4602307  36.2741241  84.7987844 101.1441355  34.9281535  84.1820777
  96.9304368  41.8432861  99.9200585  96.8301095  42.7927218  99.8512676
  96.7125910  41.5151100  99.0476655  96.1317439  39.0917786  76.5041262
  96.9936603  39.4172684  76.7637079  96.3167783  38.3049282  75.9914328
  88.1484855  47.1740126  88.7821451  87.4548326  46.7594079  88.2691405
  88.8957846  47.2160662  88.1854870 104.2850076  37.9646313  83.6476485
 103.7048745  38.6231117  83.2654537 104.0186008  37.1423657  83.2363903
 102.7353642  37.3651370  85.8497805 103.2353420  37.4767905  85.0412124
 103.3789250  37.0612423  86.4898614  96.7935638  45.2730000  98.7365646
  96.3102719  46.0730360  98.9429535  96.8796577  45.2837945  97.7833090
  90.0621597  47.1058380  86.6587466  90.0392286  47.2046067  85.7069349
  90.3722234  47.9523530  86.9804632  92.7208975  49.1634535  90.7734080
  93.6752229  49.1318477  90.7064012  92.5221499  48.7025158  91.5884306
  93.3108357  47.7335651  93.3404878  94.1301246  48.2279729  93.3639715
  93.5845165  46.8167619  93.3122445 103.0674954  40.1246403  82.7032833
 102.1800809  40.4096054  82.4853028 103.4828943  39.9640166  81.8560110
 106.4189490  40.1492924  86.4187173 107.1949880  40.6389376  86.6911789
 105.6937624  40.5750978  86.8759042 108.8562048  40.8620543  87.4761113
 109.4506539  40.6216279  86.7654421 108.9288632  40.1427674  88.1034649
  91.0759204  54.7054154  87.7904278  90.9413672  53.9454555  87.2242276
  90.6591266  55.4295054  87.3233067 102.2118167  49.8891078  76.7980853
 102.9154017  50.0941080  77.4138509 101.4880816  50.4567839  77.0629937
 103.0415977  45.6400939  82.9183123 102.9851179  46.0969490  82.0790756
 103.5944320  44.8791623  82.7405966 106.8520783  41.4290671  83.7433243
 106.5957717  41.0287306  84.5741451 106.2273651  42.1434465  83.6183382
 111.1633121  44.1686744  86.2504534 110.6032679  44.2379933  87.0236096
 110.5576624  43.9927729  85.5304031  94.2328330  55.6023471  88.0022721
  94.1160714  56.5468904  87.9001411  93.4120776  55.2997033  88.3908520
 104.1204864  50.3273607  78.8479313 104.9550468  49.8954805  78.6656788
 103.9589207  50.1555620  79.7756208 103.7750757  46.8305720  80.2135653
 103.7199560  46.6649991  79.2724097 103.1496812  47.5381753  80.3697842
  88.5643272  42.0673784  94.0397075  89.2102135  41.5572738  94.5284300
  88.3560423  42.8042466  94.6140500 101.0896664  49.1354632  99.5389215
 101.9587823  49.3095284  99.1775850 100.6103415  49.9549049  99.4164945
  97.0846882  36.3313829  79.7920971  97.0725552  37.2755669  79.9489242
  97.9770304  36.1483974  79.4980432  95.2582844  56.2551733  91.2178649
  96.1610091  56.2875343  91.5345144  95.0320214  55.3252184  91.2324985
  97.0136446  55.0082719  87.8788728  96.0632077  55.0084581  87.7653100
  97.3168932  54.2615454  87.3624762 100.8999002  32.9256606  84.0466908
 100.1331397  32.3715092  84.1923590 101.3109707  32.9978474  84.9081059
  92.9040763  39.2141402  98.1372089  93.7672224  38.8578206  98.3475414
  92.3306173  38.8755296  98.8247493 112.7489140  60.8443258  88.9434490
 113.3867550  60.7250005  88.2397830 112.6309982  61.7924102  89.0022442
 109.5578846  60.7970686  88.8796015 109.2197357  60.6811751  87.9916550
 110.4268614  60.3961851  88.8597021 105.4165662  62.6506162  84.8692906
 104.8530527  62.5596099  84.1009194 105.3018057  61.8306067  85.3495398
 110.0398629  61.9505538  94.8382220 110.0287270  61.5558336  93.9662724
 110.2019268  61.2171610  95.4315992 102.9630093  64.1457354  87.7077126
 103.7551385  63.8048179  87.2923426 103.2026744  64.2552329  88.6279280
 110.9965220  66.3177130  80.1807371 110.3453200  66.9031211  79.7941384
 111.7909583  66.8483325  80.2402408 104.9220847  63.4066267  80.5794505
 105.6951723  62.8595254  80.4407381 105.2746246  64.2710517  80.7908966
 106.7605890  64.7342650  93.7861404 106.4695756  65.6388280  93.6708071
 107.3962874  64.7759177  94.5005474 107.6862097  62.1119498  90.3762764
 108.2825669  61.8875520  89.6619727 107.7437068  61.3704244  90.9788212
 107.2587125  59.5658933  78.2112955 107.5112646  59.0440455  77.4496418
 106.3211684  59.4025079  78.3139639 112.3030408  58.5694712  86.0187698
 113.0893497  58.1514135  85.6678115 112.5669112  59.4740804  86.1869347
 112.4740485  64.0067562  80.7176355 111.8386318  64.0802189  81.4297260
 112.1437892  64.5961161  80.0395434 117.7038835  58.5069945  86.9220677
 118.4364007  57.9369162  87.1558506 116.9478191  58.1191545  87.3627182
 106.9783414  61.4687039  80.4137330 106.8619672  60.7931943  81.0818414
 107.0885674  60.9819413  79.5969483 109.3214955  60.9297186  84.1184019
 108.9573162  60.4027807  84.8296941 110.1782071  60.5395655  83.9450505
 115.2264256  52.2191519  91.3815285 114.8947580  53.0886930  91.1576500
 114.6309869  51.9027803  92.0609316 108.9620442  55.9587086  79.1145368
 109.1294844  56.8267323  79.4815839 108.7717611  56.1214368  78.1906657
 111.7195775  64.4204065  90.7811198 111.4196498  65.3229104  90.6727005
 111.3746835  64.1536248  91.6332351 105.1708257  60.8717862  86.8147902
 104.2458753  60.7394076  87.0225594 105.4192670  61.6512081  87.3117845
 115.1192919  56.9386605  88.4608635 114.2109796  56.8702014  88.1667396
 115.0680515  57.4158550  89.2890461 108.9409663  58.4144744  80.0992034
 108.8209288  58.8601794  80.9377515 108.2462251  58.7630061  79.5405573
 102.5317068  60.5151135  87.6491692 102.6609449  60.7685614  88.5631103
 101.8514519  61.1078843  87.3296347 106.7016555  71.1848385  83.7482166
 106.6240585  72.1356210  83.8270646 106.0978198  70.8394258  84.4057092
 109.1933785  58.3576251  96.4043533 108.4167119  58.9170171  96.3946397
 109.8324348  58.8433034  96.9258403 116.9854565  55.1403044  90.2386509
 116.3428946  55.4335577  89.5926304 116.4809494  55.0255964  91.0439706
 114.6394729  58.8866217  80.9272369 115.5512585  59.1193604  80.7520066
 114.1304376  59.4703261  80.3647447 107.4480157  61.1661704  95.9661500
 108.1894841  61.7046748  95.6896323 106.7417142  61.7927993  96.1233051
 112.9235497  63.3090845  94.5633661 113.3318853  62.8673255  93.8188293
 112.2012758  62.7343472  94.8167854 109.2766567  58.2463451  91.9367218
 110.1227762  58.6702865  92.0801867 109.2165204  57.5897076  92.6305781
 113.2464311  63.8692035  88.3185950 112.6173174  64.0337749  87.6162018
 112.8589973  64.2833645  89.0896914 117.1253543  64.8046473  85.6730314
 116.4404581  65.1845374  85.1227347 117.2097392  65.4141800  86.4062261
 112.4266012  55.9067820  93.5948392 112.1826944  56.6609880  93.0582667
 112.7025942  56.2853167  94.4295639 114.3804475  62.4506432  92.2725657
 114.5921370  63.0938192  91.5960038 114.3334223  61.6168749  91.8047587
 111.9830704  55.0624253  89.1762229 111.1215183  55.3605506  89.4678967
 112.0093138  55.2794652  88.2443262 108.7992273  63.6066443  85.5836035
 109.2630619  63.8854146  84.7940658 108.5349071  62.7049888  85.4009126
 105.6916354  63.1537925  88.5215798 106.2617711  63.5825193  87.8833283
 106.2824466  62.8720510  89.2199984 107.7361159  59.7289596  82.3925600
 108.4385203  60.1810639  82.8599527 107.4041788  59.0873415  83.0205493
 106.1841521  58.3201352  96.7676810 105.5540181  59.0017633  97.0012206
 106.0777609  58.2084434  95.8229948 101.4786493  57.9873148  87.6942734
 100.6885547  58.2430677  87.2182844 101.9697740  58.8021486  87.7994774
 115.4950303  65.3278388  90.4448015 116.3167746  64.9258575  90.1630696
 115.4912706  65.2246622  91.3964130 103.4301239  58.3517728  84.6526210
 102.6332402  58.4636422  85.1709706 103.2026831  58.6904380  83.7867101
 109.2606906  64.8762431  92.6008725 109.3251339  65.3382838  93.4366897
 108.5517830  64.2459796  92.7291035  99.7624196  58.2403639  90.1257725
 100.0132235  59.1250649  90.3915301 100.2983745  58.0608240  89.3532816
 108.9754924  66.5430538  82.4687705 108.8400599  67.3882074  82.8972553
 109.5164736  66.7449816  81.7053639 105.4622263  52.6222118  99.1302061
 105.0689209  52.0688317  99.8049705 106.2788404  52.9332697  99.5208578
 102.4284321  64.0605976  83.0415631 102.9408842  64.8549227  83.1921195
 103.0807034  63.3632267  82.9749232 104.2379206  67.1771733  85.1238384
 104.4145834  68.0989697  84.9359368 105.0336039  66.8630152  85.5532763
 108.3790224  54.0379997  96.7222317 109.1199938  54.6387150  96.6426780
 108.6108147  53.2957635  96.1640360 103.5231562  59.2236365  95.0000547
 103.4085078  58.3221622  95.3007646 102.6676080  59.4700061  94.6485363
 110.6023400  67.1654105  96.5988048 110.1587254  66.3790483  96.2808952
 111.2640614  67.3533255  95.9331938 105.3610521  68.6949906  91.1248726
 105.9117946  68.5666970  90.3525720 104.5221997  68.9944795  90.7743619
 112.7004638  67.4456905  94.6269449 112.6823114  68.2665786  94.1349718
 113.6224558  67.3210980  94.8519590 109.1577692  64.9601034  95.4692957
 109.6906029  64.1989322  95.2392265 108.6291773  64.6674686  96.2117112
 112.3247387  50.0661100  90.9986599 111.9811657  50.9562742  90.9225709
 112.6926350  49.8762758  90.1356184 100.3933238  62.3894631  83.8175201
 101.2308460  62.7991639  83.6008909 100.5711506  61.4494073  83.7875395
 112.2897670  60.0569711  79.5059034 111.7744294  60.8274316  79.7447421
 112.0174979  59.3834847  80.1292095 109.8744781  54.9019412  84.5644272
 109.0186377  54.5126262  84.3849911 110.2871733  54.9811373  83.7044058
 111.4043928  52.4365755  88.9635832 110.9008723  52.3995891  88.1503637
 111.6974535  53.3458498  89.0232489 107.6486814  52.5204485  87.9702014
 108.5139810  52.3247294  87.6107903 107.7164323  52.2914837  88.8971371
 117.2631944  62.8102066  81.4412207 116.4861387  62.4713225  80.9967370
 117.9423425  62.8154689  80.7667173 112.0783973  57.9296803  81.3318815
 111.7734109  58.2442953  82.1828958 113.0314415  58.0078223  81.3746148
 110.5230405  64.0887027  82.9811769 109.9951767  63.3539786  82.6685007
 110.0217908  64.8661703  82.7351738 115.5023251  62.2836047  88.0978815
 114.8446926  62.9735309  88.1858944 116.3063650  62.6732479  88.4412802
 105.2549133  54.7506693  85.3418381 105.8292885  54.5281875  84.6091574
 105.8420115  54.8195388  86.0946982 114.3128710  60.6380420  86.1482757
 114.8260592  61.2710412  86.6504467 114.9629934  60.0381615  85.7826117
 105.5818720  56.7811154  79.3614266 104.7456032  57.1185841  79.6823541
 105.4423489  56.6460134  78.4241403 107.5571800  51.6247942  84.0693450
 106.9036213  51.3096959  83.4450065 107.5152275  51.0023682  84.7953273
 108.6683005  61.9067237  75.9846742 107.7610067  61.6756490  76.1837891
 109.1654037  61.1104856  76.1720724 111.5751084  70.6164744  78.9043428
 110.9012783  70.9196441  79.5128386 111.9616906  71.4193825  78.5548885
 110.7909541  58.1129875  88.3941098 109.8732102  58.3344822  88.2362786
 111.2069684  58.1876186  87.5352805 111.5744589  59.5121291  83.5243778
 112.3216407  60.0242688  83.2150900 111.8436178  59.1905344  84.3848172
 109.8471239  62.0079832  80.5070732 108.9382458  61.7238865  80.6043202
 109.8766323  62.4278910  79.6474039 115.0790506  65.6186421  84.2761900
 114.6252833  64.7777331  84.3327090 114.4484473  66.2547820  84.6136680
 114.0223426  56.5478407  85.5062567 113.2846182  56.0355794  85.8372810
 114.2750199  56.1078789  84.6945844 113.5223445  67.4562918  85.2111718
 113.8146420  68.0167975  84.4924084 114.0322066  67.7491479  85.9664877
 114.1235053  49.3254659  86.1004337 114.4293930  48.4652023  85.8130252
 114.8487658  49.9172280  85.9003330 100.4159409  59.7285346  84.4885935
 100.2183809  59.1354707  83.7637001  99.8606073  59.4237556  85.2061873
 108.3956133  59.6208452  86.6080528 108.4504743  58.6682289  86.5323004
 107.5847335  59.7767892  87.0921826 109.5447327  63.5488576  77.8458811
 109.1066756  62.8324434  77.3864448 110.2857767  63.7764690  77.2843902
 106.3348493  58.2385512  84.3670907 105.5216358  58.5379683  84.7736099
 106.8307487  57.8441201  85.0845389 108.4857071  68.2343269  86.3005171
 108.4433249  68.4604115  85.3713703 109.4019769  68.0006644  86.4490972
 111.9322704  58.7027337  93.1985800 112.2872092  58.9298810  94.0580266
 112.5794836  59.0345713  92.5763056 117.6620441  61.8245773  83.9035129
 117.5238340  62.0147369  82.9756319 117.3056660  62.5865155  84.3603181
 105.8262567  55.8103868  89.9832141 106.4661947  55.6692627  89.2855105
 104.9940098  55.5238381  89.6070743 117.6889821  63.8922300  88.9146401
 118.1226328  63.7997589  89.7629455 118.4021402  63.8679800  88.2766417
 106.6022871  65.1106298  86.0967134 107.3963470  64.6156618  85.8949709
 105.8914564  64.5824161  85.7334839 111.4217716  67.4924394  90.4479502
 111.4754738  68.0615330  91.2157217 110.5532497  67.6626279  90.0833539
 102.9105635  59.2549380  82.1726887 101.9803223  59.1933835  82.3896849
 103.0063107  58.7325333  81.3763528 102.8291184  55.7804193  84.7605128
 103.0898001  56.6949526  84.6514289 103.6508356  55.3128635  84.9101741
 104.3016109  57.1941950  91.9303953 104.9739163  56.9859312  91.2816602
 103.4745896  56.9964036  91.4909185 118.5505370  63.9346000  91.4479286
 118.7441261  64.8391811  91.6938561 118.4505989  63.4753419  92.2817871
 110.2041681  53.8203891  93.9469614 109.5569596  54.5193840  93.8534090
 110.9742697  54.2540035  94.3145862 113.6120479  64.0852743  97.0220167
 113.4605986  63.8563295  96.1050251 113.6025159  65.0423344  97.0351512
 110.3805816  61.6584656  92.0066433 111.3097876  61.8095815  91.8335401
 109.9596846  61.7468677  91.1515080 109.1794147  65.6835320  89.7764971
 109.0405233  65.3154105  90.6490909 108.3908744  66.1982960  89.6048929
 109.7742299  70.7844417  81.1190508 109.9494055  70.3132460  81.9336130
 109.0875087  71.4110183  81.3471768 110.7299362  65.0616923  87.1653809
 110.3949195  65.0217693  88.0611459 110.2303308  64.3961639  86.6924219
 104.7043606  60.4684553  92.6906390 104.5663404  59.7364792  93.2917929
 105.6148530  60.3793453  92.4090578 113.6658554  62.4072957  77.4390868
 113.0487725  61.6819785  77.3423921 113.1975043  63.1682317  77.0957943
 107.3325907  60.1804512  92.1790070 108.0425526  59.5397704  92.1376688
 107.2895215  60.4317407  93.1016250 115.3212686  67.1171866  95.0996649
 115.2625232  66.4331086  94.4327232 115.7232204  67.8590856  94.6477275
 106.0454841  57.1669730  93.9985709 105.5092198  56.7160469  94.6507305
 105.4571550  57.3015639  93.2556173 104.3403385  73.9333779  87.8930368
 104.5799983  74.5652304  88.5709386 103.4972581  73.5821819  88.1795727
 105.4557100  56.6258381  76.5612173 104.5786566  56.5047182  76.1974419
 105.9314853  55.8344460  76.3091061 115.3230093  65.0811449  93.3310628
 114.4356872  64.7437371  93.4537027 115.8928644  64.3494481  93.5679394
  96.9759240  61.4135541  86.6553680  97.6630280  61.0997271  86.0674695
  96.8207369  62.3176906  86.3820931 101.7793962  56.3025738  91.0838704
 101.6952151  55.6951407  90.3489114 100.9576669  56.7934756  91.0848200
 108.8531246  69.7412902  90.2971872 108.7801418  70.5467873  90.8091176
 108.4108640  69.9404868  89.4719893 108.6421026  68.9784672  83.8074693
 107.8588548  69.5206352  83.9012918 109.3413771  69.4958651  84.2068934
 111.9517676  54.7879301  86.4508899 112.4486376  54.0349264  86.1309969
 111.1804658  54.8243618  85.8852108 119.8047434  60.4919667  88.0927190
 119.7937310  61.3744382  87.7221123 118.9364813  60.1391218  87.8981727
 111.3129930  69.6399736  92.4530030 112.0257902  70.2747201  92.3805932
 110.8219959  69.7363602  91.6370032 113.0347457  63.5450989  84.0247322
 112.1003736  63.6652451  83.8552026 113.2124125  62.6423455  83.7607332
 108.5352645  56.9296684  86.1780583 108.1650432  56.3767725  86.8661489
 109.0311737  56.3254818  85.6255583 116.4220008  59.3868308  84.5597356
 116.8880460  60.2196299  84.4857659 116.8727509  58.9213289  85.2642615
 106.3641844  67.3894179  93.2735601 107.0651303  68.0230662  93.4264995
 105.8936958  67.7308911  92.5131240 114.4896239  65.7312129  81.5583508
 114.7656083  65.6168724  82.4677382 113.6200738  65.3329614  81.5195681
 114.3936671  51.7548895  88.5988258 113.4799751  51.9853122  88.7670464
 114.8229772  51.8387339  89.4502290 114.1643129  59.9438787  91.0988152
 113.5114580  60.1914694  90.4440604 114.5423509  59.1302925  90.7650629
 111.1250303  69.9798480  85.2016322 111.3072698  69.1620136  85.6644074
 111.9483289  70.1966172  84.7641212 111.4592469  68.9066665  82.4631370
 111.9880235  68.3959120  81.8501532 111.7220688  68.5909195  83.3276903
 110.2130702  60.6858598  97.5854189 109.5371340  60.5852727  98.2556564
 111.0358336  60.5297812  98.0490186 101.9609562  66.9230534  90.2066704
 102.5462998  66.1774222  90.3394608 101.7634400  67.2334491  91.0903368
 104.8148217  69.9581782  85.2229146 104.1458592  70.4427909  84.7393186
 104.6761086  70.2051002  86.1372525  96.5527216  59.4936135  88.9271147
  96.5911316  58.9599725  89.7208265  96.0467509  58.9671340  88.3082124
 108.9553485  71.9925525  91.8211805 109.5071793  72.1557147  92.5860890
 109.2959679  72.5829963  91.1491829 103.9317979  54.3400675  92.4233689
 103.9959305  55.2015506  92.0111087 103.8685099  53.7274677  91.6906048
 103.4070251  56.4123808  96.0706724 104.0342290  56.0300885  96.6844248
 102.5498170  56.1938010  96.4362416 113.8064360  66.8186783  97.6760459
 114.3504264  67.4316741  97.1815414 113.2251205  67.3766361  98.1927472
 100.1835794  58.2200237  82.0025078 100.4789235  57.3110915  81.9492132
  99.2823830  58.1987976  81.6806081 112.0921873  69.9407501  88.8075487
 111.9673012  69.1397241  88.2986432 112.7500964  70.4353694  88.3189457
 103.7130041  56.2956233  87.9852627 102.9916627  56.9092201  87.8460100
 104.5023297  56.8313998  87.9069273 114.1556781  67.7416521  90.4355037
 113.2087117  67.6221872  90.3633364 114.5039554  66.8539019  90.5181298
 106.5156354  53.6310660  94.2593279 107.0390756  53.8772956  95.0219588
 106.2968688  54.4630695  93.8396416 101.9123635  55.9014334  82.1264404
 101.5836342  55.0211713  81.9439509 102.2663006  55.8462003  83.0140793
 111.1603214  67.5369237  86.6359389 111.0128177  66.6085945  86.8166959
 111.9856708  67.5589328  86.1516464 105.0265459  56.1887304  82.4939881
 105.3661531  56.7173225  81.7718490 105.4737579  56.5267710  83.2698448
 114.7637336  68.3597796  87.7224262 115.6883884  68.1540657  87.5848713
 114.5952640  68.1114197  88.6313603 107.7208899  54.5724355  91.9442949
 107.3805720  53.7732168  92.3463629 107.0147906  54.8726066  91.3719782
 108.3725371  51.6573667  90.3970272 109.1951441  51.1834146  90.2749163
 108.6163435  52.4364151  90.8968959 107.0133606  54.6861926  80.6933174
 107.7341968  55.0643179  80.1896891 106.3898910  55.4050803  80.7968152
 111.1564729  55.3907075  81.6291506 111.3728343  56.2731713  81.3280334
 110.6758796  54.9993288  80.8997148 105.8963950  58.3492788  88.2062251
 105.7508531  58.6633091  89.0986532 105.4189154  58.9677688  87.6533150
 107.7560333  55.3395336  88.2543140 107.7421902  54.4436429  87.9175438
 108.4732761  55.3466000  88.8881427 109.6086464  55.7732676  90.2996268
 109.3504241  56.6949747  90.2980598 109.0771504  55.3763111  90.9896732
 114.5532652  68.8783463  83.0786353 114.7269530  68.3129886  82.3260206
 115.0461544  69.6784358  82.8965843 100.3709612  60.8898132  91.1449912
  99.8263080  61.6657940  91.2770186 101.2488962  61.2368937  90.9869034
 107.1597229  54.2209716  83.5230711 107.2813140  53.2926362  83.7221598
 106.8699271  54.2348402  82.6109026 110.0288419  51.9064627  86.6597430
 110.0510116  51.9703960  85.7049410 110.4456478  51.0669135  86.8537937
 120.4072044  61.6419886  84.6976653 120.8503190  60.8927211  84.2995776
 119.5298554  61.6330023  84.3150385 115.5407825  68.1950228  80.1783252
 116.2358729  68.8156920  80.3970566 115.8830975  67.3445579  80.4535629
 101.1575634  60.0168029  94.0380069 100.4157370  60.1650664  94.6244699
 100.8368378  60.2776294  93.1746818 117.4399248  65.6449933  81.7070582
 117.9650572  65.9837206  80.9819902 117.3521601  64.7096949  81.5233717
 109.1019297  69.5584007  93.8360459 109.4106423  69.3133154  94.7083159
 109.8994779  69.7630645  93.3479329 109.1239909  71.7121916  86.0665836
 108.6844899  71.2198295  86.7598692 109.8748026  71.1694884  85.8257911
 101.6032248  67.9033457  86.0690464 102.4290268  67.6037229  85.6889107
 101.2526300  67.1341080  86.5180252 106.5713781  67.2559926  88.1388137
 105.9493790  66.5930631  87.8390365 107.2418648  67.2821057  87.4561785
  99.8040853  65.8219784  87.0279397  98.9672761  65.3941958  86.8463398
  99.7764498  66.0152227  87.9650188 106.6438308  55.7341714  97.7320643
 106.6926464  56.6103836  97.3498413 107.1860823  55.1919107  97.1592286
 117.1293154  66.2782837  97.0121780 116.3388698  66.2606976  96.4726280
 116.8926509  66.8171131  97.7670817 117.2491029  63.1275303  94.3254509
 117.2989034  62.9625311  95.2670032 117.1404952  62.2602562  93.9352390
 106.1327288  65.8063849  81.6146598 106.2815408  66.4899313  80.9613270
 106.9393731  65.7868939  82.1296053 114.5394792  59.1106231  95.6413816
 115.4404654  58.9712696  95.3497813 114.6142766  59.2760686  96.5811993
 108.8737597  56.4873086  94.4867002 108.0040906  56.7806652  94.2149590
 109.1097077  57.0713531  95.2074265 118.7509226  65.5472245  94.5696530
 118.4594034  65.9102225  95.4059991 118.1381357  64.8339253  94.3909862
 119.9504908  63.1125125  87.0899101 120.7851800  63.5514929  87.2536661
 120.0864037  62.6363778  86.2707346 116.9996414  60.6704859  93.0376588
 117.4750536  60.8632506  92.2295440 116.0761980  60.7264045  92.7919972
 103.8879921  61.8329027  82.6207667 103.6425963  60.9291357  82.8187877
 104.0575835  61.8346177  81.6787145 111.5776631  52.7052703  92.0032422
 112.0958575  53.4413730  91.6778911 111.2231763  53.0116696  92.8379181
 103.1575568  57.5657384  80.1193828 102.4644813  57.6401739  79.4633864
 102.9127320  56.8017728  80.6415345 111.8289225  49.1252985  87.5233319
 112.1090979  48.4576175  88.1493745 112.6139832  49.3182081  87.0107983
 109.6322693  68.3011979  79.0858345 109.0596660  68.9202166  78.6328817
 110.2055487  68.8511341  79.6198267 115.6998083  57.5470619  91.2704894
 116.6515506  57.6468717  91.2917118 115.5301534  56.7548888  91.7802978
 113.7212463  54.6326203  91.4564295 113.1262395  54.9131215  90.7610784
 113.4362159  55.1220104  92.2281036 112.8519953  68.5849129  80.2166927
 113.7850626  68.5194691  80.4199803 112.7643166  69.4205396  79.7581460
 115.4807970  67.9015000  77.1770875 115.4021601  67.5674863  78.0706633
 116.3017637  68.3936768  77.1762347 118.1786161  60.7676739  90.3847194
 118.1462481  59.8292740  90.5706877 118.7886785  60.8460776  89.6513018
 110.0169492  59.6372792  76.4274398 110.9628597  59.5079000  76.4962816
 109.6383737  58.8987454  76.9043826 118.3280649  57.5587783  90.4305477
 117.8119698  56.7746239  90.2435406 119.2120598  57.2306499  90.5951996
 115.9891376  51.3028798  86.3901289 115.7916198  50.9943886  87.2744621
 116.5991082  52.0290437  86.5199219 109.9008184  63.6890538  97.8875055
 110.8211194  63.8669137  98.0815101 109.8657767  62.7446584  97.7354754
 108.2012409  57.5622769  76.3629283 107.2943864  57.2655881  76.4391996
 108.4788390  57.2652587  75.4963569  99.1190349  58.8829132  86.8128329
  98.7993134  58.0294440  86.5202703  98.5723778  59.0977710  87.5686297
 102.8970257  61.5991573  90.5297836 103.1156267  62.5308681  90.5485870
 103.3096031  61.2399547  91.3152640 109.8174475  52.1059658  82.5173524
 109.0075203  51.7606743  82.8928770 110.5058892  51.7967202  83.1061136
 111.7465023  51.1837705  84.1397821 112.2996062  51.6033158  84.7987844
 111.9835109  50.2573453  84.1820777 107.7698122  57.1724779  99.9200585
 107.6694849  58.1219136  99.8512676 107.5519664  56.8443018  99.0476655
 106.9711194  54.4209704  76.5041262 107.8330358  54.7464602  76.7637079
 107.1561538  53.6341200  75.9914328  98.9878609  62.5032043  88.7821451
  98.2942081  62.0885996  88.2691405  99.7351600  62.5452580  88.1854870
 115.1243830  53.2938230  83.6476485 114.5442499  53.9523034  83.2654537
 114.8579763  52.4715575  83.2363903 113.5747396  52.6943288  85.8497805
 114.0747175  52.8059822  85.0412124 114.2183004  52.3904341  86.4898614
 107.6329392  60.6021918  98.7365646 107.1496474  61.4022278  98.9429535
 107.7190331  60.6129862  97.7833090 100.9015352  62.4350297  86.6587466
 100.8786040  62.5337984  85.7069349 101.2115988  63.2815448  86.9804632
 103.5602730  64.4926452  90.7734080 104.5145983  64.4610395  90.7064012
 103.3615253  64.0317076  91.5884306 104.1502112  63.0627568  93.3404878
 104.9695001  63.5571647  93.3639715 104.4238920  62.1459536  93.3122445
 113.9068708  55.4538321  82.7032833 113.0194563  55.7387971  82.4853028
 114.3222697  55.2932084  81.8560110 117.2583244  55.4784842  86.4187173
 118.0343634  55.9681294  86.6911789 116.5331378  55.9042896  86.8759042
 119.6955803  56.1912461  87.4761113 120.2900294  55.9508197  86.7654421
 119.7682387  55.4719591  88.1034649 101.9152959  70.0346072  87.7904278
 101.7807426  69.2746473  87.2242276 101.4985021  70.7586972  87.3233067
 113.0511922  65.2182995  76.7980853 113.7547772  65.4232998  77.4138509
 112.3274570  65.7859757  77.0629937 113.8809732  60.9692856  82.9183123
 113.8244933  61.4261408  82.0790756 114.4338074  60.2083541  82.7405966
 117.6914538  56.7582588  83.7433243 117.4351472  56.3579224  84.5741451
 117.0667406  57.4726382  83.6183382 105.0722084  70.9315389  88.0022721
 104.9554469  71.8760821  87.9001411 104.2514531  70.6288950  88.3908520
 114.9598619  65.6565524  78.8479313 115.7944223  65.2246723  78.6656788
 114.7982962  65.4847538  79.7756208 114.6144511  62.1597638  80.2135653
 114.5593315  61.9941909  79.2724097 113.9890566  62.8673671  80.3697842
  99.4037026  57.3965702  94.0397075 100.0495890  56.8864656  94.5284300
  99.1954177  58.1334384  94.6140500 111.9290418  64.4646550  99.5389215
 112.7981578  64.6387202  99.1775850 111.4497170  65.2840966  99.4164945
 107.9240637  51.6605747  79.7920971 107.9119306  52.6047587  79.9489242
 108.8164058  51.4775892  79.4980432 106.0976599  71.5843651  91.2178649
 107.0003845  71.6167261  91.5345144 105.8713969  70.6544102  91.2324985
 107.8530201  70.3374637  87.8788728 106.9025832  70.3376499  87.7653100
 108.1562687  69.5907372  87.3624762 111.7392756  48.2548523  84.0466908
 110.9725152  47.7007010  84.1923590 112.1503461  48.3270392  84.9081059
 103.7434517  54.5433319  98.1372089 104.6065979  54.1870124  98.3475414
 103.1699928  54.2047214  98.8247493 120.3972600  76.1262604  88.8796015
 120.0591112  76.0103668  87.9916550 121.2662369  75.7253769  88.8597021
 116.2559416  77.9798080  84.8692906 115.6924281  77.8888017  84.1009194
 116.1411811  77.1597985  85.3495398 120.8792383  77.2797455  94.8382220
 120.8681024  76.8850254  93.9662724 121.0413023  76.5463528  95.4315992
 113.8023848  79.4749272  87.7077126 114.5945140  79.1340096  87.2923426
 114.0420498  79.5844247  88.6279280 115.7614602  78.7358185  80.5794505
 116.5345478  78.1887172  80.4407381 116.1140001  79.6002434  80.7908966
 117.5999644  80.0634567  93.7861404 117.3089510  80.9680198  93.6708071
 118.2356629  80.1051095  94.5005474 118.5255851  77.4411416  90.3762764
 119.1219424  77.2167438  89.6619727 118.5830823  76.6996161  90.9788212
 118.0980880  74.8950851  78.2112955 118.3506400  74.3732372  77.4496418
 117.1605439  74.7316996  78.3139639 117.8177168  76.7978957  80.4137330
 117.7013427  76.1223860  81.0818414 117.9279428  76.3111331  79.5969483
 120.1608709  76.2589104  84.1184019 119.7966917  75.7319725  84.8296941
 121.0175825  75.8687573  83.9450505 119.8014196  71.2879004  79.1145368
 119.9688599  72.1559240  79.4815839 119.6111365  71.4506285  78.1906657
 116.0102011  76.2009780  86.8147902 115.0852508  76.0685994  87.0225594
 116.2586424  76.9803999  87.3117845 119.7803417  73.7436661  80.0992034
 119.6603042  74.1893712  80.9377515 119.0856006  74.0921979  79.5405573
 113.3710822  75.8443053  87.6491692 113.5003203  76.0977532  88.5631103
 112.6908273  76.4370761  87.3296347 117.5410309  86.5140303  83.7482166
 117.4634339  87.4648128  83.8270646 116.9371953  86.1686176  84.4057092
 120.0327539  73.6868168  96.4043533 119.2560873  74.2462089  96.3946397
 120.6718102  74.1724951  96.9258403 118.2873911  76.4953622  95.9661500
 119.0288596  77.0338666  95.6896323 117.5810897  77.1219911  96.1233051
 120.1160321  73.5755369  91.9367218 120.9621516  73.9994783  92.0801867
 120.0558959  72.9188993  92.6305781 119.6386028  78.9358361  85.5836035
 120.1024373  79.2146064  84.7940658 119.3742826  78.0341806  85.4009126
 116.5310109  78.4829843  88.5215798 117.1011466  78.9117111  87.8833283
 117.1218221  78.2012427  89.2199984 118.5754914  75.0581513  82.3925600
 119.2778957  75.5102557  82.8599527 118.2435542  74.4165332  83.0205493
 117.0235275  73.6493270  96.7676810 116.3933936  74.3309551  97.0012206
 116.9171363  73.5376352  95.8229948 112.3180248  73.3165066  87.6942734
 111.5279302  73.5722595  87.2182844 112.8091495  74.1313404  87.7994774
 114.2694993  73.6809645  84.6526210 113.4726156  73.7928340  85.1709706
 114.0420585  74.0196298  83.7867101 120.1000661  80.2054349  92.6008725
 120.1645093  80.6674756  93.4366897 119.3911584  79.5751713  92.7291035
 110.6017951  73.5695556  90.1257725 110.8525989  74.4542566  90.3915301
 111.1377499  73.3900158  89.3532816 119.8148678  81.8722456  82.4687705
 119.6794353  82.7173992  82.8972553 120.3558491  82.0741734  81.7053639
 116.3016018  67.9514036  99.1302061 115.9082963  67.3980234  99.8049705
 117.1182158  68.2624614  99.5208578 113.2678076  79.3897894  83.0415631
 113.7802596  80.1841144  83.1921195 113.9200788  78.6924184  82.9749232
 115.0772960  82.5063650  85.1238384 115.2539589  83.4281615  84.9359368
 115.8729794  82.1922070  85.5532763 119.2183979  69.3671915  96.7222317
 119.9593692  69.9679068  96.6426780 119.4501902  68.6249553  96.1640360
 114.3625317  74.5528282  95.0000547 114.2478832  73.6513539  95.3007646
 113.5069835  74.7991979  94.6485363 116.2004276  84.0241824  91.1248726
 116.7511701  83.8958887  90.3525720 115.3615752  84.3236713  90.7743619
 119.9971447  80.2892952  95.4692957 120.5299784  79.5281240  95.2392265
 119.4685528  79.9966604  96.2117112 111.2326992  77.7186548  83.8175201
 112.0702214  78.1283557  83.6008909 111.4105260  76.7785990  83.7875395
 120.7138536  70.2311330  84.5644272 119.8580132  69.8418180  84.3849911
 121.1265487  70.3103291  83.7044058 118.4880568  67.8496403  87.9702014
 119.3533565  67.6539211  87.6107903 118.5558077  67.6206755  88.8971371
 121.3624160  79.4178944  82.9811769 120.8345521  78.6831704  82.6685007
 120.8611662  80.1953621  82.7351738 116.0942887  70.0798611  85.3418381
 116.6686639  69.8573792  84.6091574 116.6813870  70.1487305  86.0946982
 116.4212474  72.1103072  79.3614266 115.5849787  72.4477758  79.6823541
 116.2817244  71.9752052  78.4241403 118.3965555  66.9539860  84.0693450
 117.7429967  66.6388877  83.4450065 118.3546029  66.3315600  84.7953273
 119.5076760  77.2359155  75.9846742 118.6003821  77.0048408  76.1837891
 120.0047792  76.4396774  76.1720724 120.6864993  77.3371750  80.5070732
 119.7776212  77.0530782  80.6043202 120.7160077  77.7570828  79.6474039
 111.2553164  75.0577264  84.4885935 111.0577563  74.4646624  83.7637001
 110.6999828  74.7529474  85.2061873 119.2349887  74.9500370  86.6080528
 119.2898497  73.9974207  86.5323004 118.4241089  75.1059809  87.0921826
 120.3841081  78.8780493  77.8458811 119.9460511  78.1616352  77.3864448
 121.1251522  79.1056608  77.2843902 117.1742247  73.5677430  84.3670907
 116.3610113  73.8671600  84.7736099 117.6701241  73.1733119  85.0845389
 119.3250825  83.5635187  86.3005171 119.2827004  83.7896033  85.3713703
 120.2413524  83.3298561  86.4490972 116.6656322  71.1395785  89.9832141
 117.3055701  70.9984544  89.2855105 115.8333852  70.8530299  89.6070743
 117.4416626  80.4398216  86.0967134 118.2357224  79.9448536  85.8949709
 116.7308318  79.9116079  85.7334839 113.7499389  74.5841298  82.1726887
 112.8196977  74.5225753  82.3896849 113.8456861  74.0617250  81.3763528
 113.6684938  71.1096110  84.7605128 113.9291756  72.0241444  84.6514289
 114.4902111  70.6420553  84.9101741 115.1409864  72.5233868  91.9303953
 115.8132917  72.3151230  91.2816602 114.3139650  72.3255954  91.4909185
 120.0187902  81.0127238  89.7764971 119.8798988  80.6446022  90.6490909
 119.2302498  81.5274877  89.6048929 120.6136054  86.1136334  81.1190508
 120.7887809  85.6424377  81.9336130 119.9268842  86.7402100  81.3471768
 121.5693117  80.3908840  87.1653809 121.2342950  80.3509610  88.0611459
 121.0697063  79.7253556  86.6924219 115.5437361  75.7976471  92.6906390
 115.4057159  75.0656709  93.2917929 116.4542284  75.7085371  92.4090578
 118.1719662  75.5096430  92.1790070 118.8819280  74.8689622  92.1376688
 118.1288970  75.7609325  93.1016250 116.8848596  72.4961648  93.9985709
 116.3485953  72.0452386  94.6507305 116.2965304  72.6307557  93.2556173
 115.1797139  89.2625697  87.8930368 115.4193737  89.8944221  88.5709386
 114.3366336  88.9113737  88.1795727 116.2950855  71.9550299  76.5612173
 115.4180321  71.8339100  76.1974419 116.7708608  71.1636377  76.3091061
 107.8152995  76.7427459  86.6553680 108.5024034  76.4289189  86.0674695
 107.6601123  77.6468824  86.3820931 112.6187717  71.6317655  91.0838704
 112.5345906  71.0243325  90.3489114 111.7970423  72.1226674  91.0848200
 119.6925001  85.0704819  90.2971872 119.6195172  85.8759791  90.8091176
 119.2502394  85.2696785  89.4719893 119.4814781  84.3076590  83.8074693
 118.6982302  84.8498270  83.9012918 120.1807526  84.8250569  84.2068934
 119.3746399  72.2588602  86.1780583 119.0044187  71.7059642  86.8661489
 119.8705492  71.6546735  85.6255583 117.2035598  82.7186097  93.2735601
 117.9045057  83.3522580  93.4264995 116.7330713  83.0600829  92.5131240
 112.8003316  82.2522452  90.2066704 113.3856753  81.5066140  90.3394608
 112.6028155  82.5626409  91.0903368 115.6541971  85.2873699  85.2229146
 114.9852347  85.7719827  84.7393186 115.5154841  85.5342920  86.1372525
 107.3920971  74.8228052  88.9271147 107.4305070  74.2891643  89.7208265
 106.8861264  74.2963258  88.3082124 119.7947240  87.3217443  91.8211805
 120.3465548  87.4849064  92.5860890 120.1353433  87.9121881  91.1491829
 114.7711733  69.6692593  92.4233689 114.8353060  70.5307424  92.0111087
 114.7078853  69.0566594  91.6906048 114.2464006  71.7415725  96.0706724
 114.8736044  71.3592803  96.6844248 113.3891924  71.5229927  96.4362416
 111.0229548  73.5492154  82.0025078 111.3182989  72.6402833  81.9492132
 110.1217584  73.5279894  81.6806081 114.5523795  71.6248151  87.9852627
 113.8310381  72.2384119  87.8460100 115.3417051  72.1605916  87.9069273
 117.3550109  68.9602577  94.2593279 117.8784511  69.2064874  95.0219588
 117.1362442  69.7922612  93.8396416 112.7517390  71.2306252  82.1264404
 112.4230096  70.3503631  81.9439509 113.1056761  71.1753921  83.0140793
 115.8659213  71.5179222  82.4939881 116.2055286  72.0465143  81.7718490
 116.3131334  71.8559628  83.2698448 118.5602654  69.9016273  91.9442949
 118.2199474  69.1024086  92.3463629 117.8541660  70.2017983  91.3719782
 119.2119126  66.9865585  90.3970272 120.0345195  66.5126063  90.2749163
 119.4557189  67.7656069  90.8968959 117.8527360  70.0153843  80.6933174
 118.5735723  70.3935096  80.1896891 117.2292664  70.7342720  80.7968152
 116.7357705  73.6784706  88.2062251 116.5902285  73.9925009  89.0986532
 116.2582908  74.2969606  87.6533150 118.5954087  70.6687254  88.2543140
 118.5815656  69.7728347  87.9175438 119.3126516  70.6757917  88.8881427
 120.4480218  71.1024594  90.2996268 120.1897996  72.0241664  90.2980598
 119.9165258  70.7055028  90.9896732 111.2103367  76.2190050  91.1449912
 110.6656835  76.9949858  91.2770186 112.0882717  76.5660855  90.9869034
 117.9990983  69.5501634  83.5230711 118.1206895  68.6218280  83.7221598
 117.7093026  69.5640320  82.6109026 120.8682174  67.2356544  86.6597430
 120.8903871  67.2995877  85.7049410 121.2850233  66.3961053  86.8537937
 111.9969389  75.3459946  94.0380069 111.2551125  75.4942582  94.6244699
 111.6762133  75.6068212  93.1746818 119.9413051  84.8875925  93.8360459
 120.2500178  84.6425071  94.7083159 120.7388533  85.0922563  93.3479329
 119.9633663  87.0413834  86.0665836 119.5238654  86.5490213  86.7598692
 120.7141780  86.4986802  85.8257911 112.4426002  83.2325375  86.0690464
 113.2684022  82.9329147  85.6889107 112.0920054  82.4632997  86.5180252
 117.4107535  82.5851843  88.1388137 116.7887545  81.9222548  87.8390365
 118.0812402  82.6112975  87.4561785 110.6434607  81.1511701  87.0279397
 109.8066516  80.7233876  86.8463398 110.6158253  81.3444145  87.9650188
 117.4832063  71.0633631  97.7320643 117.5320218  71.9395754  97.3498413
 118.0254577  70.5211024  97.1592286 116.9721042  81.1355767  81.6146598
 117.1209163  81.8191231  80.9613270 117.7787486  81.1160857  82.1296053
 119.7131351  71.8165004  94.4867002 118.8434661  72.1098570  94.2149590
 119.9490832  72.4005449  95.2074265 114.7273675  77.1620944  82.6207667
 114.4819717  76.2583274  82.8187877 114.8969590  77.1638095  81.6787145
 113.9969323  72.8949302  80.1193828 113.3038568  72.9693657  79.4633864
 113.7521075  72.1309645  80.6415345 120.4716448  83.6303897  79.0858345
 119.8990415  84.2494084  78.6328817 121.0449241  84.1803259  79.6198267
 119.0406163  72.8914686  76.3629283 118.1337619  72.5947799  76.4391996
 119.3182144  72.5944504  75.4963569 109.9584104  74.2121050  86.8128329
 109.6386888  73.3586358  86.5202703 109.4117532  74.4269628  87.5686297
 113.7364011  76.9283491  90.5297836 113.9550021  77.8600598  90.5485870
 114.1489785  76.5691465  91.3152640 120.6568229  67.4351576  82.5173524
 119.8468958  67.0898661  82.8928770 121.3452646  67.1259120  83.1061136
 118.6091877  72.5016696  99.9200585 118.5088604  73.4511053  99.8512676
 118.3913419  72.1734935  99.0476655 117.8104948  69.7501621  76.5041262
 118.6724112  70.0756520  76.7637079 117.9955292  68.9633117  75.9914328
 109.8272364  77.8323961  88.7821451 109.1335835  77.4177914  88.2691405
 110.5745355  77.8744498  88.1854870 118.4723147  75.9313835  98.7365646
 117.9890228  76.7314195  98.9429535 118.5584086  75.9421780  97.7833090
 111.7409106  77.7642215  86.6587466 111.7179794  77.8629902  85.7069349
 112.0509743  78.6107366  86.9804632 114.3996484  79.8218370  90.7734080
 115.3539738  79.7902312  90.7064012 114.2009008  79.3608994  91.5884306
 114.9895866  78.3919486  93.3404878 115.8088755  78.8863565  93.3639715
 115.2632674  77.4751454  93.3122445 112.7546713  85.3637989  87.7904278
 112.6201181  84.6038390  87.2242276 112.3378775  86.0878889  87.3233067
 115.9115839  86.2607306  88.0022721 115.7948223  87.2052739  87.9001411
 115.0908285  85.9580868  88.3908520 110.2430781  72.7257620  94.0397075
 110.8889644  72.2156574  94.5284300 110.0347932  73.4626301  94.6140500
 118.7634391  66.9897664  79.7920971 118.7513061  67.9339504  79.9489242
 119.6557813  66.8067810  79.4980432 116.9370353  86.9135568  91.2178649
 117.8397600  86.9459179  91.5345144 116.7107723  85.9836019  91.2324985
 118.6923955  85.6666555  87.8788728 117.7419586  85.6668416  87.7653100
 118.9956441  84.9199289  87.3624762 114.5828272  69.8725237  98.1372089
 115.4459733  69.5162042  98.3475414 114.0093682  69.5339132  98.8247493
 118.6546749  92.0719377  86.6553680 119.3417789  91.7581107  86.0674695
 118.4994878  92.9760741  86.3820931 118.2314725  90.1519970  88.9271147
 118.2698825  89.6183561  89.7208265 117.7255018  89.6255175  88.3082124
 121.4828362  96.4803619  87.0279397 120.6460270  96.0525794  86.8463398
 121.4552007  96.6736062  87.9650188 120.7977858  89.5412967  86.8128329
 120.4780643  88.6878275  86.5202703 120.2511287  89.7561545  87.5686297
 120.6666118  93.1615879  88.7821451 119.9729590  92.7469832  88.2691405
 121.4139109  93.2036415  88.1854870  74.1835293   2.2034755  70.4727472
  74.1059322   3.1542580  70.5515953  73.5796936   1.8580627  71.1302399
  71.8222122   4.9520149  74.6175674  72.0618721   5.5838673  75.2954693
  70.9791319   4.6008189  74.9041034  72.2966955   0.9768151  71.9474453
  71.6277330   1.4614279  71.4638493  72.1579824   1.2237372  72.8617831
  76.4372223   3.0111895  78.5457111  76.9890531   3.1743516  79.3106196
  76.7778417   3.6016333  77.8737136  69.3971696   1.0532441  74.5149585
  69.2626164   0.2932842  73.9487583  68.9803759   1.7773341  74.0478374
  72.5540822   1.9501758  74.7268027  72.4373206   2.8947191  74.6246718
  71.7333268   1.6475320  75.1153827  73.5795336   2.6030020  77.9423956
  74.4822583   2.6353630  78.2590451  73.3532706   1.6730471  77.9570292
  87.8791338   7.1448973  75.6041321  87.5409850   7.0290038  74.7161856
  88.7481106   6.7440138  75.5842328  83.7378154   8.9984450  71.5938212
  83.1743019   8.9074387  70.8254500  83.6230549   8.1784354  72.0740705
  88.3611121   8.2983825  81.5627527  88.3499762   7.9036623  80.6908031
  88.5231761   7.5649898  82.1561298  81.2842586  10.4935641  74.4322433
  82.0763878  10.1526466  74.0168732  81.5239236  10.6030616  75.3524586
  89.3177713  12.6655417  66.9052677  88.6665692  13.2509498  66.5186691
  90.1122075  13.1961612  66.9647715  83.2433340   9.7544554  67.3039812
  84.0164216   9.2073542  67.1652687  83.5958739  10.6188804  67.5154273
  85.0818382  11.0820937  80.5106711  84.7908248  11.9866568  80.3953377
  85.7175367  11.1237464  81.2250781  86.0074589   8.4597785  77.1008071
  86.6038161   8.2353808  76.3865034  86.0649561   7.7182531  77.7033518
  90.7952978  10.3545849  67.4421662  90.1598811  10.4280476  68.1542566
  90.4650384  10.9439448  66.7640741  85.2995906   7.8165327  67.1382637
  85.1832164   7.1410230  67.8063721  85.4098166   7.3297700  66.3214790
  87.6427447   7.2775474  70.8429326  87.2785654   6.7506095  71.5542247
  88.4994563   6.8873943  70.6695811  90.0408267  10.7682352  77.5056505
  89.7408990  11.6707391  77.3972312  89.6959327  10.5014535  78.3577658
  83.4920749   7.2196149  73.5393209  82.5671245   7.0872363  73.7470901
  83.7405162   7.9990368  74.0363151  80.8529560   6.8629423  74.3736998
  80.9821941   7.1163902  75.2876410  80.1727011   7.4557131  74.0541653
  85.0229047  17.5326673  70.4727472  84.9453077  18.4834498  70.5515953
  84.4190691  17.1872545  71.1302399  85.7692649   7.5139991  82.6906806
  86.5107334   8.0525035  82.4141630  85.0629635   8.1406280  82.8478358
  91.2447989   9.6569132  81.2878968  91.6531345   9.2151542  80.5433600
  90.5225250   9.0821759  81.5413161  91.5676804  10.2170322  75.0431257
  90.9385666  10.3816037  74.3407324  91.1802466  10.6311932  75.8142221
  95.4466035  11.1524760  72.3975620  94.7617074  11.5323662  71.8472654
  95.5309885  11.7620087  73.1307568  92.7016967   8.7984719  78.9970964
  92.9133862   9.4416479  78.3205345  92.6546715   7.9647036  78.5292894
  87.1204765   9.9544731  72.3081342  87.5843111  10.2332434  71.5185964
  86.8561563   9.0528175  72.1254432  84.0128846   9.5016212  75.2461105
  84.5830204   9.9303480  74.6078589  84.6036958   9.2198797  75.9445291
  79.7998985   4.3351436  74.4188040  79.0098039   4.5908964  73.9428151
  80.2910233   5.1499773  74.5240081  93.8162795  11.6756675  77.1693321
  94.6380239  11.2736862  76.8876003  93.8125198  11.5724909  78.1209437
  81.7513731   4.6996015  71.3771517  80.9544894   4.8114709  71.8955013
  81.5239323   5.0382667  70.5112408  87.5819398  11.2240718  79.3254032
  87.6463831  11.6861125  80.1612204  86.8730322  10.5938083  79.4536342
  78.0836688   4.5881926  76.8503031  78.3344727   5.4728936  77.1160607
  78.6196237   4.4086528  76.0778123  87.2967416  12.8908826  69.1933012
  87.1613091  13.7360361  69.6217860  87.8377229  13.0928103  68.4298946
  80.7496813  10.4084264  69.7660937  81.2621334  11.2027514  69.9166502
  81.4019526   9.7110554  69.6994539  82.5591698  13.5250020  71.8483690
  82.7358326  14.4467985  71.6604674  83.3548532  13.2108439  72.2778070
  81.8444055   5.5714652  81.7245854  81.7297570   4.6699909  82.0252952
  80.9888572   5.8178349  81.3730670  88.9235892  13.5132392  83.3233354
  88.4799747  12.7268771  83.0054259  89.5853106  13.7011543  82.6577245
  83.6823014  15.0428194  77.8494033  84.2330439  14.9145257  77.0771027
  82.8434490  15.3423083  77.4988925  91.0217131  13.7935192  81.3514755
  91.0035606  14.6144073  80.8595025  91.9437051  13.6689267  81.5764897
  87.4790185  11.3079321  82.1938264  88.0118521  10.5467610  81.9637572
  86.9504266  11.0152973  82.9362418  78.7145730   8.7372918  70.5420508
  79.5520952   9.1469926  70.3254215  78.8923998   7.7972360  70.5120702
  88.8442897  10.4365314  69.7057076  88.3164259   9.7018074  69.3930313
  88.3430400  11.2139990  69.4597044  93.8235743   8.6314334  74.8224122
  93.1659418   9.3213596  74.9104251  94.6276143   9.0210766  75.1658108
  86.9895498   8.2545524  62.7092049  86.0822559   8.0234778  62.9083198
  87.4866530   7.4583143  62.8966030  89.8963576  16.9643031  65.6288735
  89.2225275  17.2674728  66.2373693  90.2829398  17.7672112  65.2794192
  88.1683731   8.3558119  67.2316039  87.2594950   8.0717152  67.3288509
  88.1978815   8.7757198  66.3719346  93.4002998  11.9664709  71.0007207
  92.9465326  11.1255618  71.0572397  92.7696965  12.6026107  71.3381987
  91.8435938  13.8041205  71.9357025  92.1358912  14.3646262  71.2169390
  92.3534558  14.0969766  72.6910184  78.7371901   6.0763633  71.2131241
  78.5396301   5.4832994  70.4882308  78.1818565   5.7715843  71.9307180
  87.8659819   9.8966863  64.5704118  87.4279249   9.1802722  64.1109755
  88.6070260  10.1242978  64.0089209  86.8069563  14.5821556  73.0250478
  86.7645742  14.8082403  72.0959010  87.7232262  14.3484931  73.1736279
  96.0102313  10.2400587  75.6391708  96.4438820  10.1475876  76.4874762
  96.7233894  10.2158087  75.0011724  84.9235364  11.4584585  72.8212441
  85.7175962  10.9634906  72.6195016  84.2127056  10.9302449  72.4580146
  89.7430208  13.8402681  77.1724808  89.7967230  14.4093617  77.9402524
  88.8744989  14.0104566  76.8078845  81.2318127   5.6027667  68.8972193
  80.3015715   5.5412123  69.1142155  81.3275599   5.0803620  68.1008835
  96.8717863  10.2824287  78.1724593  97.0653753  11.1870098  78.4183868
  96.7718481   9.8231707  79.0063178  91.9332971  10.4331030  83.7465474
  91.7818478  10.2041582  82.8295557  91.9237651  11.3901632  83.7596819
  88.7018308   8.0062943  78.7311740  89.6310368   8.1574103  78.5580707
  88.2809338   8.0946964  77.8760387  87.5006640  12.0313607  76.5010278
  87.3617725  11.6632392  77.3736216  86.7121236  12.5461247  76.3294235
  88.0954792  17.1322704  67.8435814  88.2706547  16.6610747  68.6581437
  87.4087580  17.7588470  68.0717075  89.0511855  11.4095210  73.8899115
  88.7161687  11.3695980  74.7856765  88.5515800  10.7439926  73.4169526
  83.0256099   6.8162840  79.4151697  82.8875897   6.0843079  80.0163236
  83.9361022   6.7271740  79.1335884  91.9871046   8.7551244  64.1636175
  91.3700217   8.0298073  64.0669228  91.5187535   9.5160605  63.8203249
  85.6538399   6.5282799  78.9035376  86.3638018   5.8875992  78.8621995
  85.6107708   6.7795694  79.8261557  93.6425178  13.4650153  81.8241955
  93.5837724  12.7809373  81.1572538  94.0444696  14.2069143  81.3722581
  82.6615877  20.2812067  74.6175674  82.9012475  20.9130591  75.2954693
  81.8185073  19.9300107  74.9041034  93.6442585  11.4289737  80.0555935
  92.7569364  11.0915658  80.1782334  94.2141136  10.6972768  80.2924701
  75.2971732   7.7613828  73.3798987  75.9842772   7.4475558  72.7920002
  75.1419861   8.6655193  73.1066238  87.1743739  16.0891189  77.0217178
  87.1013910  16.8946161  77.5336483  86.7321132  16.2883155  76.1965200
  86.9633518  15.3262959  70.5320000  86.1801040  15.8684639  70.6258224
  87.6626264  15.8436939  70.9314241  89.6342422  15.9878023  79.1775337
  90.3470394  16.6225488  79.1051238  89.1432451  16.0841889  78.3615339
  91.3559949   9.8929276  70.7492629  90.4216228  10.0130738  70.5797333
  91.5336618   8.9901743  70.4852639  84.6854336  13.7372467  79.9980908
  85.3863795  14.3708950  80.1510302  84.2149451  14.0787198  79.2376547
  92.8108732  12.0790416  68.2828815  93.0868576  11.9647011  69.1922689
  91.9413230  11.6807901  68.2440988  89.4462796  16.3276767  71.9261628
  89.6285190  15.5098423  72.3889381  90.2695782  16.5444459  71.4886518
  89.7804961  15.2544952  69.1876677  90.3092728  14.7437407  68.5746839
  90.0433181  14.9387483  70.0522210  88.5343195   7.0336885  84.3099495
  87.8583832   6.9331014  84.9801870  89.3570829   6.8776099  84.7735492
  80.2822054  13.2708822  76.9312010  80.8675491  12.5252509  77.0639915
  80.0846892  13.5812778  77.8148674  83.1360709  16.3060069  71.9474453
  82.4671084  16.7906197  71.4638493  82.9973579  16.5529289  72.8617831
  74.8739709   5.8414422  75.6516454  74.9123808   5.3078012  76.4453572
  74.3680001   5.3149627  75.0327431  87.2765978  18.3403813  78.5457111
  87.8284286  18.5035434  79.3106196  87.6172171  18.9308250  77.8737136
  92.1276852  13.1665070  84.4005766  92.6716756  13.7795028  83.9060720
  91.5463697  13.7244648  84.9172779  78.5048286   4.5678524  68.7270385
  78.8001727   3.6589202  68.6737439  77.6036322   4.5466263  68.4051387
  90.4134365  16.2885788  75.5320793  90.2885504  15.4875528  75.0231739
  91.0713456  16.7831981  75.0434763  92.4769273  14.0894808  77.1600343
  91.5299609  13.9700159  77.0878670  92.8252046  13.2017306  77.2426605
  89.4815707  13.8847524  73.3604696  89.3340669  12.9564232  73.5412266
  90.3069200  13.9067615  72.8761771  93.0849828  14.7076083  74.4469568
  94.0096376  14.5018944  74.3094020  92.9165132  14.4592484  75.3558910
  92.8745145  15.2261751  69.8031660  93.0482022  14.6608173  69.0505512
  93.3674036  16.0262645  69.6211150  78.6922104   7.2376420  77.8695219
  78.1475573   8.0136228  78.0015493  79.5701454   7.5847224  77.7114340
  93.8620317  14.5428515  66.9028558  94.5571222  15.1635208  67.1215873
  94.2043467  13.6923866  67.1780936  79.4788126   6.3646316  80.7625376
  78.7369862   6.5128951  81.3490006  79.1580871   6.6254581  79.8992125
  95.7611740  11.9928220  68.4315889  96.2863064  12.3315493  67.7065209
  95.6734093  11.0575236  68.2479024  87.4231789  15.9062294  80.5605766
  87.7318915  15.6611441  81.4328465  88.2207271  16.1108933  80.0724636
  87.4452401  18.0600204  72.7911142  87.0057391  17.5676582  73.4843999
  88.1960518  17.5173171  72.5503217  79.9244740  14.2511745  72.7935770
  80.7502760  13.9515516  72.4134414  79.5738792  13.4819367  73.2425559
  84.8926273  13.6038213  74.8633444  84.2706282  12.9408918  74.5635672
  85.5631140  13.6299345  74.1807092  78.1253345  12.1698071  73.7524704
  77.2885253  11.7420245  73.5708705  78.0976990  12.3630514  74.6895495
  95.4505646  12.6261124  83.7367087  94.6601190  12.6085263  83.1971586
  95.2139001  13.1649418  84.4916124  84.4539780  12.1542136  68.3391904
  84.6027900  12.8377601  67.6858577  85.2606224  12.1347226  68.8541360
  97.0721718  11.8950532  81.2941837  96.7806527  12.2580513  82.1305298
  96.4593849  11.1817540  81.1155169  82.2092413   8.1807314  69.3452973
  81.9638455   7.2769644  69.5433183  82.3788328   8.1824464  68.4032451
  87.9535186  14.6490267  65.8103652  87.3809153  15.2680454  65.3574124
  88.5267979  15.1989628  66.3443574  91.1732445  14.9327417  66.9412234
  92.1063119  14.8672978  67.1445110  91.0855658  15.7683684  66.4826767
  93.8020462  14.2493287  63.9016182  93.7234094  13.9153151  64.7951940
  94.6230129  14.7415055  63.9007654  88.2220677  10.0368825  84.6120361
  89.1423686  10.2147424  84.8060408  88.1870260   9.0924871  84.4600061
  77.4402842   5.2307419  73.5373636  77.1205626   4.3772727  73.2448010
  76.8936270   5.4455997  74.2931603  81.2182749   7.9469860  77.2543142
  81.4368759   8.8786968  77.2731176  81.6308523   7.5877835  78.0397946
  77.3091102   8.8510331  75.5066758  76.6154573   8.4364283  74.9936712
  78.0564093   8.8930867  74.9100176  85.9541885   6.9500205  85.4610953
  85.4708966   7.7500565  85.6674842  86.0402824   6.9608150  84.5078397
  79.2227844   8.7828584  73.3832772  79.1998532   8.8816272  72.4314655
  79.5328481   9.6293735  73.7049939  81.8815222  10.8404739  77.4979387
  82.8358476  10.8088682  77.4309318  81.6827746  10.3795363  78.3129613
  82.4714604   9.4105855  80.0650184  83.2907493   9.9049934  80.0885022
  82.7451412   8.4937824  80.0367752  80.2365451  16.3824359  74.5149585
  80.1019919  15.6224760  73.9487583  79.8197513  17.1065259  74.0478374
  91.3724414  11.5661282  63.5226160  92.0760264  11.7711285  64.1383816
  90.6487063  12.1338044  63.7875243  83.3934577  17.2793676  74.7268027
  83.2766961  18.2239108  74.6246718  82.5727023  16.9767238  75.1153827
  93.2811111  12.0043812  65.5724620  94.1156715  11.5725010  65.3902095
  93.1195454  11.8325825  66.5001514  92.9357003   8.5075925  66.9380959
  92.8805807   8.3420196  65.9969403  92.3103059   9.2151958  67.0943149
  77.7249518   3.7443989  80.7642382  78.3708382   3.2342943  81.2529607
  77.5166670   4.4812671  81.3385807  90.2502911  10.8124837  86.2634522
  91.1194070  10.9865489  85.9021157  89.7709662  11.6319254  86.1410251
  84.4189091  17.9321938  77.9423956  85.3216338  17.9645548  78.2590451
  84.1926461  17.0022389  77.9570292  86.1742693  16.6852924  74.6034034
  85.2238324  16.6854786  74.4898407  86.4775179  15.9385659  74.0870069
 101.9095386  22.5213463  75.6679797 102.5473796  22.4020210  74.9643137
 101.7916229  23.4694307  75.7267749  98.7185093  22.4740891  75.6041321
  98.3803604  22.3581956  74.7161856  99.5874861  22.0732056  75.5842328
  94.5771908  24.3276367  71.5938212  94.0136773  24.2366304  70.8254500
  94.4624303  23.5076272  72.0740705  99.2004876  23.6275743  81.5627527
  99.1893516  23.2328541  80.6908031  99.3625515  22.8941815  82.1561298
  92.1236340  25.8227559  74.4322433  92.9157632  25.4818384  74.0168732
  92.3632990  25.9322534  75.3524586 100.1571467  27.9947335  66.9052677
  99.5059447  28.5801415  66.5186691 100.9515830  28.5253530  66.9647715
  94.0827094  25.0836472  67.3039812  94.8557970  24.5365459  67.1652687
  94.4352493  25.9480721  67.5154273  95.9212137  26.4112854  80.5106711
  95.6302003  27.3158485  80.3953377  96.5569121  26.4529382  81.2250781
  96.8468344  23.7889703  77.1008071  97.4431916  23.5645725  76.3865034
  96.9043315  23.0474448  77.7033518  96.4193372  21.2429138  64.9358262
  96.6718893  20.7210660  64.1741725  95.4817931  21.0795284  65.0384945
 101.4636655  20.2464917  72.7433005 102.2499744  19.8284340  72.3923422
 101.7275359  21.1511009  72.9114653 101.6346732  25.6837767  67.4421662
 100.9992565  25.7572393  68.1542566 101.3044139  26.2731366  66.7640741
 106.8645082  20.1840150  73.6465983 107.5970254  19.6139367  73.8803813
 106.1084438  19.7961750  74.0872489  96.1389661  23.1457244  67.1382637
  96.0225919  22.4702148  67.8063721  96.2491921  22.6589618  66.3214790
  98.4821202  22.6067391  70.8429326  98.1179409  22.0798012  71.5542247
  99.3388318  22.2165860  70.6695811 104.3870502  13.8961724  78.1060592
 104.0553827  14.7657135  77.8821807 103.7916116  13.5798008  78.7854622
  98.1226689  17.6357291  65.8390674  98.2901091  18.5037527  66.2061145
  97.9323858  17.7984573  64.9151964 100.8802022  26.0974270  77.5056505
 100.5802745  26.9999309  77.3972312 100.5353081  25.8306453  78.3577658
  94.3314503  22.5488067  73.5393209  93.4065000  22.4164281  73.7470901
  94.5798917  23.3282286  74.0363151 104.2799166  18.6156810  75.1853942
 103.3716043  18.5472219  74.8912703 104.2286761  19.0928755  76.0135767
  98.1015910  20.0914949  66.8237341  97.9815535  20.5371999  67.6622821
  97.4068498  20.4400266  66.2650879  91.6923314  22.1921340  74.3736998
  91.8215696  22.4455819  75.2876410  91.0120766  22.7849048  74.0541653
  95.8622802  32.8618590  70.4727472  95.7846831  33.8126415  70.5515953
  95.2584445  32.5164463  71.1302399  98.3540031  20.0346456  83.1288839
  97.5773365  20.5940376  83.1191704  98.9930594  20.5203239  83.6503709
 106.1460812  16.8173249  76.9631816 105.5035192  17.1105782  76.3171610
 105.6415741  16.7026169  77.7685013 103.8000976  20.5636422  67.6517675
 104.7118832  20.7963808  67.4765373 103.2910623  21.1473466  67.0892754
  96.6086404  22.8431909  82.6906806  97.3501088  23.3816953  82.4141630
  95.9023389  23.4698198  82.8478358 102.0841743  24.9861050  81.2878968
 102.4925099  24.5443460  80.5433600 101.3619005  24.4113677  81.5413161
  98.4372813  19.9233656  78.6612525  99.2834009  20.3473070  78.8047174
  98.3771451  19.2667281  79.3551088 102.4070558  25.5462240  75.0431257
 101.7779420  25.7107954  74.3407324 102.0196220  25.9603850  75.8142221
 106.2859790  26.4816678  72.3975620 105.6010828  26.8615579  71.8472654
 106.3703639  27.0912005  73.1307568 101.5872259  17.5838025  80.3193698
 101.3433191  18.3380085  79.7827974 101.8632189  17.9623372  81.1540945
 103.5410722  24.1276637  78.9970964 103.7527617  24.7708397  78.3205345
 103.4940470  23.2938954  78.5292894 101.1436950  16.7394458  75.9007536
 100.2821429  17.0375711  76.1924274 101.1699385  16.9564857  74.9688569
  97.9598520  25.2836648  72.3081342  98.4236865  25.5624351  71.5185964
  97.6955318  24.3820093  72.1254432  94.8522601  24.8308130  75.2461105
  95.4223958  25.2595398  74.6078589  95.4430713  24.5490714  75.9445291
  96.8967406  21.4059801  69.1170907  97.5991449  21.8580844  69.5844833
  96.5648034  20.7643619  69.7450800  95.3447767  19.9971557  83.4922116
  94.7146428  20.6787838  83.7257513  95.2383855  19.8854639  82.5475254
  90.6392740  19.6643353  74.4188040  89.8491794  19.9200882  73.9428151
  91.1303987  20.4791691  74.5240081 104.6556549  27.0048592  77.1693321
 105.4773993  26.6028780  76.8876003 104.6518952  26.9016827  78.1209437
  92.5907485  20.0287933  71.3771517  91.7938649  20.1406627  71.8955013
  92.3633077  20.3674585  70.5112408  98.4213153  26.5532636  79.3254032
  98.4857585  27.0153043  80.1612204  97.7124077  25.9230001  79.4536342
  88.9230443  19.9173844  76.8503031  89.1738481  20.8020854  77.1160607
  89.4589991  19.7378445  76.0778123 112.7462543  23.3487341  73.5178293
 111.9926251  22.7794739  73.3622297 112.8810084  23.3150005  74.4648927
  98.1361171  28.2200743  69.1933012  98.0006845  29.0652279  69.6217860
  98.6770983  28.4220021  68.4298946  94.6228510  14.2992323  85.8547367
  94.2295456  13.7458522  86.5295012  95.4394651  14.6102902  86.2453885
  91.5890568  25.7376181  69.7660937  92.1015089  26.5319432  69.9166502
  92.2413281  25.0402472  69.6994539  93.3985453  28.8541938  71.8483690
  93.5752081  29.7759902  71.6604674  94.1942286  28.5400357  72.2778070
  97.5396471  15.7150202  83.4467624  98.2806185  16.3157355  83.3672086
  97.7714394  14.9727840  82.8885666  92.6837809  20.9006569  81.7245854
  92.5691324  19.9991827  82.0252952  91.8282327  21.1470266  81.3730670
  99.7629647  28.8424310  83.3233354  99.3193501  28.0560688  83.0054259
 100.4246861  29.0303460  82.6577245  94.5216768  30.3720111  77.8494033
  95.0724193  30.2437175  77.0771027  93.6828244  30.6715000  77.4988925
 101.8610885  29.1227110  81.3514755 101.8429360  29.9435991  80.8595025
 102.7830805  28.9981185  81.5764897  98.3183939  26.6371239  82.1938264
  98.8512276  25.8759527  81.9637572  97.7898020  26.3444891  82.9362418
 101.4853634  11.7431305  77.7231906 101.1417904  12.6332947  77.6471016
 101.8532597  11.5532963  76.8601491  89.5539485  24.0664836  70.5420508
  90.3914707  24.4761844  70.3254215  89.7317752  23.1264278  70.5120702
 101.4503917  21.7339916  66.2304341 100.9350540  22.5044521  66.4692728
 101.1781225  21.0605052  66.8537402  99.0351028  16.5789617  71.2889579
  98.1792624  16.1896467  71.1095218  99.4477980  16.6581578  70.4289365
 100.5650175  14.1135960  75.6881139 100.0614970  14.0766095  74.8748944
 100.8580781  15.0228703  75.7477795  96.8093060  14.1974690  74.6947321
  97.6746057  14.0017499  74.3353210  96.8770569  13.9685042  75.6216677
 106.4238191  24.4872271  68.1657514 105.6467634  24.1483430  67.7212676
 107.1029672  24.4924894  67.4912479 101.2390220  19.6067008  68.0564122
 100.9340356  19.9213158  68.9074265 102.1920662  19.6848428  68.0991455
  99.6836652  25.7657232  69.7057076  99.1558013  25.0309991  69.3930313
  99.1824155  26.5431908  69.4597044 104.6629498  23.9606252  74.8224122
 104.0053172  24.6505514  74.9104251 105.4669897  24.3502684  75.1658108
  94.4155379  16.4276898  72.0663687  94.9899131  16.2052079  71.3336880
  95.0026362  16.4965592  72.8192289 103.4734957  22.3150625  72.8728064
 103.9866838  22.9480617  73.3749774 104.1236181  21.7151820  72.5071424
  94.7424967  18.4581359  66.0859573  93.9062279  18.7956045  66.4068847
  94.6029736  18.3230339  65.1486710  96.7178047  13.3018147  70.7938757
  96.0642460  12.9867164  70.1695372  96.6758521  12.6793887  71.5198580
  97.8289252  23.5837442  62.7092049  96.9216314  23.3526695  62.9083198
  98.3260284  22.7875061  62.8966030 100.7357331  32.2934949  65.6288735
 100.0619030  32.5966646  66.2373693 101.1223153  33.0964029  65.2794192
  99.9515788  19.7900080  75.1186404  99.0338349  20.0115027  74.9608092
 100.3675931  19.8646391  74.2598112 100.7350835  21.1891496  70.2489085
 101.4822654  21.7012893  69.9396207 101.0042425  20.8675549  71.1093478
  99.0077485  23.6850037  67.2316039  98.0988705  23.4009070  67.3288509
  99.0372569  24.1049115  66.3719346 104.2396753  27.2956626  71.0007207
 103.7859080  26.4547536  71.0572397 103.6090720  27.9318025  71.3381987
 103.1829672  18.2248612  72.2307874 102.4452429  17.7125999  72.5618117
 103.4356446  17.7848994  71.4191151 102.6829692  29.1333123  71.9357025
 102.9752667  29.6938180  71.2169390 103.1928313  29.4261684  72.6910184
  89.5765656  21.4055551  71.2131241  89.3790056  20.8124912  70.4882308
  89.0212320  21.1007761  71.9307180  97.5562380  21.2978657  73.3325834
  97.6110989  20.3452494  73.2568311  96.7453582  21.4538096  73.8167133
  98.7053573  25.2258780  64.5704118  98.2673003  24.5094639  64.1109755
  99.4464014  25.4534895  64.0089209  95.4954739  19.9155717  71.0916213
  94.6822605  20.2149888  71.4981405  95.9913734  19.5211406  71.8090695
  97.6463317  29.9113474  73.0250478  97.6039496  30.1374320  72.0959010
  98.5626016  29.6776849  73.1736279 101.0928951  20.3797542  79.9231107
 101.4478339  20.6069015  80.7825573 101.7401082  20.7115918  79.3008362
 106.8226688  23.5015977  70.6280436 106.6844587  23.6917573  69.7001625
 106.4662907  24.2635360  71.0848487  94.9868814  17.4874073  76.7077448
  95.6268194  17.3462832  76.0100411  94.1546345  17.2008586  76.3316050
 106.8496068  25.5692504  75.6391708 107.2832574  25.4767794  76.4874762
 107.5627648  25.5450005  75.0011724  95.7629118  26.7876503  72.8212441
  96.5569717  26.2926823  72.6195016  95.0520810  26.2594366  72.4580146
 100.5823963  29.1694599  77.1724808 100.6360985  29.7385535  77.9402524
  99.7138744  29.3396484  76.8078845  92.0711882  20.9319585  68.8972193
  91.1409470  20.8704040  69.1142155  92.1669354  20.4095538  68.1008835
  91.9897431  17.4574398  71.4850435  92.2504248  18.3719731  71.3759595
  92.8114603  16.9898840  71.6347048  93.4622356  18.8712155  78.6549259
  94.1345409  18.6629517  78.0061908  92.6352142  18.6734241  78.2154492
 107.7111617  25.6116205  78.1724593 107.9047507  26.5162016  78.4183868
 107.6112235  25.1523624  79.0063178  99.3647928  15.4974096  80.6714920
  98.7175843  16.1964045  80.5779397 100.1348943  15.9310240  81.0391169
 102.7726726  25.7622948  83.7465474 102.6212232  25.5333500  82.8295557
 102.7631405  26.7193549  83.7596819  99.5412062  23.3354861  78.7311740
 100.4704122  23.4866020  78.5580707  99.1203092  23.4238881  77.8760387
  98.3400394  27.3605525  76.5010278  98.2011480  26.9924309  77.3736216
  97.5514990  27.8753164  76.3294235  98.9348546  32.4614622  67.8435814
  99.1100302  31.9902665  68.6581437  98.2481334  33.0880388  68.0717075
  99.8905609  26.7387128  73.8899115  99.5555442  26.6987898  74.7856765
  99.3909555  26.0731844  73.4169526  93.8649853  22.1454758  79.4151697
  93.7269651  21.4134997  80.0163236  94.7754777  22.0563658  79.1335884
 102.8264801  24.0843162  64.1636175 102.2093972  23.3589990  64.0669228
 102.3581289  24.8452522  63.8203249  96.4932154  21.8574717  78.9035376
  97.2031772  21.2167909  78.8621995  96.4501462  22.1087612  79.8261557
 104.4818933  28.7942070  81.8241955 104.4231479  28.1101291  81.1572538
 104.8838451  29.5361060  81.3722581  95.2061088  18.8439935  80.7231016
  94.6698445  18.3930673  81.3752612  94.6177796  18.9785844  79.9801480
  93.5009631  35.6103984  74.6175674  93.7406230  36.2422508  75.2954693
  92.6578828  35.2592024  74.9041034  94.6163347  18.3028586  63.2857479
  93.7392813  18.1817387  62.9219726  95.0921100  17.5114665  63.0336368
 104.4836340  26.7581654  80.0555935 103.5963119  26.4207576  80.1782334
 105.0534891  26.0264686  80.2924701  86.1365487  23.0905746  73.3798987
  86.8236527  22.7767476  72.7920002  85.9813616  23.9947111  73.1066238
  90.9400209  17.9795943  77.8084010  90.8558398  17.3721612  77.0734420
  90.1182915  18.4704961  77.8093507  98.0137493  31.4183107  77.0217178
  97.9407665  32.2238078  77.5336483  97.5714886  31.6175073  76.1965200
  97.8027273  30.6554877  70.5320000  97.0194795  31.1976557  70.6258224
  98.5020018  31.1728856  70.9314241 101.1123923  16.4649506  73.1754205
 101.6092622  15.7119469  72.8555276 100.3410904  16.5013823  72.6097415
 108.9653680  22.1689872  74.8172497 108.9543557  23.0514587  74.4466430
 108.0971060  21.8161423  74.6227034 100.4736177  31.3169941  79.1775337
 101.1864149  31.9517406  79.1051238  99.9826205  31.4133807  78.3615339
 102.1953704  25.2221193  70.7492629 101.2609982  25.3422656  70.5797333
 102.3730372  24.3193660  70.4852639  97.6958892  18.6066889  72.9025890
  97.3256679  18.0537930  73.5906795  98.1917984  18.0025023  72.3500890
 105.5826255  21.0638513  71.2842663 106.0486707  21.8966504  71.2102965
 106.0333755  20.5983494  71.9887921  95.5248090  29.0664384  79.9980908
  96.2257550  29.7000867  80.1510302  95.0543205  29.4079116  79.2376547
 103.6502486  27.4082334  68.2828815 103.9262330  27.2938929  69.1922689
 102.7806985  27.0099819  68.2440988 103.5542918  13.4319100  75.3233564
 102.6405998  13.6623327  75.4915771 103.9836019  13.5157544  76.1747597
 103.3249376  21.6208992  77.8233458 102.6720826  21.8684899  77.1685911
 103.7029756  20.8073130  77.4895935 100.2856550  31.6568685  71.9261628
 100.4678945  30.8390341  72.3889381 101.1089536  31.8736377  71.4886518
 100.6198716  30.5836870  69.1876677 101.1486482  30.0729325  68.5746839
 100.8826935  30.2679400  70.0522210  99.3736949  22.3628803  84.3099495
  98.6977586  22.2622932  84.9801870 100.1964583  22.2068016  84.7735492
  91.1215808  28.6000739  76.9312010  91.7069245  27.8544427  77.0639915
  90.9240647  28.9104696  77.8148674  93.9754464  31.6351987  71.9474453
  93.3064839  32.1198114  71.4638493  93.8367333  31.8821207  72.8617831
  85.7133463  21.1706339  75.6516454  85.7517563  20.6369930  76.4453572
  85.2073756  20.6441545  75.0327431  98.1159732  33.6695730  78.5457111
  98.6678040  33.8327352  79.3106196  98.4565926  34.2600168  77.8737136
  93.0924225  16.0170880  79.1478996  93.1565552  16.8785711  78.7356394
  93.0291346  15.4044882  78.4151354  92.5676498  18.0894013  82.7952030
  93.1948537  17.7071090  83.4089555  91.7104417  17.8708214  83.1607723
 102.9670606  28.4956988  84.4005766 103.5110510  29.1086946  83.9060720
 102.3857451  29.0536566  84.9172779  89.3442041  19.8970442  68.7270385
  89.6395482  18.9881120  68.6737439  88.4430076  19.8758181  68.4051387
 101.2528119  31.6177706  75.5320793 101.1279259  30.8167446  75.0231739
 101.9107211  32.1123899  75.0434763  92.8736288  17.9726438  74.7097934
  92.1522873  18.5862406  74.5705407  93.6629543  18.5084203  74.6314580
 103.3163028  29.4186726  77.1600343 102.3693363  29.2992077  77.0878670
 103.6645801  28.5309224  77.2426605  95.6762601  15.3080865  80.9838585
  96.1997003  15.5543161  81.7464895  95.4574934  16.1400900  80.5641723
  91.0729882  17.5784539  68.8509710  90.7442588  16.6981918  68.6684816
  91.4269253  17.5232208  69.7386099 100.3209461  29.2139442  73.3604696
 100.1734424  28.2856149  73.5412266 101.1462955  29.2359533  72.8761771
  94.1871705  17.8657509  69.2185188  94.5267778  18.3943430  68.4963796
  94.6343826  18.2037915  69.9943754 103.9243583  30.0368001  74.4469568
 104.8490130  29.8310862  74.3094020 103.7558886  29.7884402  75.3558910
  96.8815146  16.2494560  78.6688256  96.5411967  15.4502373  79.0708936
  96.1754152  16.5496271  78.0965089  97.5331618  13.3343872  77.1215579
  98.3557687  12.8604350  76.9994469  97.7769682  14.1134356  77.6214265
  96.1739853  16.3632131  67.4178481  96.8948215  16.7413383  66.9142197
  95.5505157  17.0821007  67.5213459 100.3170975  17.0677280  68.3536813
 100.5334590  17.9501918  68.0525641  99.8365043  16.6763493  67.6242455
  95.0570197  20.0262993  74.9307558  94.9114778  20.3403296  75.8231839
  94.5795400  20.6447893  74.3778456  96.9166580  17.0165541  74.9788447
  96.9028148  16.1206634  74.6420745  97.6339008  17.0236205  75.6126733
  98.7692710  17.4502881  77.0241575  98.5110488  18.3719952  77.0225905
  98.2377751  17.0533316  77.7142039 103.7138899  30.5553668  69.8031660
 103.8875777  29.9900091  69.0505512 104.2067790  31.3554563  69.6211150
  89.5315859  22.5668337  77.8695219  88.9869327  23.3428145  78.0015493
  90.4095209  22.9139142  77.7114340  96.3203476  15.8979921  70.2476017
  96.4419387  14.9696567  70.4466905  96.0305518  15.9118607  69.3354333
  99.1894666  13.5834832  73.3842737  99.2116363  13.6474165  72.4294717
  99.6062725  12.7439340  73.5783243 109.5678290  23.3190091  71.4221960
 110.0109436  22.5697416  71.0241083 108.6904801  23.3100227  71.0395692
 104.7014072  29.8720433  66.9028558 105.3964976  30.4927125  67.1215873
 105.0437222  29.0215784  67.1780936  90.3181881  21.6938234  80.7625376
  89.5763617  21.8420869  81.3490006  89.9974625  21.9546499  79.8992125
 106.6005495  27.3220138  68.4315889 107.1256819  27.6607411  67.7065209
 106.5127847  26.3867153  68.2479024  98.2625543  31.2354212  80.5605766
  98.5712670  30.9903359  81.4328465  99.0601025  31.4400850  80.0724636
  98.2846156  33.3892121  72.7911142  97.8451146  32.8968500  73.4843999
  99.0354272  32.8465089  72.5503217  90.7638494  29.5803662  72.7935770
  91.5896514  29.2807434  72.4134414  90.4132546  28.8111285  73.2425559
  95.7320028  28.9330130  74.8633444  95.1100037  28.2700836  74.5635672
  96.4024895  28.9591262  74.1807092  88.9647100  27.4989989  73.7524704
  88.1279008  27.0712163  73.5708705  88.9370745  27.6922432  74.6895495
  95.8044555  17.4111919  84.4565950  95.8532711  18.2874041  84.0743719
  96.3467069  16.8689312  83.8837593 106.2899401  27.9553042  83.7367087
 105.4994945  27.9377181  83.1971586 106.0532755  28.4941335  84.4916124
 106.4097276  24.8045508  81.0499815 106.4595281  24.6395516  81.9915338
 106.3011199  23.9372767  80.6597696  95.2933535  27.4834054  68.3391904
  95.4421655  28.1669518  67.6858577  96.0999978  27.4639144  68.8541360
 103.7001038  20.7876436  82.3659122 104.6010901  20.6482901  82.0743120
 103.7749013  20.9530891  83.3057300  98.0343844  18.1643291  81.2112309
  97.1647153  18.4576857  80.9394897  98.2703324  18.7483736  81.9319572
 107.9115473  27.2242450  81.2941837 107.6200281  27.5872430  82.1305298
 107.2987604  26.5109458  81.1155169 109.1111155  24.7895329  73.8144407
 109.9458046  25.2285134  73.9781968 109.2470284  24.3133983  72.9952653
 106.1602661  22.3475064  79.7621895 106.6356783  22.5402711  78.9540746
 105.2368226  22.4034250  79.5165279  93.0486168  23.5099231  69.3452973
  92.8032209  22.6061561  69.5433183  93.2182082  23.5116382  68.4032451
 100.7382877  14.3822908  78.7277729 101.2564821  15.1183935  78.4024217
 100.3838010  14.6886901  79.5624488  92.3181815  19.2427589  66.8439135
  91.6251060  19.3171944  66.1879171  92.0733567  18.4787933  67.3660652
  98.7928940  29.9782184  65.8103652  98.2202907  30.5972371  65.3574124
  99.3661734  30.5281546  66.3443574 104.8604330  19.2240824  77.9950201
 105.8121753  19.3238922  78.0162425 104.6907780  18.4319093  78.5048285
 102.8818709  16.3096408  78.1809602 102.2868642  16.5901420  77.4856090
 102.5968406  16.7990309  78.9526343 102.0126200  30.2619334  66.9412234
 102.9456873  30.1964896  67.1445110 101.9249413  31.0975601  66.4826767
 104.6414217  29.5785205  63.9016182 104.5627848  29.2445068  64.7951940
 105.4623883  30.0706973  63.9007654 107.3392408  22.4446944  77.1092500
 107.3068728  21.5062945  77.2952184 107.9493031  22.5230981  76.3758325
  99.1775739  21.3142997  63.1519704 100.1234843  21.1849205  63.2208122
  98.7989984  20.5757659  63.6289132 107.4886896  19.2357987  77.1550783
 106.9725945  18.4516444  76.9680712 108.3726845  18.9076704  77.3197303
 105.1497623  12.9799003  73.1146596 104.9522444  12.6714091  73.9989928
 105.7597329  13.7060642  73.2444526 113.1568958  23.5062951  76.2498537
 113.8872346  23.2448239  76.8106240 112.5475903  22.7691673  76.2900605
 111.2384255  21.6470813  76.8472988 110.5117418  21.5126778  76.2389480
 110.8231542  21.9547642  77.6529706  99.0614431  25.3660743  84.6120361
  99.9817441  25.5439342  84.8060408  99.0264014  24.4216789  84.4600061
  97.3618656  19.2392973  63.0874590  96.4550111  18.9426086  63.1637303
  97.6394637  18.9422792  62.2208876  88.2796596  20.5599337  73.5373636
  87.9599380  19.7064645  73.2448010  87.7330024  20.7747915  74.2931603
  92.0576504  23.2761778  77.2543142  92.2762513  24.2078886  77.2731176
  92.4702277  22.9169752  78.0397946  98.9780721  13.7829863  69.2418831
  98.1681450  13.4376948  69.6174077  99.6665138  13.4737407  69.8306442
 100.9071270  12.8607910  70.8643127 101.4602308  13.2803363  71.5233151
 101.1441356  11.9343658  70.9066083  96.9304369  18.8494984  86.6445891
  96.8301096  19.7989341  86.5757982  96.7125911  18.5213222  85.7721961
  96.1317440  16.0979909  63.2286569  96.9936604  16.4234807  63.4882386
  96.3167785  15.3111405  62.7159635  88.1484856  24.1802248  75.5066758
  87.4548328  23.7656201  74.9936712  88.8957847  24.2222785  74.9100176
 104.2850077  14.9708435  70.3721792 103.7048746  15.6293239  69.9899844
 104.0186010  14.1485780  69.9609209 102.7353643  14.3713493  72.5743112
 103.2353422  14.4830027  71.7657431 103.3789251  14.0674546  73.2143920
  96.7935639  22.2792122  85.4610953  96.3102721  23.0792483  85.6674842
  96.8796578  22.2900067  84.5078397  90.0621599  24.1120502  73.3832772
  90.0392287  24.2108189  72.4314655  90.3722235  24.9585653  73.7049939
  92.7208977  26.1696657  77.4979387  93.6752230  26.1380599  77.4309318
  92.5221500  25.7087281  78.3129613  93.3108359  24.7397773  80.0650184
  94.1301248  25.2341852  80.0885022  93.5845166  23.8229741  80.0367752
 103.0674955  17.1308525  69.4278140 102.1800810  17.4158176  69.2098335
 103.4828944  16.9702289  68.5805417 106.4189491  17.1555046  73.1432479
 107.1949881  17.6451499  73.4157096 105.6937625  17.5813101  73.6004349
 108.8562050  17.8682666  74.2006420 109.4506540  17.6278402  73.4899728
 108.9288633  17.1489796  74.8279956  91.0759205  31.7116277  74.5149585
  90.9413673  30.9516678  73.9487583  90.6591268  32.4357176  74.0478374
 102.2118168  26.8953200  63.5226160 102.9154018  27.1003203  64.1383816
 101.4880817  27.4629962  63.7875243 103.0415979  22.6463061  69.6428430
 102.9851180  23.1031613  68.8036063 103.5944321  21.8853746  69.4651273
 106.8520785  18.4352793  70.4678550 106.5957719  18.0349429  71.2986757
 106.2273653  19.1496587  70.3428689 111.1633122  21.1748867  72.9749841
 110.6032680  21.2442056  73.7481403 110.5576626  20.9989851  72.2549337
  94.2328331  32.6085594  74.7268027  94.1160715  33.5531026  74.6246718
  93.4120777  32.3059155  75.1153827 104.1204866  27.3335729  65.5724620
 104.9550470  26.9016928  65.3902095 103.9589209  27.1617743  66.5001514
 103.7750758  23.8367843  66.9380959 103.7199562  23.6712114  65.9969403
 103.1496813  24.5443876  67.0943149  88.5643273  19.0735907  80.7642382
  89.2102137  18.5634861  81.2529607  88.3560424  19.8104589  81.3385807
 101.0896665  26.1416755  86.2634522 101.9587825  26.3157407  85.9021157
 100.6103417  26.9611171  86.1410251  97.0846883  13.3375952  66.5166278
  97.0725553  14.2817792  66.6734549  97.9770305  13.1546097  66.2225739
  95.2582845  33.2613856  77.9423956  96.1610092  33.2937466  78.2590451
  95.0320215  32.3314306  77.9570292  97.0136447  32.0144842  74.6034034
  96.0632078  32.0146704  74.4898407  97.3168933  31.2677577  74.0870069
  92.9040764  16.2203524  84.8617396  93.7672225  15.8640329  85.0720720
  92.3306175  15.8817419  85.5492800 112.7489141  37.8505380  75.6679797
 113.3867551  37.7312128  74.9643137 112.6309984  38.7986224  75.7267749
 109.5578847  37.8032809  75.6041321 109.2197359  37.6873873  74.7161856
 110.4268615  37.4023974  75.5842328 105.4165663  39.6568285  71.5938212
 104.8530528  39.5658222  70.8254500 105.3018058  38.8368189  72.0740705
 110.0398630  38.9567660  81.5627527 110.0287271  38.5620459  80.6908031
 110.2019270  38.2233733  82.1561298 102.9630095  41.1519477  74.4322433
 103.7551387  40.8110301  74.0168732 103.2026745  41.2614452  75.3524586
 110.9965222  43.3239253  66.9052677 110.3453201  43.9093333  66.5186691
 111.7909584  43.8545448  66.9647715 104.9220849  40.4128390  67.3039812
 105.6951725  39.8657377  67.1652687 105.2746248  41.2772639  67.5154273
 106.7605891  41.7404772  80.5106711 106.4695757  42.6450403  80.3953377
 107.3962876  41.7821300  81.2250781 107.6862098  39.1181621  77.1008071
 108.2825670  38.8937643  76.3865034 107.7437070  38.3766366  77.7033518
 107.2587127  36.5721056  64.9358262 107.5112647  36.0502577  64.1741725
 106.3211686  36.4087201  65.0384945 112.3030409  35.5756834  72.7433005
 113.0893499  35.1576257  72.3923422 112.5669114  36.4802926  72.9114653
 112.4740487  41.0129685  67.4421662 111.8386320  41.0864311  68.1542566
 112.1437893  41.6023283  66.7640741 117.7038836  35.5132068  73.6465983
 118.4364008  34.9431284  73.8803813 116.9478192  35.1253668  74.0872489
 106.9783415  38.4749162  67.1382637 106.8619673  37.7994065  67.8063721
 107.0885675  37.9881536  66.3214790 109.3214956  37.9359309  70.8429326
 108.9573163  37.4089930  71.5542247 110.1782072  37.5457778  70.6695811
 115.2264257  29.2253642  78.1060592 114.8947582  30.0949053  77.8821807
 114.6309870  28.9089926  78.7854622 108.9620443  32.9649209  65.8390674
 109.1294845  33.8329445  66.2061145 108.7717612  33.1276490  64.9151964
 111.7195776  41.4266188  77.5056505 111.4196499  42.3291226  77.3972312
 111.3746836  41.1598371  78.3577658 105.1708258  37.8779984  73.5393209
 104.2458754  37.7456199  73.7470901 105.4192671  38.6574204  74.0363151
 115.1192920  33.9448728  75.1853942 114.2109797  33.8764136  74.8912703
 115.0680516  34.4220673  76.0135767 108.9409664  35.4206866  66.8237341
 108.8209289  35.8663917  67.6622821 108.2462252  35.7692184  66.2650879
 102.5317069  37.5213258  74.3736998 102.6609450  37.7747737  75.2876410
 101.8514520  38.1140966  74.0541653 106.7016556  48.1910508  70.4727472
 106.6240586  49.1418333  70.5515953 106.0978200  47.8456380  71.1302399
 109.1933786  35.3638373  83.1288839 108.4167120  35.9232294  83.1191704
 109.8324349  35.8495156  83.6503709 116.9854567  32.1465166  76.9631816
 116.3428947  32.4397699  76.3171610 116.4809495  32.0318087  77.7685013
 114.6394730  35.8928339  67.6517675 115.5512586  36.1255726  67.4765373
 114.1304377  36.4765384  67.0892754 107.4480158  38.1723827  82.6906806
 108.1894843  38.7108871  82.4141630 106.7417144  38.7990116  82.8478358
 112.9235498  40.3152967  81.2878968 113.3318854  39.8735378  80.5433600
 112.2012759  39.7405595  81.5413161 109.2766568  35.2525574  78.6612525
 110.1227763  35.6764988  78.8047174 109.2165206  34.5959198  79.3551088
 113.2464312  40.8754158  75.0431257 112.6173175  41.0399872  74.3407324
 112.8589975  41.2895767  75.8142221 117.1253544  41.8108596  72.3975620
 116.4404583  42.1907497  71.8472654 117.2097394  42.4203922  73.1307568
 112.4266013  32.9129942  80.3193698 112.1826945  33.6672003  79.7827974
 112.7025944  33.2915290  81.1540945 114.3804476  39.4568555  78.9970964
 114.5921371  40.1000315  78.3205345 114.3334224  38.6230871  78.5292894
 111.9830705  32.0686375  75.9007536 111.1215184  32.3667629  76.1924274
 112.0093140  32.2856774  74.9688569 108.7992274  40.6128566  72.3081342
 109.2630620  40.8916269  71.5185964 108.5349072  39.7112011  72.1254432
 105.6916355  40.1600047  75.2461105 106.2617712  40.5887316  74.6078589
 106.2824467  39.8782632  75.9445291 107.7361160  36.7351718  69.1170907
 108.4385204  37.1872762  69.5844833 107.4041789  36.0935537  69.7450800
 106.1841522  35.3263475  83.4922116 105.5540183  36.0079756  83.7257513
 106.0777610  35.2146557  82.5475254 101.4786494  34.9935271  74.4188040
 100.6885548  35.2492799  73.9428151 101.9697742  35.8083609  74.5240081
 115.4950304  42.3340510  77.1693321 116.3167748  41.9320697  76.8876003
 115.4912707  42.2308744  78.1209437 103.4301240  35.3579850  71.3771517
 102.6332403  35.4698544  71.8955013 103.2026832  35.6966502  70.5112408
 109.2606907  41.8824553  79.3254032 109.3251340  42.3444961  80.1612204
 108.5517831  41.2521918  79.4536342  99.7624197  35.2465761  76.8503031
 100.0132236  36.1312771  77.1160607 100.2983746  35.0670363  76.0778123
 108.9754925  43.5492661  69.1933012 108.8400600  44.3944197  69.6217860
 109.5164738  43.7511939  68.4298946 105.4622265  29.6284241  85.8547367
 105.0689210  29.0750439  86.5295012 106.2788405  29.9394819  86.2453885
 102.4284322  41.0668099  69.7660937 102.9408843  41.8611349  69.9166502
 103.0807035  40.3694389  69.6994539 104.2379207  44.1833855  71.8483690
 104.4145835  45.1051820  71.6604674 105.0336041  43.8692274  72.2778070
 108.3790226  31.0442120  83.4467624 109.1199939  31.6449273  83.3672086
 108.6108148  30.3019758  82.8885666 103.5231564  36.2298487  81.7245854
 103.4085079  35.3283744  82.0252952 102.6676081  36.4762184  81.3730670
 110.6023401  44.1716227  83.3233354 110.1587256  43.3852606  83.0054259
 111.2640615  44.3595378  82.6577245 105.3610523  45.7012029  77.8494033
 105.9117948  45.5729092  77.0771027 104.5221998  46.0006918  77.4988925
 112.7004639  44.4519027  81.3514755 112.6823115  45.2727908  80.8595025
 113.6224560  44.3273103  81.5764897 109.1577694  41.9663157  82.1938264
 109.6906030  41.2051445  81.9637572 108.6291775  41.6736809  82.9362418
 112.3247389  27.0723223  77.7231906 111.9811658  27.9624864  77.6471016
 112.6926351  26.8824880  76.8601491 100.3933239  39.3956753  70.5420508
 101.2308461  39.8053762  70.3254215 100.5711507  38.4556195  70.5120702
 112.2897671  37.0631834  66.2304341 111.7744295  37.8336439  66.4692728
 112.0174980  36.3896970  66.8537402 109.8744782  31.9081535  71.2889579
 109.0186379  31.5188385  71.1095218 110.2871734  31.9873495  70.4289365
 111.4043929  29.4427878  75.6881139 110.9008725  29.4058013  74.8748944
 111.6974536  30.3520621  75.7477795 107.6486815  29.5266608  74.6947321
 108.5139812  29.3309416  74.3353210 107.7164324  29.2976959  75.6216677
 117.2631945  39.8164189  68.1657514 116.4861388  39.4775348  67.7212676
 117.9423426  39.8216812  67.4912479 112.0783974  34.9358926  68.0564122
 111.7734110  35.2505075  68.9074265 113.0314417  35.0140346  68.0991455
 110.5230406  41.0949149  69.7057076 109.9951768  40.3601909  69.3930313
 110.0217909  41.8723826  69.4597044 115.5023252  39.2898170  74.8224122
 114.8446927  39.9797431  74.9104251 116.3063652  39.6794602  75.1658108
 105.2549134  31.7568816  72.0663687 105.8292886  31.5343997  71.3336880
 105.8420116  31.8257510  72.8192289 114.3128711  37.6442542  72.8728064
 114.8260593  38.2772534  73.3749774 114.9629935  37.0443738  72.5071424
 105.5818721  33.7873277  66.0859573 104.7456033  34.1247963  66.4068847
 105.4423491  33.6522256  65.1486710 107.5571802  28.6310065  70.7938757
 106.9036214  28.3159082  70.1695372 107.5152276  28.0085805  71.5198580
 108.6683007  38.9129360  62.7092049 107.7610068  38.6818613  62.9083198
 109.1654039  38.1166979  62.8966030 111.5751085  47.6226867  65.6288735
 110.9012784  47.9258564  66.2373693 111.9616907  48.4255947  65.2794192
 110.7909542  35.1191998  75.1186404 109.8732103  35.3406945  74.9608092
 111.2069686  35.1938309  74.2598112 111.5744590  36.5183414  70.2489085
 112.3216409  37.0304811  69.9396207 111.8436179  36.1967466  71.1093478
 109.8471240  39.0141954  67.2316039 108.9382459  38.7300987  67.3288509
 109.8766324  39.4341033  66.3719346 115.0790507  42.6248544  71.0007207
 114.6252834  41.7839454  71.0572397 114.4484474  43.2609942  71.3381987
 114.0223427  33.5540530  72.2307874 113.2846184  33.0417916  72.5618117
 114.2750200  33.1140912  71.4191151 113.5223447  44.4625041  71.9357025
 113.8146421  45.0230098  71.2169390 114.0322067  44.7553602  72.6910184
 114.1235054  26.3316782  72.8249643 114.4293931  25.4714145  72.5375558
 114.8487659  26.9234402  72.6248637 100.4159410  36.7347469  71.2131241
 100.2183810  36.1416829  70.4882308  99.8606074  36.4299679  71.9307180
 108.3956134  36.6270575  73.3325834 108.4504744  35.6744411  73.2568311
 107.5847336  36.7830014  73.8167133 109.5447328  40.5550698  64.5704118
 109.1066758  39.8386557  64.1109755 110.2857769  40.7826813  64.0089209
 106.3348494  35.2447635  71.0916213 105.5216359  35.5441805  71.4981405
 106.8307488  34.8503324  71.8090695 108.4857072  45.2405392  73.0250478
 108.4433251  45.4666238  72.0959010 109.4019771  45.0068766  73.1736279
 111.9322706  35.7089459  79.9231107 112.2872093  35.9360932  80.7825573
 112.5794837  36.0407836  79.3008362 117.6620443  38.8307895  70.6280436
 117.5238341  39.0209491  69.7001625 117.3056661  39.5927278  71.0848487
 105.8262569  32.8165990  76.7077448 106.4661948  32.6754749  76.0100411
 104.9940099  32.5300504  76.3316050 117.6889822  40.8984422  75.6391708
 118.1226329  40.8059711  76.4874762 118.4021403  40.8741923  75.0011724
 106.6022873  42.1168421  72.8212441 107.3963471  41.6218741  72.6195016
 105.8914565  41.5886284  72.4580146 111.4217717  44.4986516  77.1724808
 111.4754739  45.0677453  77.9402524 110.5532498  44.6688401  76.8078845
 102.9105636  36.2611502  68.8972193 101.9803224  36.1995958  69.1142155
 103.0063108  35.7387455  68.1008835 102.8291185  32.7866315  71.4850435
 103.0898002  33.7011649  71.3759595 103.6508357  32.3190758  71.6347048
 104.3016110  34.2004072  78.6549259 104.9739164  33.9921435  78.0061908
 103.4745897  34.0026158  78.2154492 118.5505372  40.9408123  78.1724593
 118.7441262  41.8453933  78.4183868 118.4505990  40.4815542  79.0063178
 110.2041682  30.8266013  80.6714920 109.5569597  31.5255963  80.5779397
 110.9742698  31.2602157  81.0391169 113.6120480  41.0914866  83.7465474
 113.4605987  40.8625417  82.8295557 113.6025160  42.0485467  83.7596819
 110.3805817  38.6646778  78.7311740 111.3097877  38.8157938  78.5580707
 109.9596847  38.7530799  77.8760387 109.1794149  42.6897443  76.5010278
 109.0405234  42.3216227  77.3736216 108.3908745  43.2045082  76.3294235
 109.7742301  47.7906539  67.8435814 109.9494056  47.3194582  68.6581437
 109.0875089  48.4172305  68.0717075 110.7299364  42.0679045  73.8899115
 110.3949196  42.0279815  74.7856765 110.2303309  41.4023761  73.4169526
 104.7043608  37.4746675  79.4151697 104.5663406  36.7426914  80.0163236
 105.6148531  37.3855576  79.1335884 113.6658555  39.4135080  64.1636175
 113.0487726  38.6881908  64.0669228 113.1975044  40.1744440  63.8203249
 107.3325908  37.1866635  78.9035376 108.0425527  36.5459827  78.8621995
 107.2895217  37.4379530  79.8261557 115.3212687  44.1233988  81.8241955
 115.2625233  43.4393208  81.1572538 115.7232205  44.8652978  81.3722581
 106.0454842  34.1731853  80.7231016 105.5092199  33.7222591  81.3752612
 105.4571551  34.3077761  79.9801480 104.3403386  50.9395902  74.6175674
 104.5799984  51.5714426  75.2954693 103.4972582  50.5883942  74.9041034
 105.4557101  33.6320504  63.2857479 104.5786568  33.5109305  62.9219726
 105.9314854  32.8406582  63.0336368 115.3230094  42.0873572  80.0555935
 114.4356873  41.7499494  80.1782334 115.8928645  41.3556603  80.2924701
  96.9759241  38.4197664  73.3798987  97.6630281  38.1059394  72.7920002
  96.8207370  39.3239028  73.1066238 101.7793964  33.3087860  77.8084010
 101.6952152  32.7013530  77.0734420 100.9576670  33.7996879  77.8093507
 108.8531248  46.7475024  77.0217178 108.7801419  47.5529996  77.5336483
 108.4108641  46.9466990  76.1965200 108.6421027  45.9846794  70.5320000
 107.8588549  46.5268475  70.6258224 109.3413773  46.5020774  70.9314241
 111.9517677  31.7941424  73.1754205 112.4486377  31.0411386  72.8555276
 111.1804659  31.8305741  72.6097415 119.8047435  37.4981789  74.8172497
 119.7937311  38.3806505  74.4466430 118.9364814  37.1453340  74.6227034
 111.3129931  46.6461858  79.1775337 112.0257903  47.2809323  79.1051238
 110.8219960  46.7425724  78.3615339 113.0347458  40.5513111  70.7492629
 112.1003737  40.6714574  70.5797333 113.2124127  39.6485578  70.4852639
 108.5352646  33.9358807  72.9025890 108.1650434  33.3829847  73.5906795
 109.0311739  33.3316940  72.3500890 116.4220009  36.3930430  71.2842663
 116.8880462  37.2258422  71.2102965 116.8727510  35.9275412  71.9887921
 106.3641845  44.3956302  79.9980908 107.0651304  45.0292785  80.1510302
 105.8936960  44.7371033  79.2376547 114.4896241  42.7374252  68.2828815
 114.7656084  42.6230846  69.1922689 113.6200739  42.3391737  68.2440988
 114.3936672  28.7611017  75.3233564 113.4799752  28.9915244  75.4915771
 114.8229774  28.8449461  76.1747597 114.1643131  36.9500909  77.8233458
 113.5114581  37.1976817  77.1685911 114.5423511  36.1365048  77.4895935
 111.1250305  46.9860603  71.9261628 111.3072699  46.1682258  72.3889381
 111.9483291  47.2028295  71.4886518 111.4592470  45.9128788  69.1876677
 111.9880237  45.4021242  68.5746839 111.7220690  45.5971318  70.0522210
 110.2130704  37.6920720  84.3099495 109.5371341  37.5914850  84.9801870
 111.0358338  37.5359934  84.7735492 101.9609563  43.9292657  76.9312010
 102.5463000  43.1836345  77.0639915 101.7634401  44.2396614  77.8148674
 104.8148218  46.9643904  71.9474453 104.1458593  47.4490032  71.4638493
 104.6761088  47.2113125  72.8617831  96.5527218  36.4998257  75.6516454
  96.5911317  35.9661848  76.4453572  96.0467510  35.9733463  75.0327431
 108.9553487  48.9987648  78.5457111 109.5071795  49.1619269  79.3106196
 109.2959680  49.5892086  77.8737136 103.9317980  31.3462798  79.1478996
 103.9959306  32.2077629  78.7356394 103.8685100  30.7336799  78.4151354
 103.4070252  33.4185930  82.7952030 104.0342291  33.0363008  83.4089555
 102.5498171  33.2000132  83.1607723 113.8064361  43.8248905  84.4005766
 114.3504265  44.4378864  83.9060720 113.2251206  44.3828484  84.9172779
 100.1835795  35.2262359  68.7270385 100.4789236  34.3173038  68.6737439
  99.2823831  35.2050099  68.4051387 112.0921874  46.9469623  75.5320793
 111.9673013  46.1459363  75.0231739 112.7500965  47.4415817  75.0434763
 103.7130042  33.3018356  74.7097934 102.9916628  33.9154324  74.5705407
 104.5023298  33.8376121  74.6314580 114.1556782  44.7478643  77.1600343
 113.2087118  44.6283995  77.0878670 114.5039555  43.8601142  77.2426605
 106.5156356  30.6372782  80.9838585 107.0390757  30.8835079  81.7464895
 106.2968689  31.4692817  80.5641723 101.9123637  32.9076457  68.8509710
 101.5836343  32.0273836  68.6684816 102.2663007  32.8524126  69.7386099
 111.1603216  44.5431360  73.3604696 111.0128178  43.6148067  73.5412266
 111.9856709  44.5651450  72.8761771 105.0265460  33.1949427  69.2185188
 105.3661532  33.7235348  68.4963796 105.4737580  33.5329833  69.9943754
 114.7637337  45.3659918  74.4469568 115.6883885  45.1602780  74.3094020
 114.5952641  45.1176320  75.3558910 107.7208901  31.5786477  78.6688256
 107.3805721  30.7794291  79.0708936 107.0147907  31.8788188  78.0965089
 108.3725373  28.6635790  77.1215579 109.1951442  28.1896268  76.9994469
 108.6163436  29.4426274  77.6214265 107.0133607  31.6924048  67.4178481
 107.7341970  32.0705301  66.9142197 106.3898911  32.4112925  67.5213459
 111.1564730  32.3969197  68.3536813 111.3728344  33.2793835  68.0525641
 110.6758797  32.0055411  67.6242455 105.8963951  35.3554911  74.9307558
 105.7508532  35.6695214  75.8231839 105.4189155  35.9739811  74.3778456
 107.7560334  32.3457459  74.9788447 107.7421903  31.4498552  74.6420745
 108.4732762  32.3528122  75.6126733 109.6086465  32.7794799  77.0241575
 109.3504243  33.7011869  77.0225905 109.0771505  32.3825233  77.7142039
 114.5532654  45.8845586  69.8031660 114.7269531  45.3192008  69.0505512
 115.0461545  46.6846481  69.6211150 100.3709613  37.8960255  77.8695219
  99.8263082  38.6720063  78.0015493 101.2488963  38.2431059  77.7114340
 107.1597230  31.2271839  70.2476017 107.2813141  30.2988485  70.4466905
 106.8699272  31.2410525  69.3354333 110.0288420  28.9126749  73.3842737
 110.0510117  28.9766082  72.4294717 110.4456479  28.0731258  73.5783243
 120.4072045  38.6482009  71.4221960 120.8503191  37.8989334  71.0241083
 119.5298555  38.6392145  71.0395692 115.5407826  45.2012350  66.9028558
 116.2358731  45.8219043  67.1215873 115.8830976  44.3507701  67.1780936
 101.1575635  37.0230151  80.7625376 100.4157371  37.1712787  81.3490006
 100.8368380  37.2838417  79.8992125 117.4399249  42.6512056  68.4315889
 117.9650573  42.9899329  67.7065209 117.3521602  41.7159071  68.2479024
 109.1019298  46.5646129  80.5605766 109.4106424  46.3195276  81.4328465
 109.8994780  46.7692768  80.0724636 109.1239910  48.7184039  72.7911142
 108.6844900  48.2260418  73.4843999 109.8748027  48.1757007  72.5503217
 101.6032249  44.9095580  72.7935770 102.4290269  44.6099352  72.4134414
 101.2526301  44.1403202  73.2425559 106.5713782  44.2622048  74.8633444
 105.9493791  43.5992753  74.5635672 107.2418649  44.2883180  74.1807092
  99.8040854  42.8281906  73.7524704  98.9672762  42.4004081  73.5708705
  99.7764499  43.0214350  74.6895495 106.6438310  32.7403836  84.4565950
 106.6926465  33.6165959  84.0743719 107.1860824  32.1981229  83.8837593
 117.1293155  43.2844959  83.7367087 116.3388699  43.2669098  83.1971586
 116.8926510  43.8233253  84.4916124 117.2491030  40.1337426  81.0499815
 117.2989035  39.9687433  81.9915338 117.1404954  39.2664685  80.6597696
 106.1327289  42.8125972  68.3391904 106.2815409  43.4961436  67.6858577
 106.9393733  42.7931062  68.8541360 114.5394793  36.1168354  82.3659122
 115.4404656  35.9774819  82.0743120 114.6142767  36.2822809  83.3057300
 108.8737598  33.4935209  81.2112309 108.0040907  33.7868775  80.9394897
 109.1097078  34.0775654  81.9319572 118.7509227  42.5534367  81.2941837
 118.4594035  42.9164348  82.1305298 118.1381358  41.8401376  81.1155169
 119.9504910  40.1187247  73.8144407 120.7851801  40.5577051  73.9781968
 120.0864038  39.6425900  72.9952653 116.9996415  37.6766982  79.7621895
 117.4750537  37.8694628  78.9540746 116.0761981  37.7326168  79.5165279
 103.8879922  38.8391149  69.3452973 103.6425964  37.9353479  69.5433183
 104.0575837  38.8408300  68.4032451 111.5776632  29.7114826  78.7277729
 112.0958576  30.4475852  78.4024217 111.2231765  30.0178819  79.5624488
 103.1575570  34.5719507  66.8439135 102.4644815  34.6463862  66.1879171
 102.9127321  33.8079850  67.3660652 111.8289226  26.1315108  74.2478625
 112.1090980  25.4638297  74.8739052 112.6139833  26.3244204  73.7353289
 115.6998084  34.5532742  77.9950201 116.6515507  34.6530840  78.0162425
 115.5301535  33.7611011  78.5048285 113.7212464  31.6388325  78.1809602
 113.1262396  31.9193338  77.4856090 113.4362161  32.1282226  78.9526343
 112.8519954  45.5911252  66.9412234 113.7850628  45.5256814  67.1445110
 112.7643167  46.4267519  66.4826767 115.4807971  44.9077122  63.9016182
 115.4021603  44.5736986  64.7951940 116.3017638  45.3998890  63.9007654
 118.1786162  37.7738862  77.1092500 118.1462482  36.8354862  77.2952184
 118.7886786  37.8522898  76.3758325 110.0169493  36.6434915  63.1519704
 110.9628598  36.5141123  63.2208122 109.6383738  35.9049577  63.6289132
 118.3280651  34.5649905  77.1550783 117.8119699  33.7808362  76.9680712
 119.2120599  34.2368622  77.3197303 115.9891378  28.3090921  73.1146596
 115.7916199  28.0006009  73.9989928 116.5991083  29.0352560  73.2444526
 109.9008186  40.6952661  84.6120361 110.8211195  40.8731260  84.8060408
 109.8657769  39.7508706  84.4600061 108.2012410  34.5684891  63.0874590
 107.2943866  34.2718004  63.1637303 108.4788391  34.2714709  62.2208876
  99.1190351  35.8891255  73.5373636  98.7993135  35.0356563  73.2448010
  98.5723779  36.1039833  74.2931603 102.8970258  38.6053696  77.2543142
 103.1156268  39.5370803  77.2731176 103.3096032  38.2461670  78.0397946
 109.8174476  29.1121781  69.2418831 109.0075204  28.7668866  69.6174077
 110.5058893  28.8029325  69.8306442 111.7465024  28.1899828  70.8643127
 112.2996063  28.6095281  71.5233151 111.9835111  27.2635576  70.9066083
 107.7698123  34.1786901  86.6445891 107.6694850  35.1281258  86.5757982
 107.5519666  33.8505140  85.7721961 106.9711195  31.4271826  63.2286569
 107.8330359  31.7526725  63.4882386 107.1561539  30.6403322  62.7159635
  98.9878611  39.5094166  75.5066758  98.2942082  39.0948119  74.9936712
  99.7351602  39.5514703  74.9100176 115.1243831  30.3000353  70.3721792
 114.5442500  30.9585157  69.9899844 114.8579764  29.4777697  69.9609209
 113.5747398  29.7005410  72.5743112 114.0747176  29.8121945  71.7657431
 114.2183006  29.3966463  73.2143920 107.6329394  37.6084040  85.4610953
 107.1496475  38.4084400  85.6674842 107.7190333  37.6191985  84.5078397
 100.9015353  39.4412420  73.3832772 100.8786041  39.5400107  72.4314655
 101.2115990  40.2877571  73.7049939 103.5602731  41.4988575  77.4979387
 104.5145985  41.4672517  77.4309318 103.3615255  41.0379199  78.3129613
 104.1502113  40.0689691  80.0650184 104.9695002  40.5633770  80.0885022
 104.4238921  39.1521659  80.0367752 113.9068709  32.4600443  69.4278140
 113.0194564  32.7450094  69.2098335 114.3222698  32.2994207  68.5805417
 117.2583245  32.4846964  73.1432479 118.0343636  32.9743417  73.4157096
 116.5331380  32.9105018  73.6004349 119.6955804  33.1974583  74.2006420
 120.2900295  32.9570319  73.4899728 119.7682388  32.4781714  74.8279956
 101.9152960  47.0408194  74.5149585 101.7807428  46.2808595  73.9487583
 101.4985022  47.7649094  74.0478374 113.0511923  42.2245118  63.5226160
 113.7547773  42.4295120  64.1383816 112.3274572  42.7921880  63.7875243
 113.8809733  37.9754979  69.6428430 113.8244935  38.4323531  68.8036063
 114.4338076  37.2145664  69.4651273 117.6914539  33.7644711  70.4678550
 117.4351473  33.3641347  71.2986757 117.0667407  34.4788505  70.3428689
 105.0722086  47.9377511  74.7268027 104.9554470  48.8822944  74.6246718
 104.2514532  47.6351073  75.1153827 114.9598620  42.6627647  65.5724620
 115.7944224  42.2308846  65.3902095 114.7982963  42.4909661  66.5001514
 114.6144512  39.1659760  66.9380959 114.5593316  39.0004032  65.9969403
 113.9890568  39.8735793  67.0943149  99.4037027  34.4027825  80.7642382
 100.0495891  33.8926779  81.2529607  99.1954179  35.1396506  81.3385807
 111.9290420  41.4708672  86.2634522 112.7981579  41.6449324  85.9021157
 111.4497171  42.2903089  86.1410251 107.9240638  28.6667869  66.5166278
 107.9119308  29.6109709  66.6734549 108.8164060  28.4838015  66.2225739
 106.0976600  48.5905773  77.9423956 107.0003847  48.6229383  78.2590451
 105.8713970  47.6606224  77.9570292 107.8530202  47.3436760  74.6034034
 106.9025833  47.3438621  74.4898407 108.1562688  46.5969494  74.0870069
 111.7392757  25.2610646  70.7712215 110.9725153  24.7069133  70.9168897
 112.1503462  25.3332515  71.6326366 103.7434518  31.5495442  84.8617396
 104.6065980  31.1932247  85.0720720 103.1699929  31.2109337  85.5492800
 120.3972602  53.1324726  75.6041321 120.0591113  53.0165791  74.7161856
 121.2662370  52.7315891  75.5842328 116.2559417  54.9860203  71.5938212
 115.6924282  54.8950140  70.8254500 116.1411812  54.1660107  72.0740705
 120.8792385  54.2859578  81.5627527 120.8681025  53.8912376  80.6908031
 121.0413024  53.5525651  82.1561298 113.8023849  56.4811394  74.4322433
 114.5945141  56.1402219  74.0168732 114.0420499  56.5906369  75.3524586
 115.7614603  55.7420308  67.3039812 116.5345479  55.1949295  67.1652687
 116.1140002  56.6064557  67.5154273 117.5999646  57.0696690  80.5106711
 117.3089512  57.9742321  80.3953377 118.2356630  57.1113217  81.2250781
 118.5255853  54.4473538  77.1008071 119.1219425  54.2229561  76.3865034
 118.5830824  53.7058284  77.7033518 118.0980881  51.9012974  64.9358262
 118.3506402  51.3794495  64.1741725 117.1605440  51.7379119  65.0384945
 117.8177170  53.8041080  67.1382637 117.7013428  53.1285983  67.8063721
 117.9279430  53.3173454  66.3214790 120.1608711  53.2651227  70.8429326
 119.7966918  52.7381848  71.5542247 121.0175827  52.8749696  70.6695811
 119.8014198  48.2941126  65.8390674 119.9688600  49.1621363  66.2061145
 119.6111367  48.4568408  64.9151964 116.0102012  53.2071902  73.5393209
 115.0852509  53.0748116  73.7470901 116.2586426  53.9866121  74.0363151
 119.7803419  50.7498784  66.8237341 119.6603044  51.1955835  67.6622821
 119.0856007  51.0984102  66.2650879 113.3710823  52.8505176  74.3736998
 113.5003205  53.1039655  75.2876410 112.6908275  53.4432884  74.0541653
 117.5410311  63.5202426  70.4727472 117.4634340  64.4710251  70.5515953
 116.9371954  63.1748298  71.1302399 120.0327540  50.6930291  83.1288839
 119.2560874  51.2524211  83.1191704 120.6718103  51.1787074  83.6503709
 118.2873913  53.5015744  82.6906806 119.0288597  54.0400788  82.4141630
 117.5810898  54.1282033  82.8478358 120.1160322  50.5817492  78.6612525
 120.9621518  51.0056905  78.8047174 120.0558960  49.9251116  79.3551088
 119.6386029  55.9420484  72.3081342 120.1024374  56.2208187  71.5185964
 119.3742827  55.0403928  72.1254432 116.5310110  55.4891965  75.2461105
 117.1011467  55.9179234  74.6078589 117.1218222  55.2074550  75.9445291
 118.5754915  52.0643636  69.1170907 119.2778958  52.5164680  69.5844833
 118.2435543  51.4227455  69.7450800 117.0235276  50.6555393  83.4922116
 116.3933937  51.3371673  83.7257513 116.9171364  50.5438474  82.5475254
 112.3180249  50.3227189  74.4188040 111.5279303  50.5784717  73.9428151
 112.8091496  51.1375526  74.5240081 114.2694994  50.6871768  71.3771517
 113.4726158  50.7990462  71.8955013 114.0420586  51.0258420  70.5112408
 120.1000662  57.2116471  79.3254032 120.1645094  57.6736878  80.1612204
 119.3911586  56.5813836  79.4536342 110.6017952  50.5757679  76.8503031
 110.8525990  51.4604689  77.1160607 111.1377500  50.3962281  76.0778123
 119.8148680  58.8784579  69.1933012 119.6794354  59.7236114  69.6217860
 120.3558492  59.0803856  68.4298946 116.3016019  44.9576158  85.8547367
 115.9082965  44.4042357  86.5295012 117.1182159  45.2686737  86.2453885
 113.2678077  56.3960017  69.7660937 113.7802597  57.1903267  69.9166502
 113.9200790  55.6986307  69.6994539 115.0772962  59.5125773  71.8483690
 115.2539590  60.4343738  71.6604674 115.8729795  59.1984192  72.2778070
 119.2183980  46.3734038  83.4467624 119.9593694  46.9741191  83.3672086
 119.4501903  45.6311675  82.8885666 114.3625318  51.5590405  81.7245854
 114.2478833  50.6575662  82.0252952 113.5069836  51.8054102  81.3730670
 116.2004277  61.0303947  77.8494033 116.7511702  60.9021010  77.0771027
 115.3615753  61.3298836  77.4988925 119.9971448  57.2955075  82.1938264
 120.5299785  56.5343363  81.9637572 119.4685529  57.0028726  82.9362418
 111.2326994  54.7248671  70.5420508 112.0702216  55.1345679  70.3254215
 111.4105261  53.7848113  70.5120702 120.7138537  47.2373452  71.2889579
 119.8580133  46.8480303  71.1095218 121.1265489  47.3165413  70.4289365
 118.4880569  44.8558525  74.6947321 119.3533566  44.6601334  74.3353210
 118.5558078  44.6268877  75.6216677 121.3624161  56.4241067  69.7057076
 120.8345522  55.6893827  69.3930313 120.8611664  57.2015743  69.4597044
 116.0942888  47.0860733  72.0663687 116.6686640  46.8635915  71.3336880
 116.6813871  47.1549428  72.8192289 116.4212476  49.1165194  66.0859573
 115.5849788  49.4539881  66.4068847 116.2817245  48.9814174  65.1486710
 118.3965556  43.9601982  70.7938757 117.7429968  43.6450999  70.1695372
 118.3546030  43.3377723  71.5198580 119.5076761  54.2421277  62.7092049
 118.6003823  54.0110531  62.9083198 120.0047793  53.4458897  62.8966030
 120.6864994  54.3433872  67.2316039 119.7776214  54.0592905  67.3288509
 120.7160078  54.7632951  66.3719346 111.2553165  52.0639386  71.2131241
 111.0577565  51.4708747  70.4882308 110.6999829  51.7591596  71.9307180
 119.2349888  51.9562493  73.3325834 119.2898498  51.0036329  73.2568311
 118.4241091  52.1121932  73.8167133 120.3841082  55.8842616  64.5704118
 119.9460512  55.1678475  64.1109755 121.1251523  56.1118731  64.0089209
 117.1742248  50.5739552  71.0916213 116.3610114  50.8733723  71.4981405
 117.6701243  50.1795241  71.8090695 119.3250826  60.5697309  73.0250478
 119.2827005  60.7958156  72.0959010 120.2413525  60.3360684  73.1736279
 116.6656323  48.1457908  76.7077448 117.3055702  48.0046667  76.0100411
 115.8333854  47.8592421  76.3316050 117.4416627  57.4460338  72.8212441
 118.2357226  56.9510659  72.6195016 116.7308319  56.9178202  72.4580146
 113.7499391  51.5903420  68.8972193 112.8196979  51.5287876  69.1142155
 113.8456863  51.0679373  68.1008835 113.6684940  48.1158233  71.4850435
 113.9291757  49.0303566  71.3759595 114.4902112  47.6482676  71.6347048
 115.1409865  49.5295990  78.6549259 115.8132918  49.3213352  78.0061908
 114.3139651  49.3318076  78.2154492 120.0187903  58.0189360  76.5010278
 119.8798989  57.6508145  77.3736216 119.2302499  58.5337000  76.3294235
 120.6136055  63.1198457  67.8435814 120.7887811  62.6486500  68.6581437
 119.9268843  63.7464223  68.0717075 121.5693118  57.3970963  73.8899115
 121.2342951  57.3571733  74.7856765 121.0697064  56.7315679  73.4169526
 115.5437362  52.8038593  79.4151697 115.4057160  52.0718832  80.0163236
 116.4542286  52.7147493  79.1335884 118.1719663  52.5158552  78.9035376
 118.8819281  51.8751745  78.8621995 118.1288971  52.7671447  79.8261557
 116.8848597  49.5023770  80.7231016 116.3485954  49.0514509  81.3752612
 116.2965305  49.6369679  79.9801480 115.1797140  66.2687820  74.6175674
 115.4193739  66.9006344  75.2954693 114.3366337  65.9175860  74.9041034
 116.2950856  48.9612422  63.2857479 115.4180322  48.8401223  62.9219726
 116.7708609  48.1698500  63.0336368 107.8152996  53.7489581  73.3798987
 108.5024036  53.4351312  72.7920002 107.6601125  54.6530946  73.1066238
 112.6187718  48.6379778  77.8084010 112.5345907  48.0305448  77.0734420
 111.7970424  49.1288796  77.8093507 119.6925002  62.0766942  77.0217178
 119.6195174  62.8821914  77.5336483 119.2502395  62.2758908  76.1965200
 119.4814782  61.3138712  70.5320000 118.6982304  61.8560392  70.6258224
 120.1807527  61.8312692  70.9314241 119.3746401  49.2650725  72.9025890
 119.0044188  48.7121765  73.5906795 119.8705493  48.6608858  72.3500890
 117.2035599  59.7248220  79.9980908 117.9045059  60.3584703  80.1510302
 116.7330714  60.0662951  79.2376547 112.8003317  59.2584575  76.9312010
 113.3856754  58.5128263  77.0639915 112.6028156  59.5688531  77.8148674
 115.6541973  62.2935822  71.9474453 114.9852348  62.7781950  71.4638493
 115.5154842  62.5405042  72.8617831 107.3920972  51.8290175  75.6516454
 107.4305072  51.2953766  76.4453572 106.8861265  51.3025380  75.0327431
 119.7947241  64.3279566  78.5457111 120.3465549  64.4911187  79.3106196
 120.1353435  64.9184003  77.8737136 114.7711734  46.6754715  79.1478996
 114.8353061  47.5369546  78.7356394 114.7078855  46.0628717  78.4151354
 114.2464007  48.7477848  82.7952030 114.8736046  48.3654925  83.4089555
 113.3891926  48.5292050  83.1607723 111.0229550  50.5554277  68.7270385
 111.3182991  49.6464955  68.6737439 110.1217585  50.5342016  68.4051387
 114.5523797  48.6310274  74.7097934 113.8310382  49.2446241  74.5705407
 115.3417052  49.1668038  74.6314580 117.3550110  45.9664700  80.9838585
 117.8784512  46.2126997  81.7464895 117.1362443  46.7984735  80.5641723
 112.7517391  48.2368375  68.8509710 112.4230097  47.3565754  68.6684816
 113.1056762  48.1816043  69.7386099 115.8659214  48.5241344  69.2185188
 116.2055287  49.0527266  68.4963796 116.3131335  48.8621751  69.9943754
 118.5602655  46.9078395  78.6688256 118.2199476  46.1086208  79.0708936
 117.8541661  47.2080106  78.0965089 119.2119127  43.9927708  77.1215579
 120.0345196  43.5188186  76.9994469 119.4557191  44.7718191  77.6214265
 117.8527362  47.0215966  67.4178481 118.5735724  47.3997219  66.9142197
 117.2292666  47.7404843  67.5213459 116.7357706  50.6846828  74.9307558
 116.5902286  50.9987131  75.8231839 116.2582909  51.3031729  74.3778456
 118.5954089  47.6749376  74.9788447 118.5815657  46.7790470  74.6420745
 119.3126517  47.6820040  75.6126733 120.4480219  48.1086716  77.0241575
 120.1897997  49.0303787  77.0225905 119.9165260  47.7117151  77.7142039
 111.2103368  53.2252173  77.8695219 110.6656836  54.0011981  78.0015493
 112.0882718  53.5722977  77.7114340 117.9990985  46.5563757  70.2476017
 118.1206896  45.6280403  70.4466905 117.7093027  46.5702442  69.3354333
 120.8682175  44.2418667  73.3842737 120.8903872  44.3058000  72.4294717
 121.2850234  43.4023176  73.5783243 111.9969390  52.3522069  80.7625376
 111.2551126  52.5004704  81.3490006 111.6762134  52.6130335  79.8992125
 119.9413052  61.8938047  80.5605766 120.2500179  61.6487194  81.4328465
 120.7388534  62.0984686  80.0724636 119.9633664  64.0475957  72.7911142
 119.5238655  63.5552335  73.4843999 120.7141781  63.5048924  72.5503217
 112.4426003  60.2387498  72.7935770 113.2684023  59.9391269  72.4134414
 112.0920055  59.4695120  73.2425559 117.4107537  59.5913966  74.8633444
 116.7887546  58.9284671  74.5635672 118.0812404  59.6175098  74.1807092
 110.6434609  58.1573824  73.7524704 109.8066517  57.7295998  73.5708705
 110.6158254  58.3506267  74.6895495 117.4832064  48.0695754  84.4565950
 117.5320220  48.9457877  84.0743719 118.0254578  47.5273147  83.8837593
 116.9721044  58.1417889  68.3391904 117.1209164  58.8253354  67.6858577
 117.7787487  58.1222979  68.8541360 119.7131353  48.8227126  81.2112309
 118.8434662  49.1160692  80.9394897 119.9490833  49.4067571  81.9319572
 114.7273677  54.1683067  69.3452973 114.4819718  53.2645397  69.5433183
 114.8969591  54.1700217  68.4032451 113.9969324  49.9011424  66.8439135
 113.3038569  49.9755779  66.1879171 113.7521076  49.1371768  67.3660652
 120.4716449  60.6366020  65.8103652 119.8990416  61.2556207  65.3574124
 121.0449243  61.1865381  66.3443574 119.0406165  49.8976809  63.0874590
 118.1337620  49.6009921  63.1637303 119.3182146  49.6006627  62.2208876
 109.9584105  51.2183172  73.5373636 109.6386889  50.3648480  73.2448010
 109.4117533  51.4331750  74.2931603 113.7364013  53.9345613  77.2543142
 113.9550022  54.8662721  77.2731176 114.1489786  53.5753588  78.0397946
 120.6568230  44.4413698  69.2418831 119.8468959  44.0960783  69.6174077
 121.3452647  44.1321242  69.8306442 118.6091878  49.5078819  86.6445891
 118.5088605  50.4573176  86.5757982 118.3913420  49.1797058  85.7721961
 117.8104949  46.7563744  63.2286569 118.6724113  47.0818642  63.4882386
 117.9955294  45.9695240  62.7159635 109.8272365  54.8386084  75.5066758
 109.1335837  54.4240036  74.9936712 110.5745356  54.8806620  74.9100176
 118.4723148  52.9375958  85.4610953 117.9890230  53.7376318  85.6674842
 118.5584087  52.9483903  84.5078397 111.7409108  54.7704337  73.3832772
 111.7179796  54.8692025  72.4314655 112.0509744  55.6169488  73.7049939
 114.3996486  56.8280492  77.4979387 115.3539739  56.7964435  77.4309318
 114.2009009  56.3671116  78.3129613 114.9895868  55.3981609  80.0650184
 115.8088757  55.8925687  80.0885022 115.2632675  54.4813577  80.0367752
 112.7546714  62.3700112  74.5149585 112.6201182  61.6100513  73.9487583
 112.3378777  63.0941012  74.0478374 115.9115840  63.2669429  74.7268027
 115.7948224  64.2114861  74.6246718 115.0908286  62.9642991  75.1153827
 110.2430782  49.7319742  80.7642382 110.8889645  49.2218696  81.2529607
 110.0347933  50.4688424  81.3385807 118.7634392  43.9959787  66.5166278
 118.7513062  44.9401627  66.6734549 119.6557814  43.8129932  66.2225739
 116.9370354  63.9197691  77.9423956 117.8397601  63.9521301  78.2590451
 116.7107724  62.9898142  77.9570292 118.6923956  62.6728677  74.6034034
 117.7419587  62.6730539  74.4898407 118.9956442  61.9261412  74.0870069
 114.5828273  46.8787359  84.8617396 115.4459734  46.5224164  85.0720720
 114.0093684  46.5401254  85.5492800 118.6546750  69.0781499  73.3798987
 119.3417790  68.7643229  72.7920002 118.4994879  69.9822864  73.1066238
 118.2314727  67.1582093  75.6516454 118.2698826  66.6245683  76.4453572
 117.7255019  66.6317298  75.0327431 121.4828363  73.4865742  73.7524704
 120.6460271  73.0587916  73.5708705 121.4552008  73.6798185  74.6895495
 120.7977860  66.5475090  73.5373636 120.4780644  65.6940398  73.2448010
 120.2511288  66.7623668  74.2931603 120.6666120  70.1678001  75.5066758
 119.9729591  69.7531954  74.9936712 121.4139111  70.2098538  74.9100176
  95.8622803   9.8680713  57.1972779  95.7846833  10.8188538  57.2761260
  95.2584446   9.5226585  57.8547705  93.5009633  12.6166107  61.3420981
  93.7406231  13.2484631  62.0200000  92.6578829  12.2654147  61.6286340
  93.9754465   8.6414109  58.6719760  93.3064840   9.1260237  58.1883800
  93.8367335   8.8883330  59.5863138  98.1159733  10.6757853  65.2702418
  98.6678041  10.8389474  66.0351503  98.4565927  11.2662291  64.5982443
  91.0759207   8.7178399  61.2394891  90.9413675   7.9578800  60.6732889
  90.6591269   9.4419299  60.7723680  94.2328332   9.6147716  61.4513334
  94.1160717  10.5593149  61.3492024  93.4120779   9.3121278  61.8399133
  95.2582847  10.2675978  64.6669262  96.1610093  10.2999588  64.9835757
  95.0320217   9.3376429  64.6815598 109.5578848  14.8094931  62.3286628
 109.2197360  14.6935996  61.4407163 110.4268617  14.4086096  62.3087634
 105.4165664  16.6630408  58.3183519 104.8530529  16.5720345  57.5499807
 105.3018059  15.8430312  58.7986012 110.0398631  15.9629783  68.2872834
 110.0287272  15.5682581  67.4153337 110.2019271  15.2295856  68.8806605
 102.9630096  18.1581599  61.1567740 103.7551388  17.8172424  60.7414039
 103.2026746  18.2676574  62.0769893 110.9965223  20.3301375  53.6297984
 110.3453203  20.9155456  53.2431998 111.7909586  20.8607570  53.6893021
 104.9220850  17.4190512  54.0285118 105.6951726  16.8719500  53.8897994
 105.2746249  18.2834762  54.2399580 106.7605893  18.7466895  67.2352018
 106.4695758  19.6512526  67.1198684 107.3962877  18.7883422  67.9496087
 107.6862099  16.1243743  63.8253377 108.2825672  15.8999766  63.1110340
 107.7437071  15.3828489  64.4278825 112.4740488  18.0191807  54.1666968
 111.8386321  18.0926434  54.8787873 112.1437894  18.6085406  53.4886048
 106.9783416  15.4811285  53.8627943 106.8619675  14.8056188  54.5309027
 107.0885676  14.9943658  53.0460096 109.3214957  14.9421432  57.5674632
 108.9573165  14.4152053  58.2787554 110.1782073  14.5519901  57.3941118
 111.7195778  18.4328310  64.2301811 111.4196501  19.3353349  64.1217619
 111.3746837  18.1660493  65.0822964 105.1708259  14.8842107  60.2638516
 104.2458756  14.7518321  60.4716207 105.4192672  15.6636326  60.7608458
 102.5317070  14.5275381  61.0982305 102.6609451  14.7809860  62.0121716
 101.8514521  15.1203089  60.7786960 106.7016557  25.1972631  57.1972779
 106.6240587  26.1480456  57.2761260 106.0978201  24.8518503  57.8547705
 107.4480159  15.1785949  69.4152113 108.1894844  15.7170993  69.1386937
 106.7417145  15.8052238  69.5723665 112.9235499  17.3215090  68.0124274
 113.3318855  16.8797500  67.2678907 112.2012761  16.7467717  68.2658467
 113.2464314  17.8816280  61.7676563 112.6173176  18.0461995  61.0652631
 112.8589976  18.2957890  62.5387527 117.1253546  18.8170718  59.1220927
 116.4404584  19.1969620  58.5717960 117.2097395  19.4266045  59.8552875
 114.3804477  16.4630677  65.7216271 114.5921372  17.1062437  65.0450652
 114.3334225  15.6292994  65.2538201 108.7992276  17.6190689  59.0326648
 109.2630621  17.8978392  58.2431271 108.5349074  16.7174133  58.8499739
 105.6916357  17.1662170  61.9706412 106.2617714  17.5949438  61.3323896
 106.2824469  16.8844755  62.6690597 101.4786496  11.9997394  61.1433347
 100.6885550  12.2554922  60.6673458 101.9697743  12.8145731  61.2485388
 115.4950305  19.3402633  63.8938628 116.3167749  18.9382820  63.6121310
 115.4912708  19.2370867  64.8454744 103.4301241  12.3641973  58.1016824
 102.6332404  12.4760667  58.6200319 103.2026833  12.7028625  57.2357714
 109.2606909  18.8886676  66.0499338 109.3251341  19.3507083  66.8857510
 108.5517833  18.2584041  66.1781648  99.7624199  12.2527884  63.5748338
 100.0132237  13.1374894  63.8405914 100.2983747  12.0732486  62.8023430
 108.9754926  20.5554784  55.9178319 108.8400601  21.4006319  56.3463167
 109.5164739  20.7574061  55.1544253 102.4284324  18.0730222  56.4906244
 102.9408844  18.8673472  56.6411808 103.0807037  17.3756512  56.4239845
 104.2379208  21.1895978  58.5728997 104.4145837  22.1113943  58.3849981
 105.0336042  20.8754397  59.0023377 103.5231565  13.2360610  68.4491160
 103.4085080  12.3345867  68.7498259 102.6676083  13.4824306  68.0975977
 110.6023403  21.1778350  70.0478661 110.1587257  20.3914729  69.7299565
 111.2640616  21.3657501  69.3822552 105.3610524  22.7074152  64.5739339
 105.9117949  22.5791215  63.8016333 104.5222000  23.0069041  64.2234232
 112.7004641  21.4581150  68.0760062 112.6823116  22.2790031  67.5840331
 113.6224561  21.3335225  68.3010203 109.1577695  18.9725279  68.9183570
 109.6906032  18.2113568  68.6882878 108.6291776  18.6798931  69.6607725
 100.3933240  16.4018876  57.2665814 101.2308462  16.8115884  57.0499522
 100.5711508  15.4618318  57.2366008 110.5230408  18.1011272  56.4302382
 109.9951769  17.3664031  56.1175620 110.0217910  18.8785948  56.1842351
 115.5023254  16.2960292  61.5469429 114.8446928  16.9859554  61.6349557
 116.3063653  16.6856724  61.8903415 108.6683008  15.9191482  49.4337355
 107.7610070  15.6880736  49.6328504 109.1654040  15.1229101  49.6211337
 111.5751087  24.6288989  52.3534042 110.9012785  24.9320686  52.9618999
 111.9616909  25.4318070  52.0039499 109.8471241  16.0204077  53.9561346
 108.9382460  15.7363110  54.0533815 109.8766325  16.4403156  53.0964652
 115.0790509  19.6310667  57.7252513 114.6252836  18.7901576  57.7817704
 114.4484475  20.2672065  58.0627293 113.5223448  21.4687163  58.6602331
 113.8146422  22.0292220  57.9414697 114.0322068  21.7615724  59.4155490
 100.4159412  13.7409591  57.9376548 100.2183811  13.1478952  57.2127614
  99.8606076  13.4361801  58.6552487 109.5447329  17.5612821  51.2949424
 109.1066759  16.8448680  50.8355061 110.2857770  17.7888936  50.7334516
 108.4857073  22.2467514  59.7495784 108.4433252  22.4728361  58.8204316
 109.4019772  22.0130889  59.8981586 117.6889823  17.9046545  62.3637014
 118.1226330  17.8121834  63.2120068 118.4021404  17.8804045  61.7257030
 106.6022874  19.1230543  59.5457747 107.3963472  18.6280863  59.3440322
 105.8914566  18.5948406  59.1825453 111.4217718  21.5048639  63.8970115
 111.4754741  22.0739575  64.6647831 110.5532500  21.6750524  63.5324152
 102.9105637  13.2673625  55.6217500 101.9803225  13.2058081  55.8387462
 103.0063109  12.7449578  54.8254141 118.5505373  17.9470245  64.8969900
 118.7441263  18.8516056  65.1429175 118.4505991  17.4877664  65.7308485
 113.6120482  18.0976988  70.4710780 113.4605988  17.8687540  69.5540864
 113.6025161  19.0547590  70.4842125 110.3805818  15.6708901  65.4557047
 111.3097878  15.8220061  65.2826014 109.9596848  15.7592922  64.6005693
 109.1794150  19.6959565  63.2255584 109.0405236  19.3278350  64.0981522
 108.3908746  20.2107205  63.0539542 109.7742302  24.7968662  54.5681121
 109.9494058  24.3256705  55.3826744 109.0875090  25.4234428  54.7962382
 110.7299365  19.0741168  60.6144422 110.3949198  19.0341938  61.5102072
 110.2303311  18.4085884  60.1414832 104.7043609  14.4808798  66.1397003
 104.5663407  13.7489037  66.7408542 105.6148532  14.3917698  65.8581191
 113.6658557  16.4197202  50.8881482 113.0487727  15.6944031  50.7914534
 113.1975045  17.1806563  50.5448556 107.3325910  14.1928757  65.6280683
 108.0425528  13.5521950  65.5867301 107.2895218  14.4441652  66.5506864
 115.3212688  21.1296111  68.5487262 115.2625234  20.4455331  67.8817845
 115.7232207  21.8715101  68.0967888 104.3403387  27.9458025  61.3420981
 104.5799985  28.5776549  62.0200000 103.4972584  27.5946065  61.6286340
 115.3230096  19.0935695  66.7801242 114.4356874  18.7561616  66.9027641
 115.8928647  18.3618726  67.0170007  96.9759243  15.4259786  60.1044293
  97.6630283  15.1121516  59.5165308  96.8207371  16.3301151  59.8311545
 108.8531249  23.7537147  63.7462485 108.7801420  24.5592119  64.2581790
 108.4108642  23.9529113  62.9210506 108.6421029  22.9908917  57.2565307
 107.8588550  23.5330597  57.3503531 109.3413774  23.5082897  57.6559548
 111.3129932  23.6523981  65.9020644 112.0257905  24.2871446  65.8296545
 110.8219961  23.7487847  65.0860645 113.0347459  17.5575234  57.4737935
 112.1003738  17.6776696  57.3042640 113.2124128  16.6547700  57.2097945
 106.3641846  21.4018425  66.7226214 107.0651306  22.0354907  66.8755609
 105.8936961  21.7433156  65.9621854 114.4896242  19.7436374  55.0074121
 114.7656086  19.6292969  55.9167996 113.6200741  19.3453859  54.9686295
 111.1250306  23.9922725  58.6506935 111.3072700  23.1744381  59.1134687
 111.9483292  24.2090417  58.2131825 111.4592471  22.9190910  55.9121984
 111.9880238  22.4083365  55.2992146 111.7220691  22.6033440  56.7767517
 110.2130705  14.6982843  71.0344802 109.5371342  14.5976972  71.7047177
 111.0358339  14.5422057  71.4980799 101.9609564  20.9354780  63.6557317
 102.5463001  20.1898467  63.7885221 101.7634403  21.2458736  64.5393981
 104.8148219  23.9706027  58.6719760 104.1458595  24.4552155  58.1883800
 104.6761089  24.2175247  59.5863138  96.5527219  13.5060380  62.3761760
  96.5911318  12.9723970  63.1698878  96.0467512  12.9795585  61.7572737
 108.9553488  26.0049770  65.2702418 109.5071796  26.1681392  66.0351503
 109.2959681  26.5954208  64.5982443 113.8064362  20.8311028  71.1251072
 114.3504266  21.4440986  70.6306027 113.2251207  21.3890606  71.6418085
 100.1835796  12.2324482  55.4515692 100.4789237  11.3235160  55.3982745
  99.2823832  12.2112221  55.1296694 112.0921875  23.9531746  62.2566100
 111.9673015  23.1521486  61.7477046 112.7500966  24.4477939  61.7680070
 114.1556784  21.7540766  63.8845650 113.2087119  21.6346117  63.8123977
 114.5039557  20.8663264  63.9671912 111.1603217  21.5493482  60.0850002
 111.0128179  20.6210190  60.2657572 111.9856710  21.5713573  59.6007078
 114.7637339  22.3722041  61.1714875 115.6883886  22.1664902  61.0339326
 114.5952642  22.1238442  62.0804217 114.5532655  22.8907708  56.5276967
 114.7269532  22.3254131  55.7750819 115.0461546  23.6908603  56.3456457
 100.3709615  14.9022378  64.5940525  99.8263083  15.6782186  64.7260800
 101.2488965  15.2493182  64.4359647 115.5407827  22.2074473  53.6273865
 116.2358732  22.8281166  53.8461179 115.8830978  21.3569824  53.9026243
 101.1575637  14.0292274  67.4870682 100.4157373  14.1774909  68.0735313
 100.8368381  14.2900539  66.6237432 117.4399251  19.6574178  55.1561196
 117.9650575  19.9961451  54.4310516 117.3521603  18.7221194  54.9724330
 109.1019299  23.5708252  67.2851072 109.4106426  23.3257399  68.1573772
 109.8994781  23.7754891  66.7969942 109.1239911  25.7246162  59.5156449
 108.6844902  25.2322540  60.2089306 109.8748028  25.1819129  59.2748524
 101.6032250  21.9157703  59.5181077 102.4290270  21.6161474  59.1379720
 101.2526302  21.1465325  59.9670866 106.5713783  21.2684171  61.5878750
 105.9493793  20.6054876  61.2880978 107.2418650  21.2945303  60.9052398
  99.8040855  19.8344029  60.4770010  98.9672764  19.4066203  60.2954012
  99.7764501  20.0276472  61.4140802 117.1293157  20.2907082  70.4612394
 116.3388700  20.2731221  69.9216893 116.8926511  20.8295376  71.2161430
 106.1327290  19.8188094  55.0637211 106.2815411  20.5023558  54.4103884
 106.9393734  19.7993184  55.5786667 118.7509228  19.5596490  68.0187144
 118.4594037  19.9226470  68.8550605 118.1381360  18.8463498  67.8400476
 103.8879923  15.8453272  56.0698280 103.6425965  14.9415602  56.2678490
 104.0575838  15.8470422  55.1277758 109.6322696  22.3136225  52.5348958
 109.0596663  22.9326412  52.0819430 110.2055490  22.8635586  53.0688880
 112.8519956  22.5973375  53.6657541 113.7850629  22.5318936  53.8690416
 112.7643168  23.4329642  53.2072073 115.4807972  21.9139245  50.6261488
 115.4021604  21.5799109  51.5197246 116.3017639  22.4061013  50.6252961
 109.9008187  17.7014783  71.3365668 110.8211196  17.8793382  71.5305714
 109.8657770  16.7570829  71.1845367  99.1190352  12.8953377  60.2618943
  98.7993136  12.0418685  59.9693317  98.5723780  13.1101955  61.0176910
 102.8970259  15.6115818  63.9788449 103.1156269  16.5432926  63.9976483
 103.3096033  15.2523793  64.7643253  98.9878612  16.5156289  62.2312064
  98.2942083  16.1010241  61.7182019  99.7351603  16.5576825  61.6345483
 107.6329395  14.6146163  72.1856260 107.1496476  15.4146523  72.3920149
 107.7190334  14.6254108  71.2323704 100.9015354  16.4474542  60.1078079
 100.8786043  16.5462230  59.1559962 101.2115991  17.2939693  60.4295245
 103.5602732  18.5050697  64.2224693 104.5145986  18.4734640  64.1554625
 103.3615256  18.0441321  65.0374919 104.1502114  17.0751813  66.7895491
 104.9695003  17.5695892  66.8130328 104.4238922  16.1583782  66.7613059
 101.9152961  24.0470317  61.2394891 101.7807429  23.2870718  60.6732889
 101.4985023  24.7711217  60.7723680 113.0511924  19.2307240  50.2471467
 113.7547774  19.4357243  50.8629122 112.3274573  19.7984002  50.5120550
 105.0722087  24.9439634  61.4513334 104.9554471  25.8885066  61.3492024
 104.2514533  24.6413195  61.8399133 114.9598621  19.6689770  52.2969927
 115.7944225  19.2370968  52.1147401 114.7982964  19.4971783  53.2246821
 114.6144514  16.1721883  53.6626266 114.5593317  16.0066154  52.7214710
 113.9890569  16.8797916  53.8188456  99.4037029  11.4089947  67.4887688
 100.0495892  10.8988901  67.9774913  99.1954180  12.1458629  68.0631113
 111.9290421  18.4770795  72.9879829 112.7981580  18.6511447  72.6266464
 111.4497172  19.2965212  72.8655558 106.0976601  25.5967896  64.6669262
 107.0003848  25.6291506  64.9835757 105.8713971  24.6668347  64.6815598
 107.8530203  24.3498882  61.3279341 106.9025834  24.3500744  61.2143713
 108.1562689  23.6031617  60.8115376 120.3972603  30.1386849  62.3286628
 120.0591114  30.0227914  61.4407163 121.2662371  29.7378014  62.3087634
 116.2559419  31.9922325  58.3183519 115.6924284  31.9012262  57.5499807
 116.1411814  31.1722230  58.7986012 120.8792386  31.2921701  68.2872834
 120.8681027  30.8974499  67.4153337 121.0413025  30.5587773  68.8806605
 113.8023850  33.4873517  61.1567740 114.5945142  33.1464341  60.7414039
 114.0420501  33.5968492  62.0769893 115.7614604  32.7482430  54.0285118
 116.5345480  32.2011417  53.8897994 116.1140003  33.6126679  54.2399580
 117.5999647  34.0758812  67.2352018 117.3089513  34.9804443  67.1198684
 118.2356631  34.1175340  67.9496087 118.5255854  31.4535661  63.8253377
 119.1219426  31.2291683  63.1110340 118.5830825  30.7120406  64.4278825
 118.0980882  28.9075096  51.6603568 118.3506403  28.3856617  50.8987031
 117.1605441  28.7441242  51.7630252 117.8177171  30.8103202  53.8627943
 117.7013429  30.1348106  54.5309027 117.9279431  30.3235576  53.0460096
 120.1608712  30.2713349  57.5674632 119.7966919  29.7443970  58.2787554
 121.0175828  29.8811818  57.3941118 119.8014199  25.3003249  52.5635981
 119.9688601  26.1683485  52.9306452 119.6111368  25.4630531  51.6397270
 116.0102014  30.2134025  60.2638516 115.0852510  30.0810239  60.4716207
 116.2586427  30.9928244  60.7608458 119.7803420  27.7560906  53.5482648
 119.6603045  28.2017957  54.3868128 119.0856008  28.1046224  52.9896186
 113.3710825  29.8567298  61.0982305 113.5003206  30.1101777  62.0121716
 112.6908276  30.4495006  60.7786960 117.5410312  40.5264548  57.1972779
 117.4634342  41.4772373  57.2761260 116.9371955  40.1810421  57.8547705
 120.0327542  27.6992414  69.8534146 119.2560876  28.2586334  69.8437011
 120.6718105  28.1849197  70.3749016 118.2873914  30.5077867  69.4152113
 119.0288598  31.0462911  69.1386937 117.5810899  31.1344156  69.5723665
 120.1160324  27.5879614  65.3857831 120.9621519  28.0119028  65.5292480
 120.0558961  26.9313239  66.0796394 119.6386030  32.9482606  59.0326648
 120.1024376  33.2270309  58.2431271 119.3742828  32.0466051  58.8499739
 116.5310111  32.4954088  61.9706412 117.1011468  32.9241356  61.3323896
 117.1218223  32.2136672  62.6690597 118.5754916  29.0705759  55.8416213
 119.2778960  29.5226802  56.3090140 118.2435545  28.4289577  56.4696107
 117.0235278  27.6617515  70.2167423 116.3933938  28.3433796  70.4502820
 116.9171366  27.5500597  69.2720561 112.3180250  27.3289311  61.1433347
 111.5279304  27.5846840  60.6673458 112.8091497  28.1437649  61.2485388
 114.2694996  27.6933890  58.1016824 113.4726159  27.8052585  58.6200319
 114.0420588  28.0320543  57.2357714 120.1000663  34.2178594  66.0499338
 120.1645096  34.6799001  66.8857510 119.3911587  33.5875959  66.1781648
 110.6017953  27.5819802  63.5748338 110.8525992  28.4666812  63.8405914
 111.1377502  27.4024403  62.8023430 119.8148681  35.8846701  55.9178319
 119.6794356  36.7298237  56.3463167 120.3558493  36.0865979  55.1544253
 116.3016020  21.9638281  72.5792674 115.9082966  21.4104480  73.2540318
 117.1182161  22.2748860  72.9699191 113.2678078  33.4022139  56.4906244
 113.7802599  34.1965389  56.6411808 113.9200791  32.7048430  56.4239845
 115.0772963  36.5187896  58.5728997 115.2539591  37.4405860  58.3849981
 115.8729796  36.2046315  59.0023377 119.2183981  23.3796160  70.1712930
 119.9593695  23.9803313  70.0917393 119.4501904  22.6373798  69.6130973
 114.3625319  28.5652527  68.4491160 114.2478835  27.6637785  68.7498259
 113.5069837  28.8116224  68.0975977 116.2004278  38.0366069  64.5739339
 116.7511703  37.9083133  63.8016333 115.3615754  38.3360958  64.2234232
 119.9971449  34.3017197  68.9183570 120.5299786  33.5405485  68.6882878
 119.4685530  34.0090849  69.6607725 111.2326995  31.7310794  57.2665814
 112.0702217  32.1407802  57.0499522 111.4105263  30.7910236  57.2366008
 120.7138538  24.2435575  58.0134886 119.8580134  23.8542425  57.8340524
 121.1265490  24.3227536  57.1534671 118.4880571  21.8620648  61.4192627
 119.3533567  21.6663457  61.0598517 118.5558080  21.6331000  62.3461984
 121.3624162  33.4303190  56.4302382 120.8345524  32.6955949  56.1175620
 120.8611665  34.2077866  56.1842351 116.0942890  24.0922856  58.7908994
 116.6686642  23.8698037  58.0582187 116.6813872  24.1611550  59.5437595
 116.4212477  26.1227317  52.8104879 115.5849789  26.4602003  53.1314154
 116.2817246  25.9876297  51.8732016 118.3965557  20.9664105  57.5184063
 117.7429970  20.6513122  56.8940678 118.3546032  20.3439845  58.2443886
 119.5076762  31.2483400  49.4337355 118.6003824  31.0172653  49.6328504
 120.0047794  30.4521019  49.6211337 120.6864996  31.3495995  53.9561346
 119.7776215  31.0655028  54.0533815 120.7160080  31.7695073  53.0964652
 111.2553166  29.0701509  57.9376548 111.0577566  28.4770870  57.2127614
 110.6999830  28.7653719  58.6552487 119.2349890  28.9624615  60.0571141
 119.2898500  28.0098452  59.9813618 118.4241092  29.1184054  60.5412439
 120.3841084  32.8904738  51.2949424 119.9460513  32.1740597  50.8355061
 121.1251524  33.1180853  50.7334516 117.1742250  27.5801675  57.8161520
 116.3610115  27.8795846  58.2226712 117.6701244  27.1857364  58.5336002
 119.3250828  37.5759432  59.7495784 119.2827006  37.8020278  58.8204316
 120.2413526  37.3422807  59.8981586 116.6656324  25.1520031  63.4322755
 117.3055704  25.0108790  62.7345718 115.8333855  24.8654544  63.0561357
 117.4416628  34.4522461  59.5457747 118.2357227  33.9572781  59.3440322
 116.7308321  33.9240324  59.1825453 113.7499392  28.5965543  55.6217500
 112.8196980  28.5349998  55.8387462 113.8456864  28.0741496  54.8254141
 113.6684941  25.1220356  58.2095742 113.9291758  26.0365689  58.1004902
 114.4902113  24.6544798  58.3592354 115.1409866  26.5358113  65.3794566
 115.8132920  26.3275475  64.7307215 114.3139653  26.3380199  64.9399798
 120.0187904  35.0251483  63.2255584 119.8798990  34.6570267  64.0981522
 119.2302501  35.5399122  63.0539542 120.6136056  40.1260579  54.5681121
 120.7887812  39.6548623  55.3826744 119.9268844  40.7526346  54.7962382
 121.5693119  34.4033086  60.6144422 121.2342952  34.3633856  61.5102072
 121.0697065  33.7377802  60.1414832 115.5437363  29.8100716  66.1397003
 115.4057161  29.0780955  66.7408542 116.4542287  29.7209616  65.8581191
 118.1719664  29.5220675  65.6280683 118.8819283  28.8813867  65.5867301
 118.1288972  29.7733570  66.5506864 116.8848598  26.5085893  67.4476322
 116.3485955  26.0576631  68.0997919 116.2965307  26.6431802  66.7046787
 115.1797142  43.2749942  61.3420981 115.4193740  43.9068466  62.0200000
 114.3366338  42.9237982  61.6286340 116.2950857  25.9674544  50.0102786
 115.4180323  25.8463345  49.6465033 116.7708610  25.1760623  49.7581675
 107.8152997  30.7551704  60.1044293 108.5024037  30.4413434  59.5165308
 107.6601126  31.6593069  59.8311545 112.6187719  25.6441901  64.5329317
 112.5345908  25.0367570  63.7979727 111.7970426  26.1350919  64.5338813
 119.6925003  39.0829065  63.7462485 119.6195175  39.8884036  64.2581790
 119.2502397  39.2821030  62.9210506 119.4814783  38.3200835  57.2565307
 118.6982305  38.8622515  57.3503531 120.1807528  38.8374814  57.6559548
 119.3746402  26.2712847  59.6271197 119.0044189  25.7183888  60.3152102
 119.8705494  25.6670981  59.0746197 117.2035601  36.7310342  66.7226214
 117.9045060  37.3646825  66.8755609 116.7330715  37.0725074  65.9621854
 112.8003319  36.2646697  63.6557317 113.3856755  35.5190385  63.7885221
 112.6028157  36.5750654  64.5393981 107.3920973  28.8352297  62.3761760
 107.4305073  28.3015888  63.1698878 106.8861266  28.3087503  61.7572737
 119.7947242  41.3341688  65.2702418 120.3465550  41.4973310  66.0351503
 120.1353436  41.9246126  64.5982443 114.7711736  23.6816838  65.8724303
 114.8353062  24.5431669  65.4601700 114.7078856  23.0690840  65.1396661
 114.2464008  25.7539970  69.5197337 114.8736047  25.3717048  70.1334861
 113.3891927  25.5354172  69.8853029 111.0229551  27.5616400  55.4515692
 111.3182992  26.6527078  55.3982745 110.1217587  27.5404139  55.1296694
 114.5523798  25.6372396  61.4343240 113.8310384  26.2508364  61.2950714
 115.3417054  26.1730161  61.3559886 117.3550111  22.9726823  67.7083892
 117.8784513  23.2189119  68.4710201 117.1362445  23.8046857  67.2887029
 112.7517392  25.2430497  55.5755017 112.4230099  24.3627876  55.3930123
 113.1056763  25.1878166  56.4631406 115.8659216  25.5303467  55.9430495
 116.2055288  26.0589388  55.2209103 116.3131336  25.8683873  56.7189061
 118.5602656  23.9140518  65.3933563 118.2199477  23.1148331  65.7954242
 117.8541663  24.2142229  64.8210396 119.2119128  20.9989830  63.8460886
 120.0345198  20.5250308  63.7239776 119.4557192  21.7780314  64.3459572
 117.8527363  24.0278089  54.1423787 118.5735725  24.4059341  53.6387504
 117.2292667  24.7466965  54.2458765 116.7357707  27.6908951  61.6552864
 116.5902288  28.0049254  62.5477146 116.2582911  28.3093851  61.1023763
 118.5954090  24.6811499  61.7033754 118.5815659  23.7852592  61.3666052
 119.3126518  24.6882163  62.3372040 120.4480221  25.1148839  63.7486881
 120.1897998  26.0365910  63.7471212 119.9165261  24.7179274  64.4387345
 111.2103369  30.2314295  64.5940525 110.6656837  31.0074103  64.7260800
 112.0882719  30.5785100  64.4359647 117.9990986  23.5625879  56.9721324
 118.1206897  22.6342525  57.1712211 117.7093028  23.5764565  56.0599639
 120.8682176  21.2480790  60.1088044 120.8903873  21.3120123  59.1540023
 121.2850235  20.4085298  60.3028550 111.9969391  29.3584191  67.4870682
 111.2551127  29.5066827  68.0735313 111.6762135  29.6192457  66.6237432
 119.9413054  38.9000170  67.2851072 120.2500180  38.6549316  68.1573772
 120.7388536  39.1046808  66.7969942 119.9633666  41.0538079  59.5156449
 119.5238656  40.5614458  60.2089306 120.7141783  40.5111047  59.2748524
 112.4426005  37.2449620  59.5181077 113.2684025  36.9453392  59.1379720
 112.0920057  36.4757243  59.9670866 117.4107538  36.5976088  61.5878750
 116.7887547  35.9346793  61.2880978 118.0812405  36.6237220  60.9052398
 110.6434610  35.1635947  60.4770010 109.8066518  34.7358121  60.2954012
 110.6158255  35.3568390  61.4140802 117.4832065  25.0757876  71.1811257
 117.5320221  25.9519999  70.7989026 118.0254580  24.5335270  70.6082900
 116.9721045  35.1480012  55.0637211 117.1209165  35.8315476  54.4103884
 117.7787488  35.1285102  55.5786667 119.7131354  25.8289249  67.9357615
 118.8434663  26.1222815  67.6640204 119.9490834  26.4129694  68.6564879
 114.7273678  31.1745189  56.0698280 114.4819720  30.2707519  56.2678490
 114.8969592  31.1762340  55.1277758 113.9969325  26.9073547  53.5684441
 113.3038570  26.9817902  52.9124477 113.7521077  26.1433891  54.0905958
 120.4716450  37.6428142  52.5348958 119.8990417  38.2618329  52.0819430
 121.0449244  38.1927504  53.0688880 119.0406166  26.9038931  49.8119896
 118.1337621  26.6072044  49.8882610 119.3182147  26.6068749  48.9454182
 109.9584106  28.2245295  60.2618943 109.6386891  27.3710603  59.9693317
 109.4117535  28.4393873  61.0176910 113.7364014  30.9407736  63.9788449
 113.9550024  31.8724844  63.9976483 114.1489788  30.5815710  64.7643253
 120.6568232  21.4475821  55.9664137 119.8468960  21.1022906  56.3419384
 121.3452649  21.1383365  56.5551749 118.6091879  26.5140942  73.3691198
 118.5088606  27.4635298  73.3003289 118.3913421  26.1859180  72.4967268
 117.8104951  23.7625867  49.9531875 118.6724115  24.0880765  50.2127693
 117.9955295  22.9757362  49.4404941 109.8272366  31.8448206  62.2312064
 109.1335838  31.4302159  61.7182019 110.5745357  31.8868743  61.6345483
 118.4723149  29.9438080  72.1856260 117.9890231  30.7438440  72.3920149
 118.5584088  29.9546025  71.2323704 111.7409109  31.7766460  60.1078079
 111.7179797  31.8754147  59.1559962 112.0509745  32.6231611  60.4295245
 114.3996487  33.8342615  64.2224693 115.3539740  33.8026557  64.1554625
 114.2009010  33.3733239  65.0374919 114.9895869  32.4043731  66.7895491
 115.8088758  32.8987810  66.8130328 115.2632677  31.4875699  66.7613059
 112.7546716  39.3762235  61.2394891 112.6201183  38.6162635  60.6732889
 112.3378778  40.1003134  60.7723680 115.9115841  40.2731552  61.4513334
 115.7948226  41.2176984  61.3492024 115.0908288  39.9705113  61.8399133
 110.2430783  26.7381865  67.4887688 110.8889647  26.2280819  67.9774913
 110.0347934  27.4750547  68.0631113 118.7634394  21.0021910  53.2411584
 118.7513063  21.9463750  53.3979855 119.6557815  20.8192055  52.9471046
 116.9370356  40.9259813  64.6669262 117.8397602  40.9583424  64.9835757
 116.7107726  39.9960264  64.6815598 118.6923958  39.6790800  61.3279341
 117.7419589  39.6792662  61.2143713 118.9956444  38.9323535  60.8115376
 114.5828274  23.8849482  71.5862702 115.4459736  23.5286287  71.7966027
 114.0093685  23.5463377  72.2738107 118.6546752  46.0843622  60.1044293
 119.3417792  45.7705352  59.5165308 118.4994880  46.9884986  59.8311545
 118.2314728  44.1644215  62.3761760 118.2698827  43.6307806  63.1698878
 117.7255021  43.6379421  61.7572737 121.4828364  50.4927864  60.4770010
 120.6460273  50.0650039  60.2954012 121.4552010  50.6860308  61.4140802
 120.7977861  43.5537212  60.2618943 120.4780645  42.7002521  59.9693317
 120.2511289  43.7685791  61.0176910 120.6666121  47.1740124  62.2312064
 119.9729592  46.7594077  61.7182019 121.4139112  47.2160660  61.6345483
 117.5410313  17.5326671  43.9218086 117.4634343  18.4834496  44.0006566
 116.9371957  17.1872543  44.5793012 115.1797143  20.2812065  48.0666288
 115.4193741  20.9130589  48.7445306 114.3366339  19.9300105  48.3531647
 115.6541975  16.3060067  45.3965066 114.9852350  16.7906195  44.9129106
 115.5154845  16.5529288  46.3108445 119.7947244  18.3403811  51.9947725
 120.3465552  18.5035432  52.7596810 120.1353437  18.9308249  51.3227749
 112.7546717  16.3824357  47.9640198 112.6201185  15.6224758  47.3978196
 112.3378779  17.1065257  47.4968987 115.9115843  17.2793674  48.1758641
 115.7948227  18.2239107  48.0737331 115.0908289  16.9767236  48.5644440
 116.9370357  17.9321936  51.3914569 117.8397604  17.9645546  51.7081064
 116.7107727  17.0022387  51.4060905 118.6546753  23.0905744  46.8289600
 119.3417793  22.7767474  46.2410615 118.4994882  23.9947109  46.5556851
 118.2314729  21.1706338  49.1007067 118.2698829  20.6369928  49.8944185
 117.7255022  20.6441543  48.4818044 121.4828366  27.4989987  47.2015317
 120.6460274  27.0712161  47.0199318 121.4552011  27.6922430  48.1386108
 120.7977862  20.5599335  46.9864249 120.4780646  19.7064643  46.6938623
 120.2511290  20.7747913  47.7422217 120.6666122  24.1802247  48.9557371
 119.9729594  23.7656199  48.4427325 121.4139113  24.2222783  48.3590790
  24.8601044  62.9518788 118.7307505  24.1862743  63.2550485 119.3392463
  25.2466866  63.7547868 118.3812962  28.8257785  60.5304272 120.0047329
  29.5208690  61.1510964 120.2234643  29.1680935  59.6799623 120.2799706
  22.9172654  60.6366023 118.9122422  22.3446621  61.2556210 118.4592894
  23.4905447  61.1865385 119.4462344  26.1369913  60.9203173 120.0431004
  27.0700587  60.8548735 120.2463880  26.0493126  61.7559440 119.5845537
  28.7657930  60.2369044 117.0034952  28.6871562  59.9028907 117.8970710
  29.5867597  60.7290812 117.0026424  26.3361882  57.5537039 116.6244930
  27.0397732  57.7587042 117.2402586  25.6124531  58.1213801 116.8894014
  28.2448579  57.9919568 118.6743390  29.0794183  57.5600767 118.4920865
  28.0832922  57.8201582 119.6020285  36.8732854  68.5089219 128.7698567
  37.5111264  68.3895967 128.0661907  36.7553697  69.4570063 128.8286519
  29.5409376  70.3152124 124.6956983  28.9774241  70.2242061 123.9273271
  29.4261771  69.4952028 125.1759475  35.1208935  73.9823092 120.0071448
  34.4696915  74.5677172 119.6205461  35.9153298  74.5129287 120.0666485
  29.0464562  71.0712229 120.4058582  29.8195438  70.5241216 120.2671458
  29.3989961  71.9356478 120.6173043  31.3830840  67.2304895 118.0377032
  31.6356361  66.7086416 117.2760495  30.4455399  67.0671040 118.1403716
  36.4274123  66.2340673 125.8451775  37.2137212  65.8160096 125.4942192
  36.6912827  67.1386765 126.0133424  36.5984200  71.6713524 120.5440432
  35.9630033  71.7448150 121.2561337  36.2681607  72.2607122 119.8659511
  41.8282550  66.1715906 126.7484754  42.5607722  65.6015123 126.9822583
  41.0721906  65.7837507 127.1891259  31.1027129  69.1333001 120.2401407
  30.9863387  68.4577904 120.9082491  31.2129389  68.6465375 119.4233560
  33.4458670  68.5943148 123.9448096  33.0816877  68.0673769 124.6561018
  34.3025786  68.2041617 123.7714582  33.0864157  63.6233048 118.9409445
  33.2538559  64.4913284 119.3079916  32.8961326  63.7860329 118.0170734
  33.0653378  66.0790705 119.9256111  32.9453003  66.5247756 120.7641592
  32.3705966  66.4276023 119.3669650  30.8260270  78.8494347 123.5746243
  30.7484299  79.8002172 123.6534723  30.2221913  78.5040219 124.2321169
  38.7638444  66.5512178 120.7536446  39.6756300  66.7839565 120.5784143
  38.2548091  67.1349223 120.1911524  37.3708026  71.5337997 128.1450027
  36.7416888  71.6983711 127.4426095  36.9833688  71.9479606 128.9160991
  41.2497258  72.4692435 125.4994391  40.5648296  72.8491336 124.9491424
  41.3341107  73.0787761 126.2326339  32.9235988  71.2712405 125.4100112
  33.3874333  71.5500108 124.6204735  32.6592786  70.3695849 125.2273203
  31.8604874  67.3935557 122.2189677  32.5628917  67.8456601 122.6863604
  31.5285502  66.7519376 122.8469570  39.6194017  72.9924349 130.2712092
  40.4411461  72.5904536 129.9894773  39.6156420  72.8892583 131.2228207
  47.7100011  69.3363098 126.6197063  46.9563719  68.7670496 126.4641068
  47.8447552  69.3025762 127.5667698  33.0998639  74.2076500 122.2951782
  32.9644313  75.0528036 122.7236630  33.6408451  74.4095777 121.5317716
  26.5528036  71.7251938 122.8679708  27.0652557  72.5195188 123.0185272
  27.2050749  71.0278228 122.8013309  28.3622921  74.8417694 124.9502461
  28.5389549  75.7635659 124.7623445  29.1579754  74.5276113 125.3796840
  24.5176953  70.0540592 123.6439278  25.3552175  70.4637601 123.4272986
  24.6955220  69.1140034 123.6139472  36.4141385  67.7215673 119.3323111
  35.8988008  68.4920277 119.5711498  36.1418693  67.0480809 119.9556172
  33.9988496  62.5665374 124.3908349  33.1430092  62.1772224 124.2113988
  34.4115448  62.6457334 123.5308135  41.3875659  70.4748027 121.2676285
  40.6105102  70.1359187 120.8231447  42.0667140  70.4800651 120.5931250
  36.2027688  65.5942765 121.1582892  35.8977824  65.9088914 122.0093035
  37.1558130  65.6724185 121.2010225  34.6474120  71.7532988 122.8075846
  34.1195481  71.0185748 122.4949084  34.1461623  72.5307665 122.5615815
  39.6266966  69.9482009 127.9242892  38.9690640  70.6381270 128.0123021
  40.4307365  70.3378441 128.2676879  38.4372425  68.3026381 125.9746834
  38.9504306  68.9356373 126.4768544  39.0873649  67.7027577 125.6090194
  29.7062435  64.4457116 119.1878343  28.8699747  64.7831802 119.5087618
  29.5667204  64.3106095 118.2505480  32.7926720  69.5713198 115.8110819
  31.8853782  69.3402452 116.0101968  33.2897752  68.7750818 115.9984801
  35.6994799  78.2810706 118.7307505  35.0256498  78.5842402 119.3392463
  36.0860621  79.0839786 118.3812962  35.6988303  67.1767253 123.3507855
  36.4460122  67.6888650 123.0414977  35.9679893  66.8551305 124.2112249
  33.9714954  69.6725793 120.3334809  33.0626173  69.3884826 120.4307279
  34.0010037  70.0924872 119.4738116  39.2034221  73.2832383 124.1025977
  38.7496548  72.4423293 124.1591167  38.5728188  73.9193781 124.4400757
  38.1467140  64.2124369 125.3326644  37.4089897  63.7001755 125.6636887
  38.3993914  63.7724750 124.5209921  37.6467160  75.1208880 125.0375795
  37.9390135  75.6813937 124.3188161  38.1565781  75.4137441 125.7928954
  32.5199848  67.2854414 126.4344605  32.5748457  66.3328250 126.3587081
  31.7091050  67.4413853 126.9185903  33.6691041  71.2134537 117.6722888
  33.2310471  70.4970396 117.2128525  34.4101482  71.4410652 117.1107979
  30.4592207  65.9031474 124.1934984  29.6460073  66.2025644 124.6000176
  30.9551202  65.5087162 124.9109466  32.6100785  75.8989231 126.1269248
  32.5676964  76.1250077 125.1977780  33.5263484  75.6652605 126.2755049
  41.7864156  69.4891734 123.7299206  41.6482055  69.6793330 122.8020396
  41.4300375  70.2511117 124.1867258  41.8133536  71.5568261 128.7410478
  42.2470042  71.4643550 129.5893532  42.5265116  71.5325762 128.1030494
  30.7266586  72.7752260 125.9231211  31.5207185  72.2802580 125.7213786
  30.0158279  72.2470123 125.5598917  27.0349350  66.9195341 121.9990964
  26.1046938  66.8579797 122.2160926  27.1306822  66.3971294 121.2027605
  42.6749085  71.5991962 131.2743363  42.8684975  72.5037772 131.5202638
  42.5749703  71.1399381 132.1081948  33.8986014  78.4490378 120.9454585
  34.0737770  77.9778421 121.7600207  33.2118802  79.0756144 121.1735845
  34.8543077  72.7262884 126.9917886  34.5192910  72.6863654 127.8875536
  34.3547023  72.0607600 126.5188296  37.7902269  70.0718919 117.2654945
  37.1731440  69.3465747 117.1687998  37.3218757  70.8328279 116.9222020
  29.5800815  64.2904343 116.3876250  28.7030281  64.1693144 116.0238496
  30.0558568  63.4990421 116.1355138  32.7664741  76.6430633 123.6338770
  31.9832263  77.1852314 123.7276995  33.4657486  77.1604613 124.0333011
  43.9291148  68.1565628 127.9191267  43.9181025  69.0390344 127.5485200
  43.0608528  67.8037179 127.7245804  37.1591172  71.2096950 123.8511399
  36.2247450  71.3298412 123.6816103  37.3367840  70.3069417 123.5871409
  40.5463723  67.0514269 124.3861433  41.0124175  67.8842261 124.3121736
  40.9971224  66.5859251 125.0906692  38.6139954  73.3958091 121.3847585
  38.8899798  73.2814685 122.2941459  37.7444453  72.9975575 121.3459758
  35.2494018  77.6444441 125.0280399  35.4316413  76.8266097 125.4908151
  36.0727004  77.8612134 124.5905289  35.5836184  76.5712627 122.2895447
  36.1123950  76.0605081 121.6765609  35.8464403  76.2555157 123.1540980
  24.3079509  65.8846198 121.8289155  24.6032950  64.9756877 121.7756209
  23.4067544  65.8633938 121.5070158  36.2165587  77.6053462 128.6339564
  36.0916727  76.8043202 128.1250509  36.8744679  78.0999656 128.1453534
  38.2800496  75.4062482 130.2619114  37.3330831  75.2867834 130.1897441
  38.6283269  74.5184980 130.3445375  35.2846929  75.2015199 126.4623466
  35.1371892  74.2731906 126.6431036  36.1100423  75.2235289 125.9780541
  29.1509173  63.8533266 122.3203958  29.4905246  64.3819187 121.5982567
  29.5981294  64.1913672 123.0962525  38.8881051  76.0243757 127.5488339
  39.8127598  75.8186619 127.4112790  38.7196354  75.7760158 128.4577680
  31.1377321  62.3507887 120.5197251  31.8585683  62.7289140 120.0160968
  30.5142625  63.0696764 120.6232229  35.2808443  63.0553036 121.4555583
  35.4972058  63.9377674 121.1544411  34.8002511  62.6639250 120.7261225
  38.6776367  76.5429425 122.9050430  38.8513245  75.9775847 122.1524283
  39.1705258  77.3430320 122.7229920  44.5315758  69.3065848 124.5240730
  44.9746904  68.5573173 124.1259853  43.6542269  69.2975984 124.1414462
  39.6651540  75.8596189 120.0047329  40.3602444  76.4802882 120.2234643
  40.0074690  75.0091540 120.2799706  41.5642963  73.3095895 121.5334659
  42.0894287  73.6483167 120.8083979  41.4765315  72.3742910 121.3497794
  30.2571003  73.4709810 121.4410675  30.4059123  74.1545275 120.7877347
  31.0637446  73.4514900 121.9560130  44.0748623  70.7771086 126.9163178
  44.9095514  71.2160890 127.0800738  44.2107752  70.3009739 126.0971423
  28.0123636  69.4974988 122.4471744  27.7669678  68.5937318 122.6451954
  28.1819550  69.4992138 121.5051222  27.2819283  65.2303346 119.9457905
  26.5888528  65.3047701 119.2897941  27.0371035  64.4663689 120.4679422
  33.7566408  75.9657941 118.9122422  33.1840375  76.5848128 118.4592894
  34.3299202  76.5157303 119.4462344  36.9763668  76.2495091 120.0431004
  37.9094341  76.1840653 120.2463880  36.8886881  77.0851358 119.5845537
  39.6051685  75.5660961 117.0034952  39.5265316  75.2320825 117.8970710
  40.4261351  76.0582729 117.0026424  42.3029876  68.4322701 130.2111271
  42.2706196  67.4938701 130.3970954  42.9130499  68.5106737 129.4777095
  34.1413207  67.3018754 116.2538475  35.0872311  67.1724962 116.3226893
  33.7627452  66.5633416 116.7307903  48.1206426  69.4938707 129.3517307
  48.8509814  69.2323996 129.9125011  47.5113371  68.7567429 129.3919375
  46.2021723  67.6346570 129.9491759  45.4754886  67.5002535 129.3408250
  45.7869010  67.9423399 130.7548477  32.3256124  65.2268730 116.1893360
  31.4187579  64.9301843 116.2656073  32.6032105  64.9298548 115.3227646
  33.9418190  59.7705620 122.3437601  33.1318918  59.4252705 122.7192847
  34.6302606  59.4613163 122.9325213  31.0954908  62.0855665 116.3305339
  31.9574072  62.4110564 116.5901156  31.2805253  61.2987161 115.8178405
  39.2487545  60.9584192 123.4740562  38.6686214  61.6168996 123.0918614
  38.9823478  60.1361536 123.0627980  38.0312423  63.1184282 122.5296910
  37.1438278  63.4033933 122.3117105  38.4466412  62.9578045 121.6824187
  41.3826959  63.1430803 126.2451250  42.1587349  63.6327255 126.5175866
  40.6575093  63.5688857 126.7023119  43.8199518  63.8558422 127.3025190
  44.4144008  63.6154158 126.5918498  43.8926101  63.1365553 127.9298726
  37.1755636  72.8828957 116.6244930  37.8791486  73.0878959 117.2402586
  36.4518285  73.4505719 116.8894014  38.0053447  68.6338818 122.7447200
  37.9488648  69.0907369 121.9054833  38.5581789  67.8729503 122.5670043
  41.8158253  64.4228550 123.5697320  41.5595187  64.0225186 124.4005528
  41.1911121  65.1372344 123.4447459  46.1270590  67.1624623 126.0768611
  45.5670148  67.2317812 126.8500173  45.5214094  66.9865608 125.3568108
  39.0842334  73.3211486 118.6743390  39.9187938  72.8892684 118.4920865
  38.9226677  73.1493500 119.6020285  38.7388226  69.8243599 120.0399730
  38.6837030  69.6587871 119.0988174  38.1134281  70.5319632 120.1961919
  32.0484351  59.3251708 119.6185048  32.0363021  60.2693548 119.7753319
  32.9407773  59.1421854 119.3244509  40.3803131  85.6444042 124.6956983
  39.8167996  85.5533979 123.9273271  40.2655526  84.8243946 125.1759475
  45.9602690  89.3115009 120.0071448  45.3090669  89.8969090 119.6205461
  46.7547052  89.8421204 120.0666485  39.8858317  86.4004146 120.4058582
  40.6589193  85.8533134 120.2671458  40.2383716  87.2648396 120.6173043
  42.2224595  82.5596813 118.0377032  42.4750115  82.0378334 117.2760495
  41.2849154  82.3962958 118.1403716  47.2667877  81.5632591 125.8451775
  48.0530967  81.1452014 125.4942192  47.5306582  82.4678683 126.0133424
  47.4377955  87.0005441 120.5440432  46.8023788  87.0740068 121.2561337
  47.1075361  87.5899040 119.8659511  41.9420883  84.4624918 120.2401407
  41.8257141  83.7869822 120.9082491  42.0523143  83.9757292 119.4233560
  44.2852424  83.9235066 123.9448096  43.9210631  83.3965687 124.6561018
  45.1419540  83.5333535 123.7714582  43.9257911  78.9524965 118.9409445
  44.0932314  79.8205202 119.3079916  43.7355080  79.1152247 118.0170734
  40.1345726  83.8655741 126.6411979  39.2096222  83.7331955 126.8489671
  40.3830139  84.6449960 127.1381922  43.9047132  81.4082623 119.9256111
  43.7846757  81.8539674 120.7641592  43.2099720  81.7567940 119.3669650
  49.6032198  81.8804096 120.7536446  50.5150054  82.1131483 120.5784143
  49.0941845  82.4641140 120.1911524  46.9468173  78.0562132 129.0026306
  46.0852652  78.3543386 129.2943044  46.9730608  78.2732531 128.0707339
  43.7629742  86.6004323 125.4100112  44.2268088  86.8792026 124.6204735
  43.4986541  85.6987767 125.2273203  42.6998628  82.7227475 122.2189677
  43.4022672  83.1748519 122.6863604  42.3679257  82.0811294 122.8469570
  36.4423962  80.9811028 127.5206811  35.6523016  81.2368556 127.0446921
  36.9335210  81.7959365 127.6258851  38.3938708  81.3455607 124.4790287
  37.5969871  81.4574301 124.9973783  38.1664300  81.6842259 123.6131178
  43.9392393  89.5368418 122.2951782  43.8038068  90.3819953 122.7236630
  44.4802206  89.7387695 121.5317716  37.3921790  87.0543856 122.8679708
  37.9046311  87.8487106 123.0185272  38.0444503  86.3570146 122.8013309
  39.2016675  90.1709612 124.9502461  39.3783303  91.0927577 124.7623445
  39.9973509  89.8568031 125.3796840  47.2884857  73.0598979 130.8250676
  46.9449126  73.9500621 130.7489786  47.6563819  72.8700637 129.9620261
  35.3570707  85.3832510 123.6439278  36.1945929  85.7929518 123.4272986
  35.5348975  84.4431952 123.6139472  47.2535139  83.0507590 119.3323111
  46.7381763  83.8212195 119.5711498  46.9812448  82.3772727 119.9556172
  44.8382250  77.8957291 124.3908349  43.9823847  77.5064142 124.2113988
  45.2509202  77.9749252 123.5308135  46.3681397  75.4303635 128.7899909
  45.8646193  75.3933770 127.9767714  46.6612004  76.3396377 128.8496566
  42.6124283  75.5142364 127.7966091  43.4777280  75.3185173 127.4371980
  42.6801792  75.2852716 128.7235448  52.2269413  85.8039945 121.2676285
  51.4498856  85.4651105 120.8231447  52.9060894  85.8092568 120.5931250
  47.0421443  80.9234683 121.1582892  46.7371578  81.2380832 122.0093035
  47.9951885  81.0016102 121.2010225  45.4867874  87.0824906 122.8075846
  44.9589236  86.3477665 122.4949084  44.9855377  87.8599582 122.5615815
  40.2186602  77.7444572 125.1682458  40.7930354  77.5219754 124.4355651
  40.8057584  77.8133267 125.9211059  40.5456189  79.7749033 119.1878343
  39.7093501  80.1123720 119.5087618  40.4060959  79.6398013 118.2505480
  42.5209270  74.6185821 123.8957527  41.8673682  74.3034838 123.2714142
  42.4789744  73.9961562 124.6217350  43.6320475  84.9005116 115.8110819
  42.7247536  84.6694370 116.0101968  44.1291507  84.1042735 115.9984801
  46.5388553  93.6102623 118.7307505  45.8650252  93.9134320 119.3392463
  46.9254375  94.4131704 118.3812962  45.7547010  81.1067755 128.2205175
  44.8369571  81.3282702 128.0626863  46.1707154  81.1814065 127.3616882
  46.5382058  82.5059170 123.3507855  47.2853877  83.0180568 123.0414977
  46.8073647  82.1843223 124.2112249  44.8108708  85.0017711 120.3334809
  43.9019927  84.7176744 120.4307279  44.8403792  85.4216790 119.4738116
  48.9860895  79.5416287 125.3326644  48.2483652  79.0293673 125.6636887
  49.2387669  79.1016668 124.5209921  49.0872522  72.3192539 125.9268414
  49.3931399  71.4589902 125.6394329  49.8125127  72.9110159 125.7267407
  35.3796878  82.7223225 124.3150012  35.1821278  82.1292586 123.5901078
  34.8243542  82.4175435 125.0325950  43.3593602  82.6146332 126.4344605
  43.4142212  81.6620168 126.3587081  42.5484804  82.7705771 126.9185903
  44.5084796  86.5426455 117.6722888  44.0704226  85.8262314 117.2128525
  45.2495237  86.7702570 117.1107979  41.2985962  81.2323391 124.1934984
  40.4853827  81.5317562 124.6000176  41.7944956  80.8379080 124.9109466
  52.6257911  84.8183652 123.7299206  52.4875809  85.0085248 122.8020396
  52.2694129  85.5803035 124.1867258  40.7900037  78.8041747 129.8096218
  41.4299416  78.6630506 129.1119182  39.9577567  78.5176260 129.4334820
  41.5660341  88.1044177 125.9231211  42.3600939  87.6094497 125.7213786
  40.8552033  87.5762040 125.5598917  37.8743104  82.2487259 121.9990964
  36.9440692  82.1871715 122.2160926  37.9700576  81.7263212 121.2027605
  37.7928653  78.7742072 124.5869205  38.0535470  79.6887405 124.4778366
  38.6145825  78.3066514 124.7365818  44.7379769  93.7782296 120.9454585
  44.9131524  93.3070339 121.7600207  44.0512557  94.4048062 121.1735845
  48.6296023  85.4010836 117.2654945  48.0125194  84.6757665 117.1687998
  48.1612512  86.1620197 116.9222020  40.4194569  79.6196261 116.3876250
  39.5424036  79.4985061 116.0238496  40.8952322  78.8282339 116.1355138
  46.9155145  77.7817180 126.2772976  47.4123845  77.0287143 125.9574046
  46.1442127  77.8181497 125.7116185  47.9984926  86.5388868 123.8511399
  47.0641205  86.6590330 123.6816103  48.1761595  85.6361334 123.5871409
  43.4990114  79.9234563 126.0044660  43.1287902  79.3705604 126.6925566
  43.9949207  79.3192697 125.4519660  51.3857478  82.3806187 124.3861433
  51.8517930  83.2134179 124.3121736  51.8364978  81.9151169 125.0906692
  49.4533709  88.7250008 121.3847585  49.7293553  88.6106603 122.2941459
  48.5838207  88.3267493 121.3459758  49.3574140  74.7486774 128.4252335
  48.4437220  74.9791001 128.5934541  49.7867242  74.8325218 129.2766367
  46.4229938  91.9004544 122.2895447  46.9517705  91.3896999 121.6765609
  46.6858158  91.5847074 123.1540980  38.8955448  77.3338554 132.2497766
  38.9596774  78.1953385 131.8375164  38.8322568  76.7212556 131.5170125
  35.1473263  81.2138116 121.8289155  35.4426704  80.3048794 121.7756209
  34.2461299  81.1925855 121.5070158  38.6767510  79.2894112 127.8116704
  37.9554096  79.9030080 127.6724177  39.4660766  79.8251877 127.7333350
  36.8761105  78.8952214 121.9528481  36.5473811  78.0149592 121.7703586
  37.2300475  78.8399882 122.8404870  39.9902928  79.1825183 122.3203958
  40.3299000  79.7111105 121.5982567  40.4375048  79.5205589 123.0962525
  42.6846369  77.5662234 131.7707026  42.3443189  76.7670047 132.1727706
  41.9785375  77.8663945 131.1983859  43.3362841  74.6511546 130.2234349
  44.1588910  74.1772025 130.1013240  43.5800904  75.4302030 130.7233036
  41.9771075  77.6799805 120.5197251  42.6979438  78.0581058 120.0160968
  41.3536379  78.3988682 120.6232229  46.1202198  78.3844954 121.4555583
  46.3365812  79.2669592 121.1544411  45.6396265  77.9931167 120.7261225
  40.8601419  81.3430667 128.0326328  40.7146000  81.6570970 128.9250609
  40.3826623  81.9615567 127.4797227  42.7197802  78.3333215 128.0807217
  42.7059371  77.4374308 127.7439515  43.4370230  78.3403879 128.7145504
  44.5723933  78.7670555 130.1260345  44.3141711  79.6887626 130.1244675
  44.0408973  78.3700990 130.8160809  42.1234698  77.2147595 123.3494788
  42.2450609  76.2864242 123.5485675  41.8336740  77.2286281 122.4373103
  44.9925889  74.9002506 126.4861507  45.0147585  74.9641839 125.5313487
  45.4093948  74.0607014 126.6802014  50.5045294  91.1888107 120.0047329
  51.1996199  91.8094800 120.2234643  50.8468444  90.3383458 120.2799706
  52.4036717  88.6387812 121.5334659  52.9288041  88.9775085 120.8083979
  52.3159070  87.7034828 121.3497794  41.0964757  88.8001728 121.4410675
  41.2452877  89.4837192 120.7877347  41.9031201  88.7806818 121.9560130
  38.8517390  84.8266906 122.4471744  38.6063432  83.9229236 122.6451954
  39.0213305  84.8284056 121.5051222  38.1213038  80.5595263 119.9457905
  37.4282283  80.6339618 119.2897941  37.8764790  79.7955607 120.4679422
  46.7926694  72.1190865 127.3497396  47.0728448  71.4514054 127.9757822
  47.5777301  72.3119960 126.8372060  44.5960163  91.2949859 118.9122422
  44.0234130  91.9140046 118.4592894  45.1692956  91.8449220 119.4462344
  47.8157422  91.5787009 120.0431004  48.7488096  91.5132570 120.2463880
  47.7280635  92.4143276 119.5845537  50.4445439  90.8952879 117.0034952
  50.3659071  90.5612743 117.8970710  51.2655106  91.3874647 117.0026424
  44.9806961  82.6310671 116.2538475  45.9266066  82.5016879 116.3226893
  44.6021206  81.8925333 116.7307903  50.9528846  74.2966677 126.2165366
  50.7553667  73.9881766 127.1008698  51.5628551  75.0228316 126.3463296
  43.1649878  80.5560648 116.1893360  42.2581334  80.2593760 116.2656073
  43.4425859  80.2590466 115.3227646  44.7811944  75.0997537 122.3437601
  43.9712672  74.7544622 122.7192847  45.4696361  74.7905081 122.9325213
  46.7102492  74.1775584 123.9661898  47.2633531  74.5971038 124.6251921
  46.9472579  73.2511332 124.0084854  41.9348663  77.4147583 116.3305339
  42.7967827  77.7402481 116.5901156  42.1199007  76.6279079 115.8178405
  50.0881299  76.2876109 123.4740562  49.5079968  76.9460913 123.0918614
  49.8217232  75.4653454 123.0627980  48.5384866  75.6881167 125.6761882
  49.0384644  75.7997702 124.8676201  49.1820474  75.3842220 126.3162691
  48.8706177  78.4476200 122.5296910  47.9832032  78.7325850 122.3117105
  49.2860166  78.2869963 121.6824187  52.2220714  78.4722721 126.2451250
  52.9981104  78.9619173 126.5175866  51.4968848  78.8980775 126.7023119
  48.0149391  88.2120874 116.6244930  48.7185241  88.4170877 117.2402586
  47.2912040  88.7797636 116.8894014  48.8447201  83.9630736 122.7447200
  48.7882403  84.4199287 121.9054833  49.3975544  83.2021420 122.5670043
  52.6552007  79.7520468 123.5697320  52.3988941  79.3517103 124.4005528
  52.0304875  80.4664261 123.4447459  49.9236088  88.6503404 118.6743390
  50.7581692  88.2184602 118.4920865  49.7620431  88.4785417 119.6020285
  49.5781980  85.1535517 120.0399730  49.5230784  84.9879788 119.0988174
  48.9528036  85.8611550 120.1961919  42.8878106  74.6543626 119.6185048
  42.8756776  75.5985466 119.7753319  43.7801528  74.4713771 119.3244509
  46.7030225  71.2486403 123.8730985  45.9362621  70.6944889 124.0187667
  47.1140930  71.3208271 124.7345136  51.3849944  95.1040951 119.1878343
  50.5487256  95.4415637 119.5087618  51.2454713  94.9689931 118.2505480
  51.2588324  94.9488178 116.3876250  50.3817790  94.8276979 116.0238496
  51.7346077  94.1574257 116.1355138  48.9606792  95.8887181 119.9457905
  48.2676037  95.9631536 119.2897941  48.7158544  95.1247525 120.4679422
  54.0043633  95.8852565 116.1893360  53.0975088  95.5885678 116.2656073
  54.2819614  95.5882383 115.3227646  52.7742417  92.7439501 116.3305339
  53.6361581  93.0694399 116.5901156  52.9592762  91.9570996 115.8178405
  53.7271860  89.9835544 119.6185048  53.7150530  90.9277384 119.7753319
  54.6195282  89.8005689 119.3244509  24.8601046  39.9580911 105.4552812
  24.1862744  40.2612607 106.0637770  25.2466868  40.7609991 105.1058269
  28.8257786  37.5366394 106.7292635  29.5208691  38.1573087 106.9479950
  29.1680937  36.6861745 107.0045013  22.9172655  37.6428146 105.6367729
  22.3446622  38.2618333 105.1838201  23.4905449  38.1927507 106.1707651
  26.1369915  37.9265296 106.7676311  27.0700588  37.8610858 106.9709187
  26.0493128  38.7621563 106.3090844  28.7657931  37.2431166 103.7280259
  28.6871563  36.9091030 104.6216017  29.5867598  37.7352934 103.7271731
  26.3361883  34.5599162 103.3490237  27.0397733  34.7649164 103.9647893
  25.6124532  35.1275924 103.6139320  28.2448581  34.9981691 105.3988697
  29.0794184  34.5662889 105.2166172  28.0832923  34.8263705 106.3265592
  36.8732856  45.5151342 115.4943874  37.5111266  45.3958089 114.7907214
  36.7553699  46.4632186 115.5531826  29.5409378  47.3214246 111.4202289
  28.9774243  47.2304183 110.6518577  29.4261773  46.5014151 111.9004782
  35.1208936  50.9885214 106.7316754  34.4696916  51.5739295 106.3450768
  35.9153299  51.5191409 106.7911792  29.0464563  48.0774351 107.1303889
  29.8195439  47.5303338 106.9916764  29.3989962  48.9418601 107.3418350
  31.3830841  44.2367017 104.7622339  31.6356362  43.7148539 104.0005802
  30.4455400  44.0733163 104.8649022  36.4274124  43.2402796 112.5697082
  37.2137213  42.8222219 112.2187499  36.6912828  44.1448888 112.7378730
  36.5984201  48.6775646 107.2685739  35.9630034  48.7510273 107.9806643
  36.2681608  49.2669245 106.5904818  41.8282551  43.1778029 113.4730060
  42.5607723  42.6077246 113.7067890  41.0721907  42.7899629 113.9136566
  31.1027130  46.1395123 106.9646714  30.9863388  45.4640027 107.6327798
  31.2129390  45.6527497 106.1478867  33.4458671  45.6005271 110.6693403
  33.0816878  45.0735891 111.3806324  34.3025787  45.2103740 110.4959888
  33.0864158  40.6295170 105.6654751  33.2538560  41.4975407 106.0325222
  32.8961327  40.7922452 104.7416041  33.0653379  43.0852828 106.6501418
  32.9453004  43.5309878 107.4886898  32.3705967  43.4338145 106.0914956
  30.8260271  55.8556469 110.2991549  30.7484301  56.8064295 110.3780030
  30.2221915  55.5102342 110.9566476  38.7638445  43.5574301 107.4781752
  39.6756301  43.7901688 107.3029450  38.2548092  44.1411345 106.9156831
  37.3708027  48.5400119 114.8695334  36.7416890  48.7045833 114.1671401
  36.9833689  48.9541729 115.6406298  41.2497259  49.4754557 112.2239697
  40.5648297  49.8553459 111.6736731  41.3341108  50.0849884 112.9571645
  32.9235989  48.2774527 112.1345419  33.3874335  48.5562230 111.3450041
  32.6592787  47.3757972 111.9518509  31.8604875  44.3997680 108.9434984
  32.5628919  44.8518723 109.4108910  31.5285504  43.7581499 109.5714877
  39.6194019  49.9986472 116.9957398  40.4411462  49.5966659 116.7140080
  39.6156422  49.8954706 117.9473514  47.7100012  46.3425220 113.3442370
  46.9563720  45.7732618 113.1886374  47.8447553  46.3087885 114.2913004
  33.0998640  51.2138622 109.0197089  32.9644315  52.0590158 109.4481937
  33.6408452  51.4157900 108.2563023  26.5528037  48.7314060 109.5925014
  27.0652558  49.5257311 109.7430579  27.2050750  48.0340351 109.5258616
  28.3622922  51.8479817 111.6747767  28.5389550  52.7697781 111.4868751
  29.1579755  51.5338236 112.1042147  29.4854237  53.3657991 117.6758110
  30.0361663  53.2375054 116.9035104  28.6465713  53.6652880 117.3253002
  24.5176954  47.0602715 110.3684585  25.3552176  47.4699723 110.1518292
  24.6955222  46.1202157 110.3384779  36.4141386  44.7277795 106.0568418
  35.8988010  45.4982400 106.2956805  36.1418695  44.0542932 106.6801479
  33.9988497  39.5727496 111.1153656  33.1430094  39.1834347 110.9359295
  34.4115449  39.6519457 110.2553442  41.3875660  47.4810150 107.9921591
  40.6105103  47.1421310 107.5476753  42.0667141  47.4862773 107.3176556
  36.2027689  42.6004888 107.8828199  35.8977825  42.9151037 108.7338342
  37.1558131  42.6786307 107.9255532  34.6474121  48.7595111 109.5321153
  34.1195483  48.0247870 109.2194390  34.1461624  49.5369787 109.2861121
  39.6266967  46.9544131 114.6488199  38.9690642  47.6443393 114.7368328
  40.4307366  47.3440563 114.9922185  38.4372426  45.3088504 112.6992141
  38.9504308  45.9418496 113.2013851  39.0873650  44.7089700 112.3335501
  29.7062436  41.4519238 105.9123650  28.8699748  41.7893925 106.2332924
  29.5667206  41.3168218 104.9750787  32.7926721  46.5775321 102.5356126
  31.8853783  46.3464575 102.7347275  33.2897753  45.7812940 102.7230107
  35.6994800  55.2872828 105.4552812  35.0256499  55.5904525 106.0637770
  36.0860622  56.0901909 105.1058269  35.6988305  44.1829375 110.0753162
  36.4460124  44.6950772 109.7660284  35.9679894  43.8613428 110.9357555
  33.9714955  46.6787916 107.0580116  33.0626174  46.3946949 107.1552586
  34.0010039  47.0986995 106.1983423  39.2034222  50.2894505 110.8271284
  38.7496549  49.4485415 110.8836474  38.5728189  50.9255904 111.1646064
  38.1467142  41.2186491 112.0571951  37.4089899  40.7063878 112.3882194
  38.3993915  40.7786873 111.2455228  37.6467161  52.1271002 111.7621102
  37.9390136  52.6876059 111.0433467  38.1565782  52.4199563 112.5174261
  32.5199849  44.2916537 113.1589911  32.5748459  43.3390373 113.0832388
  31.7091051  44.4475976 113.6431210  33.6691043  48.2196660 104.3968195
  33.2310472  47.5032519 103.9373832  34.4101483  48.4472774 103.8353286
  30.4592209  42.9093596 110.9180290  29.6460074  43.2087767 111.3245482
  30.9551203  42.5149285 111.6354772  32.6100787  52.9051353 112.8514555
  32.5676965  53.1312200 111.9223087  33.5263485  52.6714728 113.0000356
  41.7864157  46.4953857 110.4544513  41.6482056  46.6855453 109.5265702
  41.4300376  47.2573239 110.9112564  41.8133537  48.5630384 115.4655785
  42.2470044  48.4705673 116.3138839  42.5265118  48.5387884 114.8275801
  30.7266587  49.7814382 112.6476518  31.5207186  49.2864702 112.4459093
  30.0158280  49.2532245 112.2844223  35.5461432  52.1632478 116.9988885
  35.5998454  52.7323414 117.7666601  34.6776213  52.3334363 116.6342922
  27.0349351  43.9257464 108.7236270  26.1046939  43.8641919 108.9406232
  27.1306823  43.4033417 107.9272912  42.6749087  48.6054084 117.9988670
  42.8684977  49.5099895 118.2447945  42.5749705  48.1461503 118.8327255
  33.3037863  50.3543404 116.3274355  33.1648949  49.9862189 117.2000293
  32.5152460  50.8691044 116.1558312  33.8986015  55.4552501 107.6699891
  34.0737771  54.9840544 108.4845514  33.2118803  56.0818267 107.8981152
  34.8543079  49.7325007 113.7163192  34.5192911  49.6925777 114.6120842
  34.3547024  49.0669723 113.2433603  37.7902270  47.0781041 103.9900252
  37.1731441  46.3527869 103.8933305  37.3218759  47.8390402 103.6467326
  28.4647101  58.6041863 114.4439751  28.7043699  59.2360388 115.1218770
  27.6216297  58.2529903 114.7305111  29.5800816  41.2966466 103.1121556
  28.7030282  41.1755266 102.7483803  30.0558569  40.5052544 102.8600445
  32.9774963  54.4120986 116.8481255  32.9045134  55.2175957 117.3600560
  32.5352356  54.6112952 116.0229277  32.7664742  53.6492756 110.3584077
  31.9832264  54.1914436 110.4522301  33.4657487  54.1666736 110.7578318
  43.9291150  45.1627751 114.6436574  43.9181026  46.0452466 114.2730507
  43.0608529  44.8099302 114.4491111  35.4373646  54.3107820 119.0039414
  36.1501618  54.9455285 118.9315315  34.9463675  54.4071686 118.1879416
  37.1591173  48.2159073 110.5756706  36.2247452  48.3360535 110.4061410
  37.3367841  47.3131539 110.3116716  40.5463724  44.0576392 111.1106740
  41.0124176  44.8904383 111.0367042  40.9971225  43.5921373 111.8151998
  38.6139955  50.4020213 108.1092892  38.8899799  50.2876808 109.0186766
  37.7444454  50.0037698 108.0705065  35.2494019  54.6506564 111.7525705
  35.4316414  53.8328220 112.2153458  36.0727005  54.8674256 111.3150595
  35.5836185  53.5774749 109.0140754  36.1123951  53.0667204 108.4010916
  35.8464404  53.2617279 109.8786287  28.9391933  54.6289866 111.7738530
  28.2702308  55.1135993 111.2902570  28.8004803  54.8759086 112.6881908
  33.0797201  56.6633609 118.3721188  33.6315509  56.8265231 119.1370273
  33.4203395  57.2538047 117.7001213  24.3079510  42.8908321 108.5534462
  24.6032951  41.9818999 108.5001516  23.4067546  42.8696060 108.2315464
  36.2165589  54.6115585 115.3584870  36.0916728  53.8105325 114.8495816
  36.8744680  55.1061778 114.8698840  38.2800497  52.4124605 116.9864420
  37.3330833  52.2929956 116.9142747  38.6283270  51.5247103 117.0690682
  35.2846930  52.2077321 113.1868773  35.1371893  51.2794029 113.3676343
  36.1100424  52.2297412 112.7025848  29.1509175  40.8595388 109.0449265
  29.4905247  41.3881310 108.3227873  29.5981295  41.1975794 109.8207831
  38.8881052  53.0305880 114.2733645  39.8127600  52.8248741 114.1358097
  38.7196356  52.7822281 115.1822987  31.1377322  39.3570010 107.2442558
  31.8585684  39.7351263 106.7406274  30.5142626  40.0758887 107.3477536
  35.2808445  40.0615159 108.1800890  35.4972059  40.9439797 107.8789718
  34.8002512  39.6701372 107.4506532  38.6776368  53.5491547 109.6295737
  38.8513246  52.9837970 108.8769589  39.1705260  54.3492442 109.4475227
  44.5315760  46.3127970 111.2486037  44.9746906  45.5635296 110.8505160
  43.6542270  46.3038107 110.8659769  39.6651541  52.8658312 106.7292635
  40.3602446  53.4865004 106.9479950  40.0074691  52.0153663 107.0045013
  41.5642964  50.3158017 108.2579966  42.0894288  50.6545290 107.5329286
  41.4765317  49.3805033 108.0743101  33.2483625  56.3830001 112.6175219
  32.8088615  55.8906379 113.3108076  33.9991742  55.8402968 112.3767294
  25.7275964  52.5741541 112.6199847  26.5533984  52.2745313 112.2398491
  25.3770016  51.8049164 113.0689636  30.6957497  51.9268010 114.6897521
  30.0737506  51.2638715 114.3899749  31.3662364  51.9529142 114.0071169
  30.2571004  50.4771933 108.1655981  30.4059124  51.1607397 107.5122654
  31.0637447  50.4577023 108.6805437  44.0748624  47.7833209 113.6408484
  44.9095516  48.2223013 113.8046045  44.2107753  47.3071862 112.8216730
  28.0123637  46.5037111 109.1717050  27.7669679  45.5999441 109.3697260
  28.1819551  46.5054261 108.2296528  27.2819284  42.2365468 106.6703212
  26.5888529  42.3109823 106.0143248  27.0371036  41.4725812 107.1924729
  33.7566409  52.9720063 105.6367729  33.1840376  53.5910251 105.1838201
  34.3299203  53.5219425 106.1707651  36.9763669  53.2557214 106.7676311
  37.9094342  53.1902775 106.9709187  36.8886882  54.0913480 106.3090844
  42.3029877  45.4384823 116.9356577  42.2706197  44.5000824 117.1216261
  42.9130501  45.5168860 116.2022402  34.1413208  44.3080876 102.9783781
  35.0872313  44.1787084 103.0472199  33.7627453  43.5695538 103.4553209
  48.1206427  46.5000830 116.0762614  48.8509815  46.2386118 116.6370317
  47.5113372  45.7629552 116.1164682  46.2021724  44.6408693 116.6737065
  45.4754888  44.5064658 116.0653557  45.7869011  44.9485521 117.4793783
  32.3256125  42.2330853 102.9138667  31.4187580  41.9363965 102.9901380
  32.6032106  41.9360671 102.0472953  33.9418191  36.7767742 109.0682908
  33.1318919  36.4314827 109.4438154  34.6302608  36.4675286 109.6570519
  31.0954910  39.0917788 103.0550646  31.9574074  39.4172686 103.3146463
  31.2805254  38.3049284 102.5423712  39.2487546  37.9646314 110.1985869
  38.6686215  38.6231118 109.8163921  38.9823479  37.1423659 109.7873286
  38.0312424  40.1246405 109.2542217  37.1438279  40.4096055 109.0362412
  38.4466413  39.9640168 108.4069494  41.3826960  40.1492926 112.9696556
  42.1587350  40.6389378 113.2421173  40.6575094  40.5750980 113.4268426
  43.8199519  40.8620545 114.0270497  44.4144010  40.6216281 113.3163805
  43.8926103  40.1427675 114.6544033  26.0396675  54.7054156 114.3413662
  25.9051143  53.9454557 113.7751660  25.6228737  55.4295056 113.8742451
  37.1755638  49.8891079 103.3490237  37.8791488  50.0941082 103.9647893
  36.4518286  50.4567841 103.6139320  38.0053448  45.6400941 109.4692507
  37.9488649  46.0969492 108.6300140  38.5581790  44.8791625 109.2915350
  41.8158254  41.4290672 110.2942627  41.5595188  41.0287308 111.1250834
  41.1911122  42.1434466 110.1692766  46.1270592  44.1686746 112.8013918
  45.5670150  44.2379935 113.5745480  45.5214095  43.9927730 112.0813414
  29.1965800  55.6023473 114.5532104  29.0798185  56.5468905 114.4510795
  28.3758247  55.2997034 114.9417904  39.0842335  50.3273609 105.3988697
  39.9187939  49.8954807 105.2166172  38.9226678  50.1555622 106.3265592
  38.7388227  46.8305722 106.7645036  38.6837031  46.6649993 105.8233480
  38.1134282  47.5381755 106.9207226  32.0484353  36.3313831 106.3430355
  32.0363022  37.2755671 106.4998626  32.9407775  36.1483976 106.0489816
  30.2220315  56.2551735 117.7688033  31.1247561  56.2875345 118.0854528
  29.9957685  55.3252186 117.7834369  31.9773917  55.0082721 114.4298111
  31.0269548  55.0084583 114.3162484  32.2806403  54.2615456 113.9134146
  47.7126610  60.8443260 115.4943874  48.3505020  60.7250007 114.7907214
  47.5947453  61.7924104 115.5531826  44.5216316  60.7970688 115.4305398
  44.1834828  60.6811752 114.5425933  45.3906085  60.3961853 115.4106405
  45.0036099  61.9505539 121.3891604  44.9924740  61.5558338 120.5172108
  45.1656739  61.2171612 121.9825375  37.9267564  64.1457356 114.2586510
  38.7188856  63.8048180 113.8432809  38.1664214  64.2552331 115.1788663
  41.7243361  64.7342651 120.3370788  41.4333227  65.6388282 120.2217454
  42.3600345  64.7759179 121.0514858  42.6499567  62.1119500 116.9272148
  43.2463140  61.8875522 116.2129111  42.7074539  61.3704245 117.5297595
  47.2667879  58.5694713 112.5697082  48.0530968  58.1514137 112.2187499
  47.5306583  59.4740806 112.7378730  52.6676306  58.5069947 113.4730060
  53.4001478  57.9369164 113.7067890  51.9115661  58.1191547 113.9136566
  44.2852425  60.9297188 110.6693403  43.9210633  60.4027809 111.3806324
  45.1419541  60.5395657 110.4959888  50.1901726  52.2191521 117.9324669
  49.8585051  53.0886932 117.7085884  49.5947339  51.9027805 118.6118699
  46.6833246  64.4204067 117.3320582  46.3833969  65.3229106 117.2236389
  46.3384305  64.1536250 118.1841735  40.1345727  60.8717864 113.3657286
  39.2096224  60.7394078 113.5734978  40.3830140  61.6512083 113.8627228
  50.0830389  56.9386607 115.0118019  49.1747267  56.8702015 114.7176780
  50.0317985  57.4158552 115.8399844  37.4954538  60.5151137 114.2001075
  37.6246919  60.7685616 115.1140487  36.8151989  61.1078845 113.8805730
  44.1571255  58.3576253 122.9552916  43.3804589  58.9170173 122.9455781
  44.7961818  58.8433036 123.4767786  51.9492036  55.1403045 116.7895893
  51.3066416  55.4335579 116.1435687  51.4446964  55.0255966 117.5949090
  49.6032199  58.8866219 107.4781752  50.5150056  59.1193605 107.3029450
  49.0941847  59.4703263 106.9156831  42.4117627  61.1661706 122.5170883
  43.1532312  61.7046750 122.2405707  41.7054613  61.7927995 122.6742435
  47.8872967  63.3090846 121.1143045  48.2956323  62.8673257 120.3697677
  47.1650229  62.7343474 121.3677238  44.2404037  58.2463453 118.4876602
  45.0865232  58.6702867 118.6311251  44.1802675  57.5897077 119.1815165
  52.0891014  64.8046475 112.2239697  51.4042052  65.1845376 111.6736731
  52.1734863  65.4141802 112.9571645  47.3903483  55.9067822 120.1457775
  47.1464414  56.6609882 119.6092051  47.6663413  56.2853169 120.9805022
  49.3441945  62.4506434 118.8235041  49.5558841  63.0938194 118.1469422
  49.2971694  61.6168750 118.3556971  46.9468174  55.0624255 115.7271613
  46.0852653  55.3605508 116.0188351  46.9730609  55.2794653 114.7952646
  40.6553825  63.1537927 115.0725182  41.2255182  63.5825195 114.4342666
  41.2461937  62.8720511 115.7709368  42.6998630  59.7289597 108.9434984
  43.4022673  60.1810641 109.4108910  42.3679258  59.0873416 109.5714877
  41.1478991  58.3201354 123.3186193  40.5177652  59.0017635 123.5521590
  41.0415079  58.2084436 122.3739332  36.4423964  57.9873150 114.2452117
  35.6523018  58.2430679 113.7692228  36.9335211  58.8021488 114.3504158
  50.4587773  65.3278389 116.9957398  51.2805217  64.9258577 116.7140080
  50.4550176  65.2246623 117.9473514  38.3938709  58.3517729 111.2035594
  37.5969872  58.4636424 111.7219090  38.1664301  58.6904382 110.3376485
  44.2244377  64.8762433 119.1518109  44.2888809  65.3382840 119.9876281
  43.5155301  64.2459798 119.2800419  34.7261667  58.2403641 116.6767108
  34.9769705  59.1250651 116.9424684  35.2621215  58.0608242 115.9042200
  58.5493766  61.6717138 113.3442370  57.7957475  61.1024536 113.1886374
  58.6841307  61.6379802 114.2913004  37.3921792  64.0605978 109.5925014
  37.9046312  64.8549228 109.7430579  38.0444505  63.3632269 109.5258616
  43.3427695  54.0379999 123.2731701  44.0837408  54.6387152 123.1936163
  43.5745618  53.2957637 122.7149743  38.4869033  59.2236366 121.5509931
  38.3722548  58.3221624 121.8517029  37.6313551  59.4700063 121.1994747
  45.5660871  67.1654107 123.1497431  45.1224725  66.3790485 122.8318336
  46.2278084  67.3533257 122.4841322  40.3247992  68.6949908 117.6758110
  40.8755417  68.5666972 116.9035104  39.4859468  68.9944797 117.3253002
  47.6642109  67.4456907 121.1778832  47.6460584  68.2665788 120.6859102
  48.5862029  67.3210982 121.4028974  44.1215163  64.9601036 122.0202341
  44.6543500  64.1989324 121.7901649  43.5929244  64.6674688 122.7626495
  47.2884858  50.0661102 117.5495983  46.9449127  50.9562744 117.4735093
  47.6563821  49.8762760 116.6865568  35.3570709  62.3894632 110.3684585
  36.1945931  62.7991641 110.1518292  35.5348976  61.4494075 110.3384779
  44.8382252  54.9019414 111.1153656  43.9823848  54.5126264 110.9359295
  45.2509203  54.9811375 110.2553442  46.3681398  52.4365757 115.5145216
  45.8646194  52.3995892 114.7013021  46.6612005  53.3458500 115.5741872
  42.6124284  52.5204487 114.5211398  43.4777281  52.3247296 114.1617287
  42.6801793  52.2914839 115.4480754  52.2269415  62.8102068 107.9921591
  51.4498858  62.4713227 107.5476753  52.9060896  62.8154691 107.3176556
  47.0421444  57.9296805 107.8828199  46.7371579  58.2442954 108.7338342
  47.9951886  58.0078225 107.9255532  50.4660722  62.2836049 114.6488199
  49.8084396  62.9735310 114.7368328  51.2701121  62.6732481 114.9922185
  40.2186603  54.7506695 111.8927764  40.7930355  54.5281876 111.1600957
  40.8057586  54.8195389 112.6456366  49.2766180  60.6380422 112.6992141
  49.7898062  61.2710414 113.2013851  49.9267404  60.0381617 112.3335501
  42.5209271  51.6247944 110.6202834  41.8673683  51.3096961 109.9959449
  42.4789745  51.0023684 111.3462657  45.7547011  58.1129877 114.9450481
  44.8369573  58.3344824 114.7872169  46.1707155  58.1876188 114.0862189
  46.5382059  59.5121293 110.0753162  47.2853878  60.0242690 109.7660284
  46.8073649  59.1905346 110.9357555  48.9860896  56.5478409 112.0571951
  48.2483653  56.0355795 112.3882194  49.2387670  56.1078791 111.2455228
  49.0872524  49.3254661 112.6513720  49.3931400  48.4652025 112.3639635
  49.8125128  49.9172281 112.4512714  35.3796880  59.7285348 111.0395318
  35.1821279  59.1354708 110.3146385  34.8243544  59.4237558 111.7571257
  43.3593603  59.6208454 113.1589911  43.4142213  58.6682291 113.0832388
  42.5484805  59.7767893 113.6431210  41.2985963  58.2385514 110.9180290
  40.4853829  58.5379685 111.3245482  41.7944957  57.8441203 111.6354772
  46.8960175  58.7027338 119.7495184  47.2509563  58.9298812 120.6089650
  47.5432306  59.0345715 119.1272439  52.6257912  61.8245774 110.4544513
  52.4875810  62.0147370 109.5265702  52.2694131  62.5865157 110.9112564
  40.7900038  55.8103870 116.5341525  41.4299417  55.6692629 115.8364488
  39.9577569  55.5238383 116.1580127  52.6527291  63.8922301 115.4655785
  53.0863798  63.7997590 116.3138839  53.3658872  63.8679802 114.8275801
  46.3855186  67.4924395 116.9988885  46.4392209  68.0615332 117.7666601
  45.5169968  67.6626280 116.6342922  37.8743105  59.2549382 108.7236270
  36.9440693  59.1933837 108.9406232  37.9700577  58.7325334 107.9272912
  37.7928654  55.7804194 111.3114512  38.0535472  56.6949528 111.2023672
  38.6145827  55.3128637 111.4611125  39.2653580  57.1941952 118.4813336
  39.9376633  56.9859314 117.8325985  38.4383366  56.9964038 118.0418569
  53.5142841  63.9346002 117.9988670  53.7078731  64.8391813 118.2447945
  53.4143459  63.4753421 118.8327255  45.1679152  53.8203893 120.4978997
  44.5207067  54.5193842 120.4043474  45.9380167  54.2540037 120.8655246
  48.5757950  64.0852745 123.5729551  48.4243456  63.8563296 122.6559634
  48.5662629  65.0423346 123.5860896  45.3443286  61.6584657 118.5575817
  46.2735346  61.8095817 118.3844784  44.9234316  61.7468678 117.7024464
  39.6681077  60.4684555 119.2415774  39.5300875  59.7364793 119.8427313
  40.5786000  60.3793455 118.9599961  42.2963378  60.1804514 118.7299453
  43.0062996  59.5397706 118.6886072  42.2532686  60.4317409 119.6525634
  50.2850156  67.1171867 121.6506032  50.2262702  66.4331087 120.9836615
  50.6869675  67.8590857 121.1986658  41.0092312  57.1669732 120.5495093
  40.4729669  56.7160470 121.2016689  40.4209020  57.3015641 119.8065557
  39.3040855  73.9333781 114.4439751  39.5437453  74.5652305 115.1218770
  38.4610052  73.5821821 114.7305111  50.2867564  65.0811451 119.8820012
  49.3994342  64.7437373 120.0046411  50.8566115  64.3494482 120.1188778
  31.9396711  61.4135543 113.2063064  32.6267751  61.0997273 112.6184079
  31.7844839  62.3176908 112.9330315  36.7431433  56.3025740 117.6348087
  36.6589622  55.6951409 116.8998497  35.9214139  56.7934758 117.6357584
  43.8168717  69.7412904 116.8481255  43.7438888  70.5467875 117.3600560
  43.3746110  69.9404869 116.0229277  46.9155147  54.7879303 113.0018282
  47.4123846  54.0349265 112.6819353  46.1442128  54.8243620 112.4361492
  54.7684904  60.4919669 114.6436574  54.7574780  61.3744384 114.2730507
  53.9002284  60.1391219 114.4491111  46.2767401  69.6399738 119.0039414
  46.9895373  70.2747202 118.9315315  45.7857429  69.7363604 118.1879416
  43.4990115  56.9296686 112.7289967  43.1287903  56.3767726 113.4170872
  43.9949208  56.3254820 112.1764967  51.3857479  59.3868310 111.1106740
  51.8517931  60.2196301 111.0367042  51.8364979  58.9213291 111.8151998
  41.3279314  67.3894181 119.8244985  42.0288774  68.0230664 119.9774379
  40.8574429  67.7308913 119.0640624  49.3574142  51.7548897 115.1497641
  48.4437221  51.9853123 115.3179848  49.7867243  51.8387341 116.0011674
  49.1280600  59.9438789 117.6497535  48.4752050  60.1914696 116.9949988
  49.5060980  59.1302927 117.3160012  45.1768173  60.6858600 124.1363572
  44.5008810  60.5852729 124.8065947  45.9995807  60.5297813 124.5999569
  36.9247032  66.9230536 116.7576088  37.5100469  66.1774224 116.8903992
  36.7271871  67.2334493 117.6412751  31.5164687  59.4936136 115.4780531
  31.5548786  58.9599727 116.2717649  31.0104980  58.9671342 114.8591508
  43.9190956  71.9925527 118.3721188  44.4709264  72.1557149 119.1370273
  44.2597149  72.5829965 117.7001213  38.8955449  54.3400677 118.9743073
  38.9596776  55.2015508 118.5620471  38.8322569  53.7274678 118.2415431
  48.7701830  66.8186785 124.2269843  49.3141734  67.4316743 123.7324797
  48.1888675  67.3766363 124.7436856  35.1473264  58.2200238 108.5534462
  35.4426706  57.3110917 108.5001516  34.2461300  58.1987978 108.2315464
  47.0559343  69.9407503 115.3584870  46.9310483  69.1397242 114.8495816
  47.7138434  70.4353696 114.8698840  38.6767511  56.2956235 114.5362011
  37.9554097  56.9092203 114.3969484  39.4660767  56.8314000 114.4578657
  49.1194252  67.7416523 116.9864420  48.1724587  67.6221874 116.9142747
  49.4677025  66.8539021 117.0690682  41.4793825  53.6310662 120.8102662
  42.0028227  53.8772958 121.5728972  41.2606158  54.4630696 120.3905800
  36.8761106  55.9014336 108.6773787  36.5473812  55.0211715 108.4948893
  37.2300477  55.8462005 109.5650176  39.9902929  56.1887306 109.0449265
  40.3299002  56.7173227 108.3227873  40.4375050  56.5267712 109.8207831
  49.7274807  68.3597798 114.2733645  50.6521354  68.1540659 114.1358097
  49.5590110  68.1114199 115.1822987  42.6846370  54.5724357 118.4952333
  42.3443190  53.7732170 118.8973013  41.9785376  54.8726068 117.9229166
  43.3362842  51.6573669 116.9479656  44.1588911  51.1834147 116.8258546
  43.5800905  52.4364153 117.4478342  41.9771076  54.6861928 107.2442558
  42.6979439  55.0643180 106.7406274  41.3536380  55.4050804 107.3477536
  46.1202199  55.3907077 108.1800890  46.3365814  56.2731714 107.8789718
  45.6396266  54.9993290 107.4506532  40.8601421  58.3492790 114.7571635
  40.7146001  58.6633093 115.6495916  40.3826624  58.9677690 114.2042533
  42.7197803  55.3395338 114.8052524  42.7059372  54.4436431 114.4684822
  43.4370232  55.3466001 115.4390810  44.5723934  55.7732678 116.8505652
  44.3141712  56.6949749 116.8489982  44.0408975  55.3763112 117.5406116
  35.3347083  60.8898134 117.6959296  34.7900551  61.6657942 117.8279570
  36.2126433  61.2368939 117.5378417  42.1234699  54.2209718 110.0740094
  42.2450611  53.2926364 110.2730982  41.8336742  54.2348404 109.1618410
  44.9925890  51.9064628 113.2106814  45.0147587  51.9703962 112.2558794
  45.4093949  51.0669137 113.4047320  55.3709514  61.6419888 111.2486037
  55.8140660  60.8927213 110.8505160  54.4936024  61.6330024 110.8659769
  36.1213105  60.0168030 120.5889453  35.3794841  60.1650666 121.1754083
  35.8005849  60.2776296 119.7256202  52.4036719  65.6449935 108.2579966
  52.9288043  65.9837208 107.5329286  52.3159071  64.7096950 108.0743101
  44.0656767  69.5584009 120.3869843  44.3743894  69.3133155 121.2592542
  44.8632249  69.7630647 119.8988713  34.7678323  65.8219786 113.5788781
  33.9310232  65.3941960 113.3972782  34.7401969  66.0152229 114.5159572
  52.0930625  66.2782839 123.5631164  51.3026168  66.2606977 123.0235663
  51.8563979  66.8171132 124.3180201  52.2128500  63.1275305 120.8763892
  52.2626505  62.9625312 121.8179415  52.1042423  62.2602564 120.4861773
  49.5032262  59.1106233 122.1923199  50.4042125  58.9712698 121.9007197
  49.5780237  59.2760688 123.1321377  43.8375067  56.4873088 121.0376386
  42.9678377  56.7806654 120.7658974  44.0734548  57.0713533 121.7583649
  53.7146696  65.5472247 121.1205914  53.4231505  65.9102227 121.9569375
  53.1018828  64.8339255 120.9419246  54.9142379  63.1125126 113.6408484
  55.7489270  63.5514930 113.8046045  55.0501508  62.6363780 112.8216730
  51.9633885  60.6704861 119.5885972  52.4388006  60.8632507 118.7804823
  51.0399450  60.7264047 119.3429356  46.5414101  52.7052705 118.5541806
  47.0596045  53.4413732 118.2288294  46.1869234  53.0116698 119.3888565
  38.1213039  57.5657386 106.6703212  37.4282284  57.6401741 106.0143248
  37.8764791  56.8017730 107.1924729  46.7926695  49.1252987 114.0742703
  47.0728449  48.4576176 114.7003129  47.5777302  49.3182083 113.5617366
  50.6635554  57.5470621 117.8214278  51.6152977  57.6468719 117.8426502
  50.4939004  56.7548890 118.3312362  48.6849933  54.6326204 118.0073679
  48.0899865  54.9131217 117.3120167  48.3999630  55.1220105 118.7790420
  50.4445440  67.9015002 103.7280259  50.3659072  67.5674865 104.6216017
  51.2655107  68.3936770 103.7271731  53.1423632  60.7676741 116.9356577
  53.1099952  59.8292742 117.1216261  53.7524255  60.8460778 116.2022402
  53.2918120  57.5587784 116.9814860  52.7757169  56.7746241 116.7944789
  54.1758069  57.2306501 117.1461380  50.9528847  51.3028800 112.9410673
  50.7553668  50.9943888 113.8254005  51.5628552  52.0290439 113.0708603
  58.9600181  61.8292748 116.0762614  59.6903570  61.5678036 116.6370317
  58.3507127  61.0921470 116.1164682  57.0415478  59.9700610 116.6737065
  56.3148642  59.8356575 116.0653557  56.6262765  60.2777439 117.4793783
  44.8645655  63.6890540 124.4384438  45.7848664  63.8669139 124.6324485
  44.8295238  62.7446585 124.2864138  34.0827820  58.8829134 113.3637713
  33.7630604  58.0294442 113.0712087  33.5361248  59.0977712 114.1195680
  37.8607727  61.5991575 117.0807219  38.0793737  62.5308682 117.0995253
  38.2733501  61.2399549 117.8662023  44.7811945  52.1059660 109.0682908
  43.9712674  51.7606745 109.4438154  45.4696362  51.7967204 109.6570519
  46.7102494  51.1837707 110.6907204  47.2633532  51.6033160 111.3497228
  46.9472580  50.2573455 110.7330160  33.9516080  62.5032045 115.3330835
  33.2579551  62.0885998 114.8200789  34.6989071  62.5452582 114.7364253
  50.0881301  53.2938232 110.1985869  49.5079970  53.9523036 109.8163921
  49.8217233  52.4715577 109.7873286  48.5384867  52.6943290 112.4007189
  49.0384645  52.8059824 111.5921508  49.1820475  52.3904343 113.0407997
  42.5966863  60.6021919 125.2875030  42.1133945  61.4022279 125.4938919
  42.6827802  60.6129864 124.3342474  35.8652822  62.4350299 113.2096849
  35.8423511  62.5337986 112.2578732  36.1753459  63.2815450 113.5314016
  38.5240200  64.4926454 117.3243464  39.4783454  64.4610396 117.2573395
  38.3252724  64.0317078 118.1393690  39.1139582  63.0627570 119.8914261
  39.9332471  63.5571649 119.9149099  39.3876390  62.1459538 119.8631829
  48.8706179  55.4538322 109.2542217  47.9832034  55.7387973 109.0362412
  49.2860168  55.2932086 108.4069494  52.2220715  55.4784843 112.9696556
  52.9981105  55.9681296 113.2421173  51.4968849  55.9042898 113.4268426
  54.6593273  56.1912463 114.0270497  55.2537764  55.9508198 113.3163805
  54.7319857  55.4719593 114.6544033  36.8790429  70.0346073 114.3413662
  36.7444897  69.2746474 113.7751660  36.4622491  70.7586973 113.8742451
  48.8447202  60.9692858 109.4692507  48.7882404  61.4261410 108.6300140
  49.3975545  60.2083543 109.2915350  52.6552008  56.7582590 110.2942627
  52.3988943  56.3579226 111.1250834  52.0304876  57.4726384 110.1692766
  56.9664346  59.4978663 112.8013918  56.4063904  59.5671853 113.5745480
  56.3607850  59.3219648 112.0813414  49.9236090  65.6565526 105.3988697
  50.7581693  65.2246725 105.2166172  49.7620432  65.4847540 106.3265592
  34.3674497  57.3965704 120.5906459  35.0133360  56.8864658 121.0793684
  34.1591648  58.1334386 121.1649884  46.8927889  64.4646551 126.0898599
  47.7619049  64.6387204 125.7285234  46.4134640  65.2840968 125.9674328
  42.8878107  51.6605749 106.3430355  42.8756777  52.6047588 106.4998626
  43.7801529  51.4775894 106.0489816  41.0614069  71.5843652 117.7688033
  41.9641316  71.6167263 118.0854528  40.8351439  70.6544103 117.7834369
  46.7030227  48.2548525 110.5976292  45.9362622  47.7007012 110.7432974
  47.1140932  48.3270394 111.4590443  58.5520365  76.1735177 115.4943874
  59.1898775  76.0541925 114.7907214  58.4341207  77.1216021 115.5531826
  55.3610071  76.1262605 115.4305398  55.0228582  76.0103670 114.5425933
  56.2299839  75.7253771 115.4106405  51.2196887  77.9798082 111.4202289
  50.6561752  77.8888019 110.6518577  51.1049282  77.1597986 111.9004782
  55.8429854  77.2797457 121.3891604  55.8318495  76.8850255 120.5172108
  56.0050493  76.5463530 121.9825375  48.7661319  79.4749273 114.2586510
  49.5582610  79.1340098 113.8432809  49.0057969  79.5844248 115.1788663
  56.7996445  81.6469050 106.7316754  56.1484425  82.2323130 106.3450768
  57.5940808  82.1775244 106.7911792  50.7252072  78.7358187 107.1303889
  51.4982948  78.1887174 106.9916764  51.0777471  79.6002436 107.3418350
  52.5637115  80.0634569 120.3370788  52.2726981  80.9680200 120.2217454
  53.1994099  80.1051097 121.0514858  53.4893322  77.4411417 116.9272148
  54.0856894  77.2167440 116.2129111  53.5468293  76.6996163 117.5297595
  53.0618350  74.8950853 104.7622339  53.3143871  74.3732374 104.0005802
  52.1242909  74.7316998 104.8649022  58.1061633  73.8986631 112.5697082
  58.8924722  73.4806054 112.2187499  58.3700337  74.8032723 112.7378730
  58.2771710  79.3359481 107.2685739  57.6417543  79.4094108 107.9806643
  57.9469117  79.9253080 106.5904818  63.5070060  73.8361864 113.4730060
  64.2395232  73.2661081 113.7067890  62.7509416  73.4483465 113.9136566
  52.7814639  76.7978959 106.9646714  52.6650897  76.1223862 107.6327798
  52.8916899  76.3111333 106.1478867  55.1246180  76.2589106 110.6693403
  54.7604387  75.7319727 111.3806324  55.9813296  75.8687575 110.4959888
  61.0295481  67.5483438 117.9324669  60.6978805  68.4178849 117.7085884
  60.4341094  67.2319722 118.6118699  54.7651667  71.2879006 105.6654751
  54.9326069  72.1559242 106.0325222  54.5748836  71.4506287 104.7416041
  57.5227000  79.7495984 117.3320582  57.2227723  80.6521023 117.2236389
  57.1778060  79.4828168 118.1841735  50.9739482  76.2009781 113.3657286
  50.0489978  76.0685995 113.5734978  51.2223895  76.9804001 113.8627228
  60.9224144  72.2678525 115.0118019  60.0141021  72.1993933 114.7176780
  60.8711740  72.7450470 115.8399844  54.7440888  73.7436663 106.6501418
  54.6240513  74.1893714 107.4886898  54.0493476  74.0921981 106.0914956
  48.3348293  75.8443055 114.2001075  48.4640674  76.0977534 115.1140487
  47.6545744  76.4370763 113.8805730  52.5047780  86.5140305 110.2991549
  52.4271810  87.4648130 110.3780030  51.9009423  86.1686177 110.9566476
  54.9965010  73.6868170 122.9552916  54.2198344  74.2462090 122.9455781
  55.6355573  74.1724953 123.4767786  62.7885790  70.4694963 116.7895893
  62.1460171  70.7627496 116.1435687  62.2840719  70.3547883 117.5949090
  60.4425954  74.2158136 107.4781752  61.3543810  74.4485523 107.3029450
  59.9335601  74.7995180 106.9156831  53.2511382  76.4953624 122.5170883
  53.9926066  77.0338668 122.2405707  52.5448367  77.1219912 122.6742435
  58.7266722  78.6382764 121.1143045  59.1350078  78.1965175 120.3697677
  58.0043983  78.0635392 121.3677238  55.0797792  73.5755371 118.4876602
  55.9258987  73.9994784 118.6311251  55.0196429  72.9188995 119.1815165
  59.0495536  79.1983955 114.8695334  58.4204399  79.3629669 114.1671401
  58.6621198  79.6125564 115.6406298  62.9284768  80.1338393 112.2239697
  62.2435806  80.5137294 111.6736731  63.0128617  80.7433719 112.9571645
  58.2297237  71.2359739 120.1457775  57.9858169  71.9901800 119.6092051
  58.5057168  71.6145087 120.9805022  60.1835700  77.7798352 118.8235041
  60.3952595  78.4230111 118.1469422  60.1365448  76.9460668 118.3556971
  57.7861929  70.3916172 115.7271613  56.9246408  70.6897426 116.0188351
  57.8124363  70.6086571 114.7952646  54.6023498  78.9358363 112.1345419
  55.0661844  79.2146066 111.3450041  54.3380296  78.0341807 111.9518509
  51.4947579  78.4829844 115.0725182  52.0648936  78.9117113 114.4342666
  52.0855691  78.2012429 115.7709368  53.5392384  75.0581515 108.9434984
  54.2416428  75.5102559 109.4108910  53.2073013  74.4165334 109.5714877
  51.9872746  73.6493272 123.3186193  51.3571406  74.3309553 123.5521590
  51.8808834  73.5376353 122.3739332  61.2981528  80.6570307 116.9957398
  62.1198971  80.2550494 116.7140080  61.2943931  80.5538541 117.9473514
  55.0638131  80.2054350 119.1518109  55.1282564  80.6674758 119.9876281
  54.3549055  79.5751715 119.2800419  45.5655421  73.5695558 116.6767108
  45.8163460  74.4542568 116.9424684  46.1014970  73.3900160 115.9042200
  69.3887521  77.0009055 113.3442370  68.6351229  76.4316454 113.1886374
  69.5235062  76.9671720 114.2913004  54.7786149  81.8722458 109.0197089
  54.6431824  82.7173994 109.4481937  55.3195961  82.0741735 108.2563023
  51.2653488  67.9514038 125.6811444  50.8720434  67.3980236 126.3559089
  52.0819629  68.2624616 126.0717962  48.2315546  79.3897896 109.5925014
  48.7440067  80.1841146 109.7430579  48.8838259  78.6924186 109.5258616
  50.0410431  82.5063652 111.6747767  50.2177059  83.4281617 111.4868751
  50.8367264  82.1922071 112.1042147  54.1821449  69.3671917 123.2731701
  54.9231163  69.9679070 123.1936163  54.4139372  68.6249555 122.7149743
  49.3262787  74.5528284 121.5509931  49.2116303  73.6513541 121.8517029
  48.4707305  74.7991981 121.1994747  56.4054625  82.4946024 123.1497431
  55.9618479  81.7082403 122.8318336  57.0671839  82.6825175 122.4841322
  51.1641746  84.0241826 117.6758110  51.7149171  83.8958889 116.9035104
  50.3253222  84.3236715 117.3253002  58.5035863  82.7748824 121.1778832
  58.4854339  83.5957705 120.6859102  59.4255783  82.6502899 121.4028974
  54.9608917  80.2892954 122.0202341  55.4937254  79.5281242 121.7901649
  54.4322999  79.9966606 122.7626495  58.1278612  65.3953020 117.5495983
  57.7842882  66.2854661 117.4735093  58.4957575  65.2054677 116.6865568
  58.0928895  75.3861631 106.0568418  57.5775519  76.1566235 106.2956805
  57.8206204  74.7126767 106.6801479  55.6776006  70.2311332 111.1153656
  54.8217602  69.8418182 110.9359295  56.0902958  70.3103292 110.2553442
  57.2075153  67.7657675 115.5145216  56.7039948  67.7287810 114.7013021
  57.5005760  68.6750418 115.5741872  53.4518039  67.8496405 114.5211398
  54.3171035  67.6539213 114.1617287  53.5195548  67.6206756 115.4480754
  63.0663169  78.1393985 107.9921591  62.2892612  77.8005145 107.5476753
  63.7454650  78.1446609 107.3176556  57.8815198  73.2588723 107.8828199
  57.5765334  73.5734872 108.7338342  58.8345640  73.3370143 107.9255532
  56.3261630  79.4178946 109.5321153  55.7982992  78.6831706 109.2194390
  55.8249133  80.1953623 109.2861121  61.3054476  77.6127967 114.6488199
  60.6478151  78.3027228 114.7368328  62.1094875  78.0024399 114.9922185
  51.0580358  70.0798612 111.8927764  51.6324110  69.8573794 111.1600957
  51.6451340  70.1487307 112.6456366  60.1159935  75.9672339 112.6992141
  60.6291817  76.6002331 113.2013851  60.7661159  75.3673535 112.3335501
  51.3849945  72.1103073 105.9123650  50.5487257  72.4477760 106.2332924
  51.2454714  71.9752053 104.9750787  53.3603025  66.9539861 110.6202834
  52.7067438  66.6388879 109.9959449  53.3183500  66.3315602 111.3462657
  54.4714230  77.2359156 102.5356126  53.5641292  77.0048410 102.7347275
  54.9685262  76.4396776 102.7230107  57.3782309  85.9456664 105.4552812
  56.7044008  86.2488360 106.0637770  57.7648131  86.7485744 105.1058269
  56.5940766  73.4421795 114.9450481  55.6763327  73.6636742 114.7872169
  57.0100909  73.5168105 114.0862189  57.3775814  74.8413211 110.0753162
  58.1247633  75.3534608 109.7660284  57.6467403  74.5197263 110.9357555
  55.6502464  77.3371751 107.0580116  54.7413683  77.0530784 107.1552586
  55.6797548  77.7570830 106.1983423  60.8821731  80.9478341 110.8271284
  60.4284058  80.1069251 110.8836474  60.2515698  81.5839739 111.1646064
  59.8254651  71.8770327 112.0571951  59.0877408  71.3647713 112.3882194
  60.0781424  71.4370708 111.2455228  59.3254670  82.7854838 111.7621102
  59.6177645  83.3459895 111.0433467  59.8353291  83.0783398 112.5174261
  59.9266278  64.6546579 112.6513720  60.2325155  63.7943942 112.3639635
  60.6518883  65.2464199 112.4512714  54.1987358  74.9500372 113.1589911
  54.2535968  73.9974208 113.0832388  53.3878560  75.1059811 113.6431210
  55.3478552  78.8780495 104.3968195  54.9097981  78.1616354 103.9373832
  56.0888992  79.1056610 103.8353286  52.1379718  73.5677432 110.9180290
  51.3247583  73.8671602 111.3245482  52.6338712  73.1733120 111.6354772
  54.2888296  83.5635189 112.8514555  54.2464474  83.7896035 111.9223087
  55.2050994  83.3298563 113.0000356  57.7353929  74.0319256 119.7495184
  58.0903317  74.2590729 120.6089650  58.3826061  74.3637633 119.1272439
  63.4651666  77.1537692 110.4544513  63.3269565  77.3439288 109.5265702
  63.1087885  77.9157075 110.9112564  51.6293792  71.1395787 116.5341525
  52.2693172  70.9984546 115.8364488  50.7971323  70.8530301 116.1580127
  63.4921046  79.2214219 115.4655785  63.9257553  79.1289508 116.3138839
  64.2052627  79.1971719 114.8275801  52.4054096  80.4398218 112.6476518
  53.1994695  79.9448538 112.4459093  51.6945789  79.9116081 112.2844223
  57.2248941  82.8216313 116.9988885  57.2785963  83.3907249 117.7666601
  56.3563722  82.9918198 116.6342922  50.1047334  72.5233869 118.4813336
  50.7770388  72.3151231 117.8325985  49.2777121  72.3255955 118.0418569
  64.3536596  79.2637920 117.9988670  64.5472486  80.1683730 118.2447945
  64.2537214  78.8045339 118.8327255  56.0072906  69.1495810 120.4978997
  55.3600821  69.8485760 120.4043474  56.7773922  69.5831954 120.8655246
  59.4151704  79.4144662 123.5729551  59.2637211  79.1855214 122.6559634
  59.4056384  80.3715264 123.5860896  56.1837041  76.9876575 118.5575817
  57.1129101  77.1387735 118.3844784  55.7628071  77.0760596 117.7024464
  54.9825372  81.0127240 116.3274355  54.8436458  80.6446024 117.2000293
  54.1939969  81.5274879 116.1558312  55.5773524  86.1136336 107.6699891
  55.7525280  85.6424379 108.4845514  54.8906312  86.7402102 107.8981152
  56.5330588  80.3908842 113.7163192  56.1980420  80.3509612 114.6120842
  56.0334533  79.7253558 113.2433603  50.5074831  75.7976472 119.2415774
  50.3694629  75.0656711 119.8427313  51.4179755  75.7085372 118.9599961
  59.4689779  77.7364877 103.9900252  58.8518950  77.0111705 103.8933305
  59.0006268  78.4974237 103.6467326  53.1357132  75.5096432 118.7299453
  53.8456751  74.8689624 118.6886072  53.0926440  75.7609326 119.6525634
  61.1243911  82.4463785 121.6506032  61.0656457  81.7623005 120.9836615
  61.5263429  83.1882775 121.1986658  51.8486066  72.4961650 120.5495093
  51.3123423  72.0452388 121.2016689  51.2602775  72.6307558 119.8065557
  50.1434610  89.2625699 114.4439751  50.3831208  89.8944223 115.1218770
  49.3003806  88.9113739 114.7305111  51.2588325  71.9550301 103.1121556
  50.3817791  71.8339102 102.7483803  51.7346078  71.1636379 102.8600445
  61.1261318  80.4103369 119.8820012  60.2388097  80.0729291 120.0046411
  61.6959869  79.6786400 120.1188778  42.7790465  76.7427461 113.2063064
  43.4661505  76.4289191 112.6184079  42.6238594  77.6468825 112.9330315
  47.5825187  71.6317657 117.6348087  47.4983376  71.0243327 116.8998497
  46.7607894  72.1226676 117.6357584  54.6562471  85.0704821 116.8481255
  54.5832643  85.8759793 117.3600560  54.2139865  85.2696787 116.0229277
  54.4452251  84.3076591 110.3584077  53.6619773  84.8498271 110.4522301
  55.1444996  84.8250571 110.7578318  57.7548901  70.1171221 113.0018282
  58.2517601  69.3641183 112.6819353  56.9835883  70.1535537 112.4361492
  65.6078659  75.8211586 114.6436574  65.5968535  76.7036302 114.2730507
  64.7396038  75.4683137 114.4491111  57.1161155  84.9691655 119.0039414
  57.8289127  85.6039120 118.9315315  56.6251184  85.0655521 118.1879416
  58.8378682  78.8742908 110.5756706  57.9034961  78.9944370 110.4061410
  59.0155350  77.9715375 110.3116716  54.3383870  72.2588604 112.7289967
  53.9681657  71.7059644 113.4170872  54.8342962  71.6546737 112.1764967
  62.2251233  74.7160227 111.1106740  62.6911685  75.5488219 111.0367042
  62.6758734  74.2505209 111.8151998  52.1673069  82.7186099 119.8244985
  52.8682528  83.3522582 119.9774379  51.6968184  83.0600830 119.0640624
  60.2927464  81.0604049 108.1092892  60.5687308  80.9460643 109.0186766
  59.4231963  80.6621533 108.0705065  60.1967896  67.0840814 115.1497641
  59.2830976  67.3145041 115.3179848  60.6260997  67.1679258 116.0011674
  59.9674355  75.2730706 117.6497535  59.3145805  75.5206614 116.9949988
  60.3454734  74.4594844 117.3160012  56.9281528  85.3090399 111.7525705
  57.1103923  84.4912055 112.2153458  57.7514514  85.5258092 111.3150595
  57.2623694  84.2358585 109.0140754  57.7911460  83.7251039 108.4010916
  57.5251913  83.9201115 109.8786287  56.0161928  76.0150517 124.1363572
  55.3402565  75.9144647 124.8065947  56.8389561  75.8589731 124.5999569
  47.7640787  82.2522454 116.7576088  48.3494223  81.5066142 116.8903992
  47.5665625  82.5626411 117.6412751  50.6179442  85.2873701 111.7738530
  49.9489817  85.7719829 111.2902570  50.4792312  85.5342922 112.6881908
  42.3558441  74.8228054 115.4780531  42.3942541  74.2891645 116.2717649
  41.8498734  74.2963260 114.8591508  54.7584710  87.3217445 118.3721188
  55.3103018  87.4849066 119.1370273  55.0990904  87.9121883 117.7001213
  49.7349204  69.6692595 118.9743073  49.7990530  70.5307425 118.5620471
  49.6716324  69.0566596 118.2415431  49.2101476  71.7415727 122.6216107
  49.8373515  71.3592804 123.2353632  48.3529395  71.5229929 122.9871800
  57.8953098  85.2699420 115.3584870  57.7704237  84.4689160 114.8495816
  58.5532189  85.7645614 114.8698840  49.5161266  71.6248153 114.5362011
  48.7947852  72.2384120 114.3969484  50.3054522  72.1605918 114.4578657
  59.9588006  83.0708440 116.9864420  59.0118342  82.9513792 116.9142747
  60.3070779  82.1830938 117.0690682  52.3187579  68.9602579 120.8102662
  52.8421981  69.2064876 121.5728972  52.0999913  69.7922614 120.3905800
  56.9634439  82.8661157 113.1868773  56.8159402  81.9377864 113.3676343
  57.7887933  82.8881247 112.7025848  60.5668561  83.6889715 114.2733645
  61.4915109  83.4832577 114.1358097  60.3983865  83.4406116 115.1822987
  53.5240124  69.9016274 118.4952333  53.1836945  69.1024087 118.8973013
  52.8179131  70.2017985 117.9229166  54.1756596  66.9865587 116.9479656
  54.9982666  66.5126065 116.8258546  54.4194660  67.7656071 117.4478342
  52.8164831  70.0153845 107.2442558  53.5373193  70.3935098 106.7406274
  52.1930135  70.7342722 107.3477536  56.9595954  70.7198994 108.1800890
  57.1759568  71.6023632 107.8789718  56.4790021  70.3285208 107.4506532
  51.6995175  73.6784707 114.7571635  51.5539756  73.9925010 115.6495916
  51.2220379  74.2969608 114.2042533  53.5591558  70.6687255 114.8052524
  53.5453127  69.7728349 114.4684822  54.2763986  70.6757919 115.4390810
  55.4117689  71.1024596 116.8505652  55.1535466  72.0241666 116.8489982
  54.8802729  70.7055030 117.5406116  60.3563877  84.2075383 109.6295737
  60.5300755  83.6421805 108.8769589  60.8492769  85.0076278 109.4475227
  46.1740837  76.2190052 117.6959296  45.6294305  76.9949860 117.8279570
  47.0520187  76.5660856 117.5378417  52.9628454  69.5501636 110.0740094
  53.0844365  68.6218282 110.2730982  52.6730496  69.5640322 109.1618410
  55.8319644  67.2356546 113.2106814  55.8541341  67.2995879 112.2558794
  56.2487703  66.3961055 113.4047320  66.2103269  76.9711806 111.2486037
  66.6534415  76.2219131 110.8505160  65.3329779  76.9621942 110.8659769
  61.3439050  83.5242147 106.7292635  62.0389955  84.1448840 106.9479950
  61.6862200  82.6737498 107.0045013  46.9606859  75.3459948 120.5889453
  46.2188595  75.4942583 121.1754083  46.6399603  75.6068214 119.7256202
  63.2430473  80.9741853 108.2579966  63.7681797  81.3129125 107.5329286
  63.1552826  80.0388868 108.0743101  54.9050522  84.8875926 120.3869843
  55.2137648  84.6425073 121.2592542  55.7026004  85.0922565 119.8988713
  54.9271134  87.0413836 112.6175219  54.4876124  86.5490215 113.3108076
  55.6779251  86.4986804 112.3767294  47.4063473  83.2325377 112.6199847
  48.2321493  82.9329149 112.2398491  47.0557525  82.4632999 113.0689636
  52.3745006  82.5851845 114.6897521  51.7525015  81.9222550 114.3899749
  53.0449873  82.6112977 114.0071169  45.6072078  81.1511703 113.5788781
  44.7703986  80.7233878 113.3972782  45.5795723  81.3444147 114.5159572
  52.4469533  71.0633633 124.2830027  52.4957689  71.9395756 123.9007796
  52.9892048  70.5211026 123.7101670  63.0522254  78.4567223 120.8763892
  63.1020259  78.2917230 121.8179415  62.9436177  77.5894482 120.4861773
  51.9358513  81.1355768 108.1655981  52.0846633  81.8191233 107.5122654
  52.7424956  81.1160858 108.6805437  60.3426017  74.4398151 122.1923199
  61.2435879  74.3004616 121.9007197  60.4173991  74.6052606 123.1321377
  54.6768822  71.8165005 121.0376386  53.8072131  72.1098572 120.7658974
  54.9128302  72.4005450 121.7583649  64.5540451  80.8764164 121.1205914
  64.2625259  81.2394145 121.9569375  63.9412582  80.1631172 120.9419246
  65.7536133  78.4417044 113.6408484  66.5883025  78.8806848 113.8046045
  65.8895262  77.9655697 112.8216730  62.8027639  75.9996779 119.5885972
  63.2781761  76.1924425 118.7804823  61.8793205  76.0555965 119.3429356
  49.6911146  77.1620946 109.1717050  49.4457188  76.2583276 109.3697260
  49.8607060  77.1638096 108.2296528  57.3807856  68.0344622 118.5541806
  57.8989800  68.7705649 118.2288294  57.0262988  68.3408616 119.3888565
  57.6320450  64.4544905 114.0742703  57.9122204  63.7868094 114.7003129
  58.4171057  64.6474001 113.5617366  55.4353918  83.6303899 105.6367729
  54.8627885  84.2494086 105.1838201  56.0086712  84.1803261 106.1707651
  61.5029308  72.8762539 117.8214278  62.4546731  72.9760637 117.8426502
  61.3332759  72.0840807 118.3312362  59.5243688  69.9618122 118.0073679
  58.9293620  70.2423135 117.3120167  59.2393384  70.4512023 118.7790420
  58.6551178  83.9141049 106.7676311  59.5881851  83.8486611 106.9709187
  58.5674391  84.7497316 106.3090844  61.2839195  83.2306919 103.7280259
  61.2052826  82.8966783 104.6216017  62.1048862  83.7228687 103.7271731
  63.9817386  76.0968659 116.9356577  63.9493706  75.1584659 117.1216261
  64.5918010  76.1752695 116.2022402  55.8200717  74.9664712 102.9783781
  56.7659822  74.8370920 103.0472199  55.4414962  74.2279373 103.4553209
  64.1311874  72.8879702 116.9814860  63.6150923  72.1038159 116.7944789
  65.0151823  72.5598419 117.1461380  61.7922601  66.6320718 112.9410673
  61.5947423  66.3235806 113.8254005  62.4022307  67.3582357 113.0708603
  69.7993936  77.1584665 116.0762614  70.5297324  76.8969954 116.6370317
  69.1900881  76.4213387 116.1164682  67.8809233  75.2992528 116.6737065
  67.1542397  75.1648493 116.0653557  67.4656520  75.6069357 117.4793783
  55.7039409  79.0182458 124.4384438  56.6242419  79.1961057 124.6324485
  55.6688992  78.0738503 124.2864138  54.0043634  72.8914688 102.9138667
  53.0975089  72.5947801 102.9901380  54.2819615  72.5944506 102.0472953
  48.7001482  76.9283492 117.0807219  48.9187492  77.8600600 117.0995253
  49.1127256  76.5691467 117.8662023  55.6205700  67.4351578 109.0682908
  54.8106428  67.0898663 109.4438154  56.3090117  67.1259121 109.6570519
  57.5496248  66.5129624 110.6907204  58.1027287  66.9325078 111.3497228
  57.7866334  65.5865373 110.7330160  53.5729347  72.5016698 126.4709968
  53.4726074  73.4511055 126.4022059  53.3550889  72.1734937 125.5986038
  52.7742419  69.7501623 103.0550646  53.6361583  70.0756521 103.3146463
  52.9592763  68.9633119 102.5423712  44.7909834  77.8323963 115.3330835
  44.0973306  77.4177916 114.8200789  45.5382825  77.8744499 114.7364253
  60.9275055  68.6230150 110.1985869  60.3473724  69.2814954 109.8163921
  60.6610988  67.8007494 109.7873286  59.3778621  68.0235207 112.4007189
  59.8778400  68.1351742 111.5921508  60.0214229  67.7196260 113.0407997
  53.4360617  75.9313837 125.2875030  52.9527699  76.7314197 125.4938919
  53.5221556  75.9421782 124.3342474  46.7046577  77.7642217 113.2096849
  46.6817265  77.8629904 112.2578732  47.0147213  78.6107367 113.5314016
  49.3633955  79.8218372 117.3243464  50.3177208  79.7902314 117.2573395
  49.1646478  79.3608995 118.1393690  49.9533337  78.3919488 119.8914261
  50.7726226  78.8863566 119.9149099  50.2270145  77.4751456 119.8631829
  59.7099933  70.7830240 109.2542217  58.8225788  71.0679891 109.0362412
  60.1253922  70.6224003 108.4069494  63.0614469  70.8076761 112.9696556
  63.8374859  71.2973213 113.2421173  62.3362603  71.2334815 113.4268426
  65.4987028  71.5204380 114.0270497  66.0931519  71.2800116 113.3163805
  65.5713612  70.8011511 114.6544033  47.7184184  85.3637991 114.3413662
  47.5838652  84.6038392 113.7751660  47.3016246  86.0878891 113.8742451
  58.8543147  80.5474915 103.3490237  59.5578997  80.7524917 103.9647893
  58.1305795  81.1151677 103.6139320  59.6840957  76.2984776 109.4692507
  59.6276158  76.7553327 108.6300140  60.2369299  75.5375461 109.2915350
  63.4945763  72.0874508 110.2942627  63.2382697  71.6871143 111.1250834
  62.8698631  72.8018302 110.1692766  67.8058101  74.8270581 112.8013918
  67.2457659  74.8963770 113.5745480  67.2001604  74.6511566 112.0813414
  50.8753309  86.2607308 114.5532104  50.7585694  87.2052741 114.4510795
  50.0545756  85.9580870 114.9417904  60.7629844  80.9857444 105.3988697
  61.5975448  80.5538642 105.2166172  60.6014187  80.8139458 106.3265592
  60.4175736  77.4889557 106.7645036  60.3624540  77.3233829 105.8233480
  59.7921791  78.1965590 106.9207226  45.2068251  72.7257622 120.5906459
  45.8527115  72.2156576 121.0793684  44.9985402  73.4626303 121.1649884
  53.7271862  66.9897666 106.3430355  53.7150531  67.9339506 106.4998626
  54.6195284  66.8067812 106.0489816  51.9007824  86.9135570 117.7688033
  52.8035070  86.9459180 118.0854528  51.6745194  85.9836021 117.7834369
  53.6561426  85.6666557 114.4298111  52.7057057  85.6668418 114.3162484
  53.9593912  84.9199291 113.9134146  57.5423981  63.5840443 110.5976292
  56.7756377  63.0298930 110.7432974  57.9534686  63.6562312 111.4590443
  49.5465742  69.8725239 124.6881473  50.4097204  69.5162044 124.8984797
  48.9731153  69.5339133 125.3756877  62.0590641  93.3090000 111.4202289
  61.4955506  93.2179936 110.6518577  61.9443036  92.4889904 111.9004782
  59.6055073  94.8041191 114.2586510  60.3976365  94.4632016 113.8432809
  59.8451723  94.9136166 115.1788663  67.6390200  96.9760967 106.7316754
  66.9878180  97.5615048 106.3450768  68.4334563  97.5067162 106.7911792
  61.5645827  94.0650104 107.1303889  62.3376703  93.5179091 106.9916764
  61.9171226  94.9294354 107.3418350  63.9012105  90.2242770 104.7622339
  64.1537625  89.7024292 104.0005802  62.9636664  90.0608916 104.8649022
  68.9455388  89.2278549 112.5697082  69.7318477  88.8097972 112.2187499
  69.2094092  90.1324641 112.7378730  69.1165465  94.6651399 107.2685739
  68.4811298  94.7386026 107.9806643  68.7862871  95.2544998 106.5904818
  63.6208394  92.1270876 106.9646714  63.5044652  91.4515780 107.6327798
  63.7310653  91.6403250 106.1478867  65.9639934  91.5881024 110.6693403
  65.5998142  91.0611645 111.3806324  66.8207050  91.1979493 110.4959888
  65.6045421  86.6170923 105.6654751  65.7719824  87.4851160 106.0325222
  65.4142590  86.7798205 104.7416041  61.8133236  91.5301699 113.3657286
  60.8883733  91.3977913 113.5734978  62.0617649  92.3095918 113.8627228
  65.5834642  89.0728581 106.6501418  65.4634267  89.5185632 107.4886898
  64.8887231  89.4213898 106.0914956  59.1742047  91.1734973 114.2001075
  59.3034428  91.4269451 115.1140487  58.4939498  91.7662681 113.8805730
  71.2819708  89.5450054 107.4781752  72.1937565  89.7777441 107.3029450
  70.7729356  90.1287098 106.9156831  68.6255683  85.7208090 115.7271613
  67.7640162  86.0189343 116.0188351  68.6518118  85.9378489 114.7952646
  65.4417253  94.2650280 112.1345419  65.9055598  94.5437983 111.3450041
  65.1774051  93.3633725 111.9518509  64.3786139  90.3873433 108.9434984
  65.0810182  90.8394476 109.4108910  64.0466767  89.7457252 109.5714877
  58.1211473  88.6456985 114.2452117  57.3310527  88.9014514 113.7692228
  58.6122720  89.4605323 114.3504158  60.0726218  89.0101565 111.2035594
  59.2757381  89.1220259 111.7219090  59.8451810  89.3488217 110.3376485
  56.4049176  88.8987476 116.6767108  56.6557214  89.7834486 116.9424684
  56.9408724  88.7192077 115.9042200  65.6179903  97.2014375 109.0197089
  65.4825578  98.0465911 109.4481937  66.1589716  97.4033653 108.2563023
  59.0709301  94.7189813 109.5925014  59.5833821  95.5133064 109.7430579
  59.7232014  94.0216104 109.5258616  60.8804185  97.8355570 111.6747767
  61.0570814  98.7573534 111.4868751  61.6761019  97.5213989 112.1042147
  68.9672367  80.7244937 117.5495983  68.6236636  81.6146579 117.4735093
  69.3351329  80.5346595 116.6865568  57.0358217  93.0478468 110.3684585
  57.8733439  93.4575476 110.1518292  57.2136485  92.1077910 110.3384779
  68.9322650  90.7153548 106.0568418  68.4169273  91.4858153 106.2956805
  68.6599958  90.0418685 106.6801479  66.5169761  85.5603249 111.1153656
  65.6611357  85.1710100 110.9359295  66.9296712  85.6395210 110.2553442
  68.0468907  83.0949592 115.5145216  67.5433703  83.0579728 114.7013021
  68.3399514  84.0042335 115.5741872  64.2911793  83.1788322 114.5211398
  65.1564790  82.9831131 114.1617287  64.3589302  82.9498674 115.4480754
  73.9056924  93.4685903 107.9921591  73.1286366  93.1297063 107.5476753
  74.5848405  93.4738526 107.3176556  68.7208953  88.5880641 107.8828199
  68.4159088  88.9026790 108.7338342  69.6739395  88.6662060 107.9255532
  67.1655385  94.7470864 109.5321153  66.6376746  94.0123623 109.2194390
  66.6642887  95.5245540 109.2861121  61.8974112  85.4090530 111.8927764
  62.4717864  85.1865712 111.1600957  62.4845095  85.4779225 112.6456366
  62.2243699  87.4394991 105.9123650  61.3881012  87.7769678 106.2332924
  62.0848469  87.3043971 104.9750787  64.1996780  82.2831779 110.6202834
  63.5461192  81.9680796 109.9959449  64.1577254  81.6607520 111.3462657
  65.3107985  92.5651074 102.5356126  64.4035047  92.3340328 102.7347275
  65.8079017  91.7688693 102.7230107  68.2176064 101.2748581 105.4552812
  67.5437762 101.5780278 106.0637770  68.6041886 102.0777662 105.1058269
  67.4334520  88.7713713 114.9450481  66.5157082  88.9928660 114.7872169
  67.8494664  88.8460023 114.0862189  68.2169568  90.1705128 110.0753162
  68.9641387  90.6826525 109.7660284  68.4861158  89.8489181 110.9357555
  66.4896218  92.6663669 107.0580116  65.5807437  92.3822702 107.1552586
  66.5191302  93.0862748 106.1983423  70.6648405  87.2062245 112.0571951
  69.9271162  86.6939631 112.3882194  70.9175179  86.7662626 111.2455228
  70.7660033  79.9838497 112.6513720  71.0718909  79.1235860 112.3639635
  71.4912637  80.5756117 112.4512714  57.0584389  90.3869183 111.0395318
  56.8608788  89.7938544 110.3146385  56.5031053  90.0821393 111.7571257
  65.0381112  90.2792290 113.1589911  65.0929722  89.3266126 113.0832388
  64.2272314  90.4351729 113.6431210  66.1872306  94.2072413 104.3968195
  65.7491736  93.4908272 103.9373832  66.9282747  94.4348527 103.8353286
  62.9773472  88.8969349 110.9180290  62.1641338  89.1963520 111.3245482
  63.4732466  88.5025038 111.6354772  74.3045421  92.4829610 110.4544513
  74.1663319  92.6731206 109.5265702  73.9481640  93.2448993 110.9112564
  62.4687547  86.4687705 116.5341525  63.1086926  86.3276464 115.8364488
  61.6365078  86.1822218 116.1580127  63.2447851  95.7690135 112.6476518
  64.0388449  95.2740455 112.4459093  62.5339543  95.2407998 112.2844223
  59.5530614  89.9133217 108.7236270  58.6228202  89.8517673 108.9406232
  59.6488086  89.3909170 107.9272912  59.4716163  86.4388030 111.3114512
  59.7322981  87.3533363 111.2023672  60.2933336  85.9712472 111.4611125
  60.9441089  87.8525787 118.4813336  61.6164142  87.6443149 117.8325985
  60.1170875  87.6547873 118.0418569  66.4167279 101.4428254 107.6699891
  66.5919035 100.9716297 108.4845514  65.7300067 102.0694020 107.8981152
  70.3083534  93.0656794 103.9900252  69.6912704  92.3403622 103.8933305
  69.8400022  93.8266155 103.6467326  62.0982080  87.2842219 103.1121556
  61.2211546  87.1631019 102.7483803  62.5739833  86.4928297 102.8600445
  53.6184220  92.0719378 113.2063064  54.3055260  91.7581108 112.6184079
  53.4632348  92.9760743 112.9330315  58.4218942  86.9609575 117.6348087
  58.3377131  86.3535244 116.8998497  57.6001648  87.4518593 117.6357584
  68.5942656  85.4463138 113.0018282  69.0911355  84.6933101 112.6819353
  67.8229637  85.4827455 112.4361492  69.6772436  94.2034826 110.5756706
  68.7428715  94.3236288 110.4061410  69.8549105  93.3007292 110.3116716
  65.1777624  87.5880521 112.7289967  64.8075412  87.0351562 113.4170872
  65.6736717  86.9838655 112.1764967  73.0644988  90.0452145 111.1106740
  73.5305440  90.8780137 111.0367042  73.5152488  89.5797127 111.8151998
  71.1321219  96.3895966 108.1092892  71.4081063  96.2752561 109.0186766
  70.2625718  95.9913451 108.0705065  71.0361650  82.4132732 115.1497641
  70.1224730  82.6436959 115.3179848  71.4654752  82.4971176 116.0011674
  68.1017448  99.5650502 109.0140754  68.6305215  99.0542957 108.4010916
  68.3645668  99.2493032 109.8786287  53.1952196  90.1519972 115.4780531
  53.2336295  89.6183562 116.2717649  52.6892489  89.6255177 114.8591508
  60.5742958  84.9984512 118.9743073  60.6384285  85.8599343 118.5620471
  60.5110078  84.3858514 118.2415431  56.8260773  88.8784074 108.5534462
  57.1214214  87.9694752 108.5001516  55.9248809  88.8571813 108.2315464
  60.3555020  86.9540070 114.5362011  59.6341606  87.5676038 114.3969484
  61.1448276  87.4897835 114.4578657  58.5548615  86.5598172 108.6773787
  58.2261321  85.6795550 108.4948893  58.9087986  86.5045840 109.5650176
  61.6690438  86.8471141 109.0449265  62.0086511  87.3757063 108.3227873
  62.1162559  87.1851547 109.8207831  64.3633879  85.2308192 118.4952333
  64.0230699  84.4316005 118.8973013  63.6572885  85.5309903 117.9229166
  65.0150351  82.3157504 116.9479656  65.8376420  81.8417983 116.8258546
  65.2588414  83.0947988 117.4478342  63.6558585  85.3445763 107.2442558
  64.3766948  85.7227016 106.7406274  63.0323889  86.0634640 107.3477536
  67.7989708  86.0490912 108.1800890  68.0153323  86.9315550 107.8789718
  67.3183775  85.6577125 107.4506532  62.5388930  89.0076625 114.7571635
  62.3933510  89.3216928 115.6495916  62.0614133  89.6261525 114.2042533
  64.3985312  85.9979173 114.8052524  64.3846881  85.1020266 114.4684822
  65.1157741  86.0049837 115.4390810  66.2511443  86.4316513 116.8505652
  65.9929221  87.3533584 116.8489982  65.7196484  86.0346948 117.5406116
  57.0134592  91.5481969 117.6959296  56.4688060  92.3241777 117.8279570
  57.8913942  91.8952774 117.5378417  63.8022208  84.8793553 110.0740094
  63.9238120  83.9510200 110.2730982  63.5124251  84.8932239 109.1618410
  66.6713399  82.5648464 113.2106814  66.6935096  82.6287797 112.2558794
  67.0881458  81.7252972 113.4047320  72.1832804  98.8534065 106.7292635
  72.8783709  99.4740757 106.9479950  72.5255955  98.0029416 107.0045013
  74.0824228  96.3033770 108.2579966  74.6075552  96.6421043 107.5329286
  73.9946580  95.3680786 108.0743101  58.2457227  98.5617294 112.6199847
  59.0715247  98.2621066 112.2398491  57.8951279  97.7924917 113.0689636
  56.4465832  96.4803621 113.5788781  55.6097741  96.0525795 113.3972782
  56.4189478  96.6736064 114.5159572  62.7752267  96.4647686 108.1655981
  62.9240388  97.1483150 107.5122654  63.5818711  96.4452776 108.6805437
  60.5304900  92.4912864 109.1717050  60.2850942  91.5875194 109.3697260
  60.7000815  92.4930014 108.2296528  59.8000548  88.2241221 106.6703212
  59.1069793  88.2985576 106.0143248  59.5552300  87.4601565 107.1924729
  68.4714204  79.7836823 114.0742703  68.7515958  79.1160012 114.7003129
  69.2564811  79.9765918 113.5617366  66.2747673  98.9595816 105.6367729
  65.7021640  99.5786004 105.1838201  66.8480467  99.5095178 106.1707651
  69.4944933  99.2432967 106.7676311  70.4275606  99.1778528 106.9709187
  69.4068145 100.0789233 106.3090844  72.1232949  98.5598837 103.7280259
  72.0446581  98.2258701 104.6216017  72.9442616  99.0520605 103.7271731
  66.6594471  90.2956629 102.9783781  67.6053576  90.1662837 103.0472199
  66.2808716  89.5571291 103.4553209  72.6316356  81.9612635 112.9410673
  72.4341177  81.6527723 113.8254005  73.2416061  82.6874274 113.0708603
  64.8437389  88.2206606 102.9138667  63.9368844  87.9239718 102.9901380
  65.1213370  87.9236424 102.0472953  55.7615329  89.5412969 113.3637713
  55.4418113  88.6878277 113.0712087  55.2148757  89.7561547 114.1195680
  66.4599454  82.7643495 109.0682908  65.6500183  82.4190580 109.4438154
  67.1483871  82.4551039 109.6570519  68.3890003  81.8421542 110.6907204
  68.9421041  82.2616996 111.3497228  68.6260089  80.9157290 110.7330160
  63.6136173  85.0793541 103.0550646  64.4755337  85.4048439 103.3146463
  63.7986517  84.2925037 102.5423712  55.6303589  93.1615881 115.3330835
  54.9367060  92.7469833 114.8200789  56.3776580  93.2036417 114.7364253
  71.7668810  83.9522067 110.1985869  71.1867479  84.6106871 109.8163921
  71.5004742  83.1299412 109.7873286  70.2172376  83.3527125 112.4007189
  70.7172154  83.4643660 111.5921508  70.8607984  83.0488178 113.0407997
  57.5440331  93.0934134 113.2096849  57.5211020  93.1921822 112.2578732
  57.8540968  93.9399285 113.5314016  70.5493688  86.1122158 109.2542217
  69.6619543  86.3971808 109.0362412  70.9647677  85.9515921 108.4069494
  73.9008224  86.1368679 112.9696556  74.6768614  86.6265131 113.2421173
  73.1756358  86.5626733 113.4268426  69.6936901  95.8766832 103.3490237
  70.3972751  96.0816835 103.9647893  68.9699550  96.4443594 103.6139320
  70.5234711  91.6276694 109.4692507  70.4669913  92.0845245 108.6300140
  71.0763054  90.8667378 109.2915350  74.3339517  87.4166425 110.2942627
  74.0776452  87.0163061 111.1250834  73.7092385  88.1310219 110.1692766
  71.6023598  96.3149362 105.3988697  72.4369202  95.8830560 105.2166172
  71.4407941  96.1431375 106.3265592  71.2569491  92.8181475 106.7645036
  71.2018294  92.6525746 105.8233480  70.6315546  93.5257508 106.9207226
  56.0462006  88.0549539 120.5906459  56.6920869  87.5448493 121.0793684
  55.8379157  88.7918221 121.1649884  64.5665616  82.3189584 106.3430355
  64.5544286  83.2631424 106.4998626  65.4589038  82.1359729 106.0489816
  68.3817736  78.9132361 110.5976292  67.6150131  78.3590847 110.7432974
  68.7928441  78.9854229 111.4590443  73.0637454 102.7686909 105.9123650
  72.2274766 103.1061595 106.2332924  72.9242223 102.6335889 104.9750787
  72.9375834 102.6134136 103.1121556  72.0605300 102.4922937 102.7483803
  73.4133587 101.8220215 102.8600445  70.6394302 103.5533139 106.6703212
  69.9463547 103.6277494 106.0143248  70.3946054 102.7893483 107.1924729
  75.6831143 103.5498523 102.9138667  74.7762598 103.2531636 102.9901380
  75.9607124 103.2528341 102.0472953  74.4529928 100.4085459 103.0550646
  75.3149092 100.7340357 103.3146463  74.6380272  99.6216954 102.5423712
  75.4059371  97.6481502 106.3430355  75.3938040  98.5923341 106.4998626
  76.2982792  97.4651647 106.0489816  24.8601047  16.9643033  92.1798119
  24.1862746  17.2674730  92.7883076  25.2466869  17.7672114  91.8303576
  28.8257788  14.5428517  93.4537942  29.5208692  15.1635209  93.6725256
  29.1680938  13.6923868  93.7290320  22.9172656  14.6490268  92.3613035
  22.3446623  15.2680456  91.9083507  23.4905450  15.1989630  92.8952957
  26.1369916  14.9327419  93.4921618  27.0700589  14.8672980  93.6954493
  26.0493129  15.7683685  93.0336150  28.7657933  14.2493289  90.4525565
  28.6871564  13.9153152  91.3461323  29.5867599  14.7415057  90.4517038
  26.3361884  11.5661284  90.0735544  27.0397735  11.7711287  90.6893199
  25.6124533  12.1338046  90.3384627  28.2448582  12.0043813  92.1234004
  29.0794186  11.5725012  91.9411478  28.0832925  11.8325827  93.0510898
  36.8732857  22.5213465 102.2189180  37.5111267  22.4020212 101.5152520
  36.7553700  23.4694309 102.2777133  29.5409379  24.3276369  98.1447596
  28.9774244  24.2366306  97.3763884  29.4261774  23.5076274  98.6250089
  35.1208938  27.9947337  93.4562061  34.4696917  28.5801417  93.0696075
  35.9153300  28.5253532  93.5157098  29.0464565  25.0836474  93.8549195
  29.8195441  24.5365461  93.7162071  29.3989964  25.9480723  94.0663657
  31.3830843  21.2429140  91.4867645  31.6356363  20.7210661  90.7251108
  30.4455402  21.0795286  91.5894329  36.4274125  20.2464918  99.2942388
  37.2137215  19.8284342  98.9432805  36.6912830  21.1511011  99.4624037
  36.5984203  25.6837769  93.9931045  35.9630036  25.7572395  94.7051950
  36.2681609  26.2731368  93.3150125  41.8282553  20.1840152 100.1975367
  42.5607724  19.6139368 100.4313196  41.0721908  19.7961752 100.6381873
  31.1027131  23.1457246  93.6892020  30.9863389  22.4702149  94.3573104
  31.2129391  22.6589620  92.8724173  33.4458672  22.6067393  97.3938709
  33.0816879  22.0798014  98.1051631  34.3025788  22.2165862  97.2205195
  33.0864159  17.6357293  92.3900058  33.2538562  18.5037529  92.7570529
  32.8961328  17.7984575  91.4661347  33.0653380  20.0914950  93.3746725
  32.9453005  20.5372001  94.2132205  32.3705968  20.4400268  92.8160263
  30.8260272  32.8618592  97.0236856  30.7484302  33.8126417  97.1025337
  30.2221916  32.5164465  97.6811782  38.7638446  20.5636423  94.2027059
  39.6756302  20.7963810  94.0274756  38.2548093  21.1473468  93.6402137
  37.3708029  25.5462242 101.5940640  36.7416891  25.7107956 100.8916708
  36.9833691  25.9603851 102.3651604  41.2497260  26.4816680  98.9485004
  40.5648299  26.8615581  98.3982037  41.3341110  27.0912006  99.6816952
  32.9235990  25.2836650  98.8590725  33.3874336  25.5624353  98.0695348
  32.6592789  24.3820095  98.6763816  31.8604876  21.4059802  95.6680291
  32.5628920  21.8580846  96.1354217  31.5285505  20.7643621  96.2960184
  39.6194020  27.0048594 103.7202705  40.4411464  26.6028782 103.4385387
  39.6156423  26.9016828 104.6718821  47.7100013  23.3487343 100.0687676
  46.9563721  22.7794741  99.9131681  47.8447554  23.3150007 101.0158311
  33.0998641  28.2200745  95.7442396  32.9644316  29.0652281  96.1727244
  33.6408454  28.4220023  94.9808330  26.5528038  25.7376183  96.3170321
  27.0652559  26.5319433  96.4675885  27.2050751  25.0402474  96.2503922
  28.3622923  28.8541939  98.3993074  28.5389552  29.7759904  98.2114058
  29.1579757  28.5400359  98.8287454  29.4854239  30.3720113 104.4003416
  30.0361664  30.2437176 103.6280410  28.6465715  30.6715002 104.0498309
  24.5176955  24.0664837  97.0929891  25.3552177  24.4761846  96.8763599
  24.6955223  23.1264280  97.0630085  36.4141387  21.7339918  92.7813724
  35.8988011  22.5044523  93.0202112  36.1418696  21.0605054  93.4046786
  33.9988498  16.5789619  97.8398963  33.1430095  16.1896469  97.6604601
  34.4115450  16.6581580  96.9798748  41.3875662  24.4872273  94.7166898
  40.6105104  24.1483432  94.2722060  42.0667142  24.4924896  94.0421863
  36.2027691  19.6067010  94.6073505  35.8977826  19.9213159  95.4583649
  37.1558133  19.6848430  94.6500838  34.6474122  25.7657233  96.2566459
  34.1195484  25.0309993  95.9439697  34.1461625  26.5431910  96.0106428
  39.6266968  23.9606254 101.3733506  38.9690643  24.6505515 101.4613634
  40.4307368  24.3502686 101.7167492  38.4372427  22.3150627  99.4237448
  38.9504309  22.9480618  99.9259157  39.0873651  21.7151822  99.0580808
  29.7062437  18.4581361  92.6368956  28.8699749  18.7956047  92.9578231
  29.5667207  18.3230341  91.6996093  32.7926723  23.5837444  89.2601432
  31.8853784  23.3526697  89.4592581  33.2897755  22.7875063  89.4475414
  35.6994801  32.2934951  92.1798119  35.0256500  32.5966648  92.7883076
  36.0860623  33.0964031  91.8303576  35.6988306  21.1891498  96.7998468
  36.4460125  21.7012895  96.4905590  35.9679895  20.8675551  97.6602862
  33.9714956  23.6850039  93.7825423  33.0626175  23.4009071  93.8797892
  34.0010040  24.1049117  92.9228729  39.2034223  27.2956628  97.5516590
  38.7496551  26.4547538  97.6081781  38.5728190  27.9318026  97.8891370
  38.1467143  18.2248614  98.7817258  37.4089900  17.7126000  99.1127500
  38.3993917  17.7848996  97.9700534  37.6467163  29.1333125  98.4866408
  37.9390137  29.6938182  97.7678774  38.1565783  29.4261686  99.2419567
  32.5199850  21.2978659  99.8835218  32.5748460  20.3452496  99.8077695
  31.7091052  21.4538098 100.3676516  33.6691044  25.2258782  91.1213501
  33.2310474  24.5094641  90.6619138  34.4101485  25.4534897  90.5598593
  30.4592210  19.9155719  97.6425597  29.6460076  20.2149889  98.0490789
  30.9551204  19.5211408  98.3600079  32.6100788  29.9113476  99.5759861
  32.5676967  30.1374322  98.6468394  33.5263487  29.6776850  99.7245663
  41.7864159  23.5015979  97.1789820  41.6482057  23.6917575  96.2511009
  41.4300377  24.2635362  97.6357871  41.8133538  25.5692506 102.1901091
  42.2470045  25.4767795 103.0384145  42.5265119  25.5450007 101.5521107
  30.7266589  26.7876505  99.3721824  31.5207187  26.2926825  99.1704399
  30.0158281  26.2594368  99.0089530  35.5461433  29.1694600 103.7234192
  35.5998455  29.7385537 104.4911908  34.6776214  29.3396485 103.3588229
  27.0349352  20.9319587  95.4481577  26.1046940  20.8704042  95.6651539
  27.1306824  20.4095539  94.6518218  42.6749088  25.6116207 104.7233977
  42.8684978  26.5162017 104.9693252  42.5749706  25.1523626 105.5572562
  33.3037865  27.3605527 103.0519661  33.1648950  26.9924311 103.9245599
  32.5152461  27.8753166 102.8803619  33.8986017  32.4614623  94.3945198
  34.0737772  31.9902666  95.2090821  33.2118805  33.0880389  94.6226459
  34.8543080  26.7387130 100.4408499  34.5192912  26.6987899 101.3366149
  34.3547025  26.0731845  99.9678909  37.7902271  24.0843164  90.7145559
  37.1731442  23.3589992  90.6178611  37.3218760  24.8452524  90.3712633
  28.4647102  35.6103986 101.1685058  28.7043700  36.2422510 101.8464077
  27.6216298  35.2592026 101.4550417  29.5800817  18.3028588  89.8366863
  28.7030284  18.1817389  89.4729110  30.0558570  17.5114666  89.5845752
  32.9774964  31.4183109 103.5726562  32.9045135  32.2238080 104.0845867
  32.5352357  31.6175074 102.7474583  32.7664743  30.6554879  97.0829384
  31.9832265  31.1976559  97.1767608  33.4657489  31.1728858  97.4823625
  43.9291151  22.1689874 101.3681880  43.9181027  23.0514589 100.9975814
  43.0608530  21.8161424 101.1736417  35.4373647  31.3169943 105.7284721
  36.1501619  31.9517407 105.6560622  34.9463676  31.4133809 104.9124722
  37.1591174  25.2221195  97.3002012  36.2247453  25.3422658  97.1306717
  37.3367843  24.3193662  97.0362022  40.5463726  21.0638514  97.8352046
  41.0124178  21.8966506  97.7612349  40.9971226  20.5983496  98.5397305
  38.6139957  27.4082336  94.8338198  38.8899801  27.2938930  95.7432073
  37.7444455  27.0099821  94.7950372  35.2494021  31.6568687  98.4771012
  35.4316415  30.8390343  98.9398764  36.0727007  31.8736379  98.0395902
  35.5836186  30.5836872  95.7386061  36.1123953  30.0729326  95.1256223
  35.8464406  30.2679402  96.6031594  28.9391934  31.6351988  98.4983837
  28.2702309  32.1198116  98.0147877  28.8004804  31.8821209  99.4127215
  33.0797203  33.6695732 105.0966495  33.6315511  33.8327353 105.8615580
  33.4203396  34.2600170 104.4246520  24.3079511  19.8970443  95.2779769
  24.6032952  18.9881122  95.2246822  23.4067547  19.8758183  94.9560771
  36.2165590  31.6177707 102.0830177  36.0916729  30.8167447 101.5741123
  36.8744681  32.1123901 101.5944147  38.2800498  29.4186728 103.7109727
  37.3330834  29.2992079 103.6388054  38.6283271  28.5309226 103.7935989
  35.2846932  29.2139444  99.9114079  35.1371894  28.2856151 100.0921649
  36.1100425  29.2359534  99.4271155  29.1509176  17.8657511  95.7694572
  29.4905248  18.3943432  95.0473180  29.5981296  18.2037917  96.5453138
  38.8881053  30.0368003 100.9978952  39.8127601  29.8310864 100.8603403
  38.7196357  29.7884404 101.9068294  31.1377323  16.3632132  93.9687864
  31.8585686  16.7413385  93.4651581  30.5142627  17.0821009  94.0722842
  35.2808446  17.0677281  94.9046197  35.4972060  17.9501919  94.6035025
  34.8002513  16.6763495  94.1751839  38.6776370  30.5553670  96.3541044
  38.8513247  29.9900092  95.6014896  39.1705261  31.3554565  96.1720534
  44.5315761  23.3190093  97.9731343  44.9746907  22.5697418  97.5750467
  43.6542271  23.3100229  97.5905075  39.6651542  29.8720434  93.4537942
  40.3602447  30.4927127  93.6725256  40.0074692  29.0215786  93.7290320
  41.5642965  27.3220140  94.9825273  42.0894289  27.6607413  94.2574593
  41.4765318  26.3867155  94.7988407  33.2483626  33.3892123  99.3420526
  32.8088616  32.8968502 100.0353383  33.9991743  32.8465091  99.1012601
  25.7275965  29.5803664  99.3445154  26.5533985  29.2807436  98.9643797
  25.3770017  28.8111286  99.7934943  30.6957498  28.9330132 101.4142827
  30.0737507  28.2700837 101.1145055  31.3662365  28.9591264 100.7316475
  30.2571005  27.4834056  94.8901288  30.4059125  28.1669520  94.2367961
  31.0637449  27.4639146  95.4050744  44.0748626  24.7895331 100.3653791
  44.9095517  25.2285135 100.5291351  44.2107754  24.3133984  99.5462037
  28.0123638  23.5099233  95.8962357  27.7669680  22.6061563  96.0942567
  28.1819553  23.5116384  94.9541835  27.2819286  19.2427591  93.3948518
  26.5888531  19.3171946  92.7388554  27.0371038  18.4787934  93.9170035
  33.7566411  29.9782186  92.3613035  33.1840378  30.5972373  91.9083507
  34.3299204  30.5281548  92.8952957  36.9763670  30.2619336  93.4921618
  37.9094344  30.1964898  93.6954493  36.8886883  31.0975603  93.0336150
  39.6051687  29.5785207  90.4525565  39.5265319  29.2445070  91.3461323
  40.4261354  30.0706974  90.4517038  42.3029878  22.4446946 103.6601884
  42.2706198  21.5062947 103.8461568  42.9130502  22.5230983 102.9267709
  34.1413209  21.3142999  89.7029088  35.0872314  21.1849207  89.7717506
  33.7627454  20.5757661  90.1798516  48.1206428  23.5062953 102.8007921
  48.8509817  23.2448241 103.3615624  47.5113374  22.7691675 102.8409989
  46.2021725  21.6470815 103.3982372  45.4754889  21.5126780 102.7898863
  45.7869012  21.9547644 104.2039090  32.3256126  19.2392975  89.6383973
  31.4187582  18.9426088  89.7146687  32.6032107  18.9422793  88.7718259
  33.9418192  13.7829865  95.7928214  33.1318920  13.4376950  96.1683461
  34.6302609  13.4737409  96.3815826  31.0954911  16.0979910  89.7795952
  31.9574075  16.4234809  90.0391770  31.2805255  15.3111406  89.2669018
  39.2487547  14.9708437  96.9231175  38.6686216  15.6293241  96.5409228
  38.9823480  14.1485781  96.5118593  38.0312425  17.1308527  95.9787524
  37.1438280  17.4158178  95.7607718  38.4466414  16.9702291  95.1314801
  41.3826962  17.1555048  99.6941863  42.1587352  17.6451501  99.9666480
  40.6575096  17.5813102 100.1513732  43.8199520  17.8682667 100.7515804
  44.4144011  17.6278403 100.0409112  43.8926104  17.1489798 101.3789340
  26.0396676  31.7116278 101.0658968  25.9051144  30.9516679 100.4996966
  25.6228738  32.4357178 100.5987757  37.1755639  26.8953202  90.0735544
  37.8791489  27.1003204  90.6893199  36.4518288  27.4629964  90.3384627
  38.0053449  22.6463063  96.1937814  37.9488651  23.1031615  95.3545446
  38.5581792  21.8853748  96.0160657  41.8158255  18.4352795  97.0187933
  41.5595189  18.0349431  97.8496141  41.1911123  19.1496589  96.8938072
  46.1270593  21.1748868  99.5259225  45.5670151  21.2442058 100.2990787
  45.5214096  20.9989853  98.8058721  29.1965802  32.6085595 101.2777411
  29.0798186  33.5531028 101.1756101  28.3758248  32.3059157 101.6663210
  39.0842336  27.3335731  92.1234004  39.9187940  26.9016930  91.9411478
  38.9226679  27.1617745  93.0510898  38.7388228  23.8367844  93.4890343
  38.6837032  23.6712116  92.5478787  38.1134284  24.5443877  93.6452533
  32.0484354  13.3375953  93.0675661  32.0363024  14.2817793  93.2243932
  32.9407776  13.1546099  92.7735123  30.2220316  33.2613857 104.4933339
  31.1247563  33.2937468 104.8099834  29.9957686  32.3314308 104.5079675
  31.9773918  32.0144844 101.1543418  31.0269549  32.0146705 101.0407790
  32.2806404  31.2677578 100.6379453  47.7126611  37.8505382 102.2189180
  48.3505021  37.7312130 101.5152520  47.5947454  38.7986226 102.2777133
  44.5216318  37.8032810 102.1550705  44.1834829  37.6873875 101.2671240
  45.3906086  37.4023975 102.1351711  40.3803133  39.6568287  98.1447596
  39.8167998  39.5658224  97.3763884  40.2655528  38.8368191  98.6250089
  45.0036101  38.9567662 108.1136911  44.9924741  38.5620460 107.2417414
  45.1656740  38.2233735 108.7070682  37.9267565  41.1519478 100.9831817
  38.7188857  40.8110303 100.5678116  38.1664215  41.2614453 101.9033970
  45.9602692  43.3239254  93.4562061  45.3090672  43.9093335  93.0696075
  46.7547055  43.8545449  93.5157098  39.8858319  40.4128392  93.8549195
  40.6589195  39.8657379  93.7162071  40.2383718  41.2772641  94.0663657
  41.7243362  41.7404774 107.0616095  41.4333228  42.6450405 106.9462761
  42.3600346  41.7821301 107.7760164  42.6499569  39.1181622 103.6517454
  43.2463141  38.8937645 102.9374417  42.7074540  38.3766368 104.2542902
  42.2224597  36.5721058  91.4867645  42.4750118  36.0502579  90.7251108
  41.2849156  36.4087203  91.5894329  47.2667880  35.5756836  99.2942388
  48.0530969  35.1576259  98.9432805  47.5306584  36.4802928  99.4624037
  47.4377957  41.0129686  93.9931045  46.8023790  41.0864313  94.7051950
  47.1075364  41.6023285  93.3150125  52.6676307  35.5132069 100.1975367
  53.4001479  34.9431286 100.4313196  51.9115663  35.1253670 100.6381873
  41.9420886  38.4749164  93.6892020  41.8257144  37.7994067  94.3573104
  42.0523146  37.9881538  92.8724173  44.2852427  37.9359311  97.3938709
  43.9210634  37.4089932  98.1051631  45.1419543  37.5457780  97.2205195
  50.1901727  29.2253643 104.6569976  49.8585052  30.0949054 104.4331191
  49.5947341  28.9089927 105.3364006  43.9257914  32.9649210  92.3900058
  44.0932316  33.8329447  92.7570529  43.7355083  33.1276492  91.4661347
  46.6833247  41.4266189 104.0565888  46.3833970  42.3291228 103.9481696
  46.3384306  41.1598373 104.9087041  40.1345728  37.8779986 100.0902593
  39.2096225  37.7456200 100.2980284  40.3830142  38.6574205 100.5872535
  50.0830391  33.9448730 101.7363326  49.1747268  33.8764138 101.4422087
  50.0317986  34.4220675 102.5645151  43.9047135  35.4206868  93.3746725
  43.7846760  35.8663919  94.2132205  43.2099723  35.7692186  92.8160263
  37.4954539  37.5213260 100.9246382  37.6246921  37.7747739 101.8385794
  36.8151991  38.1140968 100.6051037  44.1571256  35.3638375 109.6798223
  43.3804591  35.9232295 109.6701088  44.7961819  35.8495158 110.2013093
  51.9492037  32.1465168 103.5141200  51.3066417  32.4397701 102.8680994
  51.4446966  32.0318088 104.3194396  49.6032201  35.8928341  94.2027059
  50.5150057  36.1255728  94.0274756  49.0941848  36.4765385  93.6402137
  42.4117629  38.1723829 109.2416190  43.1532313  38.7108872 108.9651014
  41.7054614  38.7990117 109.3987742  47.8872968  40.3152969 107.8388351
  48.2956324  39.8735380 107.0942984  47.1650230  39.7405597 108.0922544
  44.2404038  35.2525576 105.2121908  45.0865234  35.6764989 105.3556557
  44.1802676  34.5959200 105.9060471  48.2101783  40.8754160 101.5940640
  47.5810645  41.0399874 100.8916708  47.8227445  41.2895769 102.3651604
  52.0891015  41.8108597  98.9485004  51.4042053  42.1907499  98.3982037
  52.1734864  42.4203924  99.6816952  47.3903484  32.9129944 106.8703082
  47.1464416  33.6672005 106.3337358  47.6663414  33.2915292 107.7050329
  49.3441947  39.4568556 105.5480348  49.5558842  40.1000316 104.8714729
  49.2971695  38.6230873 105.0802278  46.9468175  32.0686377 102.4516920
  46.0852655  32.3667631 102.7433657  46.9730610  32.2856776 101.5197952
  43.7629745  40.6128568  98.8590725  44.2268090  40.8916271  98.0695348
  43.4986543  39.7112012  98.6763816  40.6553826  40.1600049 101.7970489
  41.2255183  40.5887318 101.1587973  41.2461938  39.8782634 102.4954674
  42.6998631  36.7351720  95.6680291  43.4022674  37.1872764  96.1354217
  42.3679259  36.0935539  96.2960184  41.1478992  35.3263477 110.0431500
  40.5177653  36.0079758 110.2766897  41.0415080  35.2146558 109.0984638
  36.4423965  34.9935273 100.9697424  35.6523019  35.2492801 100.4937535
  36.9335212  35.8083611 101.0749465  50.4587774  42.3340512 103.7202705
  51.2805218  41.9320699 103.4385387  50.4550177  42.2308746 104.6718821
  38.3938710  35.3579852  97.9280901  37.5969874  35.4698546  98.4464396
  38.1664303  35.6966504  97.0621791  44.2244378  41.8824555 105.8763415
  44.2888810  42.3444962 106.7121587  43.5155302  41.2521920 106.0045725
  34.7261668  35.2465763 103.4012415  34.9769706  36.1312773 103.6669991
  35.2621216  35.0670365 102.6287507  58.5493768  38.6779260 100.0687676
  57.7957476  38.1086658  99.9131681  58.6841309  38.6441925 101.0158311
  43.9392396  43.5492663  95.7442396  43.8038070  44.3944198  96.1727244
  44.4802208  43.7511940  94.9808330  37.3921793  41.0668101  96.3170321
  37.9046314  41.8611351  96.4675885  38.0444506  40.3694391  96.2503922
  39.2016678  44.1833857  98.3993074  39.3783306  45.1051822  98.2114058
  39.9973511  43.8692276  98.8287454  43.3427696  31.0442122 109.9977008
  44.0837410  31.6449275 109.9181470  43.5745619  30.3019759 109.4395050
  38.4869034  36.2298489 108.2755237  38.3722549  35.3283746 108.5762336
  37.6313552  36.4762186 107.9240054  45.5660872  44.1716229 109.8742738
  45.1224726  43.3852608 109.5563642  46.2278086  44.3595380 109.2086629
  40.3247993  45.7012031 104.4003416  40.8755418  45.5729094 103.6280410
  39.4859469  46.0006920 104.0498309  47.6642110  44.4519029 107.9024139
  47.6460585  45.2727910 107.4104408  48.5862030  44.3273104 108.1274280
  44.1215164  41.9663159 108.7447647  44.6543501  41.2051447 108.5146955
  43.5929245  41.6736810 109.4871802  47.2884859  27.0723225 104.2741289
  46.9449129  27.9624866 104.1980400  47.6563822  26.8824882 103.4110874
  35.3570710  39.3956755  97.0929891  36.1945932  39.8053763  96.8763599
  35.5348977  38.4556197  97.0630085  47.2535142  37.0631836  92.7813724
  46.7381765  37.8336440  93.0202112  46.9812450  36.3896972  93.4046786
  44.8382253  31.9081536  97.8398963  43.9823849  31.5188387  97.6604601
  45.2509205  31.9873497  96.9798748  46.3681400  29.4427880 102.2390522
  45.8646195  29.4058015 101.4258328  46.6612006  30.3520622 102.2987179
  42.6124285  29.5266609 101.2456704  43.4777282  29.3309418 100.8862594
  42.6801794  29.2976961 102.1726061  52.2269416  39.8164190  94.7166898
  51.4498859  39.4775350  94.2722060  52.9060897  39.8216813  94.0421863
  47.0421445  34.9358928  94.6073505  46.7371581  35.2505077  95.4583649
  47.9951887  35.0140348  94.6500838  45.4867877  41.0949151  96.2566459
  44.9589238  40.3601911  95.9439697  44.9855380  41.8723827  96.0106428
  50.4660723  39.2898172 101.3733506  49.8084397  39.9797433 101.4613634
  51.2701122  39.6794604 101.7167492  40.2186605  31.7568817  98.6173071
  40.7930356  31.5343999  97.8846264  40.8057587  31.8257512  99.3701672
  49.2766182  37.6442544  99.4237448  49.7898063  38.2772536  99.9259157
  49.9267406  37.0443740  99.0580808  40.5456192  33.7873278  92.6368956
  39.7093504  34.1247965  92.9578231  40.4060961  33.6522258  91.6996093
  42.5209272  28.6310066  97.3448140  41.8673685  28.3159083  96.7204755
  42.4789746  28.0085807  98.0707963  43.6320477  38.9129361  89.2601432
  42.7247539  38.6818615  89.4592581  44.1291509  38.1166981  89.4475414
  45.7547013  35.1192000 101.6695788  44.8369574  35.3406947 101.5117476
  46.1707156  35.1938310 100.8107495  46.5382060  36.5183416  96.7998468
  47.2853879  37.0304813  96.4905590  46.8073650  36.1967468  97.6602862
  44.8108711  39.0141956  93.7825423  43.9019930  38.7300989  93.8797892
  44.8403794  39.4341035  92.9228729  50.0427978  42.6248546  97.5516590
  49.5890305  41.7839456  97.6081781  49.4121945  43.2609944  97.8891370
  48.9860897  33.5540532  98.7817258  48.2483654  33.0417918  99.1127500
  49.2387671  33.1140913  97.9700534  48.4860917  44.4625042  98.4866408
  48.7783892  45.0230100  97.7678774  48.9959538  44.7553603  99.2419567
  49.0872525  26.3316784  99.3759027  49.3931402  25.4714147  99.0884942
  49.8125130  26.9234404  99.1758021  35.3796881  36.7347470  97.7640625
  35.1821281  36.1416831  97.0391691  34.8243545  36.4299681  98.4816564
  43.3593605  36.6270577  99.8835218  43.4142214  35.6744413  99.8077695
  42.5484807  36.7830016 100.3676516  44.5084798  40.5550700  91.1213501
  44.0704228  39.8386559  90.6619138  45.2495239  40.7826815  90.5598593
  41.2985964  35.2447637  97.6425597  40.4853830  35.5441807  98.0490789
  41.7944959  34.8503325  98.3600079  43.4494542  45.2405394  99.5759861
  43.4070721  45.4666240  98.6468394  44.3657241  45.0068768  99.7245663
  46.8960176  35.7089461 106.4740491  47.2509564  35.9360934 107.3334956
  47.5432307  36.0407838 105.8517746  52.6257913  38.8307897  97.1789820
  52.4875812  39.0209493  96.2511009  52.2694132  39.5927280  97.6357871
  40.7900039  32.8165992 103.2586832  41.4299419  32.6754751 102.5609795
  39.9577570  32.5300505 102.8825434  52.6527293  40.8984424 102.1901091
  53.0863799  40.8059713 103.0384145  53.3658873  40.8741924 101.5521107
  41.5660343  42.1168423  99.3721824  42.3600942  41.6218743  99.1704399
  40.8552036  41.5886286  99.0089530  46.3855188  44.4986518 103.7234192
  46.4392210  45.0677454 104.4911908  45.5169969  44.6688403 103.3588229
  37.8743107  36.2611504  95.4481577  36.9440695  36.1995960  95.6651539
  37.9700579  35.7387457  94.6518218  37.7928656  32.7866317  98.0359819
  38.0535473  33.7011650  97.9268979  38.6145828  32.3190760  98.1856431
  39.2653581  34.2004074 105.2058643  39.9376634  33.9921436 104.5571292
  38.4383368  34.0026160 104.7663875  53.5142842  40.9408125 104.7233977
  53.7078732  41.8453935 104.9693252  53.4143460  40.4815544 105.5572562
  45.1679153  30.8266015 107.2224304  44.5207068  31.5255965 107.1288780
  45.9380168  31.2602159 107.5900552  48.5757951  41.0914867 110.2974857
  48.4243457  40.8625419 109.3804941  48.5662630  42.0485469 110.3106202
  45.3443287  38.6646780 105.2821124  46.2735347  38.8157940 105.1090091
  44.9234317  38.7530801 104.4269770  44.1431619  42.6897445 103.0519661
  44.0042705  42.3216229 103.9245599  43.3546215  43.2045084 102.8803619
  45.6936834  42.0679047 100.4408499  45.3586667  42.0279817 101.3366149
  45.1940780  41.4023763  99.9678909  39.6681078  37.4746677 105.9661080
  39.5300876  36.7426916 106.5672619  40.5786002  37.3855577 105.6845268
  48.6296026  39.4135082  90.7145559  48.0125197  38.6881910  90.6178611
  48.1612514  40.1744442  90.3712633  42.2963379  37.1866637 105.4544760
  43.0062997  36.5459829 105.4131378  42.2532687  37.4379531 106.3770941
  50.2850158  44.1233990 108.3751339  50.2262704  43.4393210 107.7081922
  50.6869676  44.8652980 107.9231965  41.0092313  34.1731854 107.2740399
  40.4729670  33.7222593 107.9261996  40.4209021  34.3077763 106.5310864
  39.3040856  50.9395904 101.1685058  39.5437455  51.5714428 101.8464077
  38.4610053  50.5883944 101.4550417  40.4194572  33.6320506  89.8366863
  39.5424038  33.5109307  89.4729110  40.8952325  32.8406584  89.5845752
  50.2867565  42.0873574 106.6065319  49.3994344  41.7499496 106.7291718
  50.8566116  41.3556605 106.8434084  31.9396712  38.4197666  99.9308370
  32.6267752  38.1059396  99.3429385  31.7844841  39.3239030  99.6575622
  36.7431434  33.3087862 104.3593394  36.6589623  32.7013532 103.6243804
  35.9214141  33.7996880 104.3602890  43.8168718  46.7475026 103.5726562
  43.7438890  47.5529998 104.0845867  43.3746111  46.9466992 102.7474583
  46.9155148  31.7941426  99.7263589  47.4123848  31.0411388  99.4064659
  46.1442129  31.8305742  99.1606798  54.7684905  37.4981791 101.3681880
  54.7574782  38.3806507 100.9975814  53.9002285  37.1453342 101.1736417
  46.2767402  46.6461860 105.7284721  46.9895374  47.2809325 105.6560622
  45.7857430  46.7425726 104.9124722  47.9984929  40.5513113  97.3002012
  47.0641207  40.6714575  97.1306717  48.1761597  39.6485580  97.0362022
  43.4990117  33.9358809  99.4535274  43.1287904  33.3829849 100.1416179
  43.9949209  33.3316942  98.9010274  51.3857480  36.3930432  97.8352046
  51.8517932  37.2258424  97.7612349  51.8364981  35.9275414  98.5397305
  41.3279315  44.3956304 106.5490291  42.0288775  45.0292787 106.7019686
  40.8574430  44.7371035 105.7885931  49.4533711  42.7374253  94.8338198
  49.7293555  42.6230848  95.7432073  48.5838210  42.3391738  94.7950372
  49.3574143  28.7611019 101.8742948  48.4437223  28.9915246 102.0425155
  49.7867244  28.8449463 102.7256980  49.1280601  36.9500911 104.3742842
  48.4752052  37.1976819 103.7195295  49.5060981  36.1365049 104.0405319
  46.0887775  46.9860604  98.4771012  46.2710170  46.1682260  98.9398764
  46.9120761  47.2028297  98.0395902  46.4229941  45.9128789  95.7386061
  46.9517707  45.4021244  95.1256223  46.6858160  45.5971320  96.6031594
  45.1768174  37.6920722 110.8608879  44.5008811  37.5914852 111.5311254
  45.9995808  37.5359936 111.3244876  36.9247033  43.9292659 103.4821394
  37.5100470  43.1836347 103.6149298  36.7271872  44.2396615 104.3658058
  39.7785689  46.9643906  98.4983837  39.1096064  47.4490034  98.0147877
  39.6398558  47.2113127  99.4127215  31.5164688  36.4998259 102.2025837
  31.5548788  35.9661850 102.9962955  31.0104981  35.9733464 101.5836814
  43.9190957  48.9987650 105.0966495  44.4709265  49.1619271 105.8615580
  44.2597151  49.5892087 104.4246520  38.8955450  31.3462799 105.6988380
  38.9596777  32.2077630 105.2865777  38.8322571  30.7336801 104.9660738
  48.7701831  43.8248907 110.9515149  49.3141735  44.4378865 110.4570104
  48.1888676  44.3828486 111.4682162  35.1473266  35.2262361  95.2779769
  35.4426707  34.3173040  95.2246822  34.2461301  35.2050101  94.9560771
  47.0559344  46.9469625 102.0830177  46.9310484  46.1459365 101.5741123
  47.7138436  47.4415819 101.5944147  38.6767513  33.3018358 101.2607317
  37.9554098  33.9154325 101.1214791  39.4660768  33.8376122 101.1823963
  49.1194253  44.7478645 103.7109727  48.1724588  44.6283996 103.6388054
  49.4677026  43.8601143 103.7935989  41.4793826  30.6372784 107.5347969
  42.0028228  30.8835081 108.2974278  41.2606159  31.4692819 107.1151106
  36.8761107  32.9076459  95.4019094  36.5473813  32.0273838  95.2194200
  37.2300478  32.8524127  96.2895483  46.1240686  44.5431361  99.9114079
  45.9765649  43.6148069 100.0921649  46.9494180  44.5651452  99.4271155
  39.9902930  33.1949429  95.7694572  40.3299003  33.7235350  95.0473180
  40.4375051  33.5329835  96.5453138  49.7274808  45.3659920 100.9978952
  50.6521355  45.1602782 100.8603403  49.5590111  45.1176321 101.9068294
  42.6846371  31.5786479 105.2197640  42.3443192  30.7794292 105.6218319
  41.9785378  31.8788190 104.6474473  43.3362843  28.6635792 103.6724963
  44.1588912  28.1896270 103.5503853  43.5800907  29.4426275 104.1723649
  41.9771078  31.6924050  93.9687864  42.6979440  32.0705303  93.4651581
  41.3536382  32.4112927  94.0722842  46.1202200  32.3969199  94.9046197
  46.3365815  33.2793837  94.6035025  45.6396268  32.0055413  94.1751839
  40.8601422  35.3554912 101.4816941  40.7146003  35.6695215 102.3741223
  40.3826625  35.9739813 100.9287840  42.7197805  32.3457460 101.5297831
  42.7059373  31.4498554 101.1930129  43.4370233  32.3528124 102.1636117
  44.5723935  32.7794801 103.5750958  44.3141713  33.7011871 103.5735289
  44.0408976  32.3825235 104.2651422  49.5170124  45.8845588  96.3541044
  49.6907002  45.3192010  95.6014896  50.0099015  46.6846483  96.1720534
  35.3347084  37.8960257 104.4204602  34.7900552  38.6720065 104.5524877
  36.2126434  38.2431061 104.2623724  42.1234701  31.2271841  96.7985401
  42.2450612  30.2988487  96.9976288  41.8336743  31.2410527  95.8863716
  44.9925891  28.9126751  99.9352121  45.0147588  28.9766084  98.9804100
  45.4093950  28.0731260 100.1292627  55.3709515  38.6482011  97.9731343
  55.8140661  37.8989336  97.5750467  54.4936026  38.6392147  97.5905075
  50.5045297  45.2012352  93.4537942  51.1996201  45.8219045  93.6725256
  50.8468447  44.3507703  93.7290320  36.1213106  37.0230153 107.3134759
  35.3794842  37.1712788 107.8999390  35.8005850  37.2838419 106.4501509
  52.4036720  42.6512058  94.9825273  52.9288044  42.9899330  94.2574593
  52.3159072  41.7159073  94.7988407  44.0656768  46.5646131 107.1115149
  44.3743895  46.3195278 107.9837849  44.8632251  46.7692770 106.6234019
  44.0877381  48.7184041  99.3420526  43.6482371  48.2260420 100.0353383
  44.8385497  48.1757009  99.1012601  36.5669720  44.9095582  99.3445154
  37.3927739  44.6099354  98.9643797  36.2163772  44.1403204  99.7934943
  41.5351253  44.2622050 101.4142827  40.9131262  43.5992755 101.1145055
  42.2056120  44.2883182 100.7316475  34.7678325  42.8281908 100.3034087
  33.9310233  42.4004083 100.1218089  34.7401970  43.0214352 101.2404879
  52.0930626  43.2844961 110.2876471  51.3026170  43.2669100 109.7480970
  51.8563980  43.8233255 111.0425507  52.2128501  40.1337428 107.6009199
  52.2626506  39.9687435 108.5424722  52.1042424  39.2664687 107.2107080
  41.0964760  42.8125973  94.8901288  41.2452880  43.4961438  94.2367961
  41.9031203  42.7931063  95.4050744  49.5032263  36.1168356 108.9168506
  50.4042126  35.9774820 108.6252504  49.5780238  36.2822810 109.8566683
  43.8375069  33.4935210 107.7621692  42.9678378  33.7868776 107.4904281
  44.0734549  34.0775655 108.4828956  53.7146698  42.5534369 107.8451221
  53.4231506  42.9164350 108.6814682  53.1018829  41.8401377 107.6664553
  54.9142380  40.1187249 100.3653791  55.7489271  40.5577053 100.5291351
  55.0501509  39.6425902  99.5462037  51.9633886  37.6766984 106.3131279
  52.4388008  37.8694630 105.5050130  51.0399451  37.7326170 106.0674662
  38.8517393  38.8391151  95.8962357  38.6063435  37.9353481  96.0942567
  39.0213307  38.8408301  94.9541835  46.5414102  29.7114827 105.2787113
  47.0596046  30.4475854 104.9533601  46.1869235  30.0178821 106.1133872
  38.1213040  34.5719509  93.3948518  37.4282285  34.6463863  92.7388554
  37.8764792  33.8079852  93.9170035  46.7926697  26.1315110 100.7988009
  47.0728450  25.4638299 101.4248436  47.5777304  26.3244205 100.2862673
  50.6635555  34.5532744 104.5459584  51.6152978  34.6530841 104.5671808
  50.4939005  33.7611012 105.0557669  48.6849934  31.6388327 104.7318985
  48.0899867  31.9193340 104.0365474  48.3999631  32.1282228 105.5035726
  50.4445442  44.9077124  90.4525565  50.3659073  44.5736988  91.3461323
  51.2655108  45.3998892  90.4517038  53.1423633  37.7738864 103.6601884
  53.1099953  36.8354864 103.8461568  53.7524256  37.8522900 102.9267709
  44.9806964  36.6434916  89.7029088  45.9266068  36.5141125  89.7717506
  44.6021209  35.9049578  90.1798516  53.2918121  34.5649907 103.7060167
  52.7757170  33.7808364 103.5190096  54.1758070  34.2368624 103.8706687
  50.9528848  28.3090923  99.6655980  50.7553669  28.0006011 100.5499312
  51.5628554  29.0352561  99.7953910  58.9600183  38.8354870 102.8007921
  59.6903571  38.5740158 103.3615624  58.3507128  38.0983592 102.8409989
  57.0415480  36.9762733 103.3982372  56.3148643  36.8418698 102.7898863
  56.6262767  37.2839562 104.2039090  44.8645656  40.6952663 111.1629745
  45.7848666  40.8731262 111.3569791  44.8295239  39.7508708 111.0109444
  43.1649881  34.5684893  89.6383973  42.2581336  34.2718006  89.7146687
  43.4425862  34.2714711  88.7718259  34.0827821  35.8891256 100.0883020
  33.7630606  35.0356564  99.7957394  33.5361249  36.1039834 100.8440987
  37.8607729  38.6053697 103.8052526  38.0793738  39.5370805 103.8240560
  38.2733503  38.2461672 104.5907330  44.7811947  29.1121783  95.7928214
  43.9712675  28.7668868  96.1683461  45.4696363  28.8029326  96.3815826
  46.7102495  28.1899829  97.4152511  47.2633533  28.6095283  98.0742534
  46.9472581  27.2635578  97.4575467  41.9348665  31.4271828  89.7795952
  42.7967829  31.7526726  90.0391770  42.1199010  30.6403324  89.2669018
  33.9516081  39.5094168 102.0576141  33.2579553  39.0948121 101.5446096
  34.6989072  39.5514704 101.4609560  50.0881302  30.3000355  96.9231175
  49.5079971  30.9585159  96.5409228  49.8217235  29.4777699  96.5118593
  48.5384868  29.7005412  99.1252496  49.0384647  29.8121947  98.3166815
  49.1820476  29.3966465  99.7653304  42.5966864  37.6084042 112.0120337
  42.1133946  38.4084402 112.2184226  42.6827803  37.6191987 111.0587781
  35.8652824  39.4412422  99.9342156  35.8423512  39.5400109  98.9824039
  36.1753460  40.2877572 100.2559322  38.5240202  41.4988577 104.0488770
  39.4783455  41.4672519 103.9818702  38.3252725  41.0379200 104.8638996
  39.1139584  40.0689693 106.6159568  39.9332473  40.5633771 106.6394405
  39.3876391  39.1521661 106.5877136  48.8706180  32.4600445  95.9787524
  47.9832035  32.7450096  95.7607718  49.2860169  32.2994208  95.1314801
  52.2220716  32.4846966  99.6941863  52.9981106  32.9743418  99.9666480
  51.4968850  32.9105020 100.1513732  54.6593275  33.1974585 100.7515804
  55.2537765  32.9570321 100.0409112  54.7319858  32.4781716 101.3789340
  36.8790430  47.0408196 101.0658968  36.7444898  46.2808597 100.4996966
  36.4622493  47.7649096 100.5987757  48.0149393  42.2245120  90.0735544
  48.7185243  42.4295122  90.6893199  47.2912042  42.7921882  90.3384627
  48.8447204  37.9754981  96.1937814  48.7882405  38.4323532  95.3545446
  49.3975546  37.2145665  96.0160657  52.6552010  33.7644713  97.0187933
  52.3988944  33.3641348  97.8496141  52.0304878  34.4788507  96.8938072
  56.9664347  36.5040786  99.5259225  56.4063905  36.5733975 100.2990787
  56.3607851  36.3281771  98.8058721  40.0359556  47.9377513 101.2777411
  39.9191940  48.8822946 101.1756101  39.2152003  47.6351075 101.6663210
  49.9236091  42.6627649  92.1234004  50.7581695  42.2308847  91.9411478
  49.7620434  42.4909662  93.0510898  49.5781983  39.1659762  93.4890343
  49.5230787  39.0004034  92.5478787  48.9528038  39.8735795  93.6452533
  34.3674498  34.4027826 107.3151765  35.0133362  33.8926780 107.8038990
  34.1591649  35.1396508 107.8895190  46.8927890  41.4708674 112.8143906
  47.7619050  41.6449326 112.4530541  46.4134642  42.2903091 112.6919635
  42.8878108  28.6667871  93.0675661  42.8756778  29.6109711  93.2243932
  43.7801530  28.4838017  92.7735123  41.0614070  48.5905775 104.4933339
  41.9641317  48.6229385 104.8099834  40.8351440  47.6606226 104.5079675
  42.8167672  47.3436762 101.1543418  41.8663303  47.3438623 101.0407790
  43.1200159  46.5969496 100.6379453  46.7030228  25.2610648  97.3221598
  45.9362624  24.7069134  97.4678281  47.1140933  25.3332517  98.1835750
  58.5520366  53.1797300 102.2189180  59.1898776  53.0604047 101.5152520
  58.4341209  54.1278144 102.2777133  55.3610072  53.1324728 102.1550705
  55.0228584  53.0165793 101.2671240  56.2299840  52.7315893 102.1351711
  55.8429855  54.2859580 108.1136911  55.8318496  53.8912378 107.2417414
  56.0050495  53.5525652 108.7070682  56.7996447  58.6531172  93.4562061
  56.1484426  59.2385253  93.0696075  57.5940809  59.1837367  93.5157098
  52.5637116  57.0696692 107.0616095  52.2726982  57.9742322 106.9462761
  53.1994101  57.1113219 107.7760164  53.4893323  54.4473540 103.6517454
  54.0856895  54.2229562 102.9374417  53.5468295  53.7058286 104.2542902
  53.0618352  51.9012975  91.4867645  53.3143872  51.3794497  90.7251108
  52.1242911  51.7379121  91.5894329  58.1061634  50.9048754  99.2942388
  58.8924724  50.4868177  98.9432805  58.3700339  51.8094846  99.4624037
  58.2771712  56.3421604  93.9931045  57.6417545  56.4156231  94.7051950
  57.9469118  56.9315203  93.3150125  63.5070061  50.8423987 100.1975367
  64.2395233  50.2723204 100.4313196  62.7509417  50.4545587 100.6381873
  52.7814640  53.8041081  93.6892020  52.6650898  53.1285985  94.3573104
  52.8916900  53.3173455  92.8724173  55.1246181  53.2651228  97.3938709
  54.7604388  52.7381849  98.1051631  55.9813297  52.8749698  97.2205195
  61.0295482  44.5545561 104.6569976  60.6978807  45.4240972 104.4331191
  60.4341095  44.2381845 105.3364006  54.7651668  48.2941128  92.3900058
  54.9326071  49.1621365  92.7570529  54.5748837  48.4568410  91.4661347
  57.5227001  56.7558107 104.0565888  57.2227724  57.6583146 103.9481696
  57.1778061  56.4890290 104.9087041  50.9739483  53.2071904 100.0902593
  50.0489979  53.0748118 100.2980284  51.2223896  53.9866123 100.5872535
  60.9224145  49.2740647 101.7363326  60.0141022  49.2056056 101.4422087
  60.8711741  49.7512592 102.5645151  54.7440889  50.7498786  93.3746725
  54.6240514  51.1955836  94.2132205  54.0493477  51.0984103  92.8160263
  52.5047781  63.5202427  97.0236856  52.4271811  64.4710252  97.1025337
  51.9009425  63.1748300  97.6811782  54.9965011  50.6930293 109.6798223
  54.2198345  51.2524213 109.6701088  55.6355574  51.1787076 110.2013093
  62.7885792  47.4757086 103.5141200  62.1460172  47.7689619 102.8680994
  62.2840720  47.3610006 104.3194396  60.4425955  51.2220259  94.2027059
  61.3543811  51.4547646  94.0274756  59.9335602  51.8057303  93.6402137
  53.2511383  53.5015746 109.2416190  53.9926068  54.0400790 108.9651014
  52.5448369  54.1282035 109.3987742  58.7266723  55.6444887 107.8388351
  59.1350079  55.2027297 107.0942984  58.0043984  55.0697514 108.0922544
  55.0797793  50.5817493 105.2121908  55.9258988  51.0056907 105.3556557
  55.0196431  49.9251118 105.9060471  59.0495538  56.2046077 101.5940640
  58.4204400  56.3691791 100.8916708  58.6621200  56.6187687 102.3651604
  62.9284769  57.1400515  98.9485004  62.2435808  57.5199417  98.3982037
  63.0128619  57.7495842  99.6816952  58.2297238  48.2421862 106.8703082
  57.9858170  48.9963922 106.3337358  58.5057169  48.6207209 107.7050329
  60.1835701  54.7860474 105.5480348  60.3952596  55.4292234 104.8714729
  60.1365449  53.9522791 105.0802278  57.7861930  47.3978295 102.4516920
  56.9246409  47.6959548 102.7433657  57.8124365  47.6148694 101.5197952
  54.6023499  55.9420485  98.8590725  55.0661845  56.2208188  98.0695348
  54.3380298  55.0403930  98.6763816  51.4947580  55.4891967 101.7970489
  52.0648938  55.9179235 101.1587973  52.0855692  55.2074552 102.4954674
  53.5392385  52.0643638  95.6680291  54.2416429  52.5164681  96.1354217
  53.2073014  51.4227457  96.2960184  51.9872747  50.6555394 110.0431500
  51.3571408  51.3371675 110.2766897  51.8808835  50.5438476 109.0984638
  61.2981529  57.6632430 103.7202705  62.1198973  57.2612617 103.4385387
  61.2943932  57.5600664 104.6718821  55.0638132  57.2116473 105.8763415
  55.1282565  57.6736880 106.7121587  54.3549056  56.5813838 106.0045725
  69.3887522  54.0071178 100.0687676  68.6351230  53.4378576  99.9131681
  69.5235063  53.9733843 101.0158311  54.7786150  58.8784580  95.7442396
  54.6431825  59.7236116  96.1727244  55.3195963  59.0803858  94.9808330
  51.2653490  44.9576160 112.4056751  50.8720435  44.4042359 113.0804395
  52.0819630  45.2686739 112.7963268  54.1821451  46.3734039 109.9977008
  54.9231164  46.9741192 109.9181470  54.4139374  45.6311677 109.4395050
  49.3262789  51.5590407 108.2755237  49.2116304  50.6575664 108.5762336
  48.4707306  51.8054103 107.9240054  56.4054626  59.5008147 109.8742738
  55.9618481  58.7144525 109.5563642  57.0671840  59.6887297 109.2086629
  58.5035865  59.7810947 107.9024139  58.4854340  60.6019828 107.4104408
  59.4255785  59.6565022 108.1274280  54.9608919  57.2955076 108.7447647
  55.4937255  56.5343364 108.5146955  54.4323000  57.0028728 109.4871802
  58.1278614  42.4015142 104.2741289  57.7842883  43.2916784 104.1980400
  58.4957576  42.2116800 103.4110874  58.0928896  52.3923753  92.7813724
  57.5775520  53.1628358  93.0202112  57.8206205  51.7188890  93.4046786
  55.6776007  47.2373454  97.8398963  54.8217604  46.8480305  97.6604601
  56.0902959  47.3165415  96.9798748  57.2075154  44.7719797 102.2390522
  56.7039950  44.7349933 101.4258328  57.5005761  45.6812540 102.2987179
  53.4518040  44.8558527 101.2456704  54.3171037  44.6601336 100.8862594
  53.5195549  44.6268879 102.1726061  63.0663170  55.1456108  94.7166898
  62.2892613  54.8067268  94.2722060  63.7454651  55.1508731  94.0421863
  57.8815200  50.2650845  94.6073505  57.5765335  50.5796995  95.4583649
  58.8345642  50.3432265  94.6500838  56.3261631  56.4241069  96.2566459
  55.7982993  55.6893828  95.9439697  55.8249134  57.2015745  96.0106428
  61.3054477  54.6190089 101.3733506  60.6478152  55.3089351 101.4613634
  62.1094877  55.0086521 101.7167492  51.0580359  47.0860735  98.6173071
  51.6324111  46.8635917  97.8846264  51.6451341  47.1549430  99.3701672
  60.1159936  52.9734462  99.4237448  60.6291818  53.6064454  99.9259157
  60.7661160  52.3735657  99.0580808  51.3849946  49.1165196  92.6368956
  50.5487258  49.4539883  92.9578231  51.2454716  48.9814176  91.6996093
  53.3603027  43.9601984  97.3448140  52.7067439  43.6451001  96.7204755
  53.3183501  43.3377724  98.0707963  54.4714232  54.2421279  89.2601432
  53.5641293  54.0110532  89.4592581  54.9685264  53.4458898  89.4475414
  57.3782310  62.9518786  92.1798119  56.7044009  63.2550483  92.7883076
  57.7648132  63.7547867  91.8303576  56.5940767  50.4483917 101.6695788
  55.6763328  50.6698865 101.5117476  57.0100911  50.5230228 100.8107495
  57.3775815  51.8475333  96.7998468  58.1247634  52.3596730  96.4905590
  57.6467404  51.5259386  97.6602862  55.6502465  54.3433874  93.7825423
  54.7413684  54.0592907  93.8797892  55.6797549  54.7632952  92.9228729
  60.8821732  57.9540463  97.5516590  60.4284060  57.1131373  97.6081781
  60.2515699  58.5901862  97.8891370  59.8254652  48.8832449  98.7817258
  59.0877409  48.3709836  99.1127500  60.0781426  48.4432831  97.9700534
  59.3254672  59.7916960  98.4866408  59.6177646  60.3522017  97.7678774
  59.8353292  60.0845521  99.2419567  59.9266279  41.6608701  99.3759027
  60.2325156  40.8006065  99.0884942  60.6518884  42.2526322  99.1758021
  54.1987359  51.9562495  99.8835218  54.2535969  51.0036331  99.8077695
  53.3878561  52.1121934 100.3676516  55.3478553  55.8842618  91.1213501
  54.9097983  55.1678477  90.6619138  56.0888994  56.1118732  90.5598593
  52.1379719  50.5739554  97.6425597  51.3247585  50.8733725  98.0490789
  52.6338713  50.1795243  98.3600079  54.2888297  60.5697311  99.5759861
  54.2464476  60.7958157  98.6468394  55.2050996  60.3360686  99.7245663
  63.4651668  54.1599815  97.1789820  63.3269566  54.3501411  96.2511009
  63.1087886  54.9219197  97.6357871  51.6293794  48.1457910 103.2586832
  52.2693173  48.0046669 102.5609795  50.7971324  47.8592423 102.8825434
  63.4921047  56.2276342 102.1901091  63.9257554  56.1351631 103.0384145
  64.2052628  56.2033842 101.5521107  52.4054098  57.4460340  99.3721824
  53.1994696  56.9510660  99.1704399  51.6945790  56.9178203  99.0089530
  57.2248942  59.8278436 103.7234192  57.2785964  60.3969372 104.4911908
  56.3563723  59.9980321 103.3588229  48.6322410  48.1158235  98.0359819
  48.8929227  49.0303568  97.9268979  49.4539582  47.6482677  98.1856431
  50.1047335  49.5295992 105.2058643  50.7770389  49.3213354 104.5571292
  49.2777122  49.3318078 104.7663875  64.3536597  56.2700042 104.7233977
  64.5472487  57.1745853 104.9693252  64.2537215  55.8107461 105.5572562
  56.0072907  46.1557933 107.2224304  55.3600823  46.8547883 107.1288780
  56.7773923  46.5894077 107.5900552  59.4151705  56.4206785 110.2974857
  59.2637212  56.1917337 109.3804941  59.4056385  57.3777386 110.3106202
  56.1837042  53.9938698 105.2821124  57.1129102  54.1449857 105.1090091
  55.7628072  54.0822719 104.4269770  54.9825374  58.0189362 103.0519661
  54.8436459  57.6508147 103.9245599  54.1939970  58.5337002 102.8803619
  55.5773526  63.1198459  94.3945198  55.7525281  62.6486502  95.2090821
  54.8906314  63.7464225  94.6226459  56.5330589  57.3970965 100.4408499
  56.1980421  57.3571735 101.3366149  56.0334534  56.7315681  99.9678909
  50.5074833  52.8038595 105.9661080  50.3694631  52.0718834 106.5672619
  51.4179756  52.7147495 105.6845268  59.4689780  54.7426999  90.7145559
  58.8518951  54.0173827  90.6178611  59.0006269  55.5036359  90.3712633
  53.1357133  52.5158554 105.4544760  53.8456752  51.8751746 105.4131378
  53.0926442  52.7671449 106.3770941  61.1243912  59.4525908 108.3751339
  61.0656458  58.7685128 107.7081922  61.5263430  60.1944898 107.9231965
  51.8486067  49.5023772 107.2740399  51.3123424  49.0514511 107.9261996
  51.2602776  49.6369681 106.5310864  50.1434611  66.2687821 101.1685058
  50.3831209  66.9006346 101.8464077  49.3003807  65.9175861 101.4550417
  51.2588326  48.9612424  89.8366863  50.3817793  48.8401224  89.4729110
  51.7346079  48.1698502  89.5845752  61.1261319  57.4165492 106.6065319
  60.2388098  57.0791413 106.7291718  61.6959870  56.6848523 106.8434084
  47.5825189  48.6379780 104.3593394  47.4983377  48.0305449 103.6243804
  46.7607895  49.1288798 104.3602890  54.6562473  62.0766944 103.5726562
  54.5832644  62.8821915 104.0845867  54.2139866  62.2758910 102.7474583
  54.4452252  61.3138714  97.0829384  53.6619774  61.8560394  97.1767608
  55.1444998  61.8312694  97.4823625  57.7548902  47.1233343  99.7263589
  58.2517602  46.3703306  99.4064659  56.9835884  47.1597660  99.1606798
  65.6078660  52.8273709 101.3681880  65.5968536  53.7098424 100.9975814
  64.7396039  52.4745260 101.1736417  57.1161156  61.9753778 105.7284721
  57.8289128  62.6101243 105.6560622  56.6251185  62.0717644 104.9124722
  58.8378683  55.8805031  97.3002012  57.9034962  56.0006493  97.1306717
  59.0155352  54.9777497  97.0362022  54.3383871  49.2650726  99.4535274
  53.9681659  48.7121767 100.1416179  54.8342964  48.6608860  98.9010274
  62.2251235  51.7222350  97.8352046  62.6911687  52.5550341  97.7612349
  62.6758735  51.2567331  98.5397305  60.2927466  58.0666171  94.8338198
  60.5687310  57.9522766  95.7432073  59.4231964  57.6683656  94.7950372
  60.1967897  44.0902937 101.8742948  59.2830977  44.3207164 102.0425155
  60.6260999  44.1741381 102.7256980  59.9674356  52.2792829 104.3742842
  59.3145806  52.5268736 103.7195295  60.3454736  51.4656967 104.0405319
  56.9281530  62.3152522  98.4771012  57.1103924  61.4974178  98.9398764
  57.7514516  62.5320214  98.0395902  57.2623695  61.2420707  95.7386061
  57.7911462  60.7313162  95.1256223  57.5251915  60.9263237  96.6031594
  56.0161929  53.0212640 110.8608879  55.3402566  52.9206769 111.5311254
  56.8389563  52.8651854 111.3244876  54.7584712  64.3279567 105.0966495
  55.3103020  64.4911189 105.8615580  55.0990905  64.9184005 104.4246520
  49.7349205  46.6754717 105.6988380  49.7990531  47.5369548 105.2865777
  49.6716325  46.0628719 104.9660738  49.2101477  48.7477850 109.3461414
  49.8373516  48.3654927 109.9598938  48.3529396  48.5292052 109.7117106
  59.6095586  59.1540825 110.9515149  60.1535490  59.7670783 110.4570104
  59.0282431  59.7120403 111.4682162  57.8953099  62.2761543 102.0830177
  57.7704238  61.4751283 101.5741123  58.5532190  62.7707736 101.5944147
  49.5161267  48.6310275 101.2607317  48.7947853  49.2446243 101.1214791
  50.3054523  49.1668040 101.1823963  59.9588007  60.0770563 103.7109727
  59.0118343  59.9575914 103.6388054  60.3070780  59.1893061 103.7935989
  52.3187581  45.9664702 107.5347969  52.8421983  46.2126998 108.2974278
  52.0999914  46.7984737 107.1151106  47.7154862  48.2368376  95.4019094
  47.3867568  47.3565755  95.2194200  48.0694232  48.1816045  96.2895483
  56.9634441  59.8723279  99.9114079  56.8159403  58.9439987 100.0921649
  57.7887934  59.8943370  99.4271155  50.8296685  48.5241346  95.7694572
  51.1692757  49.0527267  95.0473180  51.2768805  48.8621752  96.5453138
  60.5668562  60.6951838 100.9978952  61.4915110  60.4894699 100.8603403
  60.3983866  60.4468239 101.9068294  53.5240126  46.9078397 105.2197640
  53.1836946  46.1086210 105.6218319  52.8179132  47.2080108 104.6474473
  54.1756598  43.9927709 103.6724963  54.9982667  43.5188188 103.5503853
  54.4194661  44.7718193 104.1723649  52.8164832  47.0215968  93.9687864
  53.5373195  47.3997221  93.4651581  52.1930136  47.7404845  94.0722842
  56.9595955  47.7261117  94.9046197  57.1759569  48.6085755  94.6035025
  56.4790022  47.3347330  94.1751839  51.6995176  50.6846830 101.4816941
  51.5539757  50.9987133 102.3741223  51.2220380  51.3031730 100.9287840
  53.5591559  47.6749378 101.5297831  53.5453128  46.7790471 101.1930129
  54.2763987  47.6820042 102.1636117  55.4117690  48.1086718 103.5750958
  55.1535468  49.0303789 103.5735289  54.8802730  47.7117153 104.2651422
  60.3563879  61.2137505  96.3541044  60.5300756  60.6483928  95.6014896
  60.8492770  62.0138400  96.1720534  52.9628455  46.5563758  96.7985401
  53.0844366  45.6280404  96.9976288  52.6730498  46.5702444  95.8863716
  55.8319646  44.2418669  99.9352121  55.8541342  44.3058002  98.9804100
  56.2487705  43.4023177 100.1292627  66.2103270  53.9773928  97.9731343
  66.6534416  53.2281253  97.5750467  65.3329780  53.9684065  97.5905075
  61.3439051  60.5304270  93.4537942  62.0389956  61.1510962  93.6725256
  61.6862201  59.6799621  93.7290320  46.9606860  52.3522071 107.3134759
  46.2188596  52.5004706 107.8999390  46.6399605  52.6130336 106.4501509
  63.2430474  57.9803975  94.9825273  63.7681798  58.3191248  94.2574593
  63.1552827  57.0450991  94.7988407  54.9050523  61.8938049 107.1115149
  55.2137649  61.6487196 107.9837849  55.7026005  62.0984687 106.6234019
  54.9271135  64.0475959  99.3420526  54.4876125  63.5552337 100.0353383
  55.6779252  63.5048926  99.1012601  52.4469535  48.0695756 111.0075334
  52.4957690  48.9457878 110.6253103  52.9892049  47.5273149 110.4346977
  62.9324380  58.6136879 110.2876471  62.1419924  58.5961018 109.7480970
  62.6957735  59.1525173 111.0425507  63.0522255  55.4629345 107.6009199
  63.1020260  55.2979353 108.5424722  62.9436179  54.5956604 107.2107080
  51.9358514  58.1417891  94.8901288  52.0846634  58.8253355  94.2367961
  52.7424958  58.1222981  95.4050744  54.6768823  48.8227128 107.7621692
  53.8072133  49.1160694 107.4904281  54.9128303  49.4067573 108.4828956
  64.5540452  57.8826287 107.8451221  64.2625261  58.2456267 108.6814682
  63.9412584  57.1693295 107.6664553  65.7536135  55.4479167 100.3653791
  66.5883026  55.8868971 100.5291351  65.8895263  54.9717820  99.5462037
  62.8027640  53.0058901 106.3131279  63.2781762  53.1986548 105.5050130
  61.8793206  53.0618087 106.0674662  57.3807857  45.0406745 105.2787113
  57.8989801  45.7767772 104.9533601  57.0262990  45.3470738 106.1133872
  48.9606795  49.9011426  93.3948518  48.2676040  49.9755781  92.7388554
  48.7158547  49.1371770  93.9170035  57.6320451  41.4607028 100.7988009
  57.9122205  40.7930217 101.4248436  58.4171058  41.6536123 100.2862673
  55.4353920  60.6366021  92.3613035  54.8627887  61.2556209  91.9083507
  56.0086713  61.1865383  92.8952957  61.5029309  49.8824661 104.5459584
  62.4546732  49.9822759 104.5671808  61.3332760  49.0902930 105.0557669
  59.5243689  46.9680245 104.7318985  58.9293621  47.2485257 104.0365474
  59.2393386  47.4574146 105.5035726  58.6551179  60.9203172  93.4921618
  59.5881853  60.8548733  93.6954493  58.5674392  61.7559438  93.0336150
  61.2839196  60.2369042  90.4525565  61.2052828  59.9028905  91.3461323
  62.1048863  60.7290810  90.4517038  63.9817387  53.1030781 103.6601884
  63.9493707  52.1646782 103.8461568  64.5918011  53.1814818 102.9267709
  55.8200718  51.9726834  89.7029088  56.7659823  51.8433042  89.7717506
  55.4414963  51.2341496  90.1798516  64.1311876  49.8941825 103.7060167
  63.6150924  49.1100281 103.5190096  65.0151824  49.5660541 103.8706687
  61.7922603  43.6382840  99.6655980  61.5947424  43.3297928 100.5499312
  62.4022308  44.3644479  99.7953910  69.7993937  54.1646788 102.8007921
  70.5297326  53.9032076 103.3615624  69.1900883  53.4275510 102.8409989
  67.8809234  52.3054651 103.3982372  67.1542398  52.1710616 102.7898863
  67.4656521  52.6131479 104.2039090  55.7039411  56.0244580 111.1629745
  56.6242420  56.2023179 111.3569791  55.6688994  55.0800626 111.0109444
  54.0043635  49.8976811  89.6383973  53.0975091  49.6009923  89.7146687
  54.2819616  49.6006629  88.7718259  55.6205701  44.4413700  95.7928214
  54.8106429  44.0960785  96.1683461  56.3090118  44.1321244  96.3815826
  57.5496249  43.5191747  97.4152511  58.1027288  43.9387200  98.0742534
  57.7866336  42.5927495  97.4575467  53.5729349  49.5078821 113.1955275
  53.4726075  50.4573178 113.1267366  53.3550891  49.1797060 112.3231345
  52.7742420  46.7563746  89.7795952  53.6361584  47.0818644  90.0391770
  52.9592764  45.9695242  89.2669018  60.9275056  45.6292272  96.9231175
  60.3473725  46.2877076  96.5409228  60.6610989  44.8069617  96.5118593
  59.3778623  45.0297330  99.1252496  59.8778401  45.1413864  98.3166815
  60.0214231  44.7258383  99.7653304  53.4360619  52.9375960 112.0120337
  52.9527700  53.7376320 112.2184226  53.5221558  52.9483904 111.0587781
  49.3633956  56.8280494 104.0488770  50.3177210  56.7964437 103.9818702
  49.1646480  56.3671118 104.8638996  49.9533338  55.3981610 106.6159568
  50.7726227  55.8925689 106.6394405  50.2270146  54.4813578 106.5877136
  59.7099934  47.7892363  95.9787524  58.8225789  48.0742013  95.7607718
  60.1253923  47.6286126  95.1314801  63.0614471  47.8138884  99.6941863
  63.8374861  48.3035336  99.9666480  62.3362605  48.2396938 100.1513732
  65.4987029  48.5266503 100.7515804  66.0931520  48.2862239 100.0409112
  65.5713613  47.8073633 101.3789340  58.8543148  57.5537037  90.0735544
  59.5578998  57.7587040  90.6893199  58.1305797  58.1213799  90.3384627
  59.6840958  53.3046899  96.1937814  59.6276160  53.7615450  95.3545446
  60.2369301  52.5437583  96.0160657  63.4945764  49.0936630  97.0187933
  63.2382698  48.6933266  97.8496141  62.8698632  49.8080424  96.8938072
  67.8058102  51.8332704  99.5259225  67.2457660  51.9025893 100.2990787
  67.2001605  51.6573688  98.8058721  60.7629845  57.9919566  92.1234004
  61.5975449  57.5600765  91.9411478  60.6014188  57.8201580  93.0510898
  60.4175737  54.4951680  93.4890343  60.3624541  54.3295951  92.5478787
  59.7921793  55.2027713  93.6452533  45.2068252  49.7319744 107.3151765
  45.8527116  49.2218698 107.8038990  44.9985404  50.4688426 107.8895190
  57.7321645  56.8000592 112.8143906  58.6012804  56.9741244 112.4530541
  57.2528396  57.6195008 112.6919635  53.7271863  43.9959789  93.0675661
  53.7150533  44.9401629  93.2243932  54.6195285  43.8129934  92.7735123
  57.5423982  40.5902565  97.3221598  56.7756378  40.0361052  97.4678281
  57.9534687  40.6624434  98.1835750  49.5465743  46.8787361 111.4126779
  50.4097205  46.5224166 111.6230104  48.9731154  46.5401256 112.1002184
  69.3914120  68.5089218 102.2189180  70.0292530  68.3895965 101.5152520
  69.2734963  69.4570062 102.2777133  66.2003827  68.4616646 102.1550705
  65.8622338  68.3457710 101.2671240  67.0693595  68.0607811 102.1351711
  62.0590642  70.3152122  98.1447596  61.4955507  70.2242059  97.3763884
  61.9443037  69.4952027  98.6250089  66.6823610  69.6151497 108.1136911
  66.6712250  69.2204296 107.2417414  66.8444249  68.8817570 108.7070682
  59.6055074  71.8103314 100.9831817  60.3976366  71.4694138 100.5678116
  59.8451724  71.9198289 101.9033970  67.6390201  73.9823090  93.4562061
  66.9878181  74.5677170  93.0696075  68.4334564  74.5129285  93.5157098
  61.5645828  71.0712227  93.8549195  62.3376704  70.5241214  93.7162071
  61.9171227  71.9356476  94.0663657  63.4030871  72.3988609 107.0616095
  63.1120737  73.3034240 106.9462761  64.0387855  72.4405137 107.7760164
  64.3287078  69.7765458 103.6517454  64.9250650  69.5521480 102.9374417
  64.3862049  69.0350203 104.2542902  63.9012106  67.2304893  91.4867645
  64.1537627  66.7086414  90.7251108  62.9636665  67.0671039  91.5894329
  68.9455389  66.2340671  99.2942388  69.7318478  65.8160095  98.9432805
  69.2094093  67.1386764  99.4624037  69.1165466  71.6713522  93.9931045
  68.4811299  71.7448148  94.7051950  68.7862873  72.2607121  93.3150125
  74.3463816  66.1715905 100.1975367  75.0788988  65.6015121 100.4313196
  73.5903172  65.7837505 100.6381873  63.6208395  69.1332999  93.6892020
  63.5044653  68.4577902  94.3573104  63.7310655  68.6465373  92.8724173
  65.9639936  68.5943146  97.3938709  65.5998143  68.0673767  98.1051631
  66.8207052  68.2041615  97.2205195  71.8689236  59.8837479 104.6569976
  71.5372561  60.7532890 104.4331191  71.2734850  59.5673763 105.3364006
  65.6045423  63.6233046  92.3900058  65.7719825  64.4913282  92.7570529
  65.4142592  63.7860328  91.4661347  68.3620756  72.0850025 104.0565888
  68.0621479  72.9875064 103.9481696  68.0171815  71.8182208 104.9087041
  61.8133237  68.5363822 100.0902593  60.8883734  68.4040036 100.2980284
  62.0617651  69.3158041 100.5872535  71.7617900  64.6032565 101.7363326
  70.8534777  64.5347973 101.4422087  71.7105495  65.0804510 102.5645151
  65.5834644  66.0790703  93.3746725  65.4634269  66.5247754  94.2132205
  64.8887232  66.4276021  92.8160263  59.1742048  68.1797095 100.9246382
  59.3034430  68.4331574 101.8385794  58.4939500  68.7724803 100.6051037
  63.3441536  78.8494345  97.0236856  63.2665565  79.8002170  97.1025337
  62.7403179  78.5040218  97.6811782  65.8358765  66.0222211 109.6798223
  65.0592099  66.5816131 109.6701088  66.4749328  66.5078993 110.2013093
  73.6279546  62.8049003 103.5141200  72.9853926  63.0981536 102.8680994
  73.1234475  62.6901924 104.3194396  71.2819710  66.5512177  94.2027059
  72.1937566  66.7839563  94.0274756  70.7729357  67.1349221  93.6402137
  64.0905138  68.8307664 109.2416190  64.8319822  69.3692708 108.9651014
  63.3842123  69.4573953 109.3987742  69.5660477  70.9736804 107.8388351
  69.9743833  70.5319215 107.0942984  68.8437739  70.3989432 108.0922544
  69.8889292  71.5337995 101.5940640  69.2598154  71.6983709 100.8916708
  69.5014954  71.9479605 102.3651604  73.7678524  72.4692433  98.9485004
  73.0829562  72.8491334  98.3982037  73.8522373  73.0787759  99.6816952
  69.0690993  63.5713779 106.8703082  68.8251925  64.3255840 106.3337358
  69.3450923  63.9499127 107.7050329  71.0229456  70.1152392 105.5480348
  71.2346351  70.7584152 104.8714729  70.9759204  69.2814708 105.0802278
  68.6255684  62.7270212 102.4516920  67.7640164  63.0251466 102.7433657
  68.6518119  62.9440611 101.5197952  65.4417254  71.2712403  98.8590725
  65.9055599  71.5500106  98.0695348  65.1774052  70.3695848  98.6763816
  62.3341335  70.8183885 101.7970489  62.9042692  71.2471153 101.1587973
  62.9249447  70.5366469 102.4954674  64.3786140  67.3935555  95.6680291
  65.0810183  67.8456599  96.1354217  64.0466768  66.7519374  96.2960184
  62.8266501  65.9847312 110.0431500  62.1965162  66.6663593 110.2766897
  62.7202589  65.8730394 109.0984638  58.1211474  65.6519108 100.9697424
  57.3310528  65.9076637 100.4937535  58.6122721  66.4667446 101.0749465
  72.1375283  72.9924347 103.7202705  72.9592727  72.5904535 103.4385387
  72.1337686  72.8892581 104.6718821  60.0726219  66.0163687  97.9280901
  59.2757383  66.1282382  98.4464396  59.8451811  66.3550340  97.0621791
  65.9031887  72.5408391 105.8763415  65.9676319  73.0028798 106.7121587
  65.1942811  71.9105755 106.0045725  56.4049177  65.9049599 103.4012415
  56.6557215  66.7896608 103.6669991  56.9408725  65.7254200 102.6287507
  80.2281277  69.3363096 100.0687676  79.4744985  68.7670494  99.9131681
  80.3628818  69.3025760 101.0158311  65.6179905  74.2076498  95.7442396
  65.4825579  75.0528034  96.1727244  66.1589717  74.4095776  94.9808330
  62.1047244  60.2868078 112.4056751  61.7114190  59.7334276 113.0804395
  62.9213385  60.5978656 112.7963268  59.0709302  71.7251936  96.3170321
  59.5833823  72.5195186  96.4675885  59.7232015  71.0278227  96.2503922
  60.8804187  74.8417692  98.3993074  61.0570815  75.7635657  98.2114058
  61.6761020  74.5276112  98.8287454  65.0215205  61.7025957 109.9977008
  65.7624919  62.3033110 109.9181470  65.2533128  60.9603595 109.4395050
  60.1656543  66.8882324 108.2755237  60.0510058  65.9867581 108.5762336
  59.3101061  67.1346021 107.9240054  67.2448381  74.8300065 109.8742738
  66.8012235  74.0436443 109.5563642  67.9065595  75.0179215 109.2086629
  62.0035502  76.3595866 104.4003416  62.5542927  76.2312930 103.6280410
  61.1646978  76.6590755 104.0498309  69.3429619  75.1102864 107.9024139
  69.3248094  75.9311746 107.4104408  70.2649539  74.9856940 108.1274280
  65.8002673  72.6246994 108.7447647  66.3331010  71.8635282 108.5146955
  65.2716754  72.3320646 109.4871802  68.9672368  57.7307060 104.2741289
  68.6236638  58.6208702 104.1980400  69.3351331  57.5408718 103.4110874
  57.0358219  70.0540590  97.0929891  57.8733441  70.4637599  96.8763599
  57.2136486  69.1140033  97.0630085  68.9322651  67.7215671  92.7813724
  68.4169274  68.4920276  93.0202112  68.6599959  67.0480807  93.4046786
  68.0468909  60.1011715 102.2390522  67.5433704  60.0641850 101.4258328
  68.3399515  61.0104458 102.2987179  64.2911794  60.1850445 101.2456704
  65.1564791  59.9893253 100.8862594  64.3589303  59.9560797 102.1726061
  73.9056925  70.4748026  94.7166898  73.1286368  70.1359185  94.2722060
  74.5848406  70.4800649  94.0421863  68.7208954  65.5942763  94.6073505
  68.4159090  65.9088912  95.4583649  69.6739396  65.6724183  94.6500838
  67.1655386  71.7532986  96.2566459  66.6376747  71.0185746  95.9439697
  66.6642889  72.5307663  96.0106428  72.1448232  69.9482007 101.3733506
  71.4871906  70.6381268 101.4613634  72.9488631  70.3378439 101.7167492
  61.8974113  62.4152653  98.6173071  62.4717865  62.1927834  97.8846264
  62.4845096  62.4841347  99.3701672  70.9553691  68.3026380  99.4237448
  71.4685572  68.9356371  99.9259157  71.6054915  67.7027575  99.0580808
  62.2243701  64.4457114  92.6368956  61.3881013  64.7831800  92.9578231
  62.0848470  64.3106094  91.6996093  64.1996781  59.2893902  97.3448140
  63.5461194  58.9742919  96.7204755  64.1577255  58.6669642  98.0707963
  65.3107986  69.5713197  89.2601432  64.4035048  69.3402450  89.4592581
  65.8079018  68.7750816  89.4475414  68.2176065  78.2810704  92.1798119
  67.5437764  78.5842401  92.7883076  68.6041887  79.0839784  91.8303576
  68.2169569  67.1767251  96.7998468  68.9641388  67.6888648  96.4905590
  68.4861159  66.8551304  97.6602862  66.4896219  69.6725792  93.7825423
  65.5807439  69.3884824  93.8797892  66.5191303  70.0924870  92.9228729
  71.7215487  73.2832381  97.5516590  71.2677814  72.4423291  97.6081781
  71.0909454  73.9193779  97.8891370  70.1648426  75.1208878  98.4866408
  70.4571401  75.6813935  97.7678774  70.6747047  75.4137439  99.2419567
  70.7660034  56.9900619  99.3759027  71.0718911  56.1297983  99.0884942
  71.4912639  57.5818239  99.1758021  57.0584390  67.3931306  97.7640625
  56.8608790  66.8000666  97.0391691  56.5031054  67.0883516  98.4816564
  65.0381114  67.2854412  99.8835218  65.0929723  66.3328249  99.8077695
  64.2272316  67.4413851 100.3676516  66.1872307  71.2134535  91.1213501
  65.7491737  70.4970394  90.6619138  66.9282748  71.4410650  90.5598593
  62.9773473  65.9031472  97.6425597  62.1641339  66.2025642  98.0490789
  63.4732468  65.5087161  98.3600079  65.1282051  75.8989229  99.5759861
  65.0858230  76.1250075  98.6468394  66.0444750  75.6652603  99.7245663
  68.5747685  66.3673296 106.4740491  68.9297073  66.5944770 107.3334956
  69.2219816  66.6991673 105.8517746  74.3045422  69.4891732  97.1789820
  74.1663321  69.6793328  96.2511009  73.9481641  70.2511115  97.6357871
  62.4687548  63.4749827 103.2586832  63.1086928  63.3338587 102.5609795
  61.6365079  63.1884341 102.8825434  74.3314802  71.5568259 102.1901091
  74.7651308  71.4643548 103.0384145  75.0446382  71.5325760 101.5521107
  63.2447852  72.7752258  99.3721824  64.0388451  72.2802578  99.1704399
  62.5339545  72.2470121  99.0089530  68.0642697  75.1570353 103.7234192
  68.1179719  75.7261290 104.4911908  67.1957478  75.3272238 103.3588229
  59.5530616  66.9195340  95.4481577  58.6228204  66.8579795  95.6651539
  59.6488088  66.3971292  94.6518218  59.4716165  63.4450152  98.0359819
  59.7322982  64.3595486  97.9268979  60.2933337  62.9774595  98.1856431
  60.9441090  64.8587910 105.2058643  61.6164143  64.6505272 104.5571292
  60.1170876  64.6609996 104.7663875  75.1930351  71.5991960 104.7233977
  75.3866241  72.5037770 104.9693252  75.0930969  71.1399379 105.5572562
  66.8466662  61.4849851 107.2224304  66.1994577  62.1839800 107.1288780
  67.6167677  61.9185994 107.5900552  70.2545460  71.7498703 110.2974857
  70.1030966  71.5209254 109.3804941  70.2450139  72.7069304 110.3106202
  67.0230796  69.3230615 105.2821124  67.9522856  69.4741775 105.1090091
  66.6021826  69.4114636 104.4269770  65.8219128  73.3481280 103.0519661
  65.6830214  72.9800064 103.9245599  65.0333724  73.8628919 102.8803619
  66.4167280  78.4490376  94.3945198  66.5919036  77.9778420  95.2090821
  65.7300068  79.0756143  94.6226459  67.3724343  72.7262883 100.4408499
  67.0374176  72.6863653 101.3366149  66.8728289  72.0607598  99.9678909
  61.3468587  68.1330513 105.9661080  61.2088385  67.4010751 106.5672619
  62.2573511  68.0439413 105.6845268  70.3083535  70.0718917  90.7145559
  69.6912706  69.3465745  90.6178611  69.8400023  70.8328277  90.3712633
  63.9750888  67.8450472 105.4544760  64.6850506  67.2043664 105.4131378
  63.9320196  68.0963367 106.3770941  71.9637667  74.7817825 108.3751339
  71.9050213  74.0977045 107.7081922  72.3657185  75.5236815 107.9231965
  60.9828365  81.5979739 101.1685058  61.2224964  82.2298263 101.8464077
  60.1397562  81.2467779 101.4550417  62.0982081  64.2904341  89.8366863
  61.2211547  64.1693142  89.4729110  62.5739834  63.4990420  89.5845752
  71.9655074  72.7457409 106.6065319  71.0781853  72.4083331 106.7291718
  72.5353625  72.0140440 106.8434084  53.6184221  69.0781501  99.9308370
  54.3055261  68.7643231  99.3429385  53.4632350  69.9822866  99.6575622
  58.4218943  63.9671697 104.3593394  58.3377132  63.3597367 103.6243804
  57.6001650  64.4580716 104.3602890  65.4956227  77.4058862 103.5726562
  65.4226399  78.2113833 104.0845867  65.0533620  77.6050827 102.7474583
  65.2846007  76.6430632  97.0829384  64.5013529  77.1852312  97.1767608
  65.9838752  77.1604611  97.4823625  68.5942657  62.4525261  99.7263589
  69.0911357  61.6995223  99.4064659  67.8229638  62.4889578  99.1606798
  76.4472414  68.1565627 101.3681880  76.4362291  69.0390342 100.9975814
  75.5789794  67.8037177 101.1736417  67.9554911  77.3045696 105.7284721
  68.6682883  77.9393160 105.6560622  67.4644939  77.4009562 104.9124722
  69.6772438  71.2096948  97.3002012  68.7428716  71.3298411  97.1306717
  69.8549106  70.3069415  97.0362022  65.1777626  64.5942644  99.4535274
  64.8075413  64.0413684 100.1416179  65.6736718  63.9900777  98.9010274
  73.0644989  67.0514268  97.8352046  73.5305441  67.8842259  97.7612349
  73.5152490  66.5859249  98.5397305  63.0066824  75.0540139 106.5490291
  63.7076284  75.6876622 106.7019686  62.5361939  75.3954871 105.7885931
  71.1321220  73.3958089  94.8338198  71.4081064  73.2814683  95.7432073
  70.2625719  72.9975574  94.7950372  71.0361652  59.4194855 101.8742948
  70.1224732  59.6499081 102.0425155  71.4654753  59.5033299 102.7256980
  70.8068110  67.6084746 104.3742842  70.1539560  67.8560654 103.7195295
  71.1848490  66.7948885 104.0405319  67.7675284  77.6444440  98.4771012
  67.9497679  76.8266096  98.9398764  68.5908270  77.8612132  98.0395902
  68.1017450  76.5712625  95.7386061  68.6305216  76.0605079  95.1256223
  68.3645669  76.2555155  96.6031594  66.8555683  68.3504558 110.8608879
  66.1796320  68.2498687 111.5311254  67.6783317  68.1943771 111.3244876
  58.6034542  74.5876494 103.4821394  59.1887979  73.8420182 103.6149298
  58.4059381  74.8980451 104.3658058  61.4573198  77.6227741  98.4983837
  60.7883573  78.1073869  98.0147877  61.3186067  77.8696962  99.4127215
  53.1952197  67.1582094 102.2025837  53.2336297  66.6245685 102.9962955
  52.6892490  66.6317300 101.5836814  65.5978466  79.6571485 105.0966495
  66.1496774  79.8203106 105.8615580  65.9384660  80.2475923 104.4246520
  60.5742959  62.0046635 105.6988380  60.6384286  62.8661466 105.2865777
  60.5110080  61.3920636 104.9660738  60.0495232  64.0769767 109.3461414
  60.6767271  63.6946845 109.9598938  59.1923151  63.8583969 109.7117106
  70.4489340  74.4832742 110.9515149  70.9929244  75.0962701 110.4570104
  69.8676185  75.0412321 111.4682162  56.8260775  65.8846196  95.2779769
  57.1214216  64.9756875  95.2246822  55.9248810  65.8633936  94.9560771
  68.7346853  77.6053461 102.0830177  68.6097993  76.8043200 101.5741123
  69.3925945  78.0999654 101.5944147  60.3555022  63.9602193 101.2607317
  59.6341607  64.5738161 101.1214791  61.1448277  64.4959958 101.1823963
  70.7981762  75.4062481 103.7109727  69.8512097  75.2867832 103.6388054
  71.1464535  74.5184979 103.7935989  63.1581335  61.2956620 107.5347969
  63.6815737  61.5418916 108.2974278  62.9393668  62.1276654 107.1151106
  58.5548616  63.5660294  95.4019094  58.2261322  62.6857673  95.2194200
  58.9087987  63.5107963  96.2895483  67.8028195  75.2015197  99.9114079
  67.6553158  74.2731904 100.0921649  68.6281689  75.2235288  99.4271155
  61.6690439  63.8533264  95.7694572  62.0086512  64.3819185  95.0473180
  62.1162560  64.1913670  96.5453138  71.4062317  76.0243756 100.9978952
  72.3308864  75.8186617 100.8603403  71.2377620  75.7760157 101.9068294
  65.0150352  59.3219627 103.6724963  65.8376421  58.8480105 103.5503853
  65.2588416  60.1010111 104.1723649  63.6558587  62.3507885  93.9687864
  64.3766949  62.7289138  93.4651581  63.0323891  63.0696762  94.0722842
  67.7989709  63.0553034  94.9046197  68.0153324  63.9377672  94.6035025
  67.3183777  62.6639248  94.1751839  62.5388931  66.0138748 101.4816941
  62.3933512  66.3279051 102.3741223  62.0614134  66.6323648 100.9287840
  64.3985314  63.0041296 101.5297831  64.3846882  62.1082389 101.1930129
  65.1157742  63.0111959 102.1636117  66.2511444  63.4378636 103.5750958
  65.9929222  64.3595707 103.5735289  65.7196485  63.0409070 104.2651422
  71.1957633  76.5429423  96.3541044  71.3694511  75.9775845  95.6014896
  71.6886524  77.3430318  96.1720534  57.0134593  68.5544092 104.4204602
  56.4688061  69.3303900 104.5524877  57.8913943  68.9014897 104.2623724
  63.8022210  61.8855676  96.7985401  63.9238121  60.9572322  96.9976288
  63.5124252  61.8994362  95.8863716  66.6713400  59.5710586  99.9352121
  66.6935097  59.6349919  98.9804100  67.0881459  58.7315095 100.1292627
  77.0497024  69.3065846  97.9731343  77.4928170  68.5573171  97.5750467
  76.1723535  69.2975982  97.5905075  72.1832806  75.8596187  93.4537942
  72.8783710  76.4802880  93.6725256  72.5255956  75.0091539  93.7290320
  57.8000615  67.6813988 107.3134759  57.0582351  67.8296624 107.8999390
  57.4793359  67.9422254 106.4501509  74.0824229  73.3095893  94.9825273
  74.6075553  73.6483166  94.2574593  73.9946581  72.3742908  94.7988407
  65.7444277  77.2229967 107.1115149  66.0531404  76.9779113 107.9837849
  66.5419759  77.4276605 106.6234019  65.7664890  79.3767876  99.3420526
  65.3269880  78.8844255 100.0353383  66.5173006  78.8340844  99.1012601
  58.2457229  75.5679417  99.3445154  59.0715248  75.2683189  98.9643797
  57.8951280  74.7987040  99.7934943  63.2138762  74.9205885 101.4142827
  62.5918771  74.2576590 101.1145055  63.8843629  74.9467017 100.7316475
  56.4465834  73.4865744 100.3034087  55.6097742  73.0587918 100.1218089
  56.4189479  73.6798187 101.2404879  63.2863289  63.3987673 111.0075334
  63.3351445  64.2749796 110.6253103  63.8285803  62.8565066 110.4346977
  73.7718135  73.9428797 110.2876471  72.9813679  73.9252935 109.7480970
  73.5351489  74.4817090 111.0425507  73.8916010  70.7921263 107.6009199
  73.9414015  70.6271270 108.5424722  73.7829933  69.9248522 107.2107080
  62.7752269  73.4709809  94.8901288  62.9240389  74.1545273  94.2367961
  63.5818712  73.4514899  95.4050744  71.1819772  66.7752191 108.9168506
  72.0829635  66.6358656 108.6252504  71.2567747  66.9406646 109.8566683
  75.3934207  73.2118204 107.8451221  75.1019015  73.5748185 108.6814682
  74.7806338  72.4985213 107.6664553  76.5929889  70.7771084 100.3653791
  77.4276780  71.2160888 100.5291351  76.7289018  70.3009737  99.5462037
  73.6421395  68.3350819 106.3131279  74.1175517  68.5278465 105.5050130
  72.7186960  68.3910005 106.0674662  60.5304902  69.4974986  95.8962357
  60.2850944  68.5937316  96.0942567  60.7000816  69.4992137  94.9541835
  68.2201611  60.3698663 105.2787113  68.7383555  61.1059690 104.9533601
  67.8656744  60.6762656 106.1133872  59.8000549  65.2303344  93.3948518
  59.1069794  65.3047699  92.7388554  59.5552301  64.4663687  93.9170035
  68.4714206  56.7898945 100.7988009  68.7515959  56.1222134 101.4248436
  69.2564813  56.9828041 100.2862673  66.2747674  75.9657939  92.3613035
  65.7021641  76.5848126  91.9083507  66.8480468  76.5157301  92.8952957
  72.3423064  65.2116579 104.5459584  73.2940487  65.3114677 104.5671808
  72.1726514  64.4194848 105.0557669  70.3637443  62.2972162 104.7318985
  69.7687376  62.5777175 104.0365474  70.0787140  62.7866063 105.5035726
  69.4944934  76.2495089  93.4921618  70.4275607  76.1840651  93.6954493
  69.4068147  77.0851356  93.0336150  72.1232951  75.5660960  90.4525565
  72.0446582  75.2320823  91.3461323  72.9442617  76.0582727  90.4517038
  74.8211142  68.4322699 103.6601884  74.7887462  67.4938700 103.8461568
  75.4311765  68.5106736 102.9267709  66.6594473  67.3018752  89.7029088
  67.6053577  67.1724960  89.7717506  66.2808718  66.5633414  90.1798516
  74.9705630  65.2233742 103.7060167  74.4544679  64.4392199 103.5190096
  75.8545579  64.8952459 103.8706687  80.6387692  69.4938706 102.8007921
  81.3691080  69.2323994 103.3615624  80.0294637  68.7567428 102.8409989
  78.7202989  67.6346568 103.3982372  77.9936152  67.5002533 102.7898863
  78.3050276  67.9423397 104.2039090  66.5433165  71.3536498 111.1629745
  67.4636175  71.5315097 111.3569791  66.5082748  70.4092543 111.0109444
  64.8437390  65.2268728  89.6383973  63.9368845  64.9301841  89.7146687
  65.1213371  64.9298546  88.7718259  55.7615330  66.5475092 100.0883020
  55.4418114  65.6940400  99.7957394  55.2148758  66.7623670 100.8440987
  59.5395238  69.2637533 103.8052526  59.7581247  70.1954640 103.8240560
  59.9521012  68.9045507 104.5907330  66.4599455  59.7705618  95.7928214
  65.6500184  59.4252703  96.1683461  67.1483872  59.4613162  96.3815826
  64.4123103  64.8370738 113.1955275  64.3119830  65.7865095 113.1267366
  64.1944645  64.5088977 112.3231345  63.6136174  62.0855663  89.7795952
  64.4755338  62.4110562  90.0391770  63.7986519  61.2987159  89.2669018
  55.6303590  70.1678003 102.0576141  54.9367062  69.7531956 101.5446096
  56.3776581  70.2098540 101.4609560  71.7668811  60.9584190  96.9231175
  71.1867480  61.6168994  96.5409228  71.5004744  60.1361535  96.5118593
  70.2172377  60.3589248  99.1252496  70.7172156  60.4705782  98.3166815
  70.8607985  60.0550300  99.7653304  64.2754373  68.2667877 112.0120337
  63.7921455  69.0668237 112.2184226  64.3615312  68.2775822 111.0587781
  57.5440333  70.0996257  99.9342156  57.5211021  70.1983944  98.9824039
  57.8540969  70.9461408 100.2559322  60.2027711  72.1572412 104.0488770
  61.1570964  72.1256354 103.9818702  60.0040234  71.6963036 104.8638996
  60.7927093  70.7273528 106.6159568  61.6119982  71.2217607 106.6394405
  61.0663900  69.8105496 106.5877136  70.5493689  63.1184280  95.9787524
  69.6619544  63.4033931  95.7607718  70.9647678  62.9578044  95.1314801
  73.9008225  63.1430801  99.6941863  74.6768615  63.6327254  99.9666480
  73.1756359  63.5688855 100.1513732  76.3380784  63.8558420 100.7515804
  76.9325274  63.6154156 100.0409112  76.4107367  63.1365551 101.3789340
  58.5577939  77.6992031 101.0658968  58.4232407  76.9392432 100.4996966
  58.1410002  78.4232931 100.5987757  69.6936902  72.8828955  90.0735544
  70.3972752  73.0878957  90.6893199  68.9699551  73.4505717  90.3384627
  70.5234713  68.6338816  96.1937814  70.4669914  69.0907368  95.3545446
  71.0763055  67.8729501  96.0160657  74.3339519  64.4228548  97.0187933
  74.0776453  64.0225184  97.8496141  73.7092387  65.1372342  96.8938072
  78.6451856  67.1624621  99.5259225  78.0851414  67.2317811 100.2990787
  78.0395360  66.9865606  98.8058721  61.7147065  78.5961348 101.2777411
  61.5979449  79.5406781 101.1756101  60.8939511  78.2934910 101.6663210
  71.6023600  73.3211484  92.1234004  72.4369204  72.8892683  91.9411478
  71.4407943  73.1493498  93.0510898  71.2569492  69.8243597  93.4890343
  71.2018296  69.6587869  92.5478787  70.6315547  70.5319630  93.6452533
  56.0462007  65.0611662 107.3151765  56.6920871  64.5510616 107.8038990
  55.8379158  65.7980343 107.8895190  68.5715399  72.1292509 112.8143906
  69.4406559  72.3033162 112.4530541  68.0922151  72.9486926 112.6919635
  64.5665617  59.3251706  93.0675661  64.5544287  60.2693546  93.2243932
  65.4589039  59.1421852  92.7735123  62.7401579  79.2489610 104.4933339
  63.6428826  79.2813221 104.8099834  62.5138949  78.3190061 104.5079675
  64.4955181  78.0020597 101.1543418  63.5450812  78.0022458 101.0407790
  64.7987668  77.2553331 100.6379453  68.3817737  55.9194483  97.3221598
  67.6150133  55.3652970  97.4678281  68.7928442  55.9916352  98.1835750
  80.2307875  83.8381135 102.2189180  80.8686285  83.7187883 101.5152520
  80.1128718  84.7861979 102.2777133  77.0397581  83.7908563 102.1550705
  76.7016093  83.6749628 101.2671240  77.9087349  83.3899728 102.1351711
  72.8984397  85.6444040  98.1447596  72.3349262  85.5533977  97.3763884
  72.7836792  84.8243944  98.6250089  77.5217364  84.9443415 108.1136911
  77.5106005  84.5496213 107.2417414  77.6838004  84.2109488 108.7070682
  70.4448829  87.1395231 100.9831817  71.2370121  86.7986056 100.5678116
  70.6845479  87.2490206 101.9033970  78.4783956  89.3115007  93.4562061
  77.8271935  89.8969088  93.0696075  79.2728318  89.8421202  93.5157098
  72.4039583  86.4004145  93.8549195  73.1770459  85.8533132  93.7162071
  72.7564982  87.2648394  94.0663657  74.2424625  87.7280527 107.0616095
  73.9514491  88.6326158 106.9462761  74.8781610  87.7697055 107.7760164
  75.1680832  85.1057375 103.6517454  75.7644404  84.8813398 102.9374417
  75.2255804  84.3642121 104.2542902  74.7405861  82.5596811  91.4867645
  74.9931381  82.0378332  90.7251108  73.8030420  82.3962956  91.5894329
  79.7849143  81.5632589  99.2942388  80.5712233  81.1452012  98.9432805
  80.0487848  82.4678681  99.4624037  79.9559221  87.0005439  93.9931045
  79.3205054  87.0740066  94.7051950  79.6256627  87.5899038  93.3150125
  85.1857570  81.5007822 100.1975367  85.9182742  80.9307039 100.4313196
  84.4296926  81.1129423 100.6381873  74.4602149  84.4624917  93.6892020
  74.3438407  83.7869820  94.3573104  74.5704409  83.9757291  92.8724173
  76.8033690  83.9235064  97.3938709  76.4391897  83.3965685  98.1051631
  77.6600806  83.5333533  97.2205195  82.7082991  75.2129396 104.6569976
  82.3766316  76.0824807 104.4331191  82.1128604  74.8965680 105.3364006
  76.4439177  78.9524964  92.3900058  76.6113580  79.8205200  92.7570529
  76.2536346  79.1152245  91.4661347  79.2014510  87.4141942 104.0565888
  78.9015233  88.3166981 103.9481696  78.8565570  87.1474126 104.9087041
  72.6526992  83.8655739 100.0902593  71.7277488  83.7331953 100.2980284
  72.9011405  84.6449959 100.5872535  82.6011654  79.9324483 101.7363326
  81.6928531  79.8639891 101.4422087  82.5499250  80.4096428 102.5645151
  76.4228398  81.4082621  93.3746725  76.3028023  81.8539672  94.2132205
  75.7280986  81.7567939  92.8160263  70.0135803  83.5089013 100.9246382
  70.1428184  83.7623492 101.8385794  69.3333254  84.1016721 100.6051037
  74.1835290  94.1786263  97.0236856  74.1059320  95.1294088  97.1025337
  73.5796934  93.8332135  97.6811782  76.6752520  81.3514128 109.6798223
  75.8985854  81.9108048 109.6701088  77.3143083  81.8370911 110.2013093
  84.4673301  78.1340921 103.5141200  83.8247681  78.4273454 102.8680994
  83.9628229  78.0193841 104.3194396  82.1213464  81.8804094  94.2027059
  83.0331320  82.1131481  94.0274756  81.6123111  82.4641138  93.6402137
  74.9298892  84.1599582 109.2416190  75.6713577  84.6984626 108.9651014
  74.2235878  84.7865870 109.3987742  80.4054232  86.3028722 107.8388351
  80.8137588  85.8611133 107.0942984  79.6831493  85.7281350 108.0922544
  76.7585302  81.2401329 105.2121908  77.6046497  81.6640742 105.3556557
  76.6983940  80.5834953 105.9060471  80.7283047  86.8629913 101.5940640
  80.0991909  87.0275627 100.8916708  80.3408709  87.2771522 102.3651604
  84.6072278  87.7984350  98.9485004  83.9223317  88.1783252  98.3982037
  84.6916128  88.4079677  99.6816952  79.9084747  78.9005697 106.8703082
  79.6645679  79.6547758 106.3337358  80.1844678  79.2791045 107.7050329
  81.8623210  85.4444310 105.5480348  82.0740105  86.0876069 104.8714729
  81.8152958  84.6106626 105.0802278  79.4649439  78.0562130 102.4516920
  78.6033918  78.3543384 102.7433657  79.4911874  78.2732529 101.5197952
  76.2811008  86.6004321  98.8590725  76.7449354  86.8792024  98.0695348
  76.0167806  85.6987765  98.6763816  73.1735089  86.1475802 101.7970489
  73.7436447  86.5763071 101.1587973  73.7643201  85.8658387 102.4954674
  75.2179894  82.7227473  95.6680291  75.9203938  83.1748517  96.1354217
  74.8860523  82.0811292  96.2960184  73.6660256  81.3139230 110.0431500
  73.0358917  81.9955511 110.2766897  73.5596344  81.2022311 109.0984638
  68.9605228  80.9811026 100.9697424  68.1704282  81.2368554 100.4937535
  69.4516476  81.7959364 101.0749465  82.9769038  88.3216265 103.7202705
  83.7986482  87.9196452 103.4385387  82.9731441  88.2184499 104.6718821
  70.9119974  81.3455605  97.9280901  70.1151137  81.4574299  98.4464396
  70.6845566  81.6842257  97.0621791  76.7425641  87.8700308 105.8763415
  76.8070074  88.3320715 106.7121587  76.0336565  87.2397673 106.0045725
  67.2442931  81.2341516 103.4012415  67.4950970  82.1188526 103.6669991
  67.7802480  81.0546118 102.6287507  91.0675031  84.6655013 100.0687676
  90.3138739  84.0962411  99.9131681  91.2022572  84.6317678 101.0158311
  76.4573659  89.5368416  95.7442396  76.3219334  90.3819951  96.1727244
  76.9983472  89.7387693  94.9808330  72.9440999  75.6159996 112.4056751
  72.5507944  75.0626194 113.0804395  73.7607139  75.9270574 112.7963268
  69.9103056  87.0543854  96.3170321  70.4227577  87.8487104  96.4675885
  70.5625769  86.3570144  96.2503922  71.7197941  90.1709610  98.3993074
  71.8964569  91.0927575  98.2114058  72.5154775  89.8568029  98.8287454
  75.8608960  77.0317875 109.9977008  76.6018673  77.6325028 109.9181470
  76.0926883  76.2895512 109.4395050  71.0050298  82.2174242 108.2755237
  70.8903813  81.3159499 108.5762336  70.1494815  82.4637939 107.9240054
  78.0842135  90.1591982 109.8742738  77.6405990  89.3728361 109.5563642
  78.7459349  90.3471133 109.2086629  72.8429257  91.6887784 104.4003416
  73.3936682  91.5604847 103.6280410  72.0040733  91.9882673 104.0498309
  80.1823374  90.4394782 107.9024139  80.1641849  91.2603663 107.4104408
  81.1043294  90.3148857 108.1274280  76.6396428  87.9538912 108.7447647
  77.1724764  87.1927200 108.5146955  76.1110509  87.6612563 109.4871802
  79.8066123  73.0598978 104.2741289  79.4630392  73.9500619 104.1980400
  80.1745085  72.8700635 103.4110874  67.8751973  85.3832508  97.0929891
  68.7127195  85.7929516  96.8763599  68.0530241  84.4431950  97.0630085
  79.7716405  83.0507589  92.7813724  79.2563029  83.8212193  93.0202112
  79.4993714  82.3772725  93.4046786  77.3563516  77.8957289  97.8398963
  76.5005113  77.5064140  97.6604601  77.7690468  77.9749250  96.9798748
  78.8862663  75.4303633 102.2390522  78.3827459  75.3933768 101.4258328
  79.1793270  76.3396375 102.2987179  75.1305549  75.5142362 101.2456704
  75.9958546  75.3185171 100.8862594  75.1983058  75.2852714 102.1726061
  84.7450679  85.8039943  94.7166898  83.9680122  85.4651103  94.2722060
  85.4242160  85.8092567  94.0421863  79.5602709  80.9234681  94.6073505
  79.2552844  81.2380830  95.4583649  80.5133151  81.0016101  94.6500838
  78.0049140  87.0824904  96.2566459  77.4770502  86.3477664  95.9439697
  77.5036643  87.8599580  96.0106428  82.9841986  85.2773925 101.3733506
  82.3265661  85.9673186 101.4613634  83.7882386  85.6670357 101.7167492
  72.7367868  77.7444570  98.6173071  73.3111620  77.5219752  97.8846264
  73.3238850  77.8133265  99.3701672  81.7947445  83.6318297  99.4237448
  82.3079327  84.2648289  99.9259157  82.4448669  83.0319493  99.0580808
  73.0637455  79.7749031  92.6368956  72.2274767  80.1123718  92.9578231
  72.9242225  79.6398011  91.6996093  75.0390536  74.6185819  97.3448140
  74.3854948  74.3034836  96.7204755  74.9971010  73.9961560  98.0707963
  76.1501741  84.9005114  89.2601432  75.2428802  84.6694368  89.4592581
  76.6472773  84.1042734  89.4475414  79.0569819  93.6102622  92.1798119
  78.3831518  93.9134318  92.7883076  79.4435641  94.4131702  91.8303576
  78.2728276  81.1067753 101.6695788  77.3550837  81.3282700 101.5117476
  78.6888420  81.1814063 100.8107495  79.0563324  82.5059169  96.7998468
  79.8035143  83.0180566  96.4905590  79.3254913  82.1843221  97.6602862
  77.3289974  85.0017709  93.7825423  76.4201193  84.7176742  93.8797892
  77.3585058  85.4216788  92.9228729  82.5609241  88.6124299  97.5516590
  82.1071568  87.7715209  97.6081781  81.9303208  89.2485697  97.8891370
  81.5042161  79.5416285  98.7817258  80.7664918  79.0293671  99.1127500
  81.7568934  79.1016666  97.9700534  81.0042181  90.4500795  98.4866408
  81.2965155  91.0105853  97.7678774  81.5140801  90.7429356  99.2419567
  81.6053788  72.3192537  99.3759027  81.9112665  71.4589900  99.0884942
  82.3306393  72.9110157  99.1758021  67.8978144  82.7223223  97.7640625
  67.7002544  82.1292584  97.0391691  67.3424808  82.4175434  98.4816564
  75.8774868  82.6146330  99.8835218  75.9323478  81.6620166  99.8077695
  75.0666070  82.7705769 100.3676516  77.0266062  86.5426453  91.1213501
  76.5885492  85.8262312  90.6619138  77.7676503  86.7702568  90.5598593
  73.8167228  81.2323390  97.6425597  73.0035093  81.5317560  98.0490789
  74.3126222  80.8379078  98.3600079  75.9675806  91.2281147  99.5759861
  75.9251985  91.4541993  98.6468394  76.8838505  90.9944521  99.7245663
  79.4141440  81.6965214 106.4740491  79.7690827  81.9236687 107.3334956
  80.0613571  82.0283591 105.8517746  85.1439177  84.8183650  97.1789820
  85.0057075  85.0085246  96.2511009  84.7875395  85.5803033  97.6357871
  73.3081303  78.8041745 103.2586832  73.9480682  78.6630504 102.5609795
  72.4758833  78.5176259 102.8825434  85.1708556  86.8860177 102.1901091
  85.6045063  86.7935466 103.0384145  85.8840137  86.8617677 101.5521107
  74.0841607  88.1044176  99.3721824  74.8782205  87.6094496  99.1704399
  73.3733299  87.5762039  99.0089530  78.9036451  90.4862271 103.7234192
  78.9573473  91.0553207 104.4911908  78.0351232  90.6564156 103.3588229
  70.3924370  82.2487257  95.4481577  69.4621958  82.1871713  95.6651539
  70.4881842  81.7263210  94.6518218  70.3109919  78.7742070  98.0359819
  70.5716736  79.6887403  97.9268979  71.1327091  78.3066513  98.1856431
  71.7834844  80.1879827 105.2058643  72.4557898  79.9797189 104.5571292
  70.9564631  79.9901913 104.7663875  86.0324106  86.9283878 104.7233977
  86.2259996  87.8329688 104.9693252  85.9324724  86.4691297 105.5572562
  77.6860416  76.8141768 107.2224304  77.0388332  77.5131718 107.1288780
  78.4561432  77.2477912 107.5900552  81.0939214  87.0790620 110.2974857
  80.9424721  86.8501172 109.3804941  81.0843894  88.0361222 110.3106202
  77.8624551  84.6522533 105.2821124  78.7916611  84.8033693 105.1090091
  77.4415581  84.7406554 104.4269770  76.6612883  88.6773198 103.0519661
  76.5223968  88.3091982 103.9245599  75.8727479  89.1920837 102.8803619
  77.2561035  93.7782294  94.3945198  77.4312790  93.3070337  95.2090821
  76.5693823  94.4048060  94.6226459  78.2118098  88.0554800 100.4408499
  77.8767930  88.0155570 101.3366149  77.7122043  87.3899516  99.9678909
  72.1862342  83.4622430 105.9661080  72.0482140  82.7302669 106.5672619
  73.0967265  83.3731330 105.6845268  81.1477289  85.4010835  90.7145559
  80.5306460  84.6757663  90.6178611  80.6793778  86.1620195  90.3712633
  74.8144642  83.1742390 105.4544760  75.5244261  82.5335582 105.4131378
  74.7713951  83.4255284 106.3770941  82.8031421  90.1109743 108.3751339
  82.7443967  89.4268963 107.7081922  83.2050939  90.8528733 107.9231965
  73.5273576  80.1607607 107.2740399  72.9910933  79.7098346 107.9261996
  72.9390285  80.2953516 106.5310864  71.8222120  96.9271657 101.1685058
  72.0618718  97.5590181 101.8464077  70.9791316  96.5759697 101.4550417
  72.9375835  79.6196259  89.8366863  72.0605302  79.4985060  89.4729110
  73.4133588  78.8282337  89.5845752  82.8048828  88.0749327 106.6065319
  81.9175607  87.7375249 106.7291718  83.3747379  87.3432358 106.8434084
  64.4577975  84.4073419  99.9308370  65.1449015  84.0935149  99.3429385
  64.3026104  85.3114783  99.6575622  69.2612698  79.2963615 104.3593394
  69.1770886  78.6889285 103.6243804  68.4395404  79.7872633 104.3602890
  76.3349982  92.7350779 103.5726562  76.2620153  93.5405751 104.0845867
  75.8927375  92.9342745 102.7474583  76.1239761  91.9722549  97.0829384
  75.3407283  92.5144229  97.1767608  76.8232507  92.4896529  97.4823625
  79.4336411  77.7817179  99.7263589  79.9305111  77.0287141  99.4064659
  78.6623393  77.8181495  99.1606798  87.2866169  83.4857544 101.3681880
  87.2756045  84.3682260 100.9975814  86.4183548  83.1329095 101.1736417
  78.7948665  92.6337613 105.7284721  79.5076637  93.2685078 105.6560622
  78.3038694  92.7301479 104.9124722  80.5166192  86.5388866  97.3002012
  79.5822471  86.6590328  97.1306717  80.6942861  85.6361333  97.0362022
  76.0171380  79.9234562  99.4535274  75.6469168  79.3705602 100.1416179
  76.5130473  79.3192695  98.9010274  83.9038743  82.3806185  97.8352046
  84.3699196  83.2134177  97.7612349  84.3546244  81.9151167  98.5397305
  73.8460579  90.3832057 106.5490291  74.5470038  91.0168540 106.7019686
  73.3755694  90.7246788 105.7885931  81.9714975  88.7250006  94.8338198
  82.2474819  88.6106601  95.7432073  81.1019473  88.3267491  94.7950372
  81.8755406  74.7486772 101.8742948  80.9618486  74.9790999 102.0425155
  82.3048508  74.8325216 102.7256980  81.6461865  82.9376664 104.3742842
  80.9933315  83.1852572 103.7195295  82.0242245  82.1240802 104.0405319
  78.6069039  92.9736357  98.4771012  78.7891433  92.1558013  98.9398764
  79.4302025  93.1904050  98.0395902  78.9411204  91.9004542  95.7386061
  79.4698971  91.3896997  95.1256223  79.2039424  91.5847073  96.6031594
  77.6949438  83.6796475 110.8608879  77.0190075  83.5790605 111.5311254
  78.5177072  83.5235689 111.3244876  69.4428297  89.9168412 103.4821394
  70.0281734  89.1712100 103.6149298  69.2453135  90.2272368 104.3658058
  72.2966952  92.9519659  98.4983837  71.6277327  93.4365787  98.0147877
  72.1579822  93.1988880  99.4127215  64.0345952  82.4874012 102.2025837
  64.0730051  81.9537603 102.9962955  63.5286244  81.9609217 101.5836814
  76.4372221  94.9863403 105.0966495  76.9890529  95.1495024 105.8615580
  76.7778414  95.5767840 104.4246520  71.4136714  77.3338552 105.6988380
  71.4778040  78.1953383 105.2865777  71.3503834  76.7212554 104.9660738
  70.8888986  79.4061685 109.3461414  71.5161025  79.0238762 109.9598938
  70.0316905  79.1875887 109.7117106  67.6654529  81.2138114  95.2779769
  67.9607970  80.3048793  95.2246822  66.7642565  81.1925854  94.9560771
  79.5740608  92.9345378 102.0830177  79.4491747  92.1335118 101.5741123
  80.2319699  93.4291572 101.5944147  71.1948776  79.2894111 101.2607317
  70.4735362  79.9030078 101.1214791  71.9842032  79.8251876 101.1823963
  81.6375516  90.7354398 103.7109727  80.6905852  90.6159749 103.6388054
  81.9858289  89.8476896 103.7935989  73.9975090  76.6248537 107.5347969
  74.5209491  76.8710834 108.2974278  73.7787423  77.4568572 107.1151106
  69.3942371  78.8952212  95.4019094  69.0655077  78.0149591  95.2194200
  69.7481741  78.8399880  96.2895483  78.6421950  90.5307114  99.9114079
  78.4946912  89.6023822 100.0921649  79.4675443  90.5527205  99.4271155
  72.5084194  79.1825182  95.7694572  72.8480266  79.7111103  95.0473180
  72.9556314  79.5205588  96.5453138  82.2456071  91.3535673 100.9978952
  83.1702619  91.1478535 100.8603403  82.0771375  91.1052074 101.9068294
  75.2027635  77.5662232 105.2197640  74.8624455  76.7670045 105.6218319
  74.4966641  77.8663943 104.6474473  75.8544107  74.6511545 103.6724963
  76.6770176  74.1772023 103.5503853  76.0982170  75.4302028 104.1723649
  74.4952341  77.6799803  93.9687864  75.2160704  78.0581056  93.4651581
  73.8717645  78.3988680  94.0722842  78.6383464  78.3844952  94.9046197
  78.8547078  79.2669590  94.6035025  78.1577531  77.9931166  94.1751839
  73.3782685  81.3430665 101.4816941  73.2327266  81.6570968 102.3741223
  72.9007889  81.9615566 100.9287840  75.2379068  78.3333213 101.5297831
  75.2240637  77.4374307 101.1930129  75.9551496  78.3403877 102.1636117
  77.0905199  78.7670554 103.5750958  76.8322977  79.6887624 103.5735289
  76.5590239  78.3700988 104.2651422  82.0351388  91.8721341  96.3541044
  82.2088265  91.3067763  95.6014896  82.5280279  92.6722236  96.1720534
  67.8528347  83.8836010 104.4204602  67.3081816  84.6595818 104.5524877
  68.7307697  84.2306814 104.2623724  74.6415964  77.2147594  96.7985401
  74.7631875  76.2864240  96.9976288  74.3518006  77.2286280  95.8863716
  77.5107155  74.9002504  99.9352121  77.5328851  74.9641837  98.9804100
  77.9275214  74.0607013 100.1292627  87.8890779  84.6357764  97.9731343
  88.3321925  83.8865089  97.5750467  87.0117289  84.6267900  97.5905075
  83.0226560  91.1888105  93.4537942  83.7177465  91.8094798  93.6725256
  83.3649710  90.3383456  93.7290320  68.6394369  83.0105906 107.3134759
  67.8976105  83.1588541 107.8999390  68.3187114  83.2714172 106.4501509
  84.9217983  88.6387811  94.9825273  85.4469307  88.9775083  94.2574593
  84.8340336  87.7034826  94.7988407  76.5838032  92.5521884 107.1115149
  76.8925158  92.3071031 107.9837849  77.3813514  92.7568523 106.6234019
  76.6058644  94.7059794  99.3420526  76.1663634  94.2136173 100.0353383
  77.3566761  94.1632762  99.1012601  69.0850983  90.8971335  99.3445154
  69.9109003  90.5975107  98.9643797  68.7345035  90.1278957  99.7934943
  74.0532516  90.2497803 101.4142827  73.4312525  89.5868508 101.1145055
  74.7237383  90.2758935 100.7316475  67.2859588  88.8157661 100.3034087
  66.4491496  88.3879836 100.1218089  67.2583233  89.0090105 101.2404879
  74.1257044  78.7279591 111.0075334  74.1745199  79.6041714 110.6253103
  74.6679558  78.1856984 110.4346977  84.7309764  86.1213181 107.6009199
  84.7807769  85.9563188 108.5424722  84.6223688  85.2540440 107.2107080
  73.6146023  88.8001726  94.8901288  73.7634143  89.4837191  94.2367961
  74.4212467  88.7806816  95.4050744  82.0213527  82.1044109 108.9168506
  82.9223390  81.9650574 108.6252504  82.0961501  82.2698563 109.8566683
  76.3556332  79.4810963 107.7621692  75.4859642  79.7744529 107.4904281
  76.5915812  80.0651408 108.4828956  86.2327961  88.5410122 107.8451221
  85.9412770  88.9040103 108.6814682  85.6200092  87.8277130 107.6664553
  87.4323644  86.1063002 100.3653791  88.2670535  86.5452806 100.5291351
  87.5682772  85.6301655  99.5462037  84.4815149  83.6642737 106.3131279
  84.9569271  83.8570383 105.5050130  83.5580715  83.7201923 106.0674662
  71.3698656  84.8266904  95.8962357  71.1244698  83.9229234  96.0942567
  71.5394571  84.8284054  94.9541835  79.0595366  75.6990580 105.2787113
  79.5777310  76.4351607 104.9533601  78.7050499  76.0054574 106.1133872
  70.6394304  80.5595262  93.3948518  69.9463549  80.6339617  92.7388554
  70.3946055  79.7955605  93.9170035  79.3107960  72.1190863 100.7988009
  79.5909714  71.4514052 101.4248436  80.0958567  72.3119958 100.2862673
  77.1141429  91.2949857  92.3613035  76.5415396  91.9140044  91.9083507
  77.6874222  91.8449218  92.8952957  83.1816818  80.5408497 104.5459584
  84.1334241  80.6406595 104.5671808  83.0120269  79.7486765 105.0557669
  81.2031198  77.6264080 104.7318985  80.6081130  77.9069093 104.0365474
  80.9180895  78.1157981 105.5035726  80.3338688  91.5787007  93.4921618
  81.2669362  91.5132569  93.6954493  80.2461901  92.4143274  93.0336150
  82.9626705  90.8952877  90.4525565  82.8840337  90.5612741  91.3461323
  83.7836372  91.3874645  90.4517038  85.6604896  83.7614617 103.6601884
  85.6281216  82.8230617 103.8461568  86.2705520  83.8398653 102.9267709
  77.4988227  82.6310670  89.7029088  78.4447332  82.5016878  89.7717506
  77.1202472  81.8925331  90.1798516  85.8099385  80.5525660 103.7060167
  85.2938433  79.7684117 103.5190096  86.6939333  80.2244377 103.8706687
  83.4710112  74.2966676  99.6655980  83.2734933  73.9881764 100.5499312
  84.0809817  75.0228314  99.7953910  91.4781446  84.8230623 102.8007921
  92.2084835  84.5615912 103.3615624  90.8688392  84.0859345 102.8409989
  89.5596743  82.9638486 103.3982372  88.8329907  82.8294451 102.7898863
  89.1444030  83.2715315 104.2039090  77.3826920  86.6828416 111.1629745
  78.3029929  86.8607015 111.3569791  77.3476503  85.7384461 111.0109444
  75.6831144  80.5560646  89.6383973  74.7762600  80.2593759  89.7146687
  75.9607125  80.2590464  88.7718259  66.6009085  81.8767009 100.0883020
  66.2811869  81.0232318  99.7957394  66.0542513  82.0915587 100.8440987
  70.3788992  84.5929450 103.8052526  70.5975002  85.5246558 103.8240560
  70.7914766  84.2337425 104.5907330  77.2993210  75.0997536  95.7928214
  76.4893938  74.7544621  96.1683461  77.9877627  74.7905079  96.3815826
  79.2283758  74.1775582  97.4152511  79.7814797  74.5971036  98.0742534
  79.4653845  73.2511331  97.4575467  75.2516857  80.1662656 113.1955275
  75.1513584  81.1157013 113.1267366  75.0338400  79.8380895 112.3231345
  74.4529929  77.4147581  89.7795952  75.3149093  77.7402479  90.0391770
  74.6380273  76.6279077  89.2669018  66.4697345  85.4969921 102.0576141
  65.7760816  85.0823874 101.5446096  67.2170336  85.5390457 101.4609560
  82.6062565  76.2876108  96.9231175  82.0261234  76.9460912  96.5409228
  82.3398498  75.4653452  96.5118593  81.0566132  75.6881165  99.1252496
  81.5565910  75.7997700  98.3166815  81.7001740  75.3842218  99.7653304
  75.1148128  83.5959795 112.0120337  74.6315209  84.3960155 112.2184226
  75.2009067  83.6067740 111.0587781  68.3834087  85.4288175  99.9342156
  68.3604775  85.5275862  98.9824039  68.6934724  86.2753325 100.2559322
  71.0421465  87.4864330 104.0488770  71.9964719  87.4548272 103.9818702
  70.8433989  87.0254953 104.8638996  71.6320847  86.0565446 106.6159568
  72.4513736  86.5509524 106.6394405  71.9057655  85.1397414 106.5877136
  81.3887443  78.4476198  95.9787524  80.5013298  78.7325849  95.7607718
  81.8041432  78.2869961  95.1314801  84.7401980  78.4722719  99.6941863
  85.5162370  78.9619171  99.9666480  84.0150114  78.8980773 100.1513732
  87.1774538  79.1850338 100.7515804  87.7719029  78.9446074 100.0409112
  87.2501122  78.4657469 101.3789340  69.3971694  93.0283949 101.0658968
  69.2626162  92.2684350 100.4996966  68.9803756  93.7524849 100.5987757
  80.5330657  88.2120873  90.0735544  81.2366507  88.4170875  90.6893199
  79.8093306  88.7797635  90.3384627  81.3628467  83.9630734  96.1937814
  81.3063669  84.4199285  95.3545446  81.9156810  83.2021418  96.0160657
  85.1733273  79.7520466  97.0187933  84.9170207  79.3517101  97.8496141
  84.5486141  80.4664260  96.8938072  89.4845611  82.4916539  99.5259225
  88.9245169  82.5609728 100.2990787  88.8789114  82.3157524  98.8058721
  72.5540820  93.9253266 101.2777411  72.4373204  94.8698699 101.1756101
  71.7333266  93.6226828 101.6663210  82.4417354  88.6503402  92.1234004
  83.2762958  88.2184600  91.9411478  82.2801697  88.4785416  93.0510898
  82.0963246  85.1535515  93.4890343  82.0412050  84.9879787  92.5478787
  81.4709302  85.8611548  93.6452533  66.8855761  80.3903580 107.3151765
  67.5314625  79.8802534 107.8038990  66.6772913  81.1272261 107.8895190
  75.4059372  74.6543624  93.0675661  75.3938042  75.5985464  93.2243932
  76.2982794  74.4713770  92.7735123  73.5795334  94.5781528 104.4933339
  74.4822581  94.6105138 104.8099834  73.3532704  93.6481979 104.5079675
  75.3348936  93.3312515 101.1543418  74.3844567  93.3314376 101.0407790
  75.6381422  92.5845249 100.6379453  79.2211491  71.2486401  97.3221598
  78.4543887  70.6944887  97.4678281  79.6322196  71.3208270  98.1835750
  71.2253252  77.5371197 111.4126779  72.0884714  77.1808001 111.6230104
  70.6518663  77.1985091 112.1002184  83.7378151 100.9735957  98.1447596
  83.1743016 100.8825894  97.3763884  83.6230546 100.1535862  98.6250089
  81.2842583 102.4687149 100.9831817  82.0763875 102.1277974 100.5678116
  81.5239233 102.5782124 101.9033970  89.3177710 104.6406925  93.4562061
  88.6665690 105.2261006  93.0696075  90.1122073 105.1713120  93.5157098
  83.2433337 101.7296062  93.8549195  84.0164213 101.1825049  93.7162071
  83.5958736 102.5940312  94.0663657  85.5799615  97.8888728  91.4867645
  85.8325136  97.3670250  90.7251108  84.6424174  97.7254874  91.5894329
  90.6242898  96.8924507  99.2942388  91.4105987  96.4743930  98.9432805
  90.8881602  97.7970599  99.4624037  90.7952975 102.3297357  93.9931045
  90.1598808 102.4031984  94.7051950  90.4650382 102.9190956  93.3150125
  85.2995904  99.7916834  93.6892020  85.1832162  99.1161738  94.3573104
  85.4098164  99.3049208  92.8724173  87.6427445  99.2526981  97.3938709
  87.2785652  98.7257602  98.1051631  88.4994561  98.8625451  97.2205195
  87.2832932  94.2816881  92.3900058  87.4507334  95.1497118  92.7570529
  87.0930101  94.4444163  91.4661347  83.4920746  99.1947657 100.0902593
  82.5671243  99.0623871 100.2980284  83.7405160  99.9741876 100.5872535
  87.2622153  96.7374539  93.3746725  87.1421778  97.1831589  94.2132205
  86.5674741  97.0859856  92.8160263  80.8529557  98.8380930 100.9246382
  80.9821939  99.0915409 101.8385794  80.1727009  99.4308638 100.6051037
  92.9607219  97.2096012  94.2027059  93.8725075  97.4423399  94.0274756
  92.4516866  97.7933056  93.6402137  90.3043193  93.3854048 102.4516920
  89.4427672  93.6835301 102.7433657  90.3305628  93.6024447 101.5197952
  87.1204763 101.9296238  98.8590725  87.5843108 102.2083941  98.0695348
  86.8561561 101.0279683  98.6763816  86.0573649  98.0519391  95.6680291
  86.7597692  98.5040434  96.1354217  85.7254277  97.4103210  96.2960184
  79.7998983  96.3102943 100.9697424  79.0098037  96.5660472 100.4937535
  80.2910230  97.1251281 101.0749465  81.7513728  96.6747523  97.9280901
  80.9544892  96.7866217  98.4464396  81.5239320  97.0134175  97.0621791
  78.0836686  96.5633434 103.4012415  78.3344724  97.4480444 103.6669991
  78.6196234  96.3838035 102.6287507  87.2967414 104.8660333  95.7442396
  87.1613088 105.7111869  96.1727244  87.8377226 105.0679611  94.9808330
  80.7496811 102.3835771  96.3170321  81.2621332 103.1779022  96.4675885
  81.4019524 101.6862062  96.2503922  82.5591696 105.5001528  98.3993074
  82.7358324 106.4219492  98.2114058  83.3548529 105.1859947  98.8287454
  90.6459877  88.3890895 104.2741289  90.3024147  89.2792537 104.1980400
  91.0138840  88.1992553 103.4110874  78.7145728 100.7124426  97.0929891
  79.5520950 101.1221434  96.8763599  78.8923995  99.7723868  97.0630085
  90.6110160  98.3799506  92.7813724  90.0956783  99.1504111  93.0202112
  90.3387468  97.7064643  93.4046786  88.1957271  93.2249207  97.8398963
  87.3398867  92.8356058  97.6604601  88.6084223  93.3041168  96.9798748
  89.7256418  90.7595550 102.2390522  89.2221213  90.7225686 101.4258328
  90.0187024  91.6688293 102.2987179  85.9699303  90.8434280 101.2456704
  86.8352300  90.6477089 100.8862594  86.0376812  90.6144632 102.1726061
  95.5844434 101.1331861  94.7166898  94.8073877 100.7943021  94.2722060
  96.2635915 101.1384484  94.0421863  90.3996463  96.2526598  94.6073505
  90.0946599  96.5672748  95.4583649  91.3526905  96.3308018  94.6500838
  88.8442895 102.4116822  96.2566459  88.3164256 101.6769581  95.9439697
  88.3430398 103.1891498  96.0106428  83.5761622  93.0736488  98.6173071
  84.1505374  92.8511670  97.8846264  84.1632605  93.1425183  99.3701672
  83.9031210  95.1040949  92.6368956  83.0668522  95.4415636  92.9578231
  83.7635979  94.9689929  91.6996093  85.8784290  89.9477737  97.3448140
  85.2248703  89.6326754  96.7204755  85.8364764  89.3253477  98.0707963
  86.9895495 100.2297032  89.2601432  86.0822557  99.9986286  89.4592581
  87.4866527  99.4334651  89.4475414  89.8963574 108.9394539  92.1798119
  89.2225273 109.2426236  92.7883076  90.2829396 109.7423620  91.8303576
  89.1122031  96.4359671 101.6695788  88.1944592  96.6574618 101.5117476
  89.5282174  96.5105981 100.8107495  89.8957078  97.8351086  96.7998468
  90.6428897  98.3472483  96.4905590  90.1648668  97.5135139  97.6602862
  88.1683728 100.3309627  93.7825423  87.2594948 100.0468660  93.8797892
  88.1978812 100.7508705  92.9228729  92.3435915  94.8708202  98.7817258
  91.6058672  94.3585589  99.1127500  92.5962689  94.4308584  97.9700534
  92.4447543  87.6484454  99.3759027  92.7506420  86.7881818  99.0884942
  93.1700148  88.2402075  99.1758021  78.7371899  98.0515141  97.7640625
  78.5396299  97.4584502  97.0391691  78.1818563  97.7467351  98.4816564
  86.7168623  97.9438248  99.8835218  86.7717232  96.9912084  99.8077695
  85.9059825  98.0997687 100.3676516  87.8659816 101.8718371  91.1213501
  87.4279246 101.1554230  90.6619138  88.6070257 102.0994485  90.5598593
  84.6560982  96.5615307  97.6425597  83.8428848  96.8609478  98.0490789
  85.1519977  96.1670996  98.3600079  95.9832931 100.1475568  97.1789820
  95.8450830 100.3377164  96.2511009  95.6269150 100.9094950  97.6357871
  84.1475057  94.1333663 103.2586832  84.7874437  93.9922422 102.5609795
  83.3152588  93.8468176 102.8825434  84.9235361 103.4336093  99.3721824
  85.7175960 102.9386413  99.1704399  84.2127053 102.9053956  99.0089530
  81.2318125  97.5779175  95.4481577  80.3015713  97.5163630  95.6651539
  81.3275597  97.0555128  94.6518218  81.1503674  94.1033988  98.0359819
  81.4110491  95.0179321  97.9268979  81.9720846  93.6358430  98.1856431
  82.6228599  95.5171745 105.2058643  83.2951652  95.3089107 104.5571292
  81.7958385  95.3193831 104.7663875  88.0954789 109.1074212  94.3945198
  88.2706545 108.6362255  95.2090821  87.4087577 109.7339978  94.6226459
  91.9871044 100.7302752  90.7145559  91.3700215 100.0049580  90.6178611
  91.5187532 101.4912113  90.3712633  83.7769590  94.9488177  89.8366863
  82.8999056  94.8276977  89.4729110  84.2527343  94.1574255  89.5845752
  75.2971730  99.7365336  99.9308370  75.9842770  99.4227066  99.3429385
  75.1419859 100.6406701  99.6575622  80.1006452  94.6255533 104.3593394
  80.0164641  94.0181202 103.6243804  79.2789158  95.1164551 104.3602890
  90.2730166  93.1109096  99.7263589  90.7698865  92.3579059  99.4064659
  89.5017147  93.1473413  99.1606798  91.3559947 101.8680784  97.3002012
  90.4216225 101.9882246  97.1306717  91.5336615 100.9653250  97.0362022
  86.8565135  95.2526479  99.4535274  86.4862922  94.6997520 100.1416179
  87.3524227  94.6484613  98.9010274  94.7432498  97.7098103  97.8352046
  95.2092950  98.5426094  97.7612349  95.1939998  97.2443084  98.5397305
  92.8108729 104.0541924  94.8338198  93.0868573 103.9398519  95.7432073
  91.9413228 103.6559409  94.7950372  92.7149161  90.0778690 101.8742948
  91.8012241  90.3082917 102.0425155  93.1442262  90.1617134 102.7256980
  89.7804959 107.2296460  95.7386061  90.3092725 106.7188915  95.1256223
  90.0433178 106.9138990  96.6031594  74.8739706  97.8165930 102.2025837
  74.9123806  97.2829520 102.9962955  74.3679999  97.2901135 101.5836814
  82.2530468  92.6630470 105.6988380  82.3171795  93.5245301 105.2865777
  82.1897589  92.0504472 104.9660738  78.5048284  96.5430032  95.2779769
  78.8001725  95.6340710  95.2246822  77.6036319  96.5217771  94.9560771
  82.0342531  94.6186028 101.2607317  81.3129116  95.2321996 101.1214791
  82.8235786  95.1543793 101.1823963  80.2336125  94.2244129  95.4019094
  79.9048831  93.3441508  95.2194200  80.5875496  94.1691798  96.2895483
  83.3477948  94.5117099  95.7694572  83.6874021  95.0403021  95.0473180
  83.7950069  94.8497505  96.5453138  86.0421389  92.8954150 105.2197640
  85.7018210  92.0961963 105.6218319  85.3360395  93.1955861 104.6474473
  86.6937861  89.9803462 103.6724963  87.5163930  89.5063941 103.5503853
  86.9375925  90.7593946 104.1723649  85.3346096  93.0091721  93.9687864
  86.0554458  93.3872974  93.4651581  84.7111400  93.7280598  94.0722842
  89.4777218  93.7136870  94.9046197  89.6940833  94.5961508  94.6035025
  88.9971286  93.3223083  94.1751839  84.2176440  96.6722583 101.4816941
  84.0721021  96.9862886 102.3741223  83.7401643  97.2907483 100.9287840
  86.0772823  93.6625131 101.5297831  86.0634391  92.7666224 101.1930129
  86.7945251  93.6695795 102.1636117  87.9298953  94.0962471 103.5750958
  87.6716731  95.0179542 103.5735289  87.3983994  93.6992906 104.2651422
  78.6922102  99.2127927 104.4204602  78.1475570  99.9887735 104.5524877
  79.5701452  99.5598732 104.2623724  85.4809719  92.5439511  96.7985401
  85.6025630  91.6156157  96.9976288  85.1911761  92.5578197  95.8863716
  88.3500909  90.2294422  99.9352121  88.3722606  90.2933755  98.9804100
  88.7668968  89.3898930 100.1292627  93.8620315 106.5180023  93.4537942
  94.5571219 107.1386715  93.6725256  94.2043465 105.6675374  93.7290320
  95.7611738 103.9679728  94.9825273  96.2863062 104.3067001  94.2574593
  95.6734090 103.0326744  94.7988407  79.9244737 106.2263252  99.3445154
  80.7502757 105.9267024  98.9643797  79.5738789 105.4570875  99.7934943
  78.1253343 104.1449579 100.3034087  77.2885251 103.7171753 100.1218089
  78.0976988 104.3382022 101.2404879  84.4539778 104.1293644  94.8901288
  84.6027898 104.8129108  94.2367961  85.2606221 104.1098734  95.4050744
  82.2092411 100.1558822  95.8962357  81.9638452  99.2521152  96.0942567
  82.3788325 100.1575972  94.9541835  81.4788058  95.8887179  93.3948518
  80.7857303  95.9631534  92.7388554  81.2339810  95.1247523  93.9170035
  90.1501715  87.4482781 100.7988009  90.4303468  86.7805970 101.4248436
  90.9352322  87.6411876 100.2862673  87.9535183 106.6241774  92.3613035
  87.3809150 107.2431962  91.9083507  88.5267977 107.1741136  92.8952957
  91.1732443 106.9078925  93.4921618  92.1063116 106.8424486  93.6954493
  91.0855656 107.7435191  93.0336150  93.8020460 106.2244795  90.4525565
  93.7234091 105.8904659  91.3461323  94.6230126 106.7166563  90.4517038
  88.3381982  97.9602587  89.7029088  89.2841086  97.8308795  89.7717506
  87.9596227  97.2217249  90.1798516  94.3103866  89.6258593  99.6655980
  94.1128687  89.3173681 100.5499312  94.9203572  90.3520232  99.7953910
  86.5224899  95.8852564  89.6383973  85.6156354  95.5885676  89.7146687
  86.8000880  95.5882382  88.7718259  77.4402839  97.2058927 100.0883020
  77.1205623  96.3524235  99.7957394  76.8936267  97.4207505 100.8440987
  88.1386964  90.4289453  95.7928214  87.3287693  90.0836538  96.1683461
  88.8271381  90.1196997  96.3815826  90.0677513  89.5067500  97.4152511
  90.6208551  89.9262954  98.0742534  90.3047599  88.5803248  97.4575467
  85.2923683  92.7439499  89.7795952  86.1542847  93.0694397  90.0391770
  85.4774028  91.9570995  89.2669018  77.3091099 100.8261838 102.0576141
  76.6154571 100.4115791 101.5446096  78.0564090 100.8682375 101.4609560
  93.4456320  91.6168025  96.9231175  92.8654989  92.2752829  96.5409228
  93.1792253  90.7945370  96.5118593  91.8959886  91.0173083  99.1252496
  92.3959665  91.1289617  98.3166815  92.5395494  90.7134136  99.7653304
  79.2227842 100.7580092  99.9342156  79.1998530 100.8567780  98.9824039
  79.5328478 101.6045243 100.2559322  92.2281198  93.7768116  95.9787524
  91.3407053  94.0617766  95.7607718  92.6435187  93.6161879  95.1314801
  95.5795734  93.8014637  99.6941863  96.3556124  94.2911089  99.9666480
  94.8543868  94.2272691 100.1513732  91.3724411 103.5412790  90.0735544
  92.0760261 103.7462793  90.6893199  90.6487060 104.1089552  90.3384627
  92.2022222  99.2922652  96.1937814  92.1457423  99.7491203  95.3545446
  92.7550564  98.5313336  96.0160657  96.0127028  95.0812383  97.0187933
  95.7563962  94.6809019  97.8496141  95.3879896  95.7956177  96.8938072
  93.2811109 103.9795320  92.1234004  94.1156713 103.5476518  91.9411478
  93.1195452 103.8077333  93.0510898  92.9357001 100.4827433  93.4890343
  92.8805805 100.3171704  92.5478787  92.3103056 101.1903466  93.6452533
  77.7249516  95.7195497 107.3151765  78.3708380  95.2094451 107.8038990
  77.5166667  96.4564179 107.8895190  86.2453126  89.9835542  93.0675661
  86.2331796  90.9277382  93.2243932  87.1376548  89.8005687  92.7735123
  90.0605246  86.5778318  97.3221598  89.2937642  86.0236805  97.4678281
  90.4715951  86.6500187  98.1835750  94.7424964 110.4332867  92.6368956
  93.9062276 110.7707553  92.9578231  94.6029734 110.2981847  91.6996093
  94.6163344 110.2780094  89.8366863  93.7392811 110.1568895  89.4729110
  95.0921097 109.4866173  89.5845752  92.3181813 111.2179097  93.3948518
  91.6251058 111.2923452  92.7388554  92.0733564 110.4539441  93.9170035
  97.3618653 111.2144481  89.6383973  96.4550109 110.9177594  89.7146687
  97.6394634 110.9174299  88.7718259  96.1317438 108.0731416  89.7795952
  96.9936602 108.3986315  90.0391770  96.3167782 107.2862912  89.2669018
  97.0846881 105.3127460  93.0675661  97.0725551 106.2569299  93.2243932
  97.9770303 105.1297605  92.7735123  36.8732858  -0.4724413  88.9434487
  37.5111268  -0.5917665  88.2397827  36.7553701   0.4756431  89.0022439
  29.5409380   1.3338492  84.8692903  28.9774245   1.2428429  84.1009190
  29.4261775   0.5138396  85.3495395  35.1208939   5.0009459  80.1807368
  34.4696919   5.5863540  79.7941381  35.9153302   5.5315654  80.2402405
  29.0464566   2.0898597  80.5794502  29.8195442   1.5427584  80.4407378
  29.3989965   2.9542846  80.7908963  31.3830844  -1.7508737  78.2112952
  31.6356364  -2.2727216  77.4496415  30.4455403  -1.9142592  78.3139635
  36.4274127  -2.7472959  86.0187695  37.2137216  -3.1653536  85.6678112
  36.6912831  -1.8426867  86.1869343  36.5984204   2.6899891  80.7176352
  35.9630037   2.7634518  81.4297257  36.2681610   3.2793490  80.0395431
  41.8282554  -2.8097726  86.9220674  42.5607726  -3.3798509  87.1558503
  41.0721909  -3.1976125  87.3627179  31.1027133   0.1519369  80.4137327
  30.9863391  -0.5235728  81.0818411  31.2129392  -0.3348257  79.5969480
  33.4458673  -0.3870484  84.1184016  33.0816881  -0.9139863  84.8296938
  34.3025789  -0.7772015  83.9450501  33.0653381  -2.9022927  80.0992031
  32.9453007  -2.4565876  80.9377512  32.3705970  -2.5537609  79.5405570
  30.8260273   9.8680715  83.7482163  30.7484303  10.8188540  83.8270643
  30.2221917   9.5226587  84.4057089  38.7638447  -2.4301454  80.9272365
  39.6756304  -2.1974067  80.7520063  38.2548095  -1.8464410  80.3647444
  37.3708030   2.5524365  88.3185947  36.7416892   2.7170079  87.6162015
  36.9833692   2.9665974  89.0896911  41.2497262   3.4878802  85.6730311
  40.5648300   3.8677704  85.1227344  41.3341111   4.0974129  86.4062258
  32.9235992   2.2898773  85.5836032  33.3874337   2.5686476  84.7940654
  32.6592790   1.3882217  85.4009123  31.8604878  -1.5878075  82.3925597
  32.5628921  -1.1357031  82.8599524  31.5285506  -2.2294256  83.0205490
  39.6194021   4.0110717  90.4448012  40.4411465   3.6090904  90.1630693
  39.6156424   3.9078951  91.3964127  47.7100014   0.3549465  86.7932983
  46.9563723  -0.2143137  86.6376987  47.8447556   0.3212130  87.7403618
  33.0998642   5.2262868  82.4687702  32.9644317   6.0714403  82.8972550
  33.6408455   5.4282145  81.7053636  26.5528040   2.7438306  83.0415627
  27.0652560   3.5381556  83.1921192  27.2050753   2.0464596  82.9749229
  28.3622924   5.8604062  85.1238381  28.5389553   6.7822027  84.9359365
  29.1579758   5.5462481  85.5532760  29.4854240   7.3782236  91.1248723
  30.0361665   7.2499299  90.3525717  28.6465716   7.6777125  90.7743616
  36.4141389  -1.2597959  79.5059031  35.8988012  -0.4893355  79.7447418
  36.1418697  -1.9332823  80.1292092  41.3875663   1.4934395  81.4412204
  40.6105106   1.1545555  80.9967366  42.0667144   1.4987018  80.7667169
  36.2027692  -3.3870867  81.3318812  35.8977827  -3.0724718  82.1828955
  37.1558134  -3.3089447  81.3746145  34.6474124   2.7719356  82.9811766
  34.1195485   2.0372116  82.6685004  34.1461626   3.5494032  82.7351734
  39.6266970   0.9668377  88.0978812  38.9690644   1.6567638  88.1858941
  40.4307369   1.3564808  88.4412799  38.4372428  -0.6787251  86.1482754
  38.9504310  -0.0457259  86.6504464  39.0873652  -1.2786055  85.7826114
  32.7926724   0.5899566  75.9846739  31.8853786   0.3588820  76.1837888
  33.2897756  -0.2062814  76.1720721  35.6994803   9.2997073  78.9043425
  35.0256501   9.6028770  79.5128383  36.0860625  10.1026154  78.5548882
  35.6988307  -1.8046380  83.5243775  36.4460126  -1.2924982  83.2150897
  35.9679897  -2.1262327  84.3848168  33.9714957   0.6912161  80.5070729
  33.0626177   0.4071194  80.6043199  34.0010041   1.1111240  79.6474036
  39.2034225   4.3018751  84.2761897  38.7496552   3.4609661  84.3327087
  38.5728191   4.9380149  84.6136677  38.1467144  -4.7689263  85.5062564
  37.4089901  -5.2811877  85.8372807  38.3993918  -5.2088882  84.6945841
  37.6467164   6.1395247  85.2111715  37.9390138   6.7000304  84.4924081
  38.1565785   6.4323808  85.9664874  32.5199851  -1.6959218  86.6080525
  32.5748461  -2.6485382  86.5323001  31.7091053  -1.5399779  87.0921823
  33.6691045   2.2320905  77.8458808  33.2310475   1.5156764  77.3864445
  34.4101486   2.4597020  77.2843899  32.6100789   6.9175598  86.3005168
  32.5676968   7.1436445  85.3713700  33.5263488   6.6838973  86.4490969
  41.7864160   0.5078102  83.9035126  41.6482058   0.6979698  82.9756316
  41.4300379   1.2697485  84.3603177  41.8133539   2.5754629  88.9146398
  42.2470046   2.4829918  89.7629452  42.5265120   2.5512129  88.2766414
  30.7266590   3.7938627  86.0967131  31.5207188   3.2988948  85.8949706
  30.0158282   3.2656491  85.7334836  35.5461434   6.1756723  90.4479498
  35.5998457   6.7447659  91.2157214  34.6776216   6.3458608  90.0833536
  42.6749089   2.6178330  91.4479283  42.8684979   3.5224140  91.6938558
  42.5749707   2.1585749  92.2817868  33.3037866   4.3667649  89.7764968
  33.1648952   3.9986434  90.6490906  32.5152462   4.8815289  89.6048926
  33.8986018   9.4676746  81.1190504  34.0737774   8.9964789  81.9336127
  33.2118806  10.0942512  81.3471765  34.8543081   3.7449252  87.1653806
  34.5192914   3.7050022  88.0611456  34.3547027   3.0793968  86.6924216
  37.7902273   1.0905286  77.4390865  37.1731443   0.3652115  77.3423918
  37.3218761   1.8514647  77.0957940  28.4647103  12.6166109  87.8930365
  28.7043701  13.2484633  88.5709383  27.6216300  12.2654149  88.1795724
  32.9774965   8.4245231  90.2971869  32.9045137   9.2300203  90.8091173
  32.5352358   8.6237197  89.4719890  32.7664745   7.6617001  83.8074690
  31.9832267   8.2038681  83.9012915  33.4657490   8.1790981  84.2068931
  43.9291152  -0.8248004  88.0927187  43.9181028   0.0576712  87.7221120
  43.0608532  -1.1776453  87.8981724  35.4373649   8.3232065  92.4530027
  36.1501621   8.9579530  92.3805929  34.9463677   8.4195931  91.6370029
  37.1591175   2.2283318  84.0247319  36.2247454   2.3484780  83.8552023
  37.3367844   1.3255785  83.7607329  40.5463727  -1.9299363  84.5597353
  41.0124179  -1.0971371  84.4857656  40.9971227  -2.3954381  85.2642612
  38.6139958   4.4144458  81.5583505  38.8899802   4.3001053  82.4677379
  37.7444457   4.0161943  81.5195678  35.2494022   8.6630809  85.2016319
  35.4316416   7.8452465  85.6644071  36.0727008   8.8798501  84.7641209
  35.5836187   7.5898994  82.4631367  36.1123954   7.0791449  81.8501529
  35.8464407   7.2741525  83.3276900  28.9391935   8.6414111  85.2229143
  28.2702311   9.1260239  84.7393183  28.8004805   8.8883331  86.1372522
  33.0797204  10.6757855  91.8211802  33.6315512  10.8389476  92.5860887
  33.4203397  11.2662292  91.1491826  36.2165591   8.6239830  88.8075484
  36.0916731   7.8229570  88.2986429  36.8744682   9.1186023  88.3189454
  38.2800500   6.4248850  90.4355034  37.3330835   6.3054201  90.3633361
  38.6283273   5.5371348  90.5181295  35.2846933   6.2201566  86.6359386
  35.1371895   5.2918274  86.8166956  36.1100426   6.2421657  86.1516461
  38.8881055   7.0430125  87.7224259  39.8127602   6.8372986  87.5848710
  38.7196358   6.7946526  88.6313600  38.6776371   7.5615793  83.0786350
  38.8513248   6.9962215  82.3260203  39.1705262   8.3616687  82.8965840
  44.5315762   0.3252216  84.6976650  44.9746908  -0.4240459  84.2995773
  43.6542272   0.3162352  84.3150382  39.6651543   6.8782557  80.1783248
  40.3602448   7.4989250  80.3970563  40.0074694   6.0277908  80.4535626
  41.5642967   4.3282263  81.7070579  42.0894291   4.6669535  80.9819899
  41.4765319   3.3929278  81.5233714  33.2483627  10.3954246  86.0665832
  32.8088618   9.9030624  86.7598689  33.9991744   9.8527213  85.8257908
  25.7275966   6.5865787  86.0690461  26.5533986   6.2869559  85.6889104
  25.3770018   5.8173409  86.5180249  30.6957499   5.9392255  88.1388134
  30.0737509   5.2762960  87.8390362  31.3662366   5.9653387  87.4561782
  30.2571006   4.4896178  81.6146595  30.4059127   5.1731643  80.9613267
  31.0637450   4.4701268  82.1296050  44.0748627   1.7957454  87.0899098
  44.9095518   2.2347258  87.2536658  44.2107756   1.3196107  86.2707343
  28.0123639   0.5161356  82.6207664  27.7669681  -0.3876314  82.8187874
  28.1819554   0.5178506  81.6787142  33.7566412   6.9844309  79.0858342
  33.1840379   7.6034496  78.6328814  34.3299206   7.5343670  79.6198264
  36.9763672   7.2681459  80.2166924  37.9094345   7.2027020  80.4199800
  36.8886885   8.1037726  79.7581457  39.6051688   6.5847329  77.1770872
  39.5265320   6.2507193  78.0706630  40.4261355   7.0769097  77.1762344
  42.3029880  -0.5490932  90.3847191  42.2706200  -1.4874931  90.5706874
  42.9130503  -0.4706895  89.6513015  34.1413210  -1.6794879  76.4274395
  35.0872315  -1.8088670  76.4962813  33.7627455  -2.4180217  76.9043823
  48.1206429   0.5125075  89.5253227  48.8509818   0.2510363  90.0860931
  47.5113375  -0.2246203  89.5655295  46.2021727  -1.3467062  90.1227679
  45.4754890  -1.4811097  89.5144170  45.7869013  -1.0390234  90.9284397
  39.2487549  -8.0229441  83.6476482  38.6686218  -7.3644636  83.2654534
  38.9823481  -8.8452096  83.2363899  38.0312427  -5.8629350  82.7032830
  37.1438282  -5.5779700  82.4853025  38.4466416  -6.0235587  81.8560107
  41.3826963  -5.8382829  86.4187170  42.1587353  -5.3486377  86.6911786
  40.6575097  -5.4124775  86.8759039  43.8199521  -5.1255210  87.4761110
  44.4144012  -5.3659474  86.7654418  43.8926105  -5.8448079  88.1034646
  26.0396677   8.7178401  87.7904275  25.9051145   7.9578802  87.2242273
  25.6228739   9.4419301  87.3233064  37.1755640   3.9015325  76.7980850
  37.8791490   4.1065327  77.4138506  36.4518289   4.4692086  77.0629934
  38.0053450  -0.3474814  82.9183120  37.9488652   0.1093737  82.0790753
  38.5581793  -1.1084130  82.7405963  41.8158256  -4.5585082  83.7433240
  41.5595191  -4.9588447  84.5741448  41.1911124  -3.8441288  83.6183379
  46.1270594  -1.8189009  86.2504531  45.5670152  -1.7495820  87.0236093
  45.5214098  -1.9948024  85.5304028  29.1965803   9.6147718  88.0022718
  29.0798187  10.5593150  87.9001408  28.3758249   9.3121280  88.3908517
  39.0842338   4.3397854  78.8479310  39.9187941   3.9079052  78.6656785
  38.9226680   4.1679867  79.7756205  38.7388230   0.8429967  80.2135650
  38.6837034   0.6774238  79.2724094  38.1134285   1.5506000  80.3697839
  30.2220317  10.2675980  91.2178646  31.1247564  10.2999590  91.5345141
  29.9957687   9.3376431  91.2324982  31.9773919   9.0206966  87.8788725
  31.0269550   9.0208828  87.7653097  32.2806405   8.2739701  87.3624759
  47.7126613  14.8567505  88.9434487  48.3505023  14.7374252  88.2397827
  47.5947456  15.8048349  89.0022439  44.5216319  14.8094933  88.8796012
  44.1834830  14.6935998  87.9916547  45.3906087  14.4086098  88.8597018
  40.3803135  16.6630409  84.8692903  39.8168000  16.5720346  84.1009190
  40.2655530  15.8430314  85.3495395  45.0036102  15.9629785  94.8382217
  44.9924743  15.5682583  93.9662721  45.1656741  15.2295857  95.4315989
  37.9267567  18.1581601  87.7077123  38.7188858  17.8172426  87.2923422
  38.1664217  18.2676576  88.6279276  45.9602693  20.3301377  80.1807368
  45.3090673  20.9155457  79.7941381  46.7547056  20.8607572  80.2402405
  39.8858320  17.4190514  80.5794502  40.6589196  16.8719501  80.4407378
  40.2383719  18.2834764  80.7908963  41.7243363  18.7466896  93.7861401
  41.4333229  19.6512527  93.6708068  42.3600347  18.7883424  94.5005471
  42.6499570  16.1243745  90.3762761  43.2463142  15.8999767  89.6619724
  42.7074541  15.3828490  90.9788209  42.2224598  13.5783180  78.2112952
  42.4750119  13.0564702  77.4496415  41.2849157  13.4149326  78.3139635
  47.2667881  12.5818959  86.0187695  48.0530970  12.1638382  85.6678112
  47.5306585  13.4865051  86.1869343  47.4377958  18.0191809  80.7176352
  46.8023791  18.0926436  81.4297257  47.1075365  18.6085408  80.0395431
  52.6676308  12.5194192  86.9220674  53.4001480  11.9493409  87.1558503
  51.9115664  12.1315792  87.3627179  41.9420887  15.4811286  80.4137327
  41.8257145  14.8056190  81.0818411  42.0523147  14.9943660  79.5969480
  44.2852428  14.9421433  84.1184016  43.9210635  14.4152054  84.8296938
  45.1419544  14.5519902  83.9450501  50.1901729   6.2315766  91.3815282
  49.8585053   7.1011177  91.1576497  49.5947342   5.9152050  92.0609313
  43.9257915   9.9711333  79.1145365  44.0932317  10.8391569  79.4815836
  43.7355084  10.1338615  78.1906654  46.6833248  18.4328312  90.7811195
  46.3833971  19.3353351  90.6727002  46.3384308  18.1660495  91.6332348
  40.1345730  14.8842109  86.8147899  39.2096226  14.7518323  87.0225591
  40.3830143  15.6636328  87.3117842  50.0830392  10.9510852  88.4608632
  49.1747269  10.8826261  88.1667393  50.0317988  11.4282797  89.2890458
  43.9047136  12.4268991  80.0992031  43.7846761  12.8726041  80.9377512
  43.2099724  12.7754308  79.5405570  37.4954541  14.5275382  87.6491688
  37.6246922  14.7809861  88.5631100  36.8151992  15.1203090  87.3296343
  41.6654028  25.1972632  83.7482163  41.5878058  26.1480457  83.8270643
  41.0615672  24.8518505  84.4057089  44.1571258  12.3700498  96.4043530
  43.3804592  12.9294418  96.3946394  44.7961821  12.8557281  96.9258400
  51.9492038   9.1527291  90.2386506  51.3066419   9.4459824  89.5926301
  51.4446967   9.0380211  91.0439703  49.6032202  12.8990464  80.9272365
  50.5150058  13.1317851  80.7520063  49.0941849  13.4827508  80.3647444
  42.4117630  15.1785951  95.9661497  43.1532314  15.7170995  95.6896320
  41.7054615  15.8052240  96.1233048  47.8872970  17.3215092  94.5633658
  48.2956326  16.8797502  93.8188290  47.1650231  16.7467719  94.8167851
  44.2404040  12.2587698  91.9367215  45.0865235  12.6827112  92.0801864
  44.1802677  11.6021323  92.6305778  48.2101784  17.8816282  88.3185947
  47.5810647  18.0461996  87.6162015  47.8227446  18.2957892  89.0896911
  52.0891016  18.8170720  85.6730311  51.4042054  19.1969621  85.1227344
  52.1734866  19.4266047  86.4062258  47.3903485   9.9192067  93.5948389
  47.1464417  10.6734127  93.0582664  47.6663416  10.2977414  94.4295636
  49.3441948  16.4630679  92.2725654  49.5558843  17.1062439  91.5960035
  49.2971696  15.6292996  91.8047584  46.9468177   9.0748500  89.1762226
  46.0852656   9.3729753  89.4678964  46.9730611   9.2918899  88.2443259
  43.7629746  17.6190690  85.5836032  44.2268092  17.8978393  84.7940654
  43.4986544  16.7174135  85.4009123  40.6553827  17.1662172  88.5215795
  41.2255184  17.5949440  87.8833280  41.2461939  16.8844757  89.2199981
  42.6998632  13.7413843  82.3925597  43.4022676  14.1934886  82.8599524
  42.3679261  13.0997662  83.0205490  41.1478994  12.3325599  96.7676807
  40.5177654  13.0141880  97.0012203  41.0415082  12.2208681  95.8229945
  36.4423966  11.9997395  87.6942731  35.6523020  12.2554924  87.2182841
  36.9335214  12.8145733  87.7994771  50.4587776  19.3402635  90.4448012
  51.2805219  18.9382822  90.1630693  50.4550179  19.2370869  91.3964127
  38.3938712  12.3641975  84.6526207  37.5969875  12.4760669  85.1709703
  38.1664304  12.7028627  83.7867098  44.2244379  18.8886678  92.6008722
  44.2888812  19.3507085  93.4366894  43.5155303  18.2584043  92.7291032
  34.7261669  12.2527886  90.1257721  34.9769708  13.1374896  90.3915297
  35.2621218  12.0732487  89.3532813  58.5493769  15.6841383  86.7932983
  57.7957477  15.1148781  86.6376987  58.6841310  15.6504047  87.7403618
  43.9392397  20.5554785  82.4687702  43.8038072  21.4006321  82.8972550
  44.4802209  20.7574063  81.7053636  37.3921794  18.0730223  83.0415627
  37.9046315  18.8673474  83.1921192  38.0444507  17.3756514  82.9749229
  39.2016679  21.1895980  85.1238381  39.3783307  22.1113944  84.9359365
  39.9973512  20.8754399  85.5532760  43.3427697   8.0504244  96.7222314
  44.0837411   8.6511397  96.6426777  43.5745620   7.3081882  96.1640357
  38.4869035  13.2360612  95.0000544  38.3722551  12.3345869  95.3007643
  37.6313553  13.4824308  94.6485360  45.5660873  21.1778352  96.5988044
  45.1224727  20.3914730  96.2808949  46.2278087  21.3657502  95.9331935
  40.3247994  22.7074153  91.1248723  40.8755420  22.5791217  90.3525717
  39.4859470  23.0069042  90.7743616  47.6642111  21.4581152  94.6269446
  47.6460587  22.2790033  94.1349715  48.5862031  21.3335227  94.8519587
  44.1215165  18.9725281  95.4692954  44.6543502  18.2113569  95.2392262
  43.5929247  18.6798933  96.2117109  47.2884860   4.0785347  90.9986596
  46.9449130   4.9686989  90.9225706  47.6563823   3.8887005  90.1356181
  35.3570711  16.4018878  83.8175198  36.1945933  16.8115886  83.6008906
  35.5348979  15.4618320  83.7875392  47.2535143  14.0693958  79.5059031
  46.7381767  14.8398563  79.7447418  46.9812452  13.3959094  80.1292092
  44.8382254   8.9143659  84.5644269  43.9823851   8.5250509  84.3849908
  45.2509206   8.9935620  83.7044055  46.3681401   6.4490002  88.9635829
  45.8646196   6.4120137  88.1503634  46.6612008   7.3582745  89.0232486
  42.6124287   6.5328732  87.9702011  43.4777283   6.3371541  87.6107900
  42.6801796   6.3039084  88.8971368  52.2269417  16.8226313  81.4412204
  51.4498860  16.4837472  80.9967366  52.9060898  16.8278936  80.7667169
  47.0421446  11.9421050  81.3318812  46.7371582  12.2567200  82.1828955
  47.9951888  12.0202470  81.3746145  45.4867878  18.1011274  82.9811766
  44.9589240  17.3664033  82.6685004  44.9855381  18.8785950  82.7351734
  50.4660724  16.2960294  88.0978812  49.8084399  16.9859556  88.1858941
  51.2701123  16.6856726  88.4412799  40.2186606   8.7630940  85.3418378
  40.7930358   8.5406121  84.6091571  40.8057588   8.8319634  86.0946979
  49.2766183  14.6504667  86.1482754  49.7898065  15.2834659  86.6504464
  49.9267407  14.0505862  85.7826114  40.5456193  10.7935401  79.3614263
  39.7093505  11.1310088  79.6823538  40.4060963  10.6584381  78.4241400
  42.5209273   5.6372189  84.0693447  41.8673686   5.3221206  83.4450062
  42.4789748   5.0147929  84.7953270  43.6320478  15.9191484  75.9846739
  42.7247540  15.6880737  76.1837888  44.1291510  15.1229103  76.1720721
  46.5388557  24.6288991  78.9043425  45.8650256  24.9320688  79.5128383
  46.9254379  25.4318071  78.5548882  45.7547014  12.1254122  88.3941095
  44.8369575  12.3469069  88.2362783  46.1707157  12.2000433  87.5352802
  46.5382062  13.5245538  83.5243775  47.2853881  14.0366935  83.2150897
  46.8073651  13.2029591  84.3848168  44.8108712  16.0204079  80.5070729
  43.9019931  15.7363112  80.6043199  44.8403796  16.4403157  79.6474036
  50.0427979  19.6310668  84.2761897  49.5890306  18.7901578  84.3327087
  49.4121946  20.2672067  84.6136677  48.9860899  10.5602654  85.5062564
  48.2483656  10.0480041  85.8372807  49.2387672  10.1203036  84.6945841
  48.4860918  21.4687165  85.2111715  48.7783893  22.0292222  84.4924081
  48.9959539  21.7615726  85.9664874  49.0872526   3.3378906  86.1004334
  49.3931403   2.4776270  85.8130249  49.8125131   3.9296527  85.9003327
  35.3796882  13.7409593  84.4885931  35.1821282  13.1478954  83.7636998
  34.8243546  13.4361803  85.2061870  43.3593606  13.6332699  86.6080525
  43.4142216  12.6806536  86.5323001  42.5484808  13.7892139  87.0921823
  44.5084800  17.5612822  77.8458808  44.0704230  16.8448681  77.3864445
  45.2495240  17.7888937  77.2843899  41.2985966  12.2509759  84.3670903
  40.4853831  12.5503930  84.7736096  41.7944960  11.8565448  85.0845386
  43.4494544  22.2467516  86.3005168  43.4070722  22.4728362  85.3713700
  44.3657242  22.0130891  86.4490969  46.8960177  12.7151584  93.1985797
  47.2509565  12.9423057  94.0580263  47.5432309  13.0469960  92.5763053
  52.6257914  15.8370020  83.9035126  52.4875813  16.0271616  82.9756316
  52.2694133  16.5989402  84.3603177  40.7900040   9.8228115  89.9832138
  41.4299420   9.6816874  89.2855102  39.9577571   9.5362628  89.6070740
  52.6527294  17.9046547  88.9146398  53.0863801  17.8121836  89.7629452
  53.3658875  17.8804047  88.2766414  41.5660344  19.1230545  86.0967131
  42.3600943  18.6280865  85.8949706  40.8552037  18.5948408  85.7334836
  46.3855189  21.5048641  90.4479498  46.4392211  22.0739577  91.2157214
  45.5169970  21.6750526  90.0833536  37.8743108  13.2673627  82.1726884
  36.9440696  13.2058082  82.3896846  37.9700580  12.7449580  81.3763525
  37.7928657   9.7928440  84.7605125  38.0535474  10.7073773  84.6514286
  38.6145829   9.3252882  84.9101738  39.2653582  11.2066197  91.9303950
  39.9376636  10.9983559  91.2816599  38.4383369  11.0088283  91.4909182
  53.5142844  17.9470247  91.4479283  53.7078734  18.8516058  91.6938558
  53.4143462  17.4877666  92.2817868  45.1679154   7.8328138  93.9469611
  44.5207069   8.5318087  93.8534087  45.9380170   8.2664282  94.3145859
  48.5757952  18.0976990  97.0220164  48.4243459  17.8687542  96.1050248
  48.5662632  19.0547591  97.0351509  45.3443289  15.6708903  92.0066430
  46.2735349  15.8220062  91.8335398  44.9234319  15.7592923  91.1515077
  44.1431620  19.6959567  89.7764968  44.0042706  19.3278352  90.6490906
  43.3546217  20.2107207  89.6048926  44.7379772  24.7968664  81.1190504
  44.9131528  24.3256707  81.9336127  44.0512560  25.4234430  81.3471765
  45.6936836  19.0741170  87.1653806  45.3586668  19.0341940  88.0611456
  45.1940781  18.4085886  86.6924216  39.6681080  14.4808800  92.6906387
  39.5300877  13.7489039  93.2917926  40.5786003  14.3917700  92.4090575
  48.6296027  16.4197204  77.4390865  48.0125198  15.6944032  77.3423918
  48.1612516  17.1806564  77.0957940  42.2963380  14.1928759  92.1790067
  43.0062999  13.5521951  92.1376685  42.2532688  14.4441654  93.1016247
  50.2850159  21.1296112  95.0996646  50.2262705  20.4455333  94.4327229
  50.6869677  21.8715102  94.6477272  41.0092314  11.1793977  93.9985706
  40.4729671  10.7284715  94.6507302  40.4209023  11.3139886  93.2556170
  39.3040858  27.9458026  87.8930365  39.5437456  28.5776550  88.5709383
  38.4610054  27.5946066  88.1795724  40.4194573  10.6382628  76.5612170
  39.5424039  10.5171429  76.1974416  40.8952326   9.8468707  76.3091058
  50.2867566  19.0935696  93.3310625  49.3994345  18.7561618  93.4537024
  50.8566117  18.3618728  93.5679391  31.9396713  15.4259788  86.6553677
  32.6267753  15.1121518  86.0674692  31.7844842  16.3301153  86.3820928
  36.7431435  10.3149985  91.0838701  36.6589624   9.7075654  90.3489110
  35.9214142  10.8059003  91.0848197  43.8168720  23.7537149  90.2971869
  43.7438891  24.5592120  90.8091173  43.3746113  23.9529115  89.4719890
  43.6058499  22.9908919  83.8074690  42.8226021  23.5330599  83.9012915
  44.3051244  23.5082898  84.2068931  46.9155149   8.8003548  86.4508896
  47.4123849   8.0473511  86.1309966  46.1442131   8.8367865  85.8852105
  54.7684907  14.5043914  88.0927187  54.7574783  15.3868629  87.7221120
  53.9002286  14.1515465  87.8981724  46.2767403  23.6523983  92.4530027
  46.9895375  24.2871448  92.3805929  45.7857432  23.7487849  91.6370029
  47.9984930  17.5575235  84.0247319  47.0641209  17.6776698  83.8552023
  48.1761598  16.6547702  83.7607329  43.4990118  10.9420931  86.1780580
  43.1287906  10.3891972  86.8661486  43.9949210  10.3379065  85.6255580
  51.3857481  13.3992555  84.5597353  51.8517933  14.2320546  84.4857656
  51.8364982  12.9337536  85.2642612  41.3279317  21.4018426  93.2735598
  42.0288776  22.0354909  93.4264992  40.8574432  21.7433158  92.5131237
  49.4533712  19.7436376  81.5583505  49.7293556  19.6292971  82.4677379
  48.5838211  19.3453861  81.5195678  49.3574144   5.7673142  88.5988254
  48.4437224   5.9977369  88.7670461  49.7867245   5.8511586  89.4502287
  49.1280603  13.9563034  91.0988148  48.4752053  14.2038941  90.4440601
  49.5060982  13.1427172  90.7650626  46.0887776  23.9922727  85.2016319
  46.2710171  23.1744383  85.6644071  46.9120762  24.2090419  84.7641209
  46.4229942  22.9190912  82.4631367  46.9517708  22.4083367  81.8501529
  46.6858161  22.6033442  83.3276900  45.1768176  14.6982845  97.5854186
  44.5008813  14.5976974  98.2556561  45.9995809  14.5422059  98.0490183
  36.9247035  20.9354781  90.2066701  37.5100471  20.1898469  90.3394605
  36.7271873  21.2458738  91.0903365  39.7785690  23.9706029  85.2229143
  39.1096065  24.4552156  84.7393183  39.6398560  24.2175249  86.1372522
  31.5164689  13.5060382  88.9271144  31.5548789  12.9723972  89.7208262
  31.0104982  12.9795587  88.3082121  43.9190958  26.0049772  91.8211802
  44.4709266  26.1681394  92.5860887  44.2597152  26.5954210  91.1491826
  38.8955452   8.3524922  92.4233686  38.9596778   9.2139753  92.0111084
  38.8322572   7.7398924  91.6906045  48.7701833  20.8311030  97.6760456
  49.3141737  21.4440988  97.1815411  48.1888678  21.3890608  98.1927469
  35.1473267  12.2324484  82.0025075  35.4426708  11.3235162  81.9492129
  34.2461303  12.2112223  81.6806078  47.0559346  23.9531748  88.8075484
  46.9310485  23.1521488  88.2986429  47.7138437  24.4477941  88.3189454
  38.6767514  10.3080480  87.9852624  37.9554100  10.9216448  87.8460097
  39.4660770  10.8438245  87.9069270  49.1194254  21.7540768  90.4355034
  48.1724590  21.6346119  90.3633361  49.4677027  20.8663266  90.5181295
  41.4793827   7.6434907  94.2593276  42.0028229   7.8897203  95.0219585
  41.2606161   8.4754942  93.8396413  36.8761109   9.9138581  82.1264400
  36.5473815   9.0335960  81.9439506  37.2300479   9.8586250  83.0140790
  46.1240687  21.5493484  86.6359386  45.9765650  20.6210191  86.8166956
  46.9494181  21.5713575  86.1516461  39.9902932  10.2011551  82.4939878
  40.3299004  10.7297472  81.7718487  40.4375052  10.5391957  83.2698445
  49.7274809  22.3722043  87.7224259  50.6521357  22.1664904  87.5848710
  49.5590113  22.1238444  88.6313600  42.6846373   8.5848602  91.9442946
  42.3443193   7.7856415  92.3463626  41.9785379   8.8850313  91.3719779
  43.3362844   5.6697914  90.3970269  44.1588914   5.1958392  90.2749160
  43.5800908   6.4488398  90.8968956  41.9771079   8.6986173  80.6933171
  42.6979441   9.0767426  80.1896888  41.3536383   9.4175050  80.7968149
  46.1202202   9.4031322  81.6291503  46.3365816  10.2855960  81.3280331
  45.6396269   9.0117535  80.8997145  40.8601423  12.3617035  88.2062248
  40.7146004  12.6757338  89.0986529  40.3826627  12.9801935  87.6533146
  42.7197806   9.3519583  88.2543137  42.7059375   8.4560676  87.9175435
  43.4370234   9.3590247  88.8881423  44.5723937   9.7856923  90.2996265
  44.3141715  10.7073994  90.2980595  44.0408977   9.3887358  90.9896729
  49.5170125  22.8907710  83.0786350  49.6907003  22.3254133  82.3260203
  50.0099017  23.6908605  82.8965840  35.3347085  14.9022379  91.1449909
  34.7900553  15.6782187  91.2770183  36.2126435  15.2493184  90.9869030
  42.1234702   8.2333963  83.5230708  42.2450613   7.3050609  83.7221595
  41.8336744   8.2472649  82.6109023  44.9925892   5.9188874  86.6597427
  45.0147589   5.9828207  85.7049407  45.4093951   5.0793382  86.8537934
  55.3709517  15.6544133  84.6976650  55.8140663  14.9051458  84.2995773
  54.4936027  15.6454270  84.3150382  50.5045298  22.2074475  80.1783248
  51.1996203  22.8281167  80.3970563  50.8468448  21.3569826  80.4535626
  36.1213107  14.0292276  94.0380066  35.3794843  14.1774911  94.6244696
  35.8005851  14.2900541  93.1746815  52.4036721  19.6574180  81.7070579
  52.9288045  19.9961453  80.9819899  52.3159074  18.7221196  81.5233714
  44.0656770  23.5708254  93.8360456  44.3743896  23.3257401  94.7083155
  44.8632252  23.7754892  93.3479326  44.0877382  25.7246163  86.0665832
  43.6482372  25.2322542  86.7598689  44.8385499  25.1819131  85.8257908
  36.5669721  21.9157704  86.0690461  37.3927741  21.6161476  85.6889104
  36.2163773  21.1465327  86.5180249  41.5351254  21.2684173  88.1388134
  40.9131263  20.6054878  87.8390362  42.2056121  21.2945304  87.4561782
  34.7678326  19.8344031  87.0279394  33.9310234  19.4066205  86.8463395
  34.7401971  20.0276474  87.9650185  52.0930627  20.2907084  97.0121777
  51.3026171  20.2731223  96.4726277  51.8563982  20.8295378  97.7670814
  52.2128502  17.1399550  94.3254506  52.2626507  16.9749558  95.2670029
  52.1042426  16.2726809  93.9352387  41.0964761  19.8188096  81.6146595
  41.2452881  20.5023560  80.9613267  41.9031204  19.7993186  82.1296050
  49.5032265  13.1230478  95.6413812  50.4042127  12.9836943  95.3497810
  49.5780239  13.2884933  96.5811990  43.8375070  10.4997333  94.4866999
  42.9678379  10.7930899  94.2149587  44.0734550  11.0837778  95.2074262
  53.7146699  19.5596492  94.5696527  53.4231507  19.9226472  95.4059988
  53.1018830  18.8463500  94.3909859  54.9142381  17.1249371  87.0899098
  55.7489273  17.5639176  87.2536658  55.0501510  16.6488025  86.2707343
  51.9633887  14.6829106  93.0376585  52.4388009  14.8756753  92.2295437
  51.0399453  14.7388292  92.7919969  38.8517394  15.8453274  82.6207664
  38.6063436  14.9415604  82.8187874  39.0213308  15.8470424  81.6787142
  46.5414104   6.7176950  92.0032419  47.0596048   7.4537977  91.6778908
  46.1869237   7.0240943  92.8379178  38.1213041  11.5781631  80.1193825
  37.4282286  11.6525986  79.4633861  37.8764793  10.8141975  80.6415342
  46.7926698   3.1377232  87.5233316  47.0728452   2.4700421  88.1493742
  47.5777305   3.3306328  87.0107980  44.5960166  22.3136226  79.0858342
  44.0234133  22.9326413  78.6328814  45.1692960  22.8635588  79.6198264
  50.6635556  11.5594866  91.2704891  51.6152979  11.6592964  91.2917115
  50.4939007  10.7673135  91.7802975  48.6849936   8.6450450  91.4564292
  48.0899868   8.9255462  90.7610780  48.3999632   9.1344351  92.2281033
  47.8157426  22.5973376  80.2166924  48.7488099  22.5318938  80.4199800
  47.7280639  23.4329643  79.7581457  50.4445443  21.9139247  77.1770872
  50.3659074  21.5799110  78.0706630  51.2655110  22.4061015  77.1762344
  53.1423634  14.7800986  90.3847191  53.1099954  13.8416987  90.5706874
  53.7524258  14.8585023  89.6513015  44.9806965  13.6497039  76.4274395
  45.9266070  13.5203247  76.4962813  44.6021210  12.9111701  76.9043823
  53.2918123  11.5712030  90.4305474  52.7757171  10.7870486  90.2435403
  54.1758071  11.2430746  90.5951993  50.9528849   5.3153045  86.3901286
  50.7553671   5.0068133  87.2744618  51.5628555   6.0414684  86.5199216
  58.9600184  15.8416993  89.5253227  59.6903572  15.5802281  90.0860931
  58.3507129  15.1045715  89.5655295  57.0415481  13.9824856  90.1227679
  56.3148645  13.8480820  89.5144170  56.6262768  14.2901684  90.9284397
  44.8645657  17.7014785  97.8875052  45.7848667  17.8793384  98.0815098
  44.8295240  16.7570831  97.7354751  43.1649882  11.5747015  76.3629280
  42.2581337  11.2780128  76.4391993  43.4425863  11.2776834  75.4963566
  34.0827822  12.8953379  86.8128326  33.7630607  12.0418687  86.5202700
  33.5361251  13.1101957  87.5686294  37.8607730  15.6115820  90.5297833
  38.0793740  16.5432928  90.5485867  38.2733504  15.2523794  91.3152637
  44.7811948   6.1183905  82.5173521  43.9712676   5.7730990  82.8928767
  45.4696365   5.8091449  83.1061133  46.7102496   5.1961952  84.1397818
  47.2633535   5.6157405  84.7987841  46.9472582   4.2697700  84.1820774
  41.9348667   8.4333951  76.5041259  42.7967831   8.7588849  76.7637076
  42.1199011   7.6465447  75.9914325  33.9516082  16.5156290  88.7821448
  33.2579554  16.1010243  88.2691402  34.6989073  16.5576827  88.1854867
  50.0881303   7.3062477  83.6476482  49.5079972   7.9647281  83.2654534
  49.8217236   6.4839822  83.2363899  48.5384870   6.7067535  85.8497802
  49.0384648   6.8184069  85.0412121  49.1820477   6.4028588  86.4898611
  42.5966865  14.6146164  98.7365643  42.1133947  15.4146525  98.9429532
  42.6827804  14.6254109  97.7833087  35.8652825  16.4474544  86.6587463
  35.8423513  16.5462231  85.7069346  36.1753461  17.2939695  86.9804629
  38.5240203  18.5050699  90.7734077  39.4783456  18.4734642  90.7064009
  38.3252726  18.0441323  91.5884303  39.1139585  17.0751815  93.3404875
  39.9332474  17.5695894  93.3639712  39.3876393  16.1583783  93.3122442
  48.8706181   9.4662568  82.7032830  47.9832036   9.7512218  82.4853025
  49.2860170   9.3056331  81.8560107  52.2220717   9.4909089  86.4187170
  52.9981107   9.9805541  86.6911786  51.4968851   9.9167143  86.8759039
  54.6593276  10.2036708  87.4761110  55.2537767   9.9632444  86.7654418
  54.7319860   9.4843838  88.1034646  36.8790432  24.0470319  87.7904275
  36.7444900  23.2870720  87.2242273  36.4622494  24.7711219  87.3233064
  48.0149395  19.2307242  76.7980850  48.7185245  19.4357245  77.4138506
  47.2912043  19.7984004  77.0629934  48.8447205  14.9817103  82.9183120
  48.7882406  15.4385655  82.0790753  49.3975547  14.2207788  82.7405963
  52.6552011  10.7706835  83.7433240  52.3988945  10.3703471  84.5741448
  52.0304879  11.4850629  83.6183379  56.9664349  13.5102909  86.2504531
  56.4063907  13.5796098  87.0236093  56.3607852  13.3343893  85.5304028
  40.0359557  24.9439636  88.0022718  39.9191942  25.8885068  87.9001408
  39.2152004  24.6413197  88.3908517  49.9236092  19.6689771  78.8479310
  50.7581696  19.2370970  78.6656785  49.7620435  19.4971785  79.7756205
  49.5781984  16.1721885  80.2135650  49.5230788  16.0066156  79.2724094
  48.9528039  16.8797918  80.3697839  34.3674499  11.4089949  94.0397072
  35.0133363  10.8988903  94.5284297  34.1591650  12.1458631  94.6140497
  46.8927891  18.4770797  99.5389212  47.7619051  18.6511449  99.1775847
  46.4134643  19.2965213  99.4164942  42.8878110   5.6729994  79.7920968
  42.8756780   6.6171834  79.9489239  43.7801532   5.4900139  79.4980429
  41.0614072  25.5967898  91.2178646  41.9641318  25.6291508  91.5345141
  40.8351442  24.6668349  91.2324982  42.8167674  24.3498884  87.8788725
  41.8663305  24.3500746  87.7653097  43.1200160  23.6031619  87.3624759
  46.7030229   2.2672770  84.0466905  45.9362625   1.7131257  84.1923587
  47.1140934   2.3394639  84.9081056  58.5520367  30.1859423  88.9434487
  59.1898777  30.0666170  88.2397827  58.4341210  31.1340266  89.0022439
  55.3610073  30.1386851  88.8796012  55.0228585  30.0227915  87.9916547
  56.2299842  29.7378016  88.8597018  51.2196889  31.9922327  84.8692903
  50.6561754  31.9012264  84.1009190  51.1049284  31.1722231  85.3495395
  55.8429856  31.2921702  94.8382217  55.8318497  30.8974501  93.9662721
  56.0050496  30.5587775  95.4315989  48.7661321  33.4873519  87.7077123
  49.5582613  33.1464343  87.2923422  49.0057971  33.5968494  88.6279276
  56.7996448  35.6593295  80.1807368  56.1484428  36.2447375  79.7941381
  57.5940811  36.1899490  80.2402405  50.7252075  32.7482432  80.5794502
  51.4982951  32.2011419  80.4407378  51.0777474  33.6126681  80.7908963
  52.5637118  34.0758814  93.7861401  52.2726984  34.9804445  93.6708068
  53.1994102  34.1175342  94.5005471  53.4893324  31.4535663  90.3762761
  54.0856897  31.2291685  89.6619724  53.5468296  30.7120408  90.9788209
  53.0618353  28.9075098  78.2112952  53.3143873  28.3856619  77.4496415
  52.1242912  28.7441243  78.3139635  58.1061636  27.9110876  86.0187695
  58.8924725  27.4930300  85.6678112  58.3700340  28.8156969  86.1869343
  58.2771713  33.3483727  80.7176352  57.6417546  33.4218353  81.4297257
  57.9469119  33.9377326  80.0395431  63.5070063  27.8486110  86.9220674
  64.2395235  27.2785326  87.1558503  62.7509418  27.4607710  87.3627179
  52.7814642  30.8103204  80.4137327  52.6650900  30.1348107  81.0818411
  52.8916901  30.3235578  79.5969480  55.1246182  30.2713351  84.1184016
  54.7604390  29.7443972  84.8296938  55.9813298  29.8811820  83.9450501
  61.0295483  21.5607684  91.3815282  60.6978808  22.4303095  91.1576497
  60.4341096  21.2443968  92.0609313  54.7651669  25.3003251  79.1145365
  54.9326072  26.1683487  79.4815836  54.5748839  25.4630532  78.1906654
  57.5227003  33.7620230  90.7811195  57.2227726  34.6645268  90.6727002
  57.1778062  33.4952413  91.6332348  50.9739484  30.2134027  86.8147899
  50.0489981  30.0810241  87.0225591  51.2223897  30.9928246  87.3117842
  60.9224146  26.2802770  88.4608632  60.0141024  26.2118178  88.1667393
  60.8711742  26.7574715  89.2890458  54.7440890  27.7560908  80.0992031
  54.6240516  28.2017959  80.9377512  54.0493479  28.1046226  79.5405570
  48.3348295  29.8567300  87.6491688  48.4640676  30.1101779  88.5631100
  47.6545746  30.4495008  87.3296343  52.5047782  40.5264550  83.7482163
  52.4271812  41.4772375  83.8270643  51.9009426  40.1810423  84.4057089
  54.9965012  27.6992415  96.4043530  54.2198346  28.2586336  96.3946394
  55.6355575  28.1849198  96.9258400  62.7885793  24.4819208  90.2386506
  62.1460173  24.7751741  89.5926301  62.2840721  24.3672129  91.0439703
  60.4425956  28.2282381  80.9272365  61.3543813  28.4609768  80.7520063
  59.9335604  28.8119426  80.3647444  53.2511384  30.5077869  95.9661497
  53.9926069  31.0462913  95.6896320  52.5448370  31.1344158  96.1233048
  58.7266724  32.6507009  94.5633658  59.1350080  32.2089420  93.8188290
  58.0043986  32.0759637  94.8167851  55.0797794  27.5879616  91.9367215
  55.9258989  28.0119030  92.0801864  55.0196432  26.9313240  92.6305778
  59.0495539  33.2108200  88.3185947  58.4204401  33.3753914  87.6162015
  58.6621201  33.6249809  89.0896911  62.9284771  34.1462638  85.6730311
  62.2435809  34.5261539  85.1227344  63.0128620  34.7557964  86.4062258
  58.2297240  25.2483984  93.5948389  57.9858171  26.0026045  93.0582664
  58.5057170  25.6269332  94.4295636  60.1835702  31.7922597  92.2725654
  60.3952598  32.4354357  91.5960035  60.1365451  30.9584913  91.8047584
  57.7861931  24.4040417  89.1762226  56.9246410  24.7021671  89.4678964
  57.8124366  24.6210816  88.2443259  54.6023501  32.9482608  85.5836032
  55.0661846  33.2270311  84.7940654  54.3380299  32.0466053  85.4009123
  51.4947582  32.4954090  88.5215795  52.0648939  32.9241358  87.8833280
  52.0855694  32.2136674  89.2199981  53.5392387  29.0705760  82.3925597
  54.2416430  29.5226804  82.8599524  53.2073015  28.4289579  83.0205490
  51.9872748  27.6617517  96.7676807  51.3571409  28.3433798  97.0012203
  51.8808836  27.5500599  95.8229945  47.2817721  27.3289313  87.6942731
  46.4916775  27.5846842  87.2182841  47.7728968  28.1437651  87.7994771
  61.2981530  34.6694552  90.4448012  62.1198974  34.2674739  90.1630693
  61.2943933  34.5662786  91.3964127  49.2332466  27.6933892  84.6526207
  48.4363629  27.8052587  85.1709703  49.0058058  28.0320544  83.7867098
  55.0638134  34.2178595  92.6008722  55.1282566  34.6799003  93.4366894
  54.3549058  33.5875960  92.7291032  45.5655424  27.5819803  90.1257721
  45.8163462  28.4666813  90.3915297  46.1014972  27.4024405  89.3532813
  69.3887523  31.0133301  86.7932983  68.6351232  30.4440699  86.6376987
  69.5235064  30.9795965  87.7403618  54.7786151  35.8846703  82.4687702
  54.6431826  36.7298239  82.8972550  55.3195964  36.0865981  81.7053636
  51.2653491  21.9638283  99.1302058  50.8720437  21.4104481  99.8049702
  52.0819631  22.2748861  99.5208575  48.2315549  33.4022141  83.0415627
  48.7440069  34.1965391  83.1921192  48.8838262  32.7048431  82.9749229
  50.0410433  36.5187897  85.1238381  50.2177062  37.4405862  84.9359365
  50.8367267  36.2046316  85.5532760  54.1821452  23.3796162  96.7222314
  54.9231165  23.9803315  96.6426777  54.4139375  22.6373800  96.1640357
  49.3262790  28.5652529  95.0000544  49.2116305  27.6637786  95.3007643
  48.4707308  28.8116226  94.6485360  56.4054628  36.5070269  96.5988044
  55.9618482  35.7206648  96.2808949  57.0671841  36.6949420  95.9331935
  51.1641749  38.0366071  91.1248723  51.7149174  37.9083134  90.3525717
  50.3253225  38.3360960  90.7743616  58.5035866  36.7873069  94.6269446
  58.4854341  37.6081950  94.1349715  59.4255786  36.6627145  94.8519587
  54.9608920  34.3017199  95.4692954  55.4937257  33.5405487  95.2392262
  54.4323001  34.0090851  96.2117109  58.1278615  19.4077265  90.9986596
  57.7842884  20.2978907  90.9225706  58.4957578  19.2178922  90.1356181
  46.1964466  31.7310795  83.8175198  47.0339688  32.1407804  83.6008906
  46.3742733  30.7910237  83.7875392  58.0928898  29.3985876  79.5059031
  57.5775521  30.1690481  79.7447418  57.8206206  28.7251012  80.1292092
  55.6776009  24.2435577  84.5644269  54.8217605  23.8542427  84.3849908
  56.0902960  24.3227538  83.7044055  57.2075155  21.7781920  88.9635829
  56.7039951  21.7412055  88.1503634  57.5005762  22.6874663  89.0232486
  53.4518041  21.8620650  87.9702011  54.3171038  21.6663458  87.6107900
  53.5195550  21.6331001  88.8971368  63.0663172  32.1518231  81.4412204
  62.2892615  31.8129390  80.9967366  63.7454653  32.1570854  80.7667169
  57.8815201  27.2712968  81.3318812  57.5765336  27.5859117  82.1828955
  58.8345643  27.3494388  81.3746145  56.3261633  33.4303191  82.9811766
  55.7982994  32.6955951  82.6685004  55.8249135  34.2077868  82.7351734
  61.3054479  31.6252212  88.0978812  60.6478153  32.3151473  88.1858941
  62.1094878  32.0148644  88.4412799  51.0580360  24.0922858  85.3418378
  51.6324112  23.8698039  84.6091571  51.6451343  24.1611552  86.0946979
  60.1159937  29.9796585  86.1482754  60.6291819  30.6126576  86.6504464
  60.7661161  29.3797780  85.7826114  51.3849947  26.1227319  79.3614263
  50.5487260  26.4602005  79.6823538  51.2454717  25.9876298  78.4241400
  53.3603028  20.9664107  84.0693447  52.7067440  20.6513124  83.4450062
  53.3183502  20.3439847  84.7953270  54.4714233  31.2483402  75.9846739
  53.5641295  31.0172655  76.1837888  54.9685265  30.4521021  76.1720721
  57.3782312  39.9580909  78.9043425  56.7044010  40.2612606  79.5128383
  57.7648134  40.7609989  78.5548882  56.5940768  27.4546040  88.3941095
  55.6763330  27.6760987  88.2362783  57.0100912  27.5292351  87.5352802
  57.3775816  28.8537456  83.5243775  58.1247635  29.3658853  83.2150897
  57.6467406  28.5321509  84.3848168  55.6502466  31.3495997  80.5070729
  54.7413686  31.0655029  80.6043199  55.6797550  31.7695075  79.6474036
  60.8821734  34.9602586  84.2761897  60.4284061  34.1193496  84.3327087
  60.2515700  35.5963984  84.6136677  59.8254653  25.8894572  85.5062564
  59.0877410  25.3771958  85.8372807  60.0781427  25.4494954  84.6945841
  59.3254673  36.7979083  85.2111715  59.6177647  37.3584140  84.4924081
  59.8353293  37.0907644  85.9664874  59.9266281  18.6670824  86.1004334
  60.2325157  17.8068187  85.8130249  60.6518885  19.2588444  85.9003327
  46.2190637  29.0701511  84.4885931  46.0215036  28.4770871  83.7636998
  45.6637301  28.7653721  85.2061870  54.1987360  28.9624617  86.6080525
  54.2535970  28.0098454  86.5323001  53.3878562  29.1184056  87.0921823
  55.3478554  32.8904740  77.8458808  54.9097984  32.1740599  77.3864445
  56.0888995  33.1180855  77.2843899  52.1379720  27.5801677  84.3670903
  51.3247586  27.8795847  84.7736096  52.6338714  27.1857366  85.0845386
  54.2888298  37.5759434  86.3005168  54.2464477  37.8020280  85.3713700
  55.2050997  37.3422808  86.4490969  57.7353932  28.0443501  93.1985797
  58.0903320  28.2714974  94.0580263  58.3826063  28.3761878  92.5763053
  63.4651669  31.1661937  83.9035126  63.3269567  31.3563533  82.9756316
  63.1087888  31.9281320  84.3603177  51.6293795  25.1520032  89.9832138
  52.2693174  25.0108791  89.2855102  50.7971326  24.8654546  89.6070740
  63.4921048  33.2338464  88.9146398  63.9257555  33.1413753  89.7629452
  64.2052629  33.2095965  88.2766414  52.4054099  34.4522463  86.0967131
  53.1994697  33.9572783  85.8949706  51.6945791  33.9240326  85.7334836
  57.2248943  36.8340558  90.4479498  57.2785966  37.4031495  91.2157214
  56.3563725  37.0042443  90.0833536  48.7136862  28.5965545  82.1726884
  47.7834450  28.5350000  82.3896846  48.8094334  28.0741497  81.3763525
  48.6322411  25.1220357  84.7605125  48.8929229  26.0365691  84.6514286
  49.4539584  24.6544800  84.9101738  50.1047337  26.5358115  91.9303950
  50.7770390  26.3275477  91.2816599  49.2777123  26.3380201  91.4909182
  64.3536598  33.2762165  91.4479283  64.5472488  34.1807975  91.6938558
  64.2537216  32.8169584  92.2817868  56.0072909  23.1620055  93.9469611
  55.3600824  23.8610005  93.8534087  56.7773924  23.5956199  94.3145859
  59.4151707  33.4268908  97.0220164  59.2637213  33.1979459  96.1050248
  59.4056386  34.3839509  97.0351509  56.1837043  31.0000820  92.0066430
  57.1129103  31.1511980  91.8335398  55.7628073  31.0884841  91.1515077
  54.9825375  35.0251485  89.7764968  54.8436461  34.6570269  90.6490906
  54.1939971  35.5399124  89.6048926  55.5773527  40.1260581  81.1190504
  55.7525283  39.6548624  81.9336127  54.8906315  40.7526347  81.3471765
  56.5330590  34.4033087  87.1653806  56.1980423  34.3633857  88.0611456
  56.0334536  33.7377803  86.6924216  50.5074834  29.8100718  92.6906387
  50.3694632  29.0780956  93.2917926  51.4179757  29.7209618  92.4090575
  59.4689782  31.7489122  77.4390865  58.8518952  31.0235950  77.3423918
  59.0006270  32.5098482  77.0957940  53.1357135  29.5220677  92.1790067
  53.8456753  28.8813869  92.1376685  53.0926443  29.7733572  93.1016247
  61.1243913  36.4588030  95.0996646  61.0656459  35.7747250  94.4327229
  61.5263432  37.2007020  94.6477272  51.8486069  26.5085895  93.9985706
  51.3123426  26.0576633  94.6507302  51.2602777  26.6431804  93.2556170
  50.1434612  43.2749944  87.8930365  50.3831210  43.9068468  88.5709383
  49.3003809  42.9237984  88.1795724  51.2588328  25.9674546  76.5612170
  50.3817794  25.8463347  76.1974416  51.7346081  25.1760624  76.3091058
  61.1261321  34.4227614  93.3310625  60.2388099  34.0853536  93.4537024
  61.6959872  33.6910645  93.5679391  42.7790468  30.7551706  86.6553677
  43.4661508  30.4413436  86.0674692  42.6238596  31.6593070  86.3820928
  47.5825190  25.6441902  91.0838701  47.4983379  25.0367572  90.3489110
  46.7607896  26.1350921  91.0848197  54.6562474  39.0829066  90.2971869
  54.5832645  39.8884038  90.8091173  54.2139867  39.2821032  89.4719890
  54.4452254  38.3200836  83.8074690  53.6619776  38.8622517  83.9012915
  55.1444999  38.8374816  84.2068931  57.7548904  24.1295466  86.4508896
  58.2517603  23.3765428  86.1309966  56.9835885  24.1659783  85.8852105
  65.6078661  29.8335831  88.0927187  65.5968537  30.7160547  87.7221120
  64.7396041  29.4807382  87.8981724  57.1161158  38.9815900  92.4530027
  57.8289130  39.6163365  92.3805929  56.6251186  39.0779766  91.6370029
  58.8378684  32.8867153  84.0247319  57.9034963  33.0068616  83.8552023
  59.0155353  31.9839620  83.7607329  54.3383872  26.2712849  86.1780580
  53.9681660  25.7183889  86.8661486  54.8342965  25.6670982  85.6255580
  62.2251236  28.7284472  84.5597353  62.6911688  29.5612464  84.4857656
  62.6758736  28.2629454  85.2642612  52.1673071  36.7310344  93.2735598
  52.8682531  37.3646827  93.4264992  51.6968186  37.0725075  92.5131237
  60.2927467  35.0728294  81.5583505  60.5687311  34.9584888  82.4677379
  59.4231966  34.6745779  81.5195678  60.1967899  21.0965059  88.5988254
  59.2830978  21.3269286  88.7670461  60.6261000  21.1803504  89.4502287
  59.9674357  29.2854951  91.0988148  59.3145807  29.5330859  90.4440601
  60.3454737  28.4719090  90.7650626  56.9281531  39.3214645  85.2016319
  57.1103925  38.5036301  85.6644071  57.7514517  39.5382337  84.7641209
  57.2623696  38.2482830  82.4631367  57.7911463  37.7375284  81.8501529
  57.5251916  37.9325360  83.3276900  56.0161930  30.0274762  97.5854186
  55.3402567  29.9268892  98.2556561  56.8389564  29.8713976  98.0490183
  47.7640789  36.2646699  90.2066701  48.3494226  35.5190387  90.3394605
  47.5665628  36.5750656  91.0903365  50.6179444  39.2997946  85.2229143
  49.9489820  39.7844074  84.7393183  50.4792314  39.5467167  86.1372522
  42.3558444  28.8352299  88.9271144  42.3942543  28.3015890  89.7208262
  41.8498737  28.3087505  88.3082121  54.7584713  41.3341690  91.8211802
  55.3103021  41.4973311  92.5860887  55.0990906  41.9246128  91.1491826
  49.7349206  23.6816840  92.4233686  49.7990533  24.5431671  92.0111084
  49.6716326  23.0690841  91.6906045  49.2101479  25.7539972  96.0706720
  49.8373517  25.3717050  96.6844245  48.3529398  25.5354174  96.4362413
  59.6095587  36.1602947  97.6760456  60.1535491  36.7732906  97.1815411
  59.0282432  36.7182526  98.1927469  45.9867021  27.5616401  82.0025075
  46.2820463  26.6527080  81.9492129  45.0855057  27.5404141  81.6806078
  57.8953100  39.2823665  88.8075484  57.7704240  38.4813405  88.2986429
  58.5532191  39.7769859  88.3189454  49.5161268  25.6372398  87.9852624
  48.7947854  26.2508366  87.8460097  50.3054524  26.1730163  87.9069270
  59.9588009  37.0832686  90.4355034  59.0118344  36.9638037  90.3633361
  60.3070782  36.1955184  90.5181295  52.3187582  22.9726824  94.2593276
  52.8421984  23.2189121  95.0219585  52.0999915  23.8046859  93.8396413
  47.7154863  25.2430499  82.1264400  47.3867569  24.3627878  81.9439506
  48.0694234  25.1878168  83.0140790  56.9634442  36.8785402  86.6359386
  56.8159404  35.9502109  86.8166956  57.7887935  36.9005492  86.1516461
  50.8296686  25.5303469  82.4939878  51.1692759  26.0589390  81.7718487
  51.2768807  25.8683875  83.2698445  60.5668564  37.7013960  87.7224259
  61.4915111  37.4956822  87.5848710  60.3983867  37.4530362  88.6313600
  53.5240127  23.9140520  91.9442946  53.1836947  23.1148333  92.3463626
  52.8179133  24.2142230  91.3719779  54.1756599  20.9989832  90.3970269
  54.9982668  20.5250310  90.2749160  54.4194662  21.7780316  90.8968956
  52.8164833  24.0278090  80.6933171  53.5373196  24.4059343  80.1896888
  52.1930137  24.7466967  80.7968149  56.9595956  24.7323239  81.6291503
  57.1759571  25.6147877  81.3280331  56.4790023  24.3409453  80.8997145
  51.6995178  27.6908953  88.2062248  51.5539758  28.0049256  89.0986529
  51.2220381  28.3093853  87.6533146  53.5591560  24.6811501  88.2543137
  53.5453129  23.7852594  87.9175435  54.2763989  24.6882164  88.8881423
  55.4117691  25.1148841  90.2996265  55.1535469  26.0365911  90.2980595
  54.8802732  24.7179275  90.9896729  60.3563880  38.2199628  83.0786350
  60.5300757  37.6546050  82.3260203  60.8492771  39.0200523  82.8965840
  46.1740840  30.2314297  91.1449909  45.6294308  31.0074105  91.2770183
  47.0520190  30.5785101  90.9869030  52.9628456  23.5625881  83.5230708
  53.0844368  22.6342527  83.7221595  52.6730499  23.5764567  82.6109023
  55.8319647  21.2480791  86.6597427  55.8541344  21.3120124  85.7049407
  56.2487706  20.4085300  86.8537934  66.2103271  30.9836051  84.6976650
  66.6534417  30.2343376  84.2995773  65.3329781  30.9746187  84.3150382
  61.3439052  37.5366392  80.1783248  62.0389957  38.1573085  80.3970563
  61.6862203  36.6861744  80.4535626  46.9606862  29.3584193  94.0380066
  46.2188598  29.5066829  94.6244696  46.6399606  29.6192459  93.1746815
  63.2430476  34.9866098  81.7070579  63.7681800  35.3253371  80.9819899
  63.1552828  34.0513113  81.5233714  54.9050524  38.9000171  93.8360456
  55.2137651  38.6549318  94.7083155  55.7026006  39.1046810  93.3479326
  54.9271136  41.0538081  86.0665832  54.4876127  40.5614460  86.7598689
  55.6779253  40.5111049  85.8257908  47.4063475  37.2449622  86.0690461
  48.2321495  36.9453394  85.6889104  47.0557527  36.4757244  86.5180249
  52.3745008  36.5976090  88.1388134  51.7525018  35.9346795  87.8390362
  53.0449875  36.6237222  87.4561782  45.6072080  35.1635948  87.0279394
  44.7703989  34.7358123  86.8463395  45.5795726  35.3568392  87.9650185
  52.4469536  25.0757878  97.7320640  52.4957691  25.9520001  97.3498410
  52.9892050  24.5335271  97.1592283  62.9324382  35.6199001  97.0121777
  62.1419925  35.6023140  96.4726277  62.6957736  36.1587295  97.7670814
  63.0522257  32.4691468  94.3254506  63.1020262  32.3041475  95.2670029
  62.9436180  31.6018727  93.9352387  51.9358515  35.1480014  81.6146595
  52.0846636  35.8315478  80.9613267  52.7424959  35.1285104  82.1296050
  60.3426019  28.4522396  95.6413812  61.2435882  28.3128861  95.3497810
  60.4173994  28.6176851  96.5811990  54.6768824  25.8289251  94.4866999
  53.8072134  26.1222817  94.2149587  54.9128305  26.4129696  95.2074262
  64.5540453  34.8888409  94.5696527  64.2625262  35.2518390  95.4059988
  63.9412585  34.1755418  94.3909859  65.7536136  32.4541289  87.0899098
  66.5883027  32.8931093  87.2536658  65.8895265  31.9779942  86.2707343
  62.8027642  30.0121024  93.0376585  63.2781763  30.2048670  92.2295437
  61.8793207  30.0680210  92.7919969  49.6911148  31.1745191  82.6207664
  49.4457190  30.2707521  82.8187874  49.8607063  31.1762342  81.6787142
  57.3807858  22.0468868  92.0032419  57.8989802  22.7829894  91.6778908
  57.0262991  22.3532861  92.8379178  48.9606796  26.9073549  80.1193825
  48.2676041  26.9817904  79.4633861  48.7158548  26.1433892  80.6415342
  57.6320452  18.4669150  87.5233316  57.9122206  17.7992339  88.1493742
  58.4171059  18.6598246  87.0107980  55.4353921  37.6428144  79.0858342
  54.8627888  38.2618331  78.6328814  56.0086715  38.1927506  79.6198264
  61.5029311  26.8886784  91.2704891  62.4546734  26.9884882  91.2917115
  61.3332761  26.0965053  91.7802975  59.5243690  23.9742367  91.4564292
  58.9293622  24.2547380  90.7610780  59.2393387  24.4636268  92.2281033
  58.6551181  37.9265294  80.2166924  59.5881854  37.8610856  80.4199800
  58.5674393  38.7621561  79.7581457  61.2839197  37.2431164  77.1770872
  61.2052829  36.9091028  78.0706630  62.1048864  37.7352932  77.1762344
  63.9817389  30.1092904  90.3847191  63.9493709  29.1708905  90.5706874
  64.5918012  30.1876941  89.6513015  55.8200719  28.9788957  76.4274395
  56.7659824  28.8495165  76.4962813  55.4414964  28.2403619  76.9043823
  64.1311877  26.9003947  90.4305474  63.6150926  26.1162404  90.2435403
  65.0151826  26.5722664  90.5951993  61.7922604  20.6444963  86.3901286
  61.5947425  20.3360051  87.2744618  62.4022309  21.3706602  86.5199216
  69.7993938  31.1708911  89.5253227  70.5297327  30.9094199  90.0860931
  69.1900884  30.4337633  89.5655295  67.8809235  29.3116773  90.1227679
  67.1542399  29.1772738  89.5144170  67.4656522  29.6193602  90.9284397
  55.7039412  33.0306703  97.8875052  56.6242421  33.2085302  98.0815098
  55.6688995  32.0862748  97.7354751  54.0043637  26.9038933  76.3629280
  53.0975092  26.6072046  76.4391993  54.2819618  26.6068751  75.4963566
  44.9221577  28.2245297  86.8128326  44.6024361  27.3710605  86.5202700
  44.3755005  28.4393875  87.5686294  48.7001484  30.9407738  90.5297833
  48.9187494  31.8724845  90.5485867  49.1127258  30.5815712  91.3152637
  55.6205702  21.4475823  82.5173521  54.8106431  21.1022908  82.8928767
  56.3090119  21.1383367  83.1061133  57.5496251  20.5253870  84.1397818
  58.1027289  20.9449323  84.7987841  57.7866337  19.5989618  84.1820774
  53.5729350  26.5140943  99.9200582  53.4726077  27.4635300  99.8512673
  53.3550892  26.1859182  99.0476652  52.7742421  23.7625868  76.5041259
  53.6361585  24.0880767  76.7637076  52.9592765  22.9757364  75.9914325
  44.7909837  31.8448208  88.7821448  44.0973308  31.4302161  88.2691402
  45.5382828  31.8868745  88.1854867  60.9275058  22.6354395  83.6476482
  60.3473727  23.2939199  83.2654534  60.6610990  21.8131739  83.2363899
  59.3778624  22.0359453  85.8497802  59.8778402  22.1475987  85.0412121
  60.0214232  21.7320505  86.4898611  53.4360620  29.9438082  98.7365643
  52.9527702  30.7438442  98.9429532  53.5221559  29.9546027  97.7833087
  46.7046579  31.7766462  86.6587463  46.6817268  31.8754149  85.7069346
  47.0147216  32.6231613  86.9804629  49.3633957  33.8342617  90.7734077
  50.3177211  33.8026559  90.7064009  49.1646481  33.3733241  91.5884303
  49.9533339  32.4043733  93.3404875  50.7726228  32.8987812  93.3639712
  50.2270147  31.4875701  93.3122442  59.7099936  24.7954485  82.7032830
  58.8225791  25.0804136  82.4853025  60.1253925  24.6348249  81.8560107
  63.0614472  24.8201006  86.4187170  63.8374862  25.3097459  86.6911786
  62.3362606  25.2459060  86.8759039  65.4987030  25.5328625  87.4761110
  66.0931521  25.2924361  86.7654418  65.5713614  24.8135756  88.1034646
  47.7184186  39.3762236  87.7904275  47.5838654  38.6162637  87.2242273
  47.3016248  40.1003136  87.3233064  58.8543149  34.5599160  76.7980850
  59.5578999  34.7649162  77.4138506  58.1305798  35.1275922  77.0629934
  59.6840959  30.3109021  82.9183120  59.6276161  30.7677573  82.0790753
  60.2369302  29.5499706  82.7405963  63.4945765  26.0998753  83.7433240
  63.2382700  25.6995389  84.5741448  62.8698633  26.8142547  83.6183379
  67.8058103  28.8394826  86.2504531  67.2457661  28.9088016  87.0236093
  67.2001607  28.6635811  85.5304028  50.8753312  40.2731553  88.0022718
  50.7585696  41.2176986  87.9001408  50.0545758  39.9705115  88.3908517
  60.7629847  34.9981689  78.8479310  61.5975450  34.5662888  78.6656785
  60.6014189  34.8263703  79.7756205  60.4175739  31.5013802  80.2135650
  60.3624542  31.3358074  79.2724094  59.7921794  32.2089835  80.3697839
  45.2068254  26.7381867  94.0397072  45.8527117  26.2280821  94.5284297
  44.9985405  27.4750548  94.6140497  57.7321646  33.8062714  99.5389212
  58.6012806  33.9803367  99.1775847  57.2528397  34.6257131  99.4164942
  53.7271864  21.0021911  79.7920968  53.7150534  21.9463751  79.9489239
  54.6195286  20.8192057  79.4980429  51.9007826  40.9259815  91.2178646
  52.8035073  40.9583426  91.5345141  51.6745196  39.9960266  91.2324982
  53.6561428  39.6790802  87.8788725  52.7057059  39.6792663  87.7653097
  53.9593914  38.9323536  87.3624759  57.5423984  17.5964688  84.0466905
  56.7756379  17.0423175  84.1923587  57.9534689  17.6686557  84.9081056
  49.5465745  23.8849484  98.1372086  50.4097206  23.5286289  98.3475411
  48.9731155  23.5463379  98.8247490  69.3914122  45.5151340  88.9434487
  70.0292532  45.3958088  88.2397827  69.2734965  46.4632184  89.0022439
  66.2003828  45.4678768  88.8796012  65.8622339  45.3519833  87.9916547
  67.0693596  45.0669933  88.8597018  62.0590644  47.3214245  84.8692903
  61.4955509  47.2304182  84.1009190  61.9443039  46.5014149  85.3495395
  66.6823611  46.6213620  94.8382217  66.6712252  46.2266418  93.9662721
  66.8444250  45.8879693  95.4315989  59.6055076  48.8165436  87.7077123
  60.3976367  48.4756261  87.2923422  59.8451726  48.9260411  88.6279276
  67.6390202  50.9885212  80.1807368  66.9878182  51.5739293  79.7941381
  68.4334565  51.5191407  80.2402405  61.5645829  48.0774350  80.5794502
  62.3376705  47.5303337  80.4407378  61.9171228  48.9418599  80.7908963
  63.4030872  49.4050732  93.7861401  63.1120738  50.3096363  93.6708068
  64.0387856  49.4467259  94.5005471  64.3287079  46.7827580  90.3762761
  64.9250651  46.5583603  89.6619724  64.3862050  46.0412326  90.9788209
  63.9012107  44.2367016  78.2112952  64.1537628  43.7148537  77.4496415
  62.9636666  44.0733161  78.3139635  68.9455390  43.2402794  86.0187695
  69.7318479  42.8222217  85.6678112  69.2094094  44.1448886  86.1869343
  69.1165467  48.6775644  80.7176352  68.4811300  48.7510271  81.4297257
  68.7862874  49.2669243  80.0395431  74.3463817  43.1778027  86.9220674
  75.0788989  42.6077244  87.1558503  73.5903173  42.7899628  87.3627179
  63.6208396  46.1395122  80.4137327  63.5044654  45.4640025  81.0818411
  63.7310656  45.6527496  79.5969480  65.9639937  45.6005269  84.1184016
  65.5998144  45.0735890  84.8296938  66.8207053  45.2103738  83.9450501
  71.8689238  36.8899601  91.3815282  71.5372562  37.7595012  91.1576497
  71.2734851  36.5735885  92.0609313  65.6045424  40.6295168  79.1145365
  65.7719826  41.4975405  79.4815836  65.4142593  40.7922450  78.1906654
  68.3620757  49.0912147  90.7811195  68.0621480  49.9937186  90.6727002
  68.0171817  48.8244331  91.6332348  61.8133239  45.5425944  86.8147899
  60.8883735  45.4102158  87.0225591  62.0617652  46.3220163  87.3117842
  71.7617901  41.6094688  88.4608632  70.8534778  41.5410096  88.1667393
  71.7105497  42.0866632  89.2890458  65.5834645  43.0852826  80.0992031
  65.4634270  43.5309877  80.9377512  64.8887233  43.4338144  79.5405570
  59.1742050  45.1859218  87.6491688  59.3034431  45.4393697  88.5631100
  58.4939501  45.7786926  87.3296343  63.3441537  55.8556468  83.7482163
  63.2665567  56.8064293  83.8270643  62.7403180  55.5102340  84.4057089
  65.8358767  43.0284333  96.4043530  65.0592101  43.5878253  96.3946394
  66.4749330  43.5141116  96.9258400  73.6279547  39.8111126  90.2386506
  72.9853928  40.1043659  89.5926301  73.1234476  39.6964046  91.0439703
  71.2819711  43.5574299  80.9272365  72.1937567  43.7901686  80.7520063
  70.7729358  44.1411343  80.3647444  64.0905139  45.8369786  95.9661497
  64.8319823  46.3754830  95.6896320  63.3842124  46.4636075  96.1233048
  69.5660479  47.9798927  94.5633658  69.9743835  47.5381337  93.8188290
  68.8437740  47.4051554  94.8167851  65.9191549  42.9171534  91.9367215
  66.7652744  43.3410947  92.0801864  65.8590186  42.2605158  92.6305778
  69.8889293  48.5400118  88.3185947  69.2598156  48.7045832  87.6162015
  69.5014955  48.9541727  89.0896911  73.7678525  49.4754555  85.6730311
  73.0829563  49.8553457  85.1227344  73.8522374  50.0849882  86.4062258
  69.0690994  40.5775902  93.5948389  68.8251926  41.3317963  93.0582664
  69.3450925  40.9561250  94.4295636  71.0229457  47.1214514  92.2725654
  71.2346352  47.7646274  91.5960035  70.9759205  46.2876831  91.8047584
  68.6255686  39.7332335  89.1762226  67.7640165  40.0313589  89.4678964
  68.6518120  39.9502734  88.2443259  65.4417255  48.2774526  85.5836032
  65.9055601  48.5562229  84.7940654  65.1774053  47.3757970  85.4009123
  62.3341336  47.8246007  88.5215795  62.9042693  48.2533276  87.8833280
  62.9249448  47.5428592  89.2199981  64.3786141  44.3997678  82.3925597
  65.0810185  44.8518722  82.8599524  64.0466770  43.7581497  83.0205490
  62.8266503  42.9909435  96.7676807  62.1965163  43.6725716  97.0012203
  62.7202591  42.8792516  95.8229945  58.1211475  42.6581231  87.6942731
  57.3310529  42.9138759  87.2182841  58.6122723  43.4729569  87.7994771
  72.1375285  49.9986470  90.4448012  72.9592728  49.5966657  90.1630693
  72.1337688  49.8954704  91.3964127  60.0726221  43.0225810  84.6526207
  59.2757384  43.1344504  85.1709703  59.8451813  43.3612462  83.7867098
  65.9031888  49.5470513  92.6008722  65.9676321  50.0090920  93.4366894
  65.1942812  48.9167878  92.7291032  56.4049178  42.9111721  90.1257721
  56.6557217  43.7958731  90.3915297  56.9408727  42.7316323  89.3532813
  80.2281278  46.3425218  86.7932983  79.4744986  45.7732616  86.6376987
  80.3628819  46.3087883  87.7403618  65.6179906  51.2138621  82.4687702
  65.4825581  52.0590156  82.8972550  66.1589718  51.4157898  81.7053636
  62.1047245  37.2930200  99.1302058  61.7114191  36.7396399  99.8049702
  62.9213386  37.6040779  99.5208575  59.0709303  48.7314059  83.0415627
  59.5833824  49.5257309  83.1921192  59.7232016  48.0340349  82.9749229
  60.8804188  51.8479815  85.1238381  61.0570816  52.7697780  84.9359365
  61.6761021  51.5338234  85.5532760  65.0215206  38.7088080  96.7222314
  65.7624920  39.3095233  96.6426777  65.2533129  37.9665717  96.1640357
  60.1656544  43.8944447  95.0000544  60.0510060  42.9929704  95.3007643
  59.3101062  44.1408144  94.6485360  67.2448382  51.8362187  96.5988044
  66.8012236  51.0498566  96.2808949  67.9065596  52.0241338  95.9331935
  62.0035503  53.3657989  91.1248723  62.5542929  53.2375052  90.3525717
  61.1646979  53.6652878  90.7743616  69.3429620  52.1164987  94.6269446
  69.3248096  52.9373868  94.1349715  70.2649540  51.9919062  94.8519587
  65.8002674  49.6309117  95.4692954  66.3331011  48.8697405  95.2392262
  65.2716756  49.3382768  96.2117109  68.9672369  34.7369183  90.9986596
  68.6236639  35.6270824  90.9225706  69.3351332  34.5470840  90.1356181
  57.0358220  47.0602713  83.8175198  57.8733442  47.4699721  83.6008906
  57.2136488  46.1202155  83.7875392  68.9322652  44.7277794  79.5059031
  68.4169276  45.4982398  79.7447418  68.6599961  44.0542930  80.1292092
  66.5169763  39.5727494  84.5644269  65.6611359  39.1834345  84.3849908
  66.9296715  39.6519455  83.7044055  68.0468910  37.1073838  88.9635829
  67.5433705  37.0703973  88.1503634  68.3399517  38.0166580  89.0232486
  64.2911796  37.1912567  87.9702011  65.1564792  36.9955376  87.6107900
  64.3589305  36.9622919  88.8971368  73.9056926  47.4810148  81.4412204
  73.1286369  47.1421308  80.9967366  74.5848407  47.4862771  80.7667169
  68.7208955  42.6004886  81.3318812  68.4159091  42.9151035  82.1828955
  69.6739397  42.6786306  81.3746145  67.1655387  48.7595109  82.9811766
  66.6376749  48.0247869  82.6685004  66.6642890  49.5369785  82.7351734
  72.1448233  46.9544130  88.0978812  71.4871908  47.6443391  88.1858941
  72.9488632  47.3440561  88.4412799  61.8974115  39.4214775  85.3418378
  62.4717867  39.1989957  84.6091571  62.4845097  39.4903470  86.0946979
  70.9553692  45.3088502  86.1482754  71.4685574  45.9418494  86.6504464
  71.6054916  44.7089698  85.7826114  62.2243702  41.4519236  79.3614263
  61.3881014  41.7893923  79.6823538  62.0848471  41.3168216  78.4241400
  64.1996782  36.2956024  84.0693447  63.5461195  35.9805041  83.4450062
  64.1577257  35.6731765  84.7953270  65.3107987  46.5775319  75.9846739
  64.4035049  46.3464573  76.1837888  65.8079019  45.7812939  76.1720721
  68.2176066  55.2872827  78.9043425  67.5437765  55.5904523  79.5128383
  68.6041888  56.0901907  78.5548882  67.4334523  42.7837958  88.3941095
  66.5157084  43.0052905  88.2362783  67.8494666  42.8584268  87.5352802
  68.2169571  44.1829373  83.5243775  68.9641390  44.6950771  83.2150897
  68.4861160  43.8613426  84.3848168  66.4896221  46.6787914  80.5070729
  65.5807440  46.3946947  80.6043199  66.5191305  47.0986993  79.6474036
  71.7215488  50.2894504  84.2761897  71.2677815  49.4485414  84.3327087
  71.0909455  50.9255902  84.6136677  70.6648408  41.2186490  85.5062564
  69.9271165  40.7063876  85.8372807  70.9175181  40.7786871  84.6945841
  70.1648427  52.1271000  85.2111715  70.4571402  52.6876057  84.4924081
  70.6747048  52.4199561  85.9664874  70.7660035  33.9962742  86.1004334
  71.0718912  33.1360105  85.8130249  71.4912640  34.5880362  85.9003327
  57.0584391  44.3993428  84.4885931  56.8608791  43.8062789  83.7636998
  56.5031055  44.0945638  85.2061870  65.0381115  44.2916535  86.6080525
  65.0929725  43.3390371  86.5323001  64.2272317  44.4475974  87.0921823
  66.1872309  48.2196658  77.8458808  65.7491738  47.5032517  77.3864445
  66.9282749  48.4472773  77.2843899  62.9773475  42.9093595  84.3670903
  62.1641340  43.2087765  84.7736096  63.4732469  42.5149283  85.0845386
  65.1282053  52.9051351  86.3005168  65.0858231  53.1312198  85.3713700
  66.0444751  52.6714726  86.4490969  68.5747686  43.3735419  93.1985797
  68.9297074  43.6006892  94.0580263  69.2219818  43.7053796  92.5763053
  74.3045423  46.4953855  83.9035126  74.1663322  46.6855451  82.9756316
  73.9481642  47.2573238  84.3603177  62.4687549  40.4811950  89.9832138
  63.1086929  40.3400709  89.2855102  61.6365080  40.1946463  89.6070740
  74.3314803  48.5630382  88.9146398  74.7651310  48.4705671  89.7629452
  75.0446384  48.5387882  88.2766414  63.2447853  49.7814380  86.0967131
  64.0388452  49.2864701  85.8949706  62.5339546  49.2532244  85.7334836
  68.0642698  52.1632476  90.4479498  68.1179720  52.7323412  91.2157214
  67.1957479  52.3334361  90.0833536  59.5530617  43.9257462  82.1726884
  58.6228205  43.8641918  82.3896846  59.6488089  43.4033415  81.3763525
  59.4716166  40.4512275  84.7605125  59.7322983  41.3657608  84.6514286
  60.2933338  39.9836718  84.9101738  60.9441091  41.8650032  91.9303950
  61.6164145  41.6567394  91.2816599  60.1170878  41.6672118  91.4909182
  75.1930353  48.6054083  91.4479283  75.3866243  49.5099893  91.6938558
  75.0930971  48.1461502  92.2817868  66.8466663  38.4911973  93.9469611
  66.1994578  39.1901923  93.8534087  67.6167679  38.9248117  94.3145859
  70.2545461  48.7560825  97.0220164  70.1030968  48.5271377  96.1050248
  70.2450141  49.7131427  97.0351509  67.0230798  46.3292738  92.0066430
  67.9522858  46.4803898  91.8335398  66.6021828  46.4176759  91.1515077
  65.8219129  50.3543402  89.7764968  65.6830215  49.9862187  90.6490906
  65.0333726  50.8691042  89.6048926  66.4167281  55.4552499  81.1190504
  66.5919037  54.9840542  81.9336127  65.7300069  56.0818265  81.3471765
  67.3724345  49.7325005  87.1653806  67.0374177  49.6925775  88.0611456
  66.8728290  49.0669721  86.6924216  61.3468588  45.1392635  92.6906387
  61.2088386  44.4072874  93.2917926  62.2573512  45.0501535  92.4090575
  70.3083536  47.0781039  77.4390865  69.6912707  46.3527868  77.3423918
  69.8400025  47.8390400  77.0957940  63.9750889  44.8512595  92.1790067
  64.6850508  44.2105787  92.1376685  63.9320197  45.1025489  93.1016247
  71.9637668  51.7879948  95.0996646  71.9050214  51.1039168  94.4327229
  72.3657186  52.5298938  94.6477272  62.6879823  41.8377812  93.9985706
  62.1517180  41.3868551  94.6507302  62.0996532  41.9723721  93.2556170
  60.9828367  58.6041862  87.8930365  61.2224965  59.2360386  88.5709383
  60.1397563  58.2529902  88.1795724  62.0982082  41.2966464  76.5612170
  61.2211548  41.1755265  76.1974416  62.5739835  40.5052542  76.3091058
  71.9655075  49.7519532  93.3310625  71.0781854  49.4145454  93.4537024
  72.5353626  49.0202563  93.5679391  53.6184222  46.0843624  86.6553677
  54.3055262  45.7705354  86.0674692  53.4632351  46.9884988  86.3820928
  58.4218944  40.9733820  91.0838701  58.3377133  40.3659490  90.3489110
  57.6001651  41.4642838  91.0848197  65.4956228  54.4120984  90.2971869
  65.4226400  55.2175956  90.8091173  65.0533622  54.6112950  89.4719890
  65.2846008  53.6492754  83.8074690  64.5013530  54.1914434  83.9012915
  65.9838753  54.1666734  84.2068931  68.5942658  39.4587384  86.4508896
  69.0911358  38.7057346  86.1309966  67.8229640  39.4951700  85.8852105
  76.4472416  45.1627749  88.0927187  76.4362292  46.0452465  87.7221120
  75.5789795  44.8099300  87.8981724  67.9554912  54.3107818  92.4530027
  68.6682884  54.9455283  92.3805929  67.4644941  54.4071684  91.6370029
  69.6772439  48.2159071  84.0247319  68.7428718  48.3360533  83.8552023
  69.8549107  47.3131538  83.7607329  65.1777627  41.6004767  86.1780580
  64.8075415  41.0475807  86.8661486  65.6736719  40.9962900  85.6255580
  73.0644990  44.0576390  84.5597353  73.5305442  44.8904382  84.4857656
  73.5152491  43.5921372  85.2642612  63.0066826  52.0602262  93.2735598
  63.7076285  52.6938745  93.4264992  62.5361941  52.4016993  92.5131237
  71.1321221  50.4020211  81.5583505  71.4081065  50.2876806  82.4677379
  70.2625720  50.0037696  81.5195678  71.0361653  36.4256977  88.5988254
  70.1224733  36.6561204  88.7670461  71.4654754  36.5095421  89.4502287
  70.8068112  44.6146869  91.0988148  70.1539562  44.8622777  90.4440601
  71.1848491  43.8011007  90.7650626  67.7675285  54.6506562  85.2016319
  67.9497680  53.8328218  85.6644071  68.5908271  54.8674255  84.7641209
  68.1017451  53.5774747  82.4631367  68.6305217  53.0667202  81.8501529
  68.3645670  53.2617278  83.3276900  66.8555685  45.3566680  97.5854186
  66.1796322  45.2560809  98.2556561  67.6783318  45.2005894  98.0490183
  58.6034544  51.5938617  90.2066701  59.1887980  50.8482305  90.3394605
  58.4059382  51.9042573  91.0903365  61.4573199  54.6289864  85.2229143
  60.7883574  55.1135992  84.7393183  61.3186069  54.8759085  86.1372522
  53.1952198  44.1644217  88.9271144  53.2336298  43.6307808  89.7208262
  52.6892491  43.6379422  88.3082121  65.5978467  56.6633608  91.8211802
  66.1496775  56.8265229  92.5860887  65.9384661  57.2538045  91.1491826
  60.5742961  39.0108757  92.4233686  60.6384287  39.8723588  92.0111084
  60.5110081  38.3982759  91.6906045  60.0495233  41.0831890  96.0706720
  60.6767272  40.7008967  96.6844245  59.1923152  40.8646092  96.4362413
  70.4489342  51.4894865  97.6760456  70.9929246  52.1024823  97.1815411
  69.8676187  52.0474444  98.1927469  56.8260776  42.8908319  82.0025075
  57.1214217  41.9818997  81.9492129  55.9248812  42.8696058  81.6806078
  68.7346855  54.6115583  88.8075484  68.6097994  53.8105323  88.2986429
  69.3925946  55.1061776  88.3189454  60.3555023  40.9664316  87.9852624
  59.6341609  41.5800283  87.8460097  61.1448279  41.5022080  87.9069270
  70.7981763  52.4124603  90.4355034  69.8512099  52.2929954  90.3633361
  71.1464536  51.5247101  90.5181295  63.1581336  38.3018742  94.2593276
  63.6815738  38.5481039  95.0219585  62.9393670  39.1338777  93.8396413
  58.5548618  40.5722417  82.1264400  58.2261324  39.6919796  81.9439506
  58.9087988  40.5170085  83.0140790  67.8028196  52.2077319  86.6359386
  67.6553159  51.2794027  86.8166956  68.6281690  52.2297410  86.1516461
  61.6690441  40.8595386  82.4939878  62.0086513  41.3881308  81.7718487
  62.1162561  41.1975793  83.2698445  71.4062318  53.0305878  87.7224259
  72.3308866  52.8248739  87.5848710  71.2377622  52.7822279  88.6313600
  64.3633881  39.2432437  91.9442946  64.0230702  38.4440250  92.3463626
  63.6572888  39.5434148  91.3719779  65.0150353  36.3281750  90.3970269
  65.8376423  35.8542228  90.2749160  65.2588417  37.1072233  90.8968956
  63.6558588  39.3570008  80.6933171  64.3766950  39.7351261  80.1896888
  63.0323892  40.0758885  80.7968149  67.7989711  40.0615157  81.6291503
  68.0153325  40.9439795  81.3280331  67.3183778  39.6701370  80.8997145
  62.5388932  43.0200870  88.2062248  62.3933513  43.3341173  89.0986529
  62.0614136  43.6385771  87.6533146  64.3985315  40.0103418  88.2543137
  64.3846884  39.1144512  87.9175435  65.1157743  40.0174082  88.8881423
  66.2511446  40.4440758  90.2996265  65.9929223  41.3657829  90.2980595
  65.7196486  40.0471193  90.9896729  57.0134594  45.5606215  91.1449909
  56.4688062  46.3366023  91.2770183  57.8913944  45.9077019  90.9869030
  63.8022211  38.8917799  83.5230708  63.9238122  37.9634445  83.7221595
  63.5124253  38.9056485  82.6109023  66.6713401  36.5772709  86.6597427
  66.6935098  36.6412042  85.7049407  67.0881460  35.7377218  86.8537934
  77.0497026  46.3127969  84.6976650  77.4928172  45.5635294  84.2995773
  76.1723536  46.3038105  84.3150382  72.1832807  52.8658310  80.1783248
  72.8783712  53.4865003  80.3970563  72.5255957  52.0153661  80.4535626
  57.8000616  44.6876111  94.0380066  57.0582352  44.8358746  94.6244696
  57.4793360  44.9484377  93.1746815  74.0824230  50.3158016  81.7070579
  74.6075554  50.6545288  80.9819899  73.9946583  49.3805031  81.5233714
  65.7444279  54.2292089  93.8360456  66.0531405  53.9841236  94.7083155
  66.5419761  54.4338728  93.3479326  65.7664891  56.3829999  86.0665832
  65.3269881  55.8906378  86.7598689  66.5173008  55.8402966  85.8257908
  58.2457230  52.5741540  86.0690461  59.0715250  52.2745312  85.6889104
  57.8951282  51.8049162  86.5180249  63.2138763  51.9268008  88.1388134
  62.5918772  51.2638713  87.8390362  63.8843630  51.9529140  87.4561782
  56.4465835  50.4927866  87.0279394  55.6097743  50.0650040  86.8463395
  56.4189480  50.6860309  87.9650185  63.2863290  40.4049796  97.7320640
  63.3351446  41.2811919  97.3498410  63.8285805  39.8627189  97.1592283
  73.7718136  50.9490919  97.0121777  72.9813680  50.9315058  96.4726277
  73.5351491  51.4879213  97.7670814  73.8916011  47.7983386  94.3254506
  73.9414016  47.6333393  95.2670029  73.7829934  46.9310645  93.9352387
  62.7752270  50.4771931  81.6146595  62.9240390  51.1607396  80.9613267
  63.5818713  50.4577021  82.1296050  71.1819774  43.7814314  95.6413812
  72.0829636  43.6420778  95.3497810  71.2567748  43.9468768  96.5811990
  65.5162579  41.1581168  94.4866999  64.6465888  41.4514734  94.2149587
  65.7522059  41.7421613  95.2074262  75.3934208  50.2180327  94.5696527
  75.1019016  50.5810308  95.4059988  74.7806339  49.5047335  94.3909859
  76.5929890  47.7833207  87.0899098  77.4276782  48.2223011  87.2536658
  76.7289019  47.3071860  86.2707343  73.6421396  45.3412942  93.0376585
  74.1175518  45.5340588  92.2295437  72.7186962  45.3972128  92.7919969
  60.5304903  46.5037109  82.6207664  60.2850945  45.5999439  82.8187874
  60.7000817  46.5054259  81.6787142  68.2201613  37.3760785  92.0032419
  68.7383557  38.1121812  91.6778908  67.8656745  37.6824779  92.8379178
  59.8000550  42.2365466  80.1193825  59.1069795  42.3109821  79.4633861
  59.5552302  41.4725810  80.6415342  68.4714207  33.7961068  87.5233316
  68.7515961  33.1284257  88.1493742  69.2564814  33.9890163  87.0107980
  66.2747675  52.9720062  79.0858342  65.7021642  53.5910249  78.6328814
  66.8480469  53.5219423  79.6198264  72.3423065  42.2178702  91.2704891
  73.2940488  42.3176799  91.2917115  72.1726516  41.4256970  91.7802975
  70.3637445  39.3034285  91.4564292  69.7687377  39.5839298  90.7610780
  70.0787141  39.7928186  92.2281033  69.4944935  53.2557212  80.2166924
  70.4275608  53.1902773  80.4199800  69.4068148  54.0913479  79.7581457
  72.1232952  52.5723082  77.1770872  72.0446583  52.2382946  78.0706630
  72.9442619  53.0644850  77.1762344  74.8211143  45.4384821  90.3847191
  74.7887463  44.5000822  90.5706874  75.4311767  45.5168858  89.6513015
  66.6594474  44.3080874  76.4274395  67.6053579  44.1787083  76.4962813
  66.2808719  43.5695536  76.9043823  74.9705631  42.2295865  90.4305474
  74.4544680  41.4454322  90.2435403  75.8545580  41.9014582  90.5951993
  72.6316358  35.9736880  86.3901286  72.4341180  35.6651969  87.2744618
  73.2416064  36.6998519  86.5199216  80.6387693  46.5000828  89.5253227
  81.3691081  46.2386116  90.0860931  80.0294638  45.7629550  89.5655295
  78.7202990  44.6408691  90.1227679  77.9936154  44.5064656  89.5144170
  78.3050277  44.9485520  90.9284397  66.5433166  48.3598621  97.8875052
  67.4636176  48.5377220  98.0815098  66.5082749  47.4154666  97.7354751
  64.8437391  42.2330851  76.3629280  63.9368846  41.9363964  76.4391993
  65.1213372  41.9360669  75.4963566  55.7615331  43.5537214  86.8128326
  55.4418116  42.7002522  86.5202700  55.2148760  43.7685792  87.5686294
  59.5395239  46.2699655  90.5297833  59.7581249  47.2016763  90.5485867
  59.9521013  45.9107630  91.3152637  66.4599457  36.7767741  82.5173521
  65.6500185  36.4314826  82.8928767  67.1483874  36.4675284  83.1061133
  68.3890005  35.8545787  84.1397818  68.9421044  36.2741241  84.7987841
  68.6260091  34.9281535  84.1820774  64.4123104  41.8432861  99.9200582
  64.3119831  42.7927218  99.8512673  64.1944646  41.5151100  99.0476652
  63.6136176  39.0917786  76.5041259  64.4755340  39.4172684  76.7637076
  63.7986520  38.3049282  75.9914325  55.6303591  47.1740126  88.7821448
  54.9367063  46.7594079  88.2691402  56.3776582  47.2160662  88.1854867
  71.7668812  37.9646313  83.6476482  71.1867481  38.6231117  83.2654534
  71.5004745  37.1423657  83.2363899  70.2172378  37.3651370  85.8497802
  70.7172157  37.4767905  85.0412121  70.8607986  37.0612423  86.4898611
  64.2754374  45.2730000  98.7365643  63.7921456  46.0730360  98.9429532
  64.3615313  45.2837945  97.7833087  57.5440334  47.1058380  86.6587463
  57.5211022  47.2046067  85.7069346  57.8540970  47.9523530  86.9804629
  60.2027712  49.1634535  90.7734077  61.1570965  49.1318477  90.7064009
  60.0040235  48.7025158  91.5884303  60.7927094  47.7335651  93.3404875
  61.6119983  48.2279729  93.3639712  61.0663902  46.8167619  93.3122442
  70.5493690  40.1246403  82.7032830  69.6619545  40.4096054  82.4853025
  70.9647679  39.9640166  81.8560107  73.9008226  40.1492924  86.4187170
  74.6768616  40.6389376  86.6911786  73.1756360  40.5750978  86.8759039
  76.3380785  40.8620543  87.4761110  76.9325276  40.6216279  86.7654418
  76.4107369  40.1427674  88.1034646  58.5577941  54.7054154  87.7904275
  58.4232409  53.9454555  87.2242273  58.1410003  55.4295054  87.3233064
  69.6936904  49.8891078  76.7980850  70.3972754  50.0941080  77.4138506
  68.9699552  50.4567839  77.0629934  70.5234714  45.6400939  82.9183120
  70.4669915  46.0969490  82.0790753  71.0763056  44.8791623  82.7405963
  74.3339520  41.4290671  83.7433240  74.0776454  41.0287306  84.5741448
  73.7092388  42.1434465  83.6183379  78.6451858  44.1686744  86.2504531
  78.0851416  44.2379933  87.0236093  78.0395361  43.9927729  85.5304028
  61.7147066  55.6023471  88.0022718  61.5979451  56.5468904  87.9001408
  60.8939513  55.2997033  88.3908517  71.6023601  50.3273607  78.8479310
  72.4369205  49.8954805  78.6656785  71.4407944  50.1555620  79.7756205
  71.2569493  46.8305720  80.2135650  71.2018297  46.6649991  79.2724094
  70.6315548  47.5381753  80.3697839  56.0462008  42.0673784  94.0397072
  56.6920872  41.5572738  94.5284297  55.8379159  42.8042466  94.6140497
  68.5715400  49.1354632  99.5389212  69.4406560  49.3095284  99.1775847
  68.0922152  49.9549049  99.4164942  64.5665619  36.3313829  79.7920968
  64.5544288  37.2755669  79.9489239  65.4589041  36.1483974  79.4980429
  62.7401581  56.2551733  91.2178646  63.6428827  56.2875343  91.5345141
  62.5138951  55.3252184  91.2324982  64.4955183  55.0082719  87.8788725
  63.5450814  55.0084581  87.7653097  64.7987669  54.2615454  87.3624759
  68.3817738  32.9256606  84.0466905  67.6150134  32.3715092  84.1923587
  68.7928443  32.9978474  84.9081056  60.3859499  39.2141402  98.1372086
  61.2490961  38.8578206  98.3475411  59.8124910  38.8755296  98.8247490
  80.2307876  60.8443258  88.9434487  80.8686286  60.7250005  88.2397827
  80.1128719  61.7924102  89.0022439  77.0397582  60.7970686  88.8796012
  76.7016094  60.6811751  87.9916547  77.9087351  60.3961851  88.8597018
  72.8984398  62.6506162  84.8692903  72.3349263  62.5596099  84.1009190
  72.7836793  61.8306067  85.3495395  77.5217365  61.9505538  94.8382217
  77.5106006  61.5558336  93.9662721  77.6838005  61.2171610  95.4315989
  70.4448830  64.1457354  87.7077123  71.2370122  63.8048179  87.2923422
  70.6845480  64.2552329  88.6279276  74.2424627  64.7342650  93.7861401
  73.9514492  65.6388280  93.6708068  74.8781611  64.7759177  94.5005471
  75.1680833  62.1119498  90.3762761  75.7644406  61.8875520  89.6619724
  75.2255805  61.3704244  90.9788209  79.7849145  58.5694712  86.0187695
  80.5712234  58.1514135  85.6678112  80.0487849  59.4740804  86.1869343
  79.9559222  64.0067562  80.7176352  79.3205055  64.0802189  81.4297257
  79.6256628  64.5961161  80.0395431  85.1857572  58.5069945  86.9220674
  85.9182744  57.9369162  87.1558503  84.4296927  58.1191545  87.3627179
  76.8033691  60.9297186  84.1184016  76.4391899  60.4027807  84.8296938
  77.6600807  60.5395655  83.9450501  82.7082992  52.2191519  91.3815282
  82.3766317  53.0886930  91.1576497  82.1128605  51.9027803  92.0609313
  76.4439178  55.9587086  79.1145365  76.6113581  56.8267323  79.4815836
  76.2536347  56.1214368  78.1906654  79.2014512  64.4204065  90.7811195
  78.9015235  65.3229104  90.6727002  78.8565571  64.1536248  91.6332348
  72.6526993  60.8717862  86.8147899  71.7277490  60.7394076  87.0225591
  72.9011406  61.6512081  87.3117842  82.6011655  56.9386605  88.4608632
  81.6928533  56.8702014  88.1667393  82.5499251  57.4158550  89.2890458
  70.0135804  60.5151135  87.6491688  70.1428185  60.7685614  88.5631100
  69.3333255  61.1078843  87.3296343  74.1835291  71.1848385  83.7482163
  74.1059321  72.1356210  83.8270643  73.5796935  70.8394258  84.4057089
  76.6752521  58.3576251  96.4043530  75.8985855  58.9170171  96.3946394
  77.3143084  58.8433034  96.9258400  84.4673302  55.1403044  90.2386506
  83.8247682  55.4335577  89.5926301  83.9628230  55.0255964  91.0439703
  82.1213465  58.8866217  80.9272365  83.0331322  59.1193604  80.7520063
  81.6123113  59.4703261  80.3647444  74.9298893  61.1661704  95.9661497
  75.6713578  61.7046748  95.6896320  74.2235879  61.7927993  96.1233048
  80.4054233  63.3090845  94.5633658  80.8137589  62.8673255  93.8188290
  79.6831495  62.7343472  94.8167851  76.7585303  58.2463451  91.9367215
  77.6046498  58.6702865  92.0801864  76.6983941  57.5897076  92.6305778
  80.7283048  63.8692035  88.3185947  80.0991910  64.0337749  87.6162015
  80.3408710  64.2833645  89.0896911  84.6072280  64.8046473  85.6730311
  83.9223318  65.1845374  85.1227344  84.6916129  65.4141800  86.4062258
  79.9084748  55.9067820  93.5948389  79.6645680  56.6609880  93.0582664
  80.1844679  56.2853167  94.4295636  81.8623211  62.4506432  92.2725654
  82.0740107  63.0938192  91.5960035  81.8152960  61.6168749  91.8047584
  79.4649440  55.0624253  89.1762226  78.6033919  55.3605506  89.4678964
  79.4911875  55.2794652  88.2443259  76.2811010  63.6066443  85.5836032
  76.7449355  63.8854146  84.7940654  76.0167808  62.7049888  85.4009123
  73.1735091  63.1537925  88.5215795  73.7436448  63.5825193  87.8833280
  73.7643203  62.8720510  89.2199981  75.2179896  59.7289596  82.3925597
  75.9203939  60.1810639  82.8599524  74.8860524  59.0873415  83.0205490
  73.6660257  58.3201352  96.7676807  73.0358918  59.0017633  97.0012203
  73.5596345  58.2084434  95.8229945  68.9605230  57.9873148  87.6942731
  68.1704284  58.2430677  87.2182841  69.4516477  58.8021486  87.7994771
  82.9769039  65.3278388  90.4448012  83.7986483  64.9258575  90.1630693
  82.9731442  65.2246622  91.3964127  76.7425643  64.8762431  92.6008722
  76.8070075  65.3382838  93.4366894  76.0336567  64.2459796  92.7291032
  67.2442933  58.2403639  90.1257721  67.4950971  59.1250649  90.3915297
  67.7802481  58.0608240  89.3532813  91.0675032  61.6717136  86.7932983
  90.3138741  61.1024534  86.6376987  91.2022573  61.6379801  87.7403618
  72.9441000  52.6222118  99.1302058  72.5507946  52.0688317  99.8049702
  73.7607140  52.9332697  99.5208575  71.7197942  67.1771733  85.1238381
  71.8964571  68.0989697  84.9359365  72.5154776  66.8630152  85.5532760
  75.8608961  54.0379997  96.7222314  76.6018674  54.6387150  96.6426777
  76.0926884  53.2957635  96.1640357  71.0050299  59.2236365  95.0000544
  70.8903814  58.3221622  95.3007643  70.1494817  59.4700061  94.6485360
  78.0842137  67.1654105  96.5988044  77.6405991  66.3790483  96.2808949
  78.7459350  67.3533255  95.9331935  72.8429258  68.6949906  91.1248723
  73.3936683  68.5666970  90.3525717  72.0040734  68.9944795  90.7743616
  80.1823375  67.4456905  94.6269446  80.1641850  68.2665786  94.1349715
  81.1043295  67.3210980  94.8519587  76.6396429  64.9601034  95.4692954
  77.1724766  64.1989322  95.2392262  76.1110510  64.6674686  96.2117109
  79.8066124  50.0661100  90.9986596  79.4630393  50.9562742  90.9225706
  80.1745086  49.8762758  90.1356181  67.8751974  62.3894631  83.8175198
  68.7127196  62.7991639  83.6008906  68.0530242  61.4494073  83.7875392
  79.7716407  60.0569711  79.5059031  79.2563030  60.8274316  79.7447418
  79.4993715  59.3834847  80.1292092  77.3563518  54.9019412  84.5644269
  76.5005114  54.5126262  84.3849908  77.7690469  54.9811373  83.7044055
  78.8862664  52.4365755  88.9635829  78.3827460  52.3995891  88.1503634
  79.1793271  53.3458498  89.0232486  75.1305550  52.5204485  87.9702011
  75.9958547  52.3247294  87.6107900  75.1983059  52.2914837  88.8971368
  84.7450681  62.8102066  81.4412204  83.9680124  62.4713225  80.9967366
  85.4242162  62.8154689  80.7667169  79.5602710  57.9296803  81.3318812
  79.2552845  58.2442953  82.1828955  80.5133152  58.0078223  81.3746145
  78.0049142  64.0887027  82.9811766  77.4770503  63.3539786  82.6685004
  77.5036644  64.8661703  82.7351734  82.9841988  62.2836047  88.0978812
  82.3265662  62.9735309  88.1858941  83.7882387  62.6732479  88.4412799
  81.7947446  60.6380420  86.1482754  82.3079328  61.2710412  86.6504464
  82.4448670  60.0381615  85.7826114  75.0390537  51.6247942  84.0693447
  74.3854949  51.3096959  83.4450062  74.9971011  51.0023682  84.7953270
  79.0569821  70.6164744  78.9043425  78.3831519  70.9196441  79.5128383
  79.4435643  71.4193825  78.5548882  78.2728277  58.1129875  88.3941095
  77.3550839  58.3344822  88.2362783  78.6888421  58.1876186  87.5352802
  79.0563325  59.5121291  83.5243775  79.8035144  60.0242688  83.2150897
  79.3254915  59.1905344  84.3848168  77.3289975  62.0079832  80.5070729
  76.4201194  61.7238865  80.6043199  77.3585059  62.4278910  79.6474036
  82.5609243  65.6186421  84.2761897  82.1071570  64.7777331  84.3327087
  81.9303209  66.2547820  84.6136677  81.5042162  56.5478407  85.5062564
  80.7664919  56.0355794  85.8372807  81.7568936  56.1078789  84.6945841
  81.0042182  67.4562918  85.2111715  81.2965156  68.0167975  84.4924081
  81.5140802  67.7491479  85.9664874  81.6053790  49.3254659  86.1004334
  81.9112666  48.4652023  85.8130249  82.3306394  49.9172280  85.9003327
  67.8978146  59.7285346  84.4885931  67.7002545  59.1354707  83.7636998
  67.3424810  59.4237556  85.2061870  75.8774869  59.6208452  86.6080525
  75.9323479  58.6682289  86.5323001  75.0666071  59.7767892  87.0921823
  75.9675807  68.2343269  86.3005168  75.9251986  68.4604115  85.3713700
  76.8838506  68.0006644  86.4490969  79.4141441  58.7027337  93.1985797
  79.7690829  58.9298810  94.0580263  80.0613572  59.0345713  92.5763053
  85.1439178  61.8245773  83.9035126  85.0057076  62.0147369  82.9756316
  84.7875397  62.5865155  84.3603177  73.3081304  55.8103868  89.9832138
  73.9480683  55.6692627  89.2855102  72.4758835  55.5238381  89.6070740
  85.1708557  63.8922300  88.9146398  85.6045064  63.7997589  89.7629452
  85.8840138  63.8679800  88.2766414  74.0841608  65.1106298  86.0967131
  74.8782206  64.6156618  85.8949706  73.3733300  64.5824161  85.7334836
  78.9036452  67.4924394  90.4479498  78.9573475  68.0615330  91.2157214
  78.0351234  67.6626279  90.0833536  71.7834846  57.1941950  91.9303950
  72.4557899  56.9859312  91.2816599  70.9564632  56.9964036  91.4909182
  86.0324107  63.9346000  91.4479283  86.2259997  64.8391811  91.6938558
  85.9324725  63.4753419  92.2817868  77.6860418  53.8203891  93.9469611
  77.0388333  54.5193840  93.8534087  78.4561433  54.2540035  94.3145859
  81.0939216  64.0852743  97.0220164  80.9424722  63.8563295  96.1050248
  81.0843895  65.0423344  97.0351509  77.8624552  61.6584656  92.0066430
  78.7916612  61.8095815  91.8335398  77.4415582  61.7468677  91.1515077
  76.6612884  65.6835320  89.7764968  76.5223970  65.3154105  90.6490906
  75.8727480  66.1982960  89.6048926  77.2561036  70.7844417  81.1190504
  77.4312792  70.3132460  81.9336127  76.5693824  71.4110183  81.3471765
  78.2118099  65.0616923  87.1653806  77.8767932  65.0217693  88.0611456
  77.7122045  64.3961639  86.6924216  72.1862343  60.4684553  92.6906387
  72.0482141  59.7364792  93.2917926  73.0967266  60.3793453  92.4090575
  81.1477291  62.4072957  77.4390865  80.5306461  61.6819785  77.3423918
  80.6793779  63.1682317  77.0957940  74.8144644  60.1804512  92.1790067
  75.5244262  59.5397704  92.1376685  74.7713952  60.4317407  93.1016247
  82.8031422  67.1171866  95.0996646  82.7443968  66.4331086  94.4327229
  83.2050941  67.8590856  94.6477272  73.5273578  57.1669730  93.9985706
  72.9910935  56.7160469  94.6507302  72.9390286  57.3015639  93.2556170
  82.8048830  65.0811449  93.3310625  81.9175608  64.7437371  93.4537024
  83.3747381  64.3494481  93.5679391  64.4577977  61.4135541  86.6553677
  65.1449017  61.0997271  86.0674692  64.3026105  62.3176906  86.3820928
  69.2612699  56.3025738  91.0838701  69.1770888  55.6951407  90.3489110
  68.4395405  56.7934756  91.0848197  76.3349983  69.7412902  90.2971869
  76.2620154  70.5467873  90.8091173  75.8927376  69.9404868  89.4719890
  79.4336413  54.7879301  86.4508896  79.9305112  54.0349264  86.1309966
  78.6623394  54.8243618  85.8852105  87.2866170  60.4919667  88.0927187
  87.2756046  61.3744382  87.7221120  86.4183550  60.1391218  87.8981724
  78.7948667  69.6399736  92.4530027  79.5076639  70.2747201  92.3805929
  78.3038695  69.7363602  91.6370029  80.5166193  63.5450989  84.0247319
  79.5822472  63.6652451  83.8552023  80.6942862  62.6423455  83.7607329
  76.0171381  56.9296684  86.1780580  75.6469169  56.3767725  86.8661486
  76.5130474  56.3254818  85.6255580  83.9038745  59.3868308  84.5597353
  84.3699197  60.2196299  84.4857656  84.3546245  58.9213289  85.2642612
  73.8460580  67.3894179  93.2735598  74.5470040  68.0230662  93.4264992
  73.3755695  67.7308911  92.5131237  81.9714976  65.7312129  81.5583505
  82.2474820  65.6168724  82.4677379  81.1019475  65.3329614  81.5195678
  81.8755408  51.7548895  88.5988254  80.9618487  51.9853122  88.7670461
  82.3048509  51.8387339  89.4502287  81.6461866  59.9438787  91.0988148
  80.9933316  60.1914694  90.4440601  82.0242246  59.1302925  90.7650626
  78.6069040  69.9798480  85.2016319  78.7891434  69.1620136  85.6644071
  79.4302026  70.1966172  84.7641209  78.9411205  68.9066665  82.4631367
  79.4698972  68.3959120  81.8501529  79.2039425  68.5909195  83.3276900
  77.6949439  60.6858598  97.5854186  77.0190076  60.5852727  98.2556561
  78.5177073  60.5297812  98.0490183  69.4428298  66.9230534  90.2066701
  70.0281735  66.1774222  90.3394605  69.2453137  67.2334491  91.0903365
  72.2966953  69.9581782  85.2229143  71.6277329  70.4427909  84.7393183
  72.1579823  70.2051002  86.1372522  64.0345953  59.4936135  88.9271144
  64.0730052  58.9599725  89.7208262  63.5286246  58.9671340  88.3082121
  76.4372222  71.9925525  91.8211802  76.9890530  72.1557147  92.5860887
  76.7778415  72.5829963  91.1491826  71.4136715  54.3400675  92.4233686
  71.4778042  55.2015506  92.0111084  71.3503835  53.7274677  91.6906045
  70.8888988  56.4123808  96.0706720  71.5161026  56.0300885  96.6844245
  70.0316907  56.1938010  96.4362413  81.2883096  66.8186783  97.6760456
  81.8323000  67.4316741  97.1815411  80.7069941  67.3766361  98.1927469
  79.5740609  69.9407501  88.8075484  79.4491749  69.1397241  88.2986429
  80.2319700  70.4353694  88.3189454  71.1948777  56.2956233  87.9852624
  70.4735363  56.9092201  87.8460097  71.9842033  56.8313998  87.9069270
  81.6375518  67.7416521  90.4355034  80.6905853  67.6221872  90.3633361
  81.9858291  66.8539019  90.5181295  73.9975091  53.6310660  94.2593276
  74.5209493  53.8772956  95.0219585  73.7787424  54.4630695  93.8396413
  78.6421951  67.5369237  86.6359386  78.4946913  66.6085945  86.8166956
  79.4675444  67.5589328  86.1516461  82.2456073  68.3597796  87.7224259
  83.1702620  68.1540657  87.5848710  82.0771376  68.1114197  88.6313600
  75.2027636  54.5724355  91.9442946  74.8624456  53.7732168  92.3463626
  74.4966642  54.8726066  91.3719779  75.8544108  51.6573667  90.3970269
  76.6770177  51.1834146  90.2749160  76.0982171  52.4364151  90.8968956
  78.6383465  55.3907075  81.6291503  78.8547080  56.2731713  81.3280331
  78.1577532  54.9993288  80.8997145  73.3782687  58.3492788  88.2062248
  73.2327267  58.6633091  89.0986529  72.9007890  58.9677688  87.6533146
  75.2379069  55.3395336  88.2543137  75.2240638  54.4436429  87.9175435
  75.9551498  55.3466000  88.8881423  77.0905200  55.7732676  90.2996265
  76.8322978  56.6949747  90.2980595  76.5590241  55.3763111  90.9896729
  82.0351389  68.8783463  83.0786350  82.2088266  68.3129886  82.3260203
  82.5280280  69.6784358  82.8965840  67.8528349  60.8898132  91.1449909
  67.3081817  61.6657940  91.2770183  68.7307699  61.2368937  90.9869030
  74.6415965  54.2209716  83.5230708  74.7631877  53.2926362  83.7221595
  74.3518008  54.2348402  82.6109023  77.5107156  51.9064627  86.6597427
  77.5328853  51.9703960  85.7049407  77.9275215  51.0669135  86.8537934
  87.8890780  61.6419886  84.6976650  88.3321926  60.8927211  84.2995773
  87.0117290  61.6330023  84.3150382  83.0226561  68.1950228  80.1783248
  83.7177466  68.8156920  80.3970563  83.3649712  67.3445579  80.4535626
  68.6394371  60.0168029  94.0380066  67.8976107  60.1650664  94.6244696
  68.3187115  60.2776294  93.1746815  84.9217985  65.6449933  81.7070579
  85.4469309  65.9837206  80.9819899  84.8340337  64.7096949  81.5233714
  76.5838033  69.5584007  93.8360456  76.8925160  69.3133154  94.7083155
  77.3813515  69.7630645  93.3479326  76.6058645  71.7121916  86.0665832
  76.1663636  71.2198295  86.7598689  77.3566762  71.1694884  85.8257908
  69.0850984  67.9033457  86.0690461  69.9109004  67.6037229  85.6889104
  68.7345036  67.1341080  86.5180249  74.0532517  67.2559926  88.1388134
  73.4312527  66.5930631  87.8390362  74.7237384  67.2821057  87.4561782
  67.2859589  65.8219784  87.0279394  66.4491498  65.3941958  86.8463395
  67.2583235  66.0152227  87.9650185  74.1257045  55.7341714  97.7320640
  74.1745200  56.6103836  97.3498410  74.6679559  55.1919107  97.1592283
  84.6111891  66.2782837  97.0121777  83.8207434  66.2606976  96.4726277
  84.3745245  66.8171131  97.7670814  84.7309766  63.1275303  94.3254506
  84.7807771  62.9625311  95.2670029  84.6223689  62.2602562  93.9352387
  82.0213528  59.1106231  95.6413812  82.9223391  58.9712696  95.3497810
  82.0961503  59.2760686  96.5811990  76.3556333  56.4873086  94.4866999
  75.4859643  56.7806652  94.2149587  76.5915814  57.0713531  95.2074262
  86.2327962  65.5472245  94.5696527  85.9412771  65.9102225  95.4059988
  85.6200094  64.8339253  94.3909859  87.4323645  63.1125125  87.0899098
  88.2670536  63.5514929  87.2536658  87.5682774  62.6363778  86.2707343
  84.4815151  60.6704859  93.0376585  84.9569272  60.8632506  92.2295437
  83.5580716  60.7264045  92.7919969  79.0595367  52.7052703  92.0032419
  79.5777311  53.4413730  91.6778908  78.7050500  53.0116696  92.8379178
  79.3107961  49.1252985  87.5233316  79.5909715  48.4576175  88.1493742
  80.0958568  49.3182081  87.0107980  83.1816820  57.5470619  91.2704891
  84.1334243  57.6468717  91.2917115  83.0120270  56.7548888  91.7802975
  81.2031199  54.6326203  91.4564292  80.6081131  54.9131215  90.7610780
  80.9180896  55.1220104  92.2281033  80.3338690  68.5849129  80.2166924
  81.2669363  68.5194691  80.4199800  80.2461902  69.4205396  79.7581457
  82.9626706  67.9015000  77.1770872  82.8840338  67.5674863  78.0706630
  83.7836373  68.3936768  77.1762344  85.6604897  60.7676739  90.3847191
  85.6281218  59.8292740  90.5706874  86.2705521  60.8460776  89.6513015
  77.4988228  59.6372792  76.4274395  78.4447333  59.5079000  76.4962813
  77.1202473  58.8987454  76.9043823  85.8099386  57.5587783  90.4305474
  85.2938435  56.7746239  90.2435403  86.6939335  57.2306499  90.5951993
  83.4710113  51.3028798  86.3901286  83.2734934  50.9943886  87.2744618
  84.0809818  52.0290437  86.5199216  91.4781447  61.8292746  89.5253227
  92.2084836  61.5678034  90.0860931  90.8688393  61.0921468  89.5655295
  89.5596744  59.9700609  90.1227679  88.8329908  59.8356574  89.5144170
  89.1444031  60.2777437  90.9284397  77.3826921  63.6890538  97.8875052
  78.3029930  63.8669137  98.0815098  77.3476504  62.7446584  97.7354751
  66.6009086  58.8829132  86.8128326  66.2811870  58.0294440  86.5202700
  66.0542514  59.0977710  87.5686294  70.3788993  61.5991573  90.5297833
  70.5975003  62.5308681  90.5485867  70.7914767  61.2399547  91.3152637
  77.2993211  52.1059658  82.5173521  76.4893940  51.7606743  82.8928767
  77.9877628  51.7967202  83.1061133  79.2283760  51.1837705  84.1397818
  79.7814798  51.6033158  84.7987841  79.4653846  50.2573453  84.1820774
  74.4529930  54.4209704  76.5041259  75.3149094  54.7464602  76.7637076
  74.6380274  53.6341200  75.9914325  66.4697346  62.5032043  88.7821448
  65.7760817  62.0885996  88.2691402  67.2170337  62.5452580  88.1854867
  82.6062567  53.2938230  83.6476482  82.0261236  53.9523034  83.2654534
  82.3398499  52.4715575  83.2363899  81.0566133  52.6943288  85.8497802
  81.5565911  52.8059822  85.0412121  81.7001741  52.3904341  86.4898611
  75.1148129  60.6021918  98.7365643  74.6315211  61.4022278  98.9429532
  75.2009068  60.6129862  97.7833087  68.3834088  62.4350297  86.6587463
  68.3604777  62.5337984  85.7069346  68.6934725  63.2815448  86.9804629
  71.0421466  64.4926452  90.7734077  71.9964720  64.4610395  90.7064009
  70.8433990  64.0317076  91.5884303  71.6320848  63.0627568  93.3404875
  72.4513737  63.5571647  93.3639712  71.9057656  62.1459536  93.3122442
  81.3887445  55.4538321  82.7032830  80.5013300  55.7387971  82.4853025
  81.8041434  55.2932084  81.8560107  84.7401981  55.4784842  86.4187170
  85.5162371  55.9681294  86.6911786  84.0150115  55.9042896  86.8759039
  87.1774539  56.1912461  87.4761110  87.7719030  55.9508197  86.7654418
  87.2501123  55.4719591  88.1034646  69.3971695  70.0346072  87.7904275
  69.2626163  69.2746473  87.2242273  68.9803757  70.7586972  87.3233064
  80.5330658  65.2182995  76.7980850  81.2366508  65.4232998  77.4138506
  79.8093307  65.7859757  77.0629934  81.3628468  60.9692856  82.9183120
  81.3063670  61.4261408  82.0790753  81.9156811  60.2083541  82.7405963
  85.1733274  56.7582588  83.7433240  84.9170209  56.3579224  84.5741448
  84.5486142  57.4726382  83.6183379  89.4845612  59.4978662  86.2504531
  88.9245170  59.5671851  87.0236093  88.8789116  59.3219646  85.5304028
  72.5540821  70.9315389  88.0022718  72.4373205  71.8760821  87.9001408
  71.7333267  70.6288950  88.3908517  82.4417355  65.6565524  78.8479310
  83.2762959  65.2246723  78.6656785  82.2801698  65.4847538  79.7756205
  82.0963248  62.1597638  80.2135650  82.0412051  61.9941909  79.2724094
  81.4709303  62.8673671  80.3697839  66.8855763  57.3965702  94.0397072
  67.5314626  56.8864656  94.5284297  66.6772914  58.1334384  94.6140497
  79.4109155  64.4646550  99.5389212  80.2800314  64.6387202  99.1775847
  78.9315906  65.2840966  99.4164942  75.4059373  51.6605747  79.7920968
  75.3938043  52.6047587  79.9489239  76.2982795  51.4775892  79.4980429
  73.5795335  71.5843651  91.2178646  74.4822582  71.6167261  91.5345141
  73.3532705  70.6544102  91.2324982  75.3348937  70.3374637  87.8788725
  74.3844568  70.3376499  87.7653097  75.6381423  69.5907372  87.3624759
  79.2211493  48.2548523  84.0466905  78.4543888  47.7007010  84.1923587
  79.6322198  48.3270392  84.9081056  71.2253254  54.5433319  98.1372086
  72.0884715  54.1870124  98.3475411  70.6518664  54.2047214  98.8247490
  91.0701631  76.1735176  88.9434487  91.7080041  76.0541923  88.2397827
  90.9522473  77.1216020  89.0022439  87.8791337  76.1262604  88.8796012
  87.5409848  76.0103668  87.9916547  88.7481105  75.7253769  88.8597018
  83.7378153  77.9798080  84.8692903  83.1743018  77.8888017  84.1009190
  83.6230548  77.1597985  85.3495395  88.3611120  77.2797455  94.8382217
  88.3499761  76.8850254  93.9662721  88.5231759  76.5463528  95.4315989
  81.2842585  79.4749272  87.7077123  82.0763876  79.1340096  87.2923422
  81.5239235  79.5844247  88.6279276  89.3177711  81.6469048  80.1807368
  88.6665691  82.2323128  79.7941381  90.1122074  82.1775243  80.2402405
  83.2433338  78.7358185  80.5794502  84.0164214  78.1887172  80.4407378
  83.5958737  79.6002434  80.7908963  85.0818381  80.0634567  93.7861401
  84.7908247  80.9680198  93.6708068  85.7175365  80.1051095  94.5005471
  86.0074588  77.4411416  90.3762761  86.6038160  77.2167438  89.6619724
  86.0649559  76.6996161  90.9788209  85.5799616  74.8950851  78.2112952
  85.8325137  74.3732372  77.4496415  84.6424175  74.7316996  78.3139635
  90.6242899  73.8986629  86.0187695  91.4105988  73.4806053  85.6678112
  90.8881603  74.8032722  86.1869343  90.7952976  79.3359480  80.7176352
  90.1598809  79.4094106  81.4297257  90.4650383  79.9253079  80.0395431
  96.0251326  73.8361863  86.9220674  96.7576498  73.2661079  87.1558503
  95.2690682  73.4483463  87.3627179  85.2995905  76.7978957  80.4137327
  85.1832163  76.1223860  81.0818411  85.4098165  76.3111331  79.5969480
  87.6427446  76.2589104  84.1184016  87.2785653  75.7319725  84.8296938
  88.4994562  75.8687573  83.9450501  93.5476747  67.5483437  91.3815282
  93.2160071  68.4178848  91.1576497  92.9522360  67.2319721  92.0609313
  87.2832933  71.2879004  79.1145365  87.4507335  72.1559240  79.4815836
  87.0930102  71.4506285  78.1906654  90.0408266  79.7495983  90.7811195
  89.7408989  80.6521022  90.6727002  89.6959326  79.4828166  91.6332348
  83.4920748  76.2009780  86.8147899  82.5671244  76.0685994  87.0225591
  83.7405161  76.9803999  87.3117842  93.4405410  72.2678523  88.4608632
  92.5322287  72.1993931  88.1667393  93.3893006  72.7450468  89.2890458
  87.2622154  73.7436661  80.0992031  87.1421779  74.1893712  80.9377512
  86.5674742  74.0921979  79.5405570  80.8529559  75.8443053  87.6491688
  80.9821940  76.0977532  88.5631100  80.1727010  76.4370761  87.3296343
  85.0229046  86.5140303  83.7482163  84.9453076  87.4648128  83.8270643
  84.4190689  86.1686176  84.4057089  87.5146276  73.6868168  96.4043530
  86.7379610  74.2462089  96.3946394  88.1536839  74.1724951  96.9258400
  95.3067056  70.4694961  90.2386506  94.6641437  70.7627494  89.5926301
  94.8021985  70.3547882  91.0439703  85.7692648  76.4953622  95.9661497
  86.5107332  77.0338666  95.6896320  85.0629633  77.1219911  96.1233048
  91.2447988  78.6382762  94.5633658  91.6531344  78.1965173  93.8188290
  90.5225249  78.0635390  94.8167851  87.5979058  73.5755369  91.9367215
  88.4440253  73.9994783  92.0801864  87.5377695  72.9188993  92.6305778
  91.5676802  79.1983953  88.3185947  90.9385665  79.3629667  87.6162015
  91.1802464  79.6125562  89.0896911  95.4466034  80.1338391  85.6730311
  94.7617072  80.5137292  85.1227344  95.5309883  80.7433717  86.4062258
  90.7478503  71.2359737  93.5948389  90.5039435  71.9901798  93.0582664
  91.0238433  71.6145085  94.4295636  92.7016966  77.7798350  92.2725654
  92.9133861  78.4230110  91.5960035  92.6546714  76.9460666  91.8047584
  90.3043195  70.3916170  89.1762226  89.4427674  70.6897424  89.4678964
  90.3305629  70.6086569  88.2443259  87.1204764  78.9358361  85.5836032
  87.5843110  79.2146064  84.7940654  86.8561562  78.0341806  85.4009123
  84.0128845  78.4829843  88.5215795  84.5830202  78.9117111  87.8833280
  84.6036957  78.2012427  89.2199981  86.0573650  75.0581513  82.3925597
  86.7597694  75.5102557  82.8599524  85.7254279  74.4165332  83.0205490
  84.5054012  73.6493270  96.7676807  83.8752672  74.3309551  97.0012203
  84.3990100  73.5376352  95.8229945  79.7998984  73.3165066  87.6942731
  79.0098038  73.5722595  87.2182841  80.2910232  74.1313404  87.7994771
  93.8162794  80.6570305  90.4448012  94.6380237  80.2550492  90.1630693
  93.8125197  80.5538539  91.3964127  81.7513730  73.6809645  84.6526207
  80.9544893  73.7928340  85.1709703  81.5239322  74.0196298  83.7867098
  87.5819397  80.2054349  92.6008722  87.6463830  80.6674756  93.4366894
  86.8730321  79.5751713  92.7291032  78.0836687  73.5695556  90.1257721
  78.3344726  74.4542566  90.3915297  78.6196236  73.3900158  89.3532813
 101.9068787  77.0009054  86.7932983 101.1532495  76.4316452  86.6376987
 102.0416328  76.9671718  87.7403618  87.2967415  81.8722456  82.4687702
  87.1613090  82.7173992  82.8972550  87.8377227  82.0741734  81.7053636
  83.7834754  67.9514036  99.1302058  83.3901700  67.3980234  99.8049702
  84.6000895  68.2624614  99.5208575  80.7496812  79.3897894  83.0415627
  81.2621333  80.1841144  83.1921192  81.4019525  78.6924184  82.9749229
  82.5591697  82.5063650  85.1238381  82.7358325  83.4281615  84.9359365
  83.3548530  82.1922070  85.5532760  86.7002715  69.3671915  96.7222314
  87.4412429  69.9679068  96.6426777  86.9320638  68.6249553  96.1640357
  81.8444053  74.5528282  95.0000544  81.7297569  73.6513539  95.3007643
  80.9888571  74.7991979  94.6485360  88.9235891  82.4946023  96.5988044
  88.4799745  81.7082401  96.2808949  89.5853105  82.6825173  95.9331935
  83.6823012  84.0241824  91.1248723  84.2330437  83.8958887  90.3525717
  82.8434488  84.3236713  90.7743616  91.0217129  82.7748822  94.6269446
  91.0035605  83.5957703  94.1349715  91.9437049  82.6502898  94.8519587
  87.4790183  80.2892952  95.4692954  88.0118520  79.5281240  95.2392262
  86.9504265  79.9966604  96.2117109  90.6459878  65.3953018  90.9986596
  90.3024148  66.2854660  90.9225706  91.0138841  65.2054676  90.1356181
  78.7145729  77.7186548  83.8175198  79.5520951  78.1283557  83.6008906
  78.8923997  76.7785990  83.7875392  90.6110161  75.3861629  79.5059031
  90.0956785  76.1566234  79.7447418  90.3387470  74.7126765  80.1292092
  88.1957272  70.2311330  84.5644269  87.3398868  69.8418180  84.3849908
  88.6084224  70.3103291  83.7044055  89.7256419  67.7657673  88.9635829
  89.2221214  67.7287808  88.1503634  90.0187026  68.6750416  89.0232486
  85.9699305  67.8496403  87.9702011  86.8352301  67.6539211  87.6107900
  86.0376814  67.6206755  88.8971368  90.3996464  73.2588721  81.3318812
  90.0946600  73.5734870  82.1828955  91.3526906  73.3370141  81.3746145
  88.8442896  79.4178944  82.9811766  88.3164258  78.6831704  82.6685004
  88.3430399  80.1953621  82.7351734  93.8235742  77.6127965  88.0978812
  93.1659417  78.3027226  88.1858941  94.6276141  78.0024397  88.4412799
  83.5761624  70.0798611  85.3418378  84.1505376  69.8573792  84.6091571
  84.1632606  70.1487305  86.0946979  92.6341201  75.9672338  86.1482754
  93.1473083  76.6002329  86.6504464  93.2842425  75.3673533  85.7826114
  83.9031211  72.1103072  79.3614263  83.0668523  72.4477758  79.6823538
  83.7635980  71.9752052  78.4241400  85.8784291  66.9539860  84.0693447
  85.2248704  66.6388877  83.4450062  85.8364766  66.3315600  84.7953270
  86.9895496  77.2359155  75.9846739  86.0822558  77.0048408  76.1837888
  87.4866528  76.4396774  76.1720721  89.8963575  85.9456662  78.9043425
  89.2225274  86.2488359  79.5128383  90.2829397  86.7485742  78.5548882
  89.1122032  73.4421793  88.3941095  88.1944593  73.6636740  88.2362783
  89.5282175  73.5168104  87.5352802  89.8957080  74.8413209  83.5243775
  90.6428898  75.3534606  83.2150897  90.1648669  74.5197262  84.3848168
  88.1683730  77.3371750  80.5070729  87.2594949  77.0530782  80.6043199
  88.1978814  77.7570828  79.6474036  93.4002997  80.9478339  84.2761897
  92.9465324  80.1069249  84.3327087  92.7696964  81.5839737  84.6136677
  92.3435917  71.8770325  85.5062564  91.6058674  71.3647711  85.8372807
  92.5962690  71.4370707  84.6945841  91.8435936  82.7854836  85.2111715
  92.1358911  83.3459893  84.4924081  92.3534557  83.0783397  85.9664874
  78.7371900  75.0577264  84.4885931  78.5396300  74.4646624  83.7636998
  78.1818564  74.7529474  85.2061870  86.7168624  74.9500370  86.6080525
  86.7717234  73.9974207  86.5323001  85.9059826  75.1059809  87.0921823
  87.8659818  78.8780493  77.8458808  87.4279247  78.1616352  77.3864445
  88.6070258  79.1056608  77.2843899  84.6560984  73.5677430  84.3670903
  83.8428849  73.8671600  84.7736096  85.1519978  73.1733119  85.0845386
  86.8069562  83.5635187  86.3005168  86.7645740  83.7896033  85.3713700
  87.7232260  83.3298561  86.4490969  90.2535195  74.0319254  93.1985797
  90.6084583  74.2590727  94.0580263  90.9007327  74.3637631  92.5763053
  95.9832932  77.1537690  83.9035126  95.8450831  77.3439286  82.9756316
  95.6269151  77.9157073  84.3603177  84.1475058  71.1395785  89.9832138
  84.7874438  70.9984544  89.2855102  83.3152589  70.8530299  89.6070740
  96.0102312  79.2214217  88.9146398  96.4438819  79.1289506  89.7629452
  96.7233893  79.1971718  88.2766414  84.9235362  80.4398216  86.0967131
  85.7175961  79.9448536  85.8949706  84.2127055  79.9116079  85.7334836
  89.7430207  82.8216311  90.4479498  89.7967229  83.3907248  91.2157214
  88.8744988  82.9918196  90.0833536  81.2318126  74.5841298  82.1726884
  80.3015714  74.5225753  82.3896846  81.3275598  74.0617250  81.3763525
  81.1503675  71.1096110  84.7605125  81.4110492  72.0241444  84.6514286
  81.9720847  70.6420553  84.9101738  82.6228600  72.5233868  91.9303950
  83.2951654  72.3151230  91.2816599  81.7958387  72.3255954  91.4909182
  96.8717861  79.2637918  91.4479283  97.0653752  80.1683728  91.6938558
  96.7718480  78.8045337  92.2817868  88.5254172  69.1495808  93.9469611
  87.8782087  69.8485758  93.8534087  89.2955188  69.5831952  94.3145859
  91.9332970  79.4144661  97.0220164  91.7818477  79.1855212  96.1050248
  91.9237650  80.3715262  97.0351509  88.7018307  76.9876573  92.0066430
  89.6310367  77.1387733  91.8335398  88.2809337  77.0760594  91.1515077
  87.5006638  81.0127238  89.7764968  87.3617724  80.6446022  90.6490906
  86.7121235  81.5274877  89.6048926  88.0954790  86.1136334  81.1190504
  88.2706546  85.6424377  81.9336127  87.4087578  86.7402100  81.3471765
  89.0511853  80.3908840  87.1653806  88.7161686  80.3509610  88.0611456
  88.5515799  79.7253556  86.6924216  83.0256097  75.7976471  92.6906387
  82.8875895  75.0656709  93.2917926  83.9361021  75.7085371  92.4090575
  91.9871045  77.7364875  77.4390865  91.3700216  77.0111703  77.3423918
  91.5187534  78.4974235  77.0957940  85.6538398  75.5096430  92.1790067
  86.3638017  74.8689622  92.1376685  85.6107706  75.7609325  93.1016247
  93.6425177  82.4463783  95.0996646  93.5837723  81.7623003  94.4327229
  94.0444695  83.1882773  94.6477272  84.3667332  72.4961648  93.9985706
  83.8304689  72.0452386  94.6507302  83.7784041  72.6307557  93.2556170
  82.6615876  89.2625697  87.8930365  82.9012474  89.8944221  88.5709383
  81.8185072  88.9113737  88.1795724  83.7769591  71.9550299  76.5612170
  82.8999057  71.8339100  76.1974416  84.2527344  71.1636377  76.3091058
  93.6442584  80.4103367  93.3310625  92.7569363  80.0729289  93.4537024
  94.2141135  79.6786398  93.5679391  75.2971731  76.7427459  86.6553677
  75.9842771  76.4289189  86.0674692  75.1419860  77.6468824  86.3820928
  80.1006453  71.6317655  91.0838701  80.0164642  71.0243325  90.3489110
  79.2789160  72.1226674  91.0848197  87.1743737  85.0704819  90.2971869
  87.1013909  85.8759791  90.8091173  86.7321131  85.2696785  89.4719890
  86.9633517  84.3076590  83.8074690  86.1801039  84.8498270  83.9012915
  87.6626262  84.8250569  84.2068931  90.2730167  70.1171219  86.4508896
  90.7698867  69.3641181  86.1309966  89.5017149  70.1535536  85.8852105
  98.1259925  75.8211584  88.0927187  98.1149801  76.7036300  87.7221120
  97.2577304  75.4683135  87.8981724  89.6342421  84.9691654  92.4530027
  90.3470393  85.6039118  92.3805929  89.1432450  85.0655520  91.6370029
  86.8565136  72.2588602  86.1780580  86.4862923  71.7059642  86.8661486
  87.3524228  71.6546735  85.6255580  94.7432499  74.7160225  84.5597353
  95.2092951  75.5488217  84.4857656  95.1940000  74.2505207  85.2642612
  84.6854335  82.7186097  93.2735598  85.3863794  83.3522580  93.4264992
  84.2149450  83.0600829  92.5131237  92.8108730  81.0604047  81.5583505
  93.0868574  80.9460641  82.4677379  91.9413229  80.6621532  81.5195678
  92.7149162  67.0840812  88.5988254  91.8012242  67.3145039  88.7670461
  93.1442263  67.1679257  89.4502287  92.4855620  75.2730704  91.0988148
  91.8327071  75.5206612  90.4440601  92.8636000  74.4594843  90.7650626
  89.4462794  85.3090398  85.2016319  89.6285189  84.4912054  85.6644071
  90.2695780  85.5258090  84.7641209  89.7804960  84.2358583  82.4631367
  90.3092726  83.7251037  81.8501529  90.0433179  83.9201113  83.3276900
  88.5343194  76.0150515  97.5854186  87.8583831  75.9144645  98.2556561
  89.3570827  75.8589729  98.0490183  80.2822053  82.2522452  90.2066701
  80.8675489  81.5066140  90.3394605  80.0846891  82.5626409  91.0903365
  83.1360708  85.2873699  85.2229143  82.4671083  85.7719827  84.7393183
  82.9973578  85.5342920  86.1372522  74.8739707  74.8228052  88.9271144
  74.9123807  74.2891643  89.7208262  74.3680000  74.2963258  88.3082121
  87.2765976  87.3217443  91.8211802  87.8284284  87.4849064  92.5860887
  87.6172170  87.9121881  91.1491826  82.2530470  69.6692593  92.4233686
  82.3171796  70.5307424  92.0111084  82.1897590  69.0566594  91.6906045
  81.7282742  71.7415725  96.0706720  82.3554781  71.3592803  96.6844245
  80.8710661  71.5229927  96.4362413  92.1276851  82.1478700  97.6760456
  92.6716755  82.7608659  97.1815411  91.5463696  82.7058279  98.1927469
  78.5048285  73.5492154  82.0025075  78.8001726  72.6402833  81.9492129
  77.6036321  73.5279894  81.6806078  90.4134364  85.2699418  88.8075484
  90.2885503  84.4689158  88.2986429  91.0713455  85.7645612  88.3189454
  82.0342532  71.6248151  87.9852624  81.3129118  72.2384119  87.8460097
  82.8235788  72.1605916  87.9069270  92.4769272  83.0708439  90.4355034
  91.5299608  82.9513790  90.3633361  92.8252045  82.1830937  90.5181295
  84.8368845  68.9602577  94.2593276  85.3603247  69.2064874  95.0219585
  84.6181179  69.7922612  93.8396413  80.2336126  71.2306252  82.1264400
  79.9048833  70.3503631  81.9439506  80.5875497  71.1753921  83.0140790
  89.4815705  82.8661155  86.6359386  89.3340668  81.9377862  86.8166956
  90.3069199  82.8881245  86.1516461  83.3477950  71.5179222  82.4939878
  83.6874022  72.0465143  81.7718487  83.7950070  71.8559628  83.2698445
  93.0849827  83.6889713  87.7224259  94.0096375  83.4832575  87.5848710
  92.9165131  83.4406115  88.6313600  86.0421390  69.9016273  91.9442946
  85.7018211  69.1024086  92.3463626  85.3360397  70.2017983  91.3719779
  86.6937862  66.9865585  90.3970269  87.5163932  66.5126063  90.2749160
  86.9375926  67.7656069  90.8968956  85.3346097  70.0153843  80.6933171
  86.0554459  70.3935096  80.1896888  84.7111401  70.7342720  80.7968149
  89.4777220  70.7198992  81.6291503  89.6940834  71.6023630  81.3280331
  88.9971287  70.3285206  80.8997145  84.2176441  73.6784706  88.2062248
  84.0721022  73.9925009  89.0986529  83.7401645  74.2969606  87.6533146
  86.0772824  70.6687254  88.2543137  86.0634393  69.7728347  87.9175435
  86.7945252  70.6757917  88.8881423  87.9298955  71.1024594  90.2996265
  87.6716732  72.0241664  90.2980595  87.3983995  70.7055028  90.9896729
  92.8745143  84.2075381  83.0786350  93.0482021  83.6421803  82.3260203
  93.3674035  85.0076276  82.8965840  78.6922103  76.2190050  91.1449909
  78.1475571  76.9949858  91.2770183  79.5701453  76.5660855  90.9869030
  85.4809720  69.5501634  83.5230708  85.6025631  68.6218280  83.7221595
  85.1911762  69.5640320  82.6109023  88.3500910  67.2356544  86.6597427
  88.3722607  67.2995877  85.7049407  88.7668969  66.3961053  86.8537934
  98.7284535  76.9711804  84.6976650  99.1715681  76.2219129  84.2995773
  97.8511045  76.9621940  84.3150382  93.8620316  83.5242145  80.1783248
  94.5571221  84.1448838  80.3970563  94.2043466  82.6737497  80.4535626
  79.4788125  75.3459946  94.0380066  78.7369861  75.4942582  94.6244696
  79.1580869  75.6068212  93.1746815  95.7611739  80.9741851  81.7070579
  96.2863063  81.3129124  80.9819899  95.6734092  80.0388866  81.5233714
  87.4231788  84.8875925  93.8360456  87.7318914  84.6425071  94.7083155
  88.2207270  85.0922563  93.3479326  87.4452400  87.0413834  86.0665832
  87.0057390  86.5490213  86.7598689  88.1960517  86.4986802  85.8257908
  79.9244739  83.2325375  86.0690461  80.7502759  82.9329147  85.6889104
  79.5738791  82.4632997  86.5180249  84.8926272  82.5851843  88.1388134
  84.2706281  81.9222548  87.8390362  85.5631139  82.6112975  87.4561782
  78.1253344  81.1511701  87.0279394  77.2885252  80.7233876  86.8463395
  78.0976989  81.3444145  87.9650185  84.9650799  71.0633631  97.7320640
  85.0138955  71.9395754  97.3498410  85.5073314  70.5211024  97.1592283
  95.4505645  81.6074755  97.0121777  94.6601189  81.5898893  96.4726277
  95.2139000  82.1463048  97.7670814  95.5703520  78.4567221  94.3254506
  95.6201525  78.2917228  95.2670029  95.4617443  77.5894480  93.9352387
  84.4539779  81.1355767  81.6146595  84.6027899  81.8191231  80.9613267
  85.2606222  81.1160857  82.1296050  92.8607283  74.4398149  95.6413812
  93.7617145  74.3004614  95.3497810  92.9355257  74.6052604  96.5811990
  87.1950088  71.8165004  94.4866999  86.3253397  72.1098570  94.2149587
  87.4309568  72.4005449  95.2074262  97.0721717  80.8764162  94.5696527
  96.7806525  81.2394143  95.4059988  96.4593848  80.1631171  94.3909859
  98.2717399  78.4417042  87.0899098  99.1064291  78.8806846  87.2536658
  98.4076528  77.9655695  86.2707343  95.3208905  75.9996777  93.0376585
  95.7963027  76.1924423  92.2295437  94.3974471  76.0555963  92.7919969
  82.2092412  77.1620944  82.6207664  81.9638454  76.2583274  82.8187874
  82.3788326  77.1638095  81.6787142  89.8989122  68.0344621  92.0032419
  90.4171066  68.7705648  91.6778908  89.5444254  68.3408614  92.8379178
  81.4788059  72.8949302  80.1193825  80.7857304  72.9693657  79.4633861
  81.2339811  72.1309645  80.6415342  90.1501716  64.4544903  87.5233316
  90.4303470  63.7868092  88.1493742  90.9352323  64.6473999  87.0107980
  87.9535184  83.6303897  79.0858342  87.3809151  84.2494084  78.6328814
  88.5267978  84.1803259  79.6198264  94.0210574  72.8762537  91.2704891
  94.9727997  72.9760635  91.2917115  93.8514025  72.0840806  91.7802975
  92.0424954  69.9618120  91.4564292  91.4474886  70.2423133  90.7610780
  91.7574650  70.4512021  92.2281033  91.1732444  83.9141047  80.2166924
  92.1063117  83.8486609  80.4199800  91.0855657  84.7497314  79.7581457
  93.8020461  83.2306918  77.1770872  93.7234092  82.8966781  78.0706630
  94.6230128  83.7228685  77.1762344  96.4998652  76.0968657  90.3847191
  96.4674972  75.1584658  90.5706874  97.1099276  76.1752694  89.6513015
  88.3381983  74.9664710  76.4274395  89.2841088  74.8370918  76.4962813
  87.9596228  74.2279372  76.9043823  96.6493140  72.8879700  90.4305474
  96.1332189  72.1038157  90.2435403  97.5333089  72.5598417  90.5951993
  94.3103867  66.6320716  86.3901286  94.1128689  66.3235804  87.2744618
  94.9203573  67.3582355  86.5199216 102.3175202  77.1584664  89.5253227
 103.0478590  76.8969952  90.0860931 101.7082147  76.4213386  89.5655295
 100.3990499  75.2992526  90.1227679  99.6723663  75.1648491  89.5144170
  99.9837786  75.6069355  90.9284397  88.2220675  79.0182456  97.8875052
  89.1423685  79.1961055  98.0815098  88.1870258  78.0738501  97.7354751
  86.5224900  72.8914686  76.3629280  85.6156355  72.5947799  76.4391993
  86.8000881  72.5944504  75.4963566  77.4402840  74.2121050  86.8128326
  77.1205625  73.3586358  86.5202700  76.8936269  74.4269628  87.5686294
  81.2182748  76.9283491  90.5297833  81.4368758  77.8600598  90.5485867
  81.6308522  76.5691465  91.3152637  88.1386966  67.4351576  82.5173521
  87.3287694  67.0898661  82.8928767  88.8271383  67.1259120  83.1061133
  90.0677514  66.5129623  84.1397818  90.6208553  66.9325076  84.7987841
  90.3047600  65.5865371  84.1820774  86.0910613  72.5016696  99.9200582
  85.9907340  73.4511053  99.8512673  85.8732155  72.1734935  99.0476652
  85.2923685  69.7501621  76.5041259  86.1542849  70.0756520  76.7637076
  85.4774029  68.9633117  75.9914325  77.3091100  77.8323961  88.7821448
  76.6154572  77.4177914  88.2691402  78.0564091  77.8744498  88.1854867
  93.4456321  68.6230148  83.6476482  92.8654990  69.2814952  83.2654534
  93.1792254  67.8007492  83.2363899  91.8959887  68.0235206  85.8497802
  92.3959666  68.1351740  85.0412121  92.5395495  67.7196258  86.4898611
  85.9541883  75.9313835  98.7365643  85.4708965  76.7314195  98.9429532
  86.0402822  75.9421780  97.7833087  79.2227843  77.7642215  86.6587463
  79.1998531  77.8629902  85.7069346  79.5328479  78.6107366  86.9804629
  81.8815221  79.8218370  90.7734077  82.8358474  79.7902312  90.7064009
  81.6827744  79.3608994  91.5884303  82.4714603  78.3919486  93.3404875
  83.2907492  78.8863565  93.3639712  82.7451411  77.4751454  93.3122442
  95.5795735  70.8076759  86.4187170  96.3556125  71.2973212  86.6911786
  94.8543869  71.2334813  86.8759039  98.0168294  71.5204378  87.4761110
  98.6112785  71.2800114  86.7654418  98.0894878  70.8011509  88.1034646
  80.2365450  85.3637989  87.7904275  80.1019918  84.6038390  87.2242273
  79.8197512  86.0878889  87.3233064  91.3724413  80.5474913  76.7980850
  92.0760263  80.7524915  77.4138506  90.6487061  81.1151675  77.0629934
  92.2022223  76.2984774  82.9183120  92.1457424  76.7553326  82.0790753
  92.7550565  75.5375459  82.7405963  96.0127029  72.0874506  83.7433240
  95.7563963  71.6871142  84.5741448  95.3879897  72.8018300  83.6183379
 100.3239367  74.8270579  86.2504531  99.7638925  74.8963769  87.0236093
  99.7182870  74.6511564  85.5304028  83.3934575  86.2607306  88.0022718
  83.2766960  87.2052739  87.9001408  82.5727022  85.9580868  88.3908517
  93.2811110  80.9857442  78.8479310  94.1156714  80.5538641  78.6656785
  93.1195453  80.8139456  79.7756205  92.9357002  77.4889555  80.2135650
  92.8805806  77.3233827  79.2724094  92.3103057  78.1965588  80.3697839
  77.7249517  72.7257620  94.0397072  78.3708381  72.2156574  94.5284297
  77.5166668  73.4626301  94.6140497  90.2502909  79.7938467  99.5389212
  91.1194069  79.9679120  99.1775847  89.7709661  80.6132884  99.4164942
  86.2453128  66.9897664  79.7920968  86.2331797  67.9339504  79.9489239
  87.1376550  66.8067810  79.4980429  84.4189090  86.9135568  91.2178646
  85.3216336  86.9459179  91.5345141  84.1926460  85.9836019  91.2324982
  86.1742692  85.6666555  87.8788725  85.2238323  85.6668416  87.7653097
  86.4775178  84.9199289  87.3624759  90.0605247  63.5840441  84.0466905
  89.2937643  63.0298928  84.1923587  90.4715952  63.6562310  84.9081056
  82.0647008  69.8725237  98.1372086  82.9278470  69.5162042  98.3475411
  81.4912419  69.5339132  98.8247490 101.9095385  91.5027093  88.9434487
 102.5473795  91.3833841  88.2397827 101.7916228  92.4507937  89.0022439
  98.7185091  91.4554521  88.8796012  98.3803603  91.3395586  87.9916547
  99.5874860  91.0545686  88.8597018  94.5771907  93.3089998  84.8692903
  94.0136772  93.2179935  84.1009190  94.4624302  92.4889902  85.3495395
  99.2004874  92.6089373  94.8382217  99.1893515  92.2142171  93.9662721
  99.3625514  91.8755446  95.4315989  92.1236339  94.8041189  87.7077123
  92.9157631  94.4632014  87.2923422  92.3632989  94.9136164  88.6279276
 100.1571466  96.9760965  80.1807368  99.5059446  97.5615046  79.7941381
 100.9515829  97.5067160  80.2402405  94.0827093  94.0650103  80.5794502
  94.8557969  93.5179090  80.4407378  94.4352492  94.9294352  80.7908963
  95.9212135  95.3926485  93.7861401  95.6302001  96.2972116  93.6708068
  96.5569120  95.4343012  94.5005471  96.8468342  92.7703333  90.3762761
  97.4431915  92.5459356  89.6619724  96.9043314  92.0288079  90.9788209
  96.4193371  90.2242769  78.2112952  96.6718891  89.7024290  77.4496415
  95.4817930  90.0608914  78.3139635 101.4636654  89.2278547  86.0187695
 102.2499743  88.8097970  85.6678112 101.7275358  90.1324639  86.1869343
 101.6346731  94.6651397  80.7176352 100.9992564  94.7386024  81.4297257
 101.3044137  95.2544996  80.0395431 106.8645081  89.1653780  86.9220674
 107.5970253  88.5952997  87.1558503 106.1084436  88.7775381  87.3627179
  96.1389659  92.1270875  80.4137327  96.0225918  91.4515778  81.0818411
  96.2491919  91.6403249  79.5969480  98.4821200  91.5881022  84.1184016
  98.1179408  91.0611643  84.8296938  99.3388316  91.1979491  83.9450501
 104.3870501  82.8775354  91.3815282 104.0553826  83.7470765  91.1576497
 103.7916114  82.5611638  92.0609313  98.1226687  86.6170921  79.1145365
  98.2901090  87.4851158  79.4815836  97.9323856  86.7798203  78.1906654
 100.8802021  95.0787900  90.7811195 100.5802744  95.9812939  90.6727002
 100.5353080  94.8120084  91.6332348  94.3314502  91.5301697  86.8147899
  93.4064999  91.3977911  87.0225591  94.5798915  92.3095916  87.3117842
 104.2799164  87.5970441  88.4608632 103.3716042  87.5285849  88.1667393
 104.2286760  88.0742385  89.2890458  98.1015908  89.0728579  80.0992031
  97.9815533  89.5185630  80.9377512  97.4068497  89.4213897  79.5405570
  91.6923313  91.1734971  87.6491688  91.8215694  91.4269450  88.5631100
  91.0120764  91.7662679  87.3296343  95.8622800 101.8432221  83.7482163
  95.7846830 102.7940046  83.8270643  95.2584444 101.4978093  84.4057089
  98.3540030  89.0160086  96.4043530  97.5773364  89.5754006  96.3946394
  98.9930593  89.5016869  96.9258400 106.1460811  85.7986879  90.2386506
 105.5035191  86.0919412  89.5926301 105.6415739  85.6839799  91.0439703
 103.8000974  89.5450052  80.9272365 104.7118831  89.7777439  80.7520063
 103.2910622  90.1287096  80.3647444  96.6086402  91.8245540  95.9661497
  97.3501087  92.3630583  95.6896320  95.9023388  92.4511828  96.1233048
 102.0841742  93.9674680  94.5633658 102.4925098  93.5257090  93.8188290
 101.3619004  93.3927307  94.8167851  98.4372812  88.9047287  91.9367215
  99.2834007  89.3286700  92.0801864  98.3771450  88.2480911  92.6305778
 102.4070557  94.5275871  88.3185947 101.7779419  94.6921585  87.6162015
 102.0196219  94.9417480  89.0896911 106.2859789  95.4630308  85.6730311
 105.6010827  95.8429210  85.1227344 106.3703638  96.0725635  86.4062258
 101.5872257  86.5651655  93.5948389 101.3433189  87.3193716  93.0582664
 101.8632188  86.9437003  94.4295636 103.5410720  93.1090267  92.2725654
 103.7527615  93.7522027  91.5960035 103.4940468  92.2752584  91.8047584
 101.1436949  85.7208088  89.1762226 100.2821428  86.0189342  89.4678964
 101.1699384  85.9378487  88.2443259  97.9598519  94.2650279  85.5836032
  98.4236864  94.5437982  84.7940654  97.6955317  93.3633723  85.4009123
  94.8522600  93.8121760  88.5215795  95.4223957  94.2409029  87.8833280
  95.4430712  93.5304345  89.2199981  96.8967405  90.3873431  82.3925597
  97.5991448  90.8394475  82.8599524  96.5648033  89.7457250  83.0205490
  95.3447766  88.9785188  96.7676807  94.7146427  89.6601469  97.0012203
  95.2383854  88.8668269  95.8229945  90.6392739  88.6456984  87.6942731
  89.8491793  88.9014512  87.2182841  91.1303986  89.4605322  87.7994771
 104.6556548  95.9862223  90.4448012 105.4773992  95.5842410  90.1630693
 104.6518951  95.8830457  91.3964127  92.5907484  89.0101563  84.6526207
  91.7938647  89.1220257  85.1709703  92.3633076  89.3488215  83.7867098
  98.4213152  95.5346266  92.6008722  98.4857584  95.9966673  93.4366894
  97.7124076  94.9043631  92.7291032  88.9230442  88.8987474  90.1257721
  89.1738480  89.7834484  90.3915297  89.4589990  88.7192076  89.3532813
 112.7462541  92.3300971  86.7932983 111.9926250  91.7608369  86.6376987
 112.8810082  92.2963636  87.7403618  98.1361169  97.2014374  82.4687702
  98.0006844  98.0465909  82.8972550  98.6770982  97.4033651  81.7053636
  94.6228509  83.2805954  99.1302058  94.2295454  82.7272152  99.8049702
  95.4394649  83.5916532  99.5208575  91.5890567  94.7189812  83.0415627
  92.1015087  95.5133062  83.1921192  92.2413280  94.0216102  82.9749229
  93.3985451  97.8355568  85.1238381  93.5752080  98.7573533  84.9359365
  94.1942285  97.5213987  85.5532760  97.5396470  84.6963833  96.7222314
  98.2806183  85.2970986  96.6426777  97.7714393  83.9541470  96.1640357
  92.6837808  89.8820200  95.0000544  92.5691323  88.9805457  95.3007643
  91.8282326  90.1283897  94.6485360  99.7629646  97.8237940  96.5988044
  99.3193500  97.0374319  96.2808949 100.4246859  98.0117091  95.9331935
  94.5216767  99.3533742  91.1248723  95.0724192  99.2250805  90.3525717
  93.6828243  99.6528631  90.7743616 101.8610884  98.1040740  94.6269446
 101.8429359  98.9249621  94.1349715 102.7830804  97.9794815  94.8519587
  98.3183938  95.6184870  95.4692954  98.8512275  94.8573158  95.2392262
  97.7898019  95.3258521  96.2117109 101.4853633  80.7244936  90.9986596
 101.1417902  81.6146577  90.9225706 101.8532595  80.5346593  90.1356181
  89.5539483  93.0478466  83.8175198  90.3914705  93.4575474  83.6008906
  89.7317751  92.1077908  83.7875392 101.4503916  90.7153547  79.5059031
 100.9350539  91.4858151  79.7447418 101.1781224  90.0418683  80.1292092
  99.0351027  85.5603247  84.5644269  98.1792623  85.1710098  84.3849908
  99.4477978  85.6395208  83.7044055 100.5650173  83.0949591  88.9635829
 100.0614969  83.0579726  88.1503634 100.8580780  84.0042333  89.0232486
  96.8093059  83.1788320  87.9702011  97.6746056  82.9831129  87.6107900
  96.8770568  82.9498672  88.8971368 106.4238190  93.4685901  81.4412204
 105.6467632  93.1297061  80.9967366 107.1029671  93.4738524  80.7667169
 101.2390219  88.5880639  81.3318812 100.9340354  88.9026788  82.1828955
 102.1920661  88.6662059  81.3746145  99.6836651  94.7470862  82.9811766
  99.1558012  94.0123622  82.6685004  99.1824153  95.5245538  82.7351734
 104.6629497  92.9419883  88.0978812 104.0053171  93.6319144  88.1858941
 105.4669896  93.3316315  88.4412799  94.4155378  85.4090528  85.3418378
  94.9899130  85.1865710  84.6091571  95.0026361  85.4779223  86.0946979
 103.4734955  91.2964255  86.1482754 103.9866837  91.9294247  86.6504464
 104.1236179  90.6965451  85.7826114  94.7424965  87.4394989  79.3614263
  93.9062278  87.7769676  79.6823538  94.6029735  87.3043969  78.4241400
  96.7178046  82.2831777  84.0693447  96.0642458  81.9680794  83.4450062
  96.6758520  81.6607518  84.7953270  97.8289251  92.5651072  75.9846739
  96.9216313  92.3340326  76.1837888  98.3260283  91.7688692  76.1720721
 100.7357330 101.2748580  78.9043425 100.0619028 101.5780276  79.5128383
 101.1223152 102.0777660  78.5548882  99.9515786  88.7713711  88.3941095
  99.0338348  88.9928658  88.2362783 100.3675930  88.8460021  87.5352802
 100.7350834  90.1705126  83.5243775 101.4822653  90.6826524  83.2150897
 101.0042424  89.8489179  84.3848168  99.0077484  92.6663667  80.5070729
  98.0988703  92.3822700  80.6043199  99.0372568  93.0862746  79.6474036
 104.2396752  96.2770257  84.2761897 103.7859079  95.4361167  84.3327087
 103.6090718  96.9131655  84.6136677 103.1829671  87.2062243  85.5062564
 102.4452428  86.6939629  85.8372807 103.4356445  86.7662624  84.6945841
 102.6829691  98.1146753  85.2111715 102.9752665  98.6751811  84.4924081
 103.1928311  98.4075314  85.9664874 103.2841299  79.9838495  86.1004334
 103.5900175  79.1235858  85.8130249 104.0093903  80.5756115  85.9003327
  89.5765655  90.3869181  84.4885931  89.3790054  89.7938542  83.7636998
  89.0212319  90.0821392  85.2061870  97.5562378  90.2792288  86.6080525
  97.6110988  89.3266124  86.5323001  96.7453580  90.4351727  87.0921823
  98.7053572  94.2072411  77.8458808  98.2673002  93.4908270  77.3864445
  99.4464013  94.4348526  77.2843899  95.4954738  88.8969348  84.3670903
  94.6822604  89.1963518  84.7736096  95.9913732  88.5025036  85.0845386
  97.6463316  98.8927104  86.3005168  97.6039495  99.1187951  85.3713700
  98.5626015  98.6590479  86.4490969 101.0928950  89.3611172  93.1985797
 101.4478338  89.5882645  94.0580263 101.7401081  89.6929549  92.5763053
 106.8226687  92.4829608  83.9035126 106.6844585  92.6731204  82.9756316
 106.4662906  93.2448991  84.3603177  94.9868813  86.4687703  89.9832138
  95.6268192  86.3276462  89.2855102  94.1546343  86.1822216  89.6070740
 106.8496066  94.5506135  88.9146398 107.2832573  94.4581424  89.7629452
 107.5627647  94.5263635  88.2766414  95.7629117  95.7690133  86.0967131
  96.5569715  95.2740454  85.8949706  95.0520809  95.2407997  85.7334836
 100.5823961  98.1508229  90.4479498 100.6360984  98.7199165  91.2157214
  99.7138743  98.3210114  90.0833536  92.0711880  89.9133215  82.1726884
  91.1409468  89.8517671  82.3896846  92.1669352  89.3909168  81.3763525
  91.9897429  86.4388028  84.7605125  92.2504247  87.3533361  84.6514286
  92.8114602  85.9712471  84.9101738  93.4622355  87.8525785  91.9303950
  94.1345408  87.6443147  91.2816599  92.6352141  87.6547871  91.4909182
 107.7111616  94.5929836  91.4479283 107.9047506  95.4975646  91.6938558
 107.6112234  94.1337255  92.2817868  99.3647927  84.4787726  93.9469611
  98.7175842  85.1777676  93.8534087 100.1348942  84.9123870  94.3145859
 102.7726725  94.7436578  97.0220164 102.6212231  94.5147130  96.1050248
 102.7631404  95.7007180  97.0351509  99.5412061  92.3168491  92.0066430
 100.4704121  92.4679651  91.8335398  99.1203091  92.4052512  91.1515077
  98.3400393  96.3419155  89.7764968  98.2011479  95.9737940  90.6490906
  97.5514989  96.8566795  89.6048926  98.9348545 101.4428252  81.1190504
  99.1100300 100.9716295  81.9336127  98.2481333 102.0694018  81.3471765
  99.8905608  95.7200758  87.1653806  99.5555441  95.6801528  88.0611456
  99.3909554  95.0545474  86.6924216  93.8649852  91.1268388  92.6906387
  93.7269650  90.3948627  93.2917926  94.7754775  91.0377288  92.4090575
 102.8264800  93.0656793  77.4390865 102.2093970  92.3403621  77.3423918
 102.3581288  93.8266153  77.0957940  96.4932153  90.8388348  92.1790067
  97.2031771  90.1981540  92.1376685  96.4501461  91.0901242  93.1016247
 104.4818931  97.7755701  95.0996646 104.4231477  97.0914921  94.4327229
 104.8838450  98.5174691  94.6477272  95.2061087  87.8253565  93.9985706
  94.6698444  87.3744304  94.6507302  94.6177795  87.9599474  93.2556170
  93.5009630 104.5917615  87.8930365  93.7406228 105.2236139  88.5709383
  92.6578827 104.2405655  88.1795724  94.6163346  87.2842217  76.5612170
  93.7392812  87.1631018  76.1974416  95.0921099  86.4928295  76.3091058
 104.4836339  95.7395285  93.3310625 103.5963117  95.4021207  93.4537024
 105.0534890  95.0078316  93.5679391  86.1365486  92.0719377  86.6553677
  86.8236526  91.7581107  86.0674692  85.9813614  92.9760741  86.3820928
  90.9400208  86.9609573  91.0838701  90.8558397  86.3535243  90.3489110
  90.1182914  87.4518591  91.0848197  98.0137492 100.3996737  90.2971869
  97.9407663 101.2051709  90.8091173  97.5714885 100.5988703  89.4719890
  97.8027272  99.6368507  83.8074690  97.0194793 100.1790187  83.9012915
  98.5020017 100.1542487  84.2068931 101.1123922  85.4463137  86.4508896
 101.6092621  84.6933099  86.1309966 100.3410903  85.4827453  85.8852105
 108.9653679  91.1503502  88.0927187 108.9543555  92.0328218  87.7221120
 108.0971059  90.7975053  87.8981724 100.4736175 100.2983571  92.4530027
 101.1864148 100.9331036  92.3805929  99.9826204 100.3947437  91.6370029
 102.1953702  94.2034824  84.0247319 101.2609981  94.3236286  83.8552023
 102.3730371  93.3007291  83.7607329  97.6958890  87.5880520  86.1780580
  97.3256678  87.0351560  86.8661486  98.1917983  86.9838653  85.6255580
 105.5826254  90.0452143  84.5597353 106.0486706  90.8780135  84.4857656
 106.0333754  89.5797125  85.2642612  95.5248089  98.0478015  93.2735598
  96.2257549  98.6814498  93.4264992  95.0543204  98.3892746  92.5131237
 103.6502485  96.3895964  81.5583505 103.9262329  96.2752559  82.4677379
 102.7806984  95.9913449  81.5195678 103.5542916  82.4132730  88.5988254
 102.6405996  82.6436957  88.7670461 103.9836018  82.4971174  89.4502287
 103.3249375  90.6022622  91.0988148 102.6720825  90.8498530  90.4440601
 103.7029755  89.7886760  90.7650626 100.2856549 100.6382315  85.2016319
 100.4678943  99.8203971  85.6644071 101.1089535 100.8550008  84.7641209
 100.6198714  99.5650500  82.4631367 101.1486481  99.0542955  81.8501529
 100.8826934  99.2493031  83.3276900  99.3736948  91.3442433  97.5854186
  98.6977585  91.2436562  98.2556561 100.1964582  91.1881647  98.0490183
  91.1215807  97.5814370  90.2066701  91.7069244  96.8358058  90.3394605
  90.9240646  97.8918326  91.0903365  93.9754462 100.6165617  85.2229143
  93.3064838 101.1011745  84.7393183  93.8367332 100.8634838  86.1372522
  85.7133462  90.1519970  88.9271144  85.7517561  89.6183561  89.7208262
  85.2073755  89.6255175  88.3082121  98.1159731 102.6509361  91.8211802
  98.6678039 102.8140982  92.5860887  98.4565924 103.2413798  91.1491826
  93.0924224  84.9984510  92.4233686  93.1565551  85.8599341  92.0111084
  93.0291344  84.3858512  91.6906045  92.5676497  87.0707643  96.0706720
  93.1948535  86.6884720  96.6844245  91.7104415  86.8521845  96.4362413
  89.3442039  88.8784072  82.0025075  89.6395480  87.9694750  81.9492129
  88.4430075  88.8571812  81.6806078 101.2528118 100.5991336  88.8075484
 101.1279258  99.7981076  88.2986429 101.9107209 101.0937530  88.3189454
  92.8736286  86.9540069  87.9852624  92.1522872  87.5676036  87.8460097
  93.6629542  87.4897833  87.9069270 103.3163027  98.4000356  90.4355034
 102.3693362  98.2805707  90.3633361 103.6645800  97.5122854  90.5181295
  95.6762600  84.2894495  94.2593276  96.1997002  84.5356792  95.0219585
  95.4574933  85.1214530  93.8396413  91.0729881  86.5598170  82.1264400
  90.7442587  85.6795549  81.9439506  91.4269252  86.5045838  83.0140790
 100.3209460  98.1953072  86.6359386 100.1734422  97.2669780  86.8166956
 101.1462953  98.2173163  86.1516461  94.1871704  86.8471140  82.4939878
  94.5267777  87.3757061  81.7718487  94.6343825  87.1851546  83.2698445
 103.9243582  99.0181631  87.7224259 104.8490129  98.8124493  87.5848710
 103.7558885  98.7698032  88.6313600  96.8815145  85.2308190  91.9442946
  96.5411965  84.4316003  92.3463626  96.1754151  85.5309901  91.3719779
  97.5331617  82.3157503  90.3970269  98.3557686  81.8417981  90.2749160
  97.7769680  83.0947986  90.8968956  96.1739851  85.3445761  80.6933171
  96.8948214  85.7227014  80.1896888  95.5505155  86.0634638  80.7968149
 100.3170974  86.0490910  81.6291503 100.5334589  86.9315548  81.3280331
  99.8365041  85.6577123  80.8997145  95.0570196  89.0076623  88.2062248
  94.9114776  89.3216926  89.0986529  94.5795399  89.6261524  87.6533146
  96.9166578  85.9979171  88.2543137  96.9028147  85.1020265  87.9175435
  97.6339007  86.0049835  88.8881423  98.7692709  86.4316512  90.2996265
  98.5110487  87.3533582  90.2980595  98.2377750  86.0346946  90.9896729
 103.7138898  99.5367299  83.0786350 103.8875775  98.9713721  82.3260203
 104.2067789 100.3368194  82.8965840  89.5315858  91.5481968  91.1449909
  88.9869326  92.3241776  91.2770183  90.4095208  91.8952772  90.9869030
  96.3203474  84.8793552  83.5230708  96.4419386  83.9510198  83.7221595
  96.0305517  84.8932238  82.6109023  99.1894665  82.5648462  86.6597427
  99.2116362  82.6287795  85.7049407  99.6062724  81.7252971  86.8537934
 109.5678289  92.3003722  84.6976650 110.0109435  91.5511047  84.2995773
 108.6904799  92.2913858  84.3150382 104.7014070  98.8534063  80.1783248
 105.3964975  99.4740756  80.3970563 105.0437221  98.0029414  80.4535626
  90.3181880  90.6751864  94.0380066  89.5763616  90.8234499  94.6244696
  89.9974624  90.9360130  93.1746815 106.6005494  96.3033769  81.7070579
 107.1256818  96.6421041  80.9819899 106.5127846  95.3680784  81.5233714
  98.2625542 100.2167842  93.8360456  98.5712669  99.9716989  94.7083155
  99.0601024 100.4214481  93.3479326  98.2846154 102.3705752  86.0665832
  97.8451145 101.8782131  86.7598689  99.0354271 101.8278720  85.8257908
  90.7638493  98.5617293  86.0690461  91.5896513  98.2621065  85.6889104
  90.4132545  97.7924915  86.5180249  95.7320026  97.9143761  88.1388134
  95.1100036  97.2514466  87.8390362  96.4024893  97.9404893  87.4561782
  88.9647098  96.4803619  87.0279394  88.1279007  96.0525794  86.8463395
  88.9370744  96.6736062  87.9650185  95.8044554  86.3925549  97.7320640
  95.8532709  87.2687672  97.3498410  96.3467068  85.8502942  97.1592283
 106.4097275  93.7859139  94.3254506 106.4595280  93.6209146  95.2670029
 106.3011198  92.9186398  93.9352387  95.2933533  96.4647684  81.6146595
  95.4421654  97.1483149  80.9613267  96.0999977  96.4452774  82.1296050
 103.7001037  89.7690067  95.6413812 104.6010900  89.6296531  95.3497810
 103.7749012  89.9344521  96.5811990  98.0343842  87.1456921  94.4866999
  97.1647152  87.4390487  94.2149587  98.2703323  87.7297366  95.2074262
 107.9115471  96.2056080  94.5696527 107.6200280  96.5686061  95.4059988
 107.2987603  95.4923088  94.3909859 109.1111154  93.7708960  87.0899098
 109.9458045  94.2098764  87.2536658 109.2470283  93.2947613  86.2707343
 106.1602660  91.3288695  93.0376585 106.6356781  91.5216341  92.2295437
 105.2368225  91.3847881  92.7919969  93.0486166  92.4912862  82.6207664
  92.8032208  91.5875192  82.8187874  93.2182081  92.4930012  81.6787142
 100.7382876  83.3636538  92.0032419 101.2564820  84.0997565  91.6778908
 100.3838009  83.6700532  92.8379178  92.3181814  88.2241219  80.1193825
  91.6251059  88.2985574  79.4633861  92.0733566  87.4601563  80.6415342
 100.9895470  79.7836821  87.5233316 101.2697224  79.1160010  88.1493742
 101.7746077  79.9765916  87.0107980  98.7928939  98.9595815  79.0858342
  98.2202906  99.5786002  78.6328814  99.3661733  99.5095176  79.6198264
 104.8604329  88.2054455  91.2704891 105.8121752  88.3052552  91.2917115
 104.6907779  87.4132723  91.7802975 102.8818708  85.2910038  91.4564292
 102.2868640  85.5715051  90.7610780 102.5968405  85.7803939  92.2281033
 102.0126199  99.2432965  80.2166924 102.9456872  99.1778527  80.4199800
 101.9249411 100.0789232  79.7581457 104.6414215  98.5598835  77.1770872
 104.5627847  98.2258699  78.0706630 105.4623882  99.0520603  77.1762344
 107.3392406  91.4260574  90.3847191 107.3068727  90.4876575  90.5706874
 107.9493030  91.5044611  89.6513015  99.1775737  90.2956627  76.4274395
 100.1234842  90.1662836  76.4962813  98.7989982  89.5571289  76.9043823
 107.4886895  88.2171618  90.4305474 106.9725944  87.4330075  90.2435403
 108.3726843  87.8890335  90.5951993 105.1497622  81.9612633  86.3901286
 104.9522443  81.6527722  87.2744618 105.7597327  82.6874272  86.5199216
 113.1568956  92.4876581  89.5253227 113.8872345  92.2261869  90.0860931
 112.5475902  91.7505303  89.5655295 111.2384253  90.6284444  90.1227679
 110.5117417  90.4940409  89.5144170 110.8231540  90.9361273  90.9284397
  99.0614430  94.3474374  97.8875052  99.9817439  94.5252973  98.0815098
  99.0264013  93.4030419  97.7354751  97.3618654  88.2206604  76.3629280
  96.4550110  87.9239717  76.4391993  97.6394635  87.9236422  75.4963566
  88.2796595  89.5412967  86.8128326  87.9599379  88.6878275  86.5202700
  87.7330023  89.7561545  87.5686294  92.0576502  92.2575408  90.5297833
  92.2762512  93.1892516  90.5485867  92.4702276  91.8983383  91.3152637
  98.9780720  82.7643494  82.5173521  98.1681449  82.4190579  82.8928767
  99.6665137  82.4551037  83.1061133 100.9071268  81.8421540  84.1397818
 101.4602307  82.2616994  84.7987841 101.1441355  80.9157288  84.1820774
  96.9304368  87.8308614  99.9200582  96.8301095  88.7802971  99.8512673
  96.7125910  87.5026853  99.0476652  96.1317439  85.0793539  76.5041259
  96.9936603  85.4048437  76.7637076  96.3167783  84.2925035  75.9914325
  88.1484855  93.1615879  88.7821448  87.4548326  92.7469832  88.2691402
  88.8957846  93.2036415  88.1854867 104.2850076  83.9522066  83.6476482
 103.7048745  84.6106870  83.2654534 104.0186008  83.1299410  83.2363899
 102.7353642  83.3527123  85.8497802 103.2353420  83.4643658  85.0412121
 103.3789250  83.0488176  86.4898611  96.7935638  91.2605753  98.7365643
  96.3102719  92.0606113  98.9429532  96.8796577  91.2713698  97.7833087
  90.0621597  93.0934133  86.6587463  90.0392286  93.1921820  85.7069346
  90.3722234  93.9399283  86.9804629  92.7208975  95.1510288  90.7734077
  93.6752229  95.1194230  90.7064009  92.5221499  94.6900911  91.5884303
  93.3108357  93.7211404  93.3404875  94.1301246  94.2155482  93.3639712
  93.5845165  92.8043372  93.3122442 103.0674954  86.1122156  82.7032830
 102.1800809  86.3971807  82.4853025 103.4828943  85.9515919  81.8560107
 106.4189490  86.1368677  86.4187170 107.1949880  86.6265129  86.6911786
 105.6937624  86.5626731  86.8759039 108.8562048  86.8496296  87.4761110
 109.4506539  86.6092032  86.7654418 108.9288632  86.1303427  88.1034646
  91.0759204 100.6929907  87.7904275  90.9413672  99.9330308  87.2242273
  90.6591266 101.4170807  87.3233064 102.2118167  95.8766831  76.7980850
 102.9154017  96.0816833  77.4138506 101.4880816  96.4443592  77.0629934
 103.0415977  91.6276692  82.9183120 102.9851179  92.0845243  82.0790753
 103.5944320  90.8667376  82.7405963 106.8520783  87.4166424  83.7433240
 106.5957717  87.0163059  84.5741448 106.2273651  88.1310218  83.6183379
 111.1633121  90.1562497  86.2504531 110.6032679  90.2255686  87.0236093
 110.5576624  89.9803482  85.5304028  94.2328330 101.5899224  88.0022718
  94.1160714 102.5344657  87.9001408  93.4120776 101.2872786  88.3908517
 104.1204864  96.3149360  78.8479310 104.9550468  95.8830558  78.6656785
 103.9589207  96.1431373  79.7756205 103.7750757  92.8181473  80.2135650
 103.7199560  92.6525745  79.2724094 103.1496812  93.5257506  80.3697839
  88.5643272  88.0549537  94.0397072  89.2102135  87.5448491  94.5284297
  88.3560423  88.7918219  94.6140497  97.0846882  82.3189582  79.7920968
  97.0725552  83.2631422  79.9489239  97.9770304  82.1359728  79.4980429
  95.2582844 102.2427486  91.2178646  96.1610091 102.2751096  91.5345141
  95.0320214 101.3127937  91.2324982  97.0136446 100.9958473  87.8788725
  96.0632077 100.9960334  87.7653097  97.3168932 100.2491207  87.3624759
 100.8999002  78.9132359  84.0466905 100.1331397  78.3590845  84.1923587
 101.3109707  78.9854228  84.9081056  92.9040763  85.2017155  98.1372086
  93.7672224  84.8453959  98.3475411  92.3306173  84.8631049  98.8247490
 105.4165662 108.6381915  84.8692903 104.8530527 108.5471852  84.1009190
 105.3018057 107.8181820  85.3495395 102.9630093 110.1333107  87.7077123
 103.7551385 109.7923932  87.2923422 103.2026744 110.2428082  88.6279276
 104.9220847 109.3942020  80.5794502 105.6951723 108.8471007  80.4407378
 105.2746246 110.2586270  80.7908963 107.2587125 105.5534686  78.2112952
 107.5112646 105.0316208  77.4496415 106.3211684 105.3900832  78.3139635
 112.3030408 104.5570465  86.0187695 113.0893497 104.1389888  85.6678112
 112.5669112 105.4616557  86.1869343 106.9783414 107.4562792  80.4137327
 106.8619672 106.7807696  81.0818411 107.0885674 106.9695166  79.5969480
 109.3214955 106.9172939  84.1184016 108.9573162 106.3903560  84.8296938
 110.1782071 106.5271409  83.9450501 108.9620442 101.9462839  79.1145365
 109.1294844 102.8143076  79.4815836 108.7717611 102.1090121  78.1906654
 105.1708257 106.8593615  86.8147899 104.2458753 106.7269829  87.0225591
 105.4192670 107.6387834  87.3117842 108.9409663 104.4020497  80.0992031
 108.8209288 104.8477547  80.9377512 108.2462251 104.7505814  79.5405570
 102.5317068 106.5026888  87.6491688 102.6609449 106.7561367  88.5631100
 101.8514519 107.0954596  87.3296343 114.6394729 104.8741970  80.9272365
 115.5512585 105.1069357  80.7520063 114.1304376 105.4579014  80.3647444
 111.9830704 101.0500006  89.1762226 111.1215183 101.3481259  89.4678964
 112.0093138 101.2670405  88.2443259 108.7992273 109.5942196  85.5836032
 109.2630619 109.8729899  84.7940654 108.5349071 108.6925641  85.4009123
 107.7361159 105.7165349  82.3925597 108.4385203 106.1686392  82.8599524
 107.4041788 105.0749168  83.0205490 101.4786493 103.9748901  87.6942731
 100.6885547 104.2306430  87.2182841 101.9697740 104.7897239  87.7994771
 103.4301239 104.3393481  84.6526207 102.6332402 104.4512175  85.1709703
 103.2026831 104.6780133  83.7867098  99.7624196 104.2279392  90.1257721
 100.0132235 105.1126402  90.3915297 100.2983745 104.0483993  89.3532813
 102.4284321 110.0481729  83.0415627 102.9408842 110.8424980  83.1921192
 103.0807034 109.3508020  82.9749229 104.2379206 113.1647486  85.1238381
 104.4145834 114.0865450  84.9359365 105.0336039 112.8505905  85.5532760
 112.3247387  96.0536853  90.9986596 111.9811657  96.9438495  90.9225706
 112.6926350  95.8638511  90.1356181 100.3933238 108.3770384  83.8175198
 101.2308460 108.7867392  83.6008906 100.5711506 107.4369826  83.7875392
 112.2897670 106.0445464  79.5059031 111.7744294 106.8150069  79.7447418
 112.0174979 105.3710600  80.1292092 109.8744781 100.8895165  84.5644269
 109.0186377 100.5002016  84.3849908 110.2871733 100.9687126  83.7044055
 111.4043928  98.4241508  88.9635829 110.9008723  98.3871644  88.1503634
 111.6974535  99.3334251  89.0232486 107.6486814  98.5080238  87.9702011
 108.5139810  98.3123047  87.6107900 107.7164323  98.2790590  88.8971368
 112.0783973 103.9172556  81.3318812 111.7734109 104.2318706  82.1828955
 113.0314415 103.9953976  81.3746145 110.5230405 110.0762780  82.9811766
 109.9951767 109.3415539  82.6685004 110.0217908 110.8537456  82.7351734
 105.2549133 100.7382446  85.3418378 105.8292885 100.5157628  84.6091571
 105.8420115 100.8071141  86.0946979 105.5818720 102.7686907  79.3614263
 104.7456032 103.1061594  79.6823538 105.4423489 102.6335887  78.4241400
 107.5571800  97.6123695  84.0693447 106.9036213  97.2972712  83.4450062
 107.5152275  96.9899435  84.7953270 108.6683005 107.8942990  75.9846739
 107.7610067 107.6632243  76.1837888 109.1654037 107.0980609  76.1720721
 110.7909541 104.1005628  88.3941095 109.8732102 104.3220575  88.2362783
 111.2069684 104.1751939  87.5352802 111.5744589 105.4997044  83.5243775
 112.3216407 106.0118441  83.2150897 111.8436178 105.1781097  84.3848168
 109.8471239 107.9955585  80.5070729 108.9382458 107.7114618  80.6043199
 109.8766323 108.4154663  79.6474036 114.0223426 102.5354160  85.5062564
 113.2846182 102.0231547  85.8372807 114.2750199 102.0954542  84.6945841
 114.1235053  95.3130412  86.1004334 114.4293930  94.4527776  85.8130249
 114.8487658  95.9048033  85.9003327 100.4159409 105.7161099  84.4885931
 100.2183809 105.1230460  83.7636998  99.8606073 105.4113309  85.2061870
 108.3956133 105.6084205  86.6080525 108.4504743 104.6558042  86.5323001
 107.5847335 105.7643645  87.0921823 109.5447327 109.5364329  77.8458808
 109.1066756 108.8200187  77.3864445 110.2857767 109.7640443  77.2843899
 106.3348493 104.2261265  84.3670903 105.5216358 104.5255436  84.7736096
 106.8307487 103.8316954  85.0845386 105.8262567 101.7979621  89.9832138
 106.4661947 101.6568380  89.2855102 104.9940098 101.5114134  89.6070740
 106.6022871 111.0982051  86.0967131 107.3963470 110.6032371  85.8949706
 105.8914564 110.5699914  85.7334836 102.9105635 105.2425133  82.1726884
 101.9803223 105.1809588  82.3896846 103.0063107 104.7201086  81.3763525
 102.8291184 101.7679946  84.7605125 103.0898001 102.6825279  84.6514286
 103.6508356 101.3004388  84.9101738 104.3016109 103.1817703  91.9303950
 104.9739163 102.9735065  91.2816599 103.4745896 102.9839789  91.4909182
 113.6658554 108.3948710  77.4390865 113.0487725 107.6695538  77.3423918
 113.1975043 109.1558070  77.0957940 105.4557100 102.6134135  76.5612170
 104.5786566 102.4922935  76.1974416 105.9314853 101.8220213  76.3091058
  96.9759240 107.4011294  86.6553677  97.6630280 107.0873024  86.0674692
  96.8207369 108.3052659  86.3820928 101.7793962 102.2901491  91.0838701
 101.6952151 101.6827160  90.3489110 100.9576669 102.7810509  91.0848197
 111.9517676 100.7755054  86.4508896 112.4486376 100.0225017  86.1309966
 111.1804658 100.8119371  85.8852105 113.0347457 109.5326742  84.0247319
 112.1003736 109.6528204  83.8552023 113.2124125 108.6299208  83.7607329
 108.5352645 102.9172437  86.1780580 108.1650432 102.3643478  86.8661486
 109.0311737 102.3130571  85.6255580 116.4220008 105.3744061  84.5597353
 116.8880460 106.2072052  84.4857656 116.8727509 104.9089042  85.2642612
 114.3936671  97.7424648  88.5988254 113.4799751  97.9728875  88.7670461
 114.8229772  97.8263092  89.4502287  96.5527216 105.4811888  88.9271144
  96.5911316 104.9475478  89.7208262  96.0467509 104.9547093  88.3082121
 103.9317979 100.3276428  92.4233686 103.9959305 101.1891259  92.0111084
 103.8685099  99.7150430  91.6906045 100.1835794 104.2075990  82.0025075
 100.4789235 103.2986668  81.9492129  99.2823830 104.1863729  81.6806078
 103.7130041 102.2831986  87.9852624 102.9916627 102.8967954  87.8460097
 104.5023297 102.8189751  87.9069270 101.9123635 101.8890087  82.1264400
 101.5836342 101.0087466  81.9439506 102.2663006 101.8337756  83.0140790
 105.0265459 102.1763057  82.4939878 105.3661531 102.7048978  81.7718487
 105.4737579 102.5143463  83.2698445 107.7208899 100.5600108  91.9442946
 107.3805720  99.7607921  92.3463626 107.0147906 100.8601819  91.3719779
 108.3725371  97.6449420  90.3970269 109.1951441  97.1709899  90.2749160
 108.6163435  98.4239904  90.8968956 107.0133606 100.6737679  80.6933171
 107.7341968 101.0518932  80.1896888 106.3898910 101.3926556  80.7968149
 111.1564729 101.3782828  81.6291503 111.3728343 102.2607466  81.3280331
 110.6758796 100.9869041  80.8997145 105.8963950 104.3368541  88.2062248
 105.7508531 104.6508844  89.0986529 105.4189154 104.9553441  87.6533146
 107.7560333 101.3271089  88.2543137 107.7421902 100.4312182  87.9175435
 108.4732761 101.3341753  88.8881423 109.6086464 101.7608429  90.2996265
 109.3504241 102.6825500  90.2980595 109.0771504 101.3638864  90.9896729
 100.3709612 106.8773885  91.1449909  99.8263080 107.6533693  91.2770183
 101.2488962 107.2244690  90.9869030 107.1597229 100.2085469  83.5230708
 107.2813140  99.2802115  83.7221595 106.8699271 100.2224155  82.6109023
 110.0288419  97.8940380  86.6597427 110.0510116  97.9579713  85.7049407
 110.4456478  97.0544888  86.8537934 101.6032248 113.8909210  86.0690461
 102.4290268 113.5912982  85.6889104 101.2526300 113.1216833  86.5180249
  99.8040853 111.8095537  87.0279394  98.9672761 111.3817711  86.8463395
  99.7764498 112.0027980  87.9650185 106.1327288 111.7939602  81.6146595
 106.2815408 112.4775066  80.9613267 106.9393731 111.7744692  82.1296050
 103.8879921 107.8204780  82.6207664 103.6425963 106.9167110  82.8187874
 104.0575835 107.8221930  81.6787142 103.1575568 103.5533137  80.1193825
 102.4644813 103.6277492  79.4633861 102.9127320 102.7893481  80.6415342
 111.8289225  95.1128738  87.5233316 112.1090979  94.4451928  88.1493742
 112.6139832  95.3057834  87.0107980 110.0169492 105.6248545  76.4274395
 110.9628597 105.4954753  76.4962813 109.6383737 104.8863207  76.9043823
 115.9891376  97.2904551  86.3901286 115.7916198  96.9819639  87.2744618
 116.5991082  98.0166190  86.5199216 108.2012409 103.5498522  76.3629280
 107.2943864 103.2531634  76.4391993 108.4788390 103.2528340  75.4963566
  99.1190349 104.8704885  86.8128326  98.7993134 104.0170193  86.5202700
  98.5723778 105.0853463  87.5686294 109.8174475  98.0935411  82.5173521
 109.0075203  97.7482496  82.8928767 110.5058892  97.7842955  83.1061133
 111.7465023  97.1713458  84.1397818 112.2996062  97.5908911  84.7987841
 111.9835109  96.2449206  84.1820774 106.9711194 100.4085457  76.5041259
 107.8330358 100.7340355  76.7637076 107.1561538  99.6216953  75.9914325
  98.9878609 108.4907796  88.7821448  98.2942081 108.0761749  88.2691402
  99.7351600 108.5328333  88.1854867 115.1243830  99.2813983  83.6476482
 114.5442499  99.9398787  83.2654534 114.8579763  98.4591328  83.2363899
 113.5747396  98.6819041  85.8497802 114.0747175  98.7935575  85.0412121
 114.2183004  98.3780094  86.4898611 100.9015352 108.4226050  86.6587463
 100.8786040 108.5213737  85.7069346 101.2115988 109.2691201  86.9804629
 113.9068708 101.4414074  82.7032830 113.0194563 101.7263724  82.4853025
 114.3222697 101.2807837  81.8560107 117.2583244 101.4660595  86.4187170
 118.0343634 101.9557047  86.6911786 116.5331378 101.8918649  86.8759039
 113.8809732 106.9568610  82.9183120 113.8244933 107.4137161  82.0790753
 114.4338074 106.1959294  82.7405963 117.6914538 102.7458341  83.7433240
 117.4351472 102.3454977  84.5741448 117.0667406 103.4602135  83.6183379
 114.6144511 108.1473391  80.2135650 114.5593315 107.9817662  79.2724094
 113.9890566 108.8549424  80.3697839  99.4037026 103.3841455  94.0397072
 100.0495890 102.8740409  94.5284297  99.1954177 104.1210137  94.6140497
 107.9240637  97.6481500  79.7920968 107.9119306  98.5923340  79.9489239
 108.8164058  97.4651645  79.4980429 111.7392756  94.2424276  84.0466905
 110.9725152  93.6882763  84.1923587 112.1503461  94.3146145  84.9081056
  44.5216320  -8.1842944  75.6041318  44.1834832  -8.3001880  74.7161853
  45.3906088  -8.5851779  75.5842325  40.3803136  -6.3307468  71.5938209
  39.8168001  -6.4217531  70.8254497  40.2655531  -7.1507564  72.0740702
  45.0036103  -7.0308093  81.5627524  44.9924744  -7.4255294  80.6908028
  45.1656743  -7.7642020  82.1561295  37.9267568  -4.8356276  74.4322430
  38.7188860  -5.1765452  74.0168729  38.1664218  -4.7261301  75.3524583
  45.9602695  -2.6636500  66.9052674  45.3090674  -2.0782420  66.5186688
  46.7547057  -2.1330305  66.9647712  39.8858322  -5.5747363  67.3039809
  40.6589198  -6.1218376  67.1652684  40.2383721  -4.7103114  67.5154270
  41.7243364  -4.2470981  80.5106708  41.4333230  -3.3425350  80.3953374
  42.3600349  -4.2054453  81.2250777  42.6499571  -6.8694132  77.1008068
  43.2463143  -7.0938110  76.3865030  42.7074543  -7.6109387  77.7033515
  47.4377960  -4.9746068  67.4421659  46.8023793  -4.9011442  68.1542563
  47.1075366  -4.3852470  66.7640738  41.9420888  -7.5126591  67.1382633
  41.8257146  -8.1881688  67.8063718  42.0523148  -7.9994217  66.3214786
  44.2852429  -8.0516444  70.8429323  43.9210636  -8.5785823  71.5542244
  45.1419545  -8.4417975  70.6695808  46.6833249  -4.5609565  77.5056502
  46.3833972  -3.6584527  77.3972309  46.3384309  -4.8277382  78.3577654
  40.1345731  -8.1095769  73.5393206  39.2096227  -8.2419554  73.7470898
  40.3830144  -7.3301549  74.0363148  41.6654029   2.2034755  70.4727469
  41.5878059   3.1542580  70.5515950  41.0615673   1.8580627  71.1302396
  42.4117631  -7.8151926  82.6906803  43.1532316  -7.2766882  82.4141627
  41.7054617  -7.1885638  82.8478355  47.8872971  -5.6722786  81.2878965
  48.2956327  -6.1140375  80.5433597  47.1650232  -6.2470158  81.5413158
  48.2101786  -5.1121595  75.0431254  47.5810648  -4.9475881  74.3407321
  47.8227448  -4.6979986  75.8142218  52.0891017  -4.1767157  72.3975617
  51.4042056  -3.7968256  71.8472651  52.1734867  -3.5671831  73.1307565
  49.3441949  -6.5307198  78.9970961  49.5558844  -5.8875438  78.3205342
  49.2971697  -7.3644882  78.5292891  43.7629747  -5.3747187  72.3081339
  44.2268093  -5.0959484  71.5185961  43.4986546  -6.2763743  72.1254429
  40.6553828  -5.8275706  75.2461102  41.2255186  -5.3988437  74.6078586
  41.2461940  -6.1093121  75.9445288  50.4587777  -3.6535243  77.1693318
  51.2805221  -4.0555056  76.8876000  50.4550180  -3.7567009  78.1209434
  44.2244380  -4.1051200  79.3254029  44.2888813  -3.6430792  80.1612201
  43.5155304  -4.7353835  79.4536339  43.9392398  -2.4383092  69.1933009
  43.8038073  -1.5931556  69.6217857  44.4802211  -2.2363814  68.4298943
  37.3921795  -4.9207654  69.7660934  37.9046316  -4.1264404  69.9166499
  38.0444508  -5.6181364  69.6994536  39.2016680  -1.8041898  71.8483687
  39.3783309  -0.8823933  71.6604671  39.9973514  -2.1183479  72.2778067
  45.5660874  -1.8159526  83.3233351  45.1224729  -2.6023147  83.0054256
  46.2278088  -1.6280375  82.6577242  40.3247996  -0.2863724  77.8494030
  40.8755421  -0.4146661  77.0771024  39.4859472   0.0131165  77.4988922
  47.6642113  -1.5356726  81.3514752  47.6460588  -0.7147845  80.8595022
  48.5862033  -1.6602650  81.5764894  44.1215167  -4.0212596  82.1938261
  44.6543504  -4.7824308  81.9637569  43.5929248  -4.3138944  82.9362415
  45.4867879  -4.8926604  69.7057073  44.9589241  -5.6273844  69.3930310
  44.9855382  -4.1151927  69.4597041  50.4660725  -6.6977583  74.8224119
  49.8084400  -6.0078322  74.9104248  51.2701125  -6.3081151  75.1658105
  43.6320480  -7.0746393  62.7092046  42.7247541  -7.3057140  62.9083195
  44.1291512  -7.8708774  62.8966027  46.5388558   1.6351114  65.6288732
  45.8650257   1.9382810  66.2373690  46.9254380   2.4380194  65.2794189
  44.8108713  -6.9733799  67.2316036  43.9019932  -7.2574766  67.3288506
  44.8403797  -6.5534720  66.3719343  50.0427980  -3.3627209  71.0007203
  49.5890308  -4.2036299  71.0572394  49.4121947  -2.7265811  71.3381984
  48.4860920  -1.5250712  71.9357022  48.7783894  -0.9645655  71.2169387
  48.9959540  -1.2322151  72.6910181  44.5084801  -5.4325055  64.5704114
  44.0704231  -6.1489196  64.1109752  45.2495242  -5.2048940  64.0089206
  43.4494545  -0.7470361  73.0250475  43.4070724  -0.5209515  72.0959007
  44.3657244  -0.9806987  73.1736276  52.6527295  -5.0891331  75.6391705
  53.0863802  -5.1816042  76.4874759  53.3658876  -5.1133830  75.0011721
  41.5660346  -3.8707332  72.8212437  42.3600944  -4.3657012  72.6195012
  40.8552038  -4.3989469  72.4580143  46.3855190  -1.4889237  77.1724805
  46.4392212  -0.9198300  77.9402521  45.5169971  -1.3187352  76.8078842
  53.5142845  -5.0467630  78.1724590  53.7078735  -4.1421820  78.4183865
  53.4143463  -5.5060211  79.0063175  48.5757953  -4.8960887  83.7465471
  48.4243460  -5.1250336  82.8295554  48.5662633  -3.9390286  83.7596816
  45.3443290  -7.3228975  78.7311737  46.2735350  -7.1717815  78.5580704
  44.9234320  -7.2344954  77.8760383  44.1431622  -3.2978310  76.5010275
  44.0042707  -3.6659526  77.3736213  43.3546218  -2.7830671  76.3294232
  44.7379774   1.8030786  67.8435811  44.9131529   1.3318829  68.6581434
  44.0512562   2.4296552  68.0717072  45.6936837  -3.9196708  73.8899112
  45.3586669  -3.9595938  74.7856762  45.1940782  -4.5851992  73.4169523
  39.6681081  -8.5129078  79.4151694  39.5300879  -9.2448839  80.0163233
  40.5786004  -8.6020177  79.1335881  48.6296028  -6.5740673  64.1636172
  48.0125199  -7.2993845  64.0669225  48.1612517  -5.8131313  63.8203246
  42.2963381  -8.8009118  78.9035373  43.0063000  -9.4415926  78.8621992
  42.2532690  -8.5496223  79.8261554  50.2850160  -1.8641765  81.8241952
  50.2262706  -2.5482545  81.1572535  50.6869678  -1.1222775  81.3722578
  39.3040859   4.9520149  74.6175671  39.5437457   5.5838673  75.2954690
  38.4610055   4.6008189  74.9041031  50.2867567  -3.9002181  80.0555932
  49.3994346  -4.2376259  80.1782331  50.8566118  -4.6319150  80.2924697
  43.8168721   0.7599271  77.0217175  43.7438892   1.5654243  77.5336480
  43.3746114   0.9591237  76.1965197  43.6058500  -0.0028959  70.5319997
  42.8226022   0.5392722  70.6258221  44.3051246   0.5145021  70.9314238
  46.2767404   0.6586105  79.1775334  46.9895376   1.2933570  79.1051235
  45.7857433   0.7549971  78.3615336  47.9984931  -5.4362642  70.7492626
  47.0641210  -5.3161179  70.5797330  48.1761600  -6.3390175  70.4852635
  41.3279318  -1.5919451  79.9980905  42.0288777  -0.9582968  80.1510299
  40.8574433  -1.2504720  79.2376544  49.4533714  -3.2501501  68.2828812
  49.7293558  -3.3644907  69.1922686  48.5838212  -3.6484016  68.2440985
  46.0887778   0.9984850  71.9261625  46.2710172   0.1806505  72.3889378
  46.9120764   1.2152542  71.4886515  46.4229943  -0.0746965  69.1876674
  46.9517710  -0.5854511  68.5746836  46.6858163  -0.3904435  70.0522207
  45.1768177  -8.2955033  84.3099492  44.5008814  -8.3960903  84.9801867
  45.9995811  -8.4515819  84.7735489  36.9247036  -2.0583096  76.9312007
  37.5100473  -2.8039408  77.0639912  36.7271874  -1.7479139  77.8148671
  39.7785691   0.9768151  71.9474450  39.1096066   1.4614279  71.4638490
  39.6398561   1.2237372  72.8617828  43.9190960   3.0111895  78.5457108
  44.4709268   3.1743516  79.3106193  44.2597153   3.6016333  77.8737133
  48.7701834  -2.1626848  84.4005763  49.3141738  -1.5496889  83.9060717
  48.1888679  -1.6047269  84.9172776  47.0559347   0.9593870  75.5320790
  46.9310486   0.1583610  75.0231736  47.7138438   1.4540064  75.0434760
  49.1194255  -1.2397110  77.1600340  48.1724591  -1.3591758  77.0878667
  49.4677028  -2.1274612  77.2426602  46.1240689  -1.4444393  73.3604693
  45.9765651  -2.3727686  73.5412263  46.9494182  -1.4224303  72.8761768
  49.7274810  -0.6215835  74.4469565  50.6521358  -0.8272973  74.3094017
  49.5590114  -0.8699433  75.3558907  49.5170127  -0.1030167  69.8031657
  49.6907004  -0.6683745  69.0505509  50.0099018   0.6970728  69.6211147
  50.5045299  -0.7863403  66.9028555  51.1996204  -0.1656710  67.1215870
  50.8468449  -1.6368052  67.1780933  52.4036722  -3.3363697  68.4315886
  52.9288046  -2.9976424  67.7065206  52.3159075  -4.2716682  68.2479021
  44.0656771   0.5770376  80.5605763  44.3743897   0.3319523  81.4328462
  44.8632253   0.7817015  80.0724633  44.0877383   2.7308286  72.7911139
  43.6482373   2.2384665  73.4843996  44.8385500   2.1881254  72.5503214
  36.5669722  -1.0780173  72.7935767  37.3927742  -1.3776401  72.4134411
  36.2163774  -1.8472551  73.2425556  41.5351255  -1.7253705  74.8633441
  40.9131264  -2.3883000  74.5635669  42.2056122  -1.6992573  74.1807089
  34.7678327  -3.1593847  73.7524701  33.9310235  -3.5871672  73.5708702
  34.7401973  -2.9661403  74.6895492  52.0930628  -2.7030794  83.7367084
  51.3026172  -2.7206655  83.1971583  51.8563983  -2.1642500  84.4916120
  41.0964762  -3.1749782  68.3391901  41.2452882  -2.4914317  67.6858574
  41.9031206  -3.1944691  68.8541357  53.7146700  -3.4341386  81.2941834
  53.4231509  -3.0711405  82.1305295  53.1018832  -4.1474377  81.1155166
  38.8517395  -7.1484604  69.3452970  38.6063437  -8.0522274  69.5433180
  39.0213310  -7.1467453  68.4032448  44.5960168  -0.6801651  65.8103649
  44.0234135  -0.0611464  65.3574121  45.1692961  -0.1302289  66.3443571
  47.8157427  -0.3964501  66.9412231  48.7488101  -0.4618939  67.1445107
  47.7280640   0.4391766  66.4826764  50.4445444  -1.0798631  63.9016179
  50.3659076  -1.4138767  64.7951936  51.2655111  -0.5876863  63.9007651
  44.8645659  -5.2923092  84.6120358  45.7848668  -5.1144493  84.8060405
  44.8295242  -6.2367047  84.4600057  37.8607731  -7.3822058  77.2543139
  38.0793741  -6.4504950  77.2731173  38.2733505  -7.7414083  78.0397943
  42.5966867  -8.3791713  85.4610950  42.1133948  -7.5791353  85.6674839
  42.6827806  -8.3683768  84.5078394  35.8652826  -6.5463333  73.3832769
  35.8423514  -6.4475646  72.4314652  36.1753463  -5.6998182  73.7049935
  38.5240204  -4.4887178  77.4979384  39.4783458  -4.5203236  77.4309315
  38.3252728  -4.9496554  78.3129610  39.1139586  -5.9186062  80.0650181
  39.9332475  -5.4241984  80.0885019  39.3876394  -6.8354094  80.0367749
  36.8790433   1.0532441  74.5149582  36.7444901   0.2932842  73.9487580
  36.4622495   1.7773341  74.0478370  48.0149396  -3.7630635  63.5226157
  48.7185246  -3.5580633  64.1383812  47.2912045  -3.1953873  63.7875240
  40.0359559   1.9501758  74.7268024  39.9191943   2.8947191  74.6246714
  39.2152005   1.6475320  75.1153823  49.9236093  -3.3248106  65.5724617
  50.7581697  -3.7566908  65.3902092  49.7620436  -3.4966092  66.5001511
  49.5781985  -6.8215993  66.9380956  49.5230789  -6.9871721  65.9969400
  48.9528041  -6.1139960  67.0943146  46.8927893  -4.5167081  86.2634519
  47.7619052  -4.3426429  85.9021154  46.4134644  -3.6972664  86.1410248
  41.0614073   2.6030020  77.9423953  41.9641320   2.6353630  78.2590448
  40.8351443   1.6730471  77.9570288  42.8167675   1.3561007  74.6034031
  41.8663306   1.3562868  74.4898404  43.1200161   0.6093741  74.0870066
  58.5520368   7.1921545  75.6679794  59.1898778   7.0728292  74.9643134
  58.4341211   8.1402389  75.7267746  55.3610075   7.1448973  75.6041318
  55.0228586   7.0290038  74.7161853  56.2299843   6.7440138  75.5842325
  51.2196890   8.9984450  71.5938209  50.6561755   8.9074387  70.8254497
  51.1049285   8.1784354  72.0740702  55.8429858   8.2983825  81.5627524
  55.8318498   7.9036623  80.6908028  56.0050497   7.5649898  82.1561295
  48.7661322  10.4935641  74.4322430  49.5582614  10.1526466  74.0168729
  49.0057972  10.6030616  75.3524583  56.7996449  12.6655417  66.9052674
  56.1484429  13.2509498  66.5186688  57.5940812  13.1961612  66.9647712
  50.7252076   9.7544554  67.3039809  51.4982952   9.2073542  67.1652684
  51.0777475  10.6188804  67.5154270  52.5637119  11.0820937  80.5106708
  52.2726985  11.9866568  80.3953374  53.1994103  11.1237464  81.2250777
  53.4893326   8.4597785  77.1008068  54.0856898   8.2353808  76.3865030
  53.5468297   7.7182531  77.7033515  53.0618354   5.9137221  64.9358258
  53.3143875   5.3918742  64.1741721  52.1242913   5.7503366  65.0384942
  58.1061637   4.9172999  72.7433002  58.8924726   4.4992422  72.3923419
  58.3700341   5.8219091  72.9114650  58.2771714  10.3545849  67.4421659
  57.6417547  10.4280476  68.1542563  57.9469121  10.9439448  66.7640738
  63.5070064   4.8548232  73.6465980  64.2395236   4.2847449  73.8803810
  62.7509420   4.4669833  74.0872486  52.7814643   7.8165327  67.1382633
  52.6650901   7.1410230  67.8063718  52.8916903   7.3297700  66.3214786
  55.1246184   7.2775474  70.8429323  54.7604391   6.7506095  71.5542244
  55.9813300   6.8873943  70.6695808  61.0295484  -1.4330194  78.1060589
  60.6978809  -0.5634783  77.8821804  60.4341098  -1.7493910  78.7854619
  54.7651671   2.3065373  65.8390671  54.9326073   3.1745610  66.2061142
  54.5748840   2.4692655  64.9151960  57.5227004  10.7682352  77.5056502
  57.2227727  11.6707391  77.3972309  57.1778063  10.5014535  78.3577654
  50.9739485   7.2196149  73.5393206  50.0489982   7.0872363  73.7470898
  51.2223899   7.9990368  74.0363148  60.9224148   3.2864892  75.1853939
  60.0141025   3.2180301  74.8912700  60.8711743   3.7636837  76.0135764
  54.7440892   4.7623031  66.8237338  54.6240517   5.2080082  67.6622818
  54.0493480   5.1108349  66.2650876  48.3348296   6.8629423  74.3736995
  48.4640678   7.1163902  75.2876407  47.6545748   7.4557131  74.0541650
  52.5047784  17.5326673  70.4727469  52.4271813  18.4834498  70.5515950
  51.9009427  17.1872545  71.1302396  54.9965013   4.7054538  83.1288836
  54.2198348   5.2648458  83.1191701  55.6355577   5.1911321  83.6503706
  62.7885794   1.4881331  76.9631813  62.1460174   1.7813864  76.3171607
  62.2840723   1.3734251  77.7685009  60.4425958   5.2344504  67.6517672
  61.3543814   5.4671891  67.4765370  59.9335605   5.8181548  67.0892751
  53.2511386   7.5139991  82.6906803  53.9926070   8.0525035  82.4141627
  52.5448371   8.1406280  82.8478355  58.7266725   9.6569132  81.2878965
  59.1350081   9.2151542  80.5433597  58.0043987   9.0821759  81.5413158
  55.0797795   4.5941739  78.6612522  55.9258991   5.0181152  78.8047171
  55.0196433   3.9375363  79.3551085  59.0495540  10.2170322  75.0431254
  58.4204402  10.3816037  74.3407321  58.6621202  10.6311932  75.8142218
  62.9284772  11.1524760  72.3975617  62.2435810  11.5323662  71.8472651
  63.0128621  11.7620087  73.1307565  58.2297241   2.2546107  80.3193695
  57.9858173   3.0088168  79.7827971  58.5057171   2.6331455  81.1540942
  60.1835704   8.7984719  78.9970961  60.3952599   9.4416479  78.3205342
  60.1365452   7.9647036  78.5292891  57.7861933   1.4102540  75.9007533
  56.9246412   1.7083794  76.1924271  57.8124367   1.6272939  74.9688566
  54.6023502   9.9544731  72.3081339  55.0661847  10.2332434  71.5185961
  54.3380300   9.0528175  72.1254429  51.4947583   9.5016212  75.2461102
  52.0648940   9.9303480  74.6078586  52.0855695   9.2198797  75.9445288
  53.5392388   6.0767883  69.1170904  54.2416431   6.5288927  69.5844830
  53.2073016   5.4351702  69.7450797  51.9872750   4.6679640  83.4922113
  51.3571410   5.3495920  83.7257510  51.8808837   4.5562721  82.5475251
  47.2817722   4.3351436  74.4188037  46.4916776   4.5908964  73.9428148
  47.7728969   5.1499773  74.5240078  61.2981531  11.6756675  77.1693318
  62.1198975  11.2736862  76.8876000  61.2943934  11.5724909  78.1209434
  49.2332467   4.6996015  71.3771514  48.4363631   4.8114709  71.8955010
  49.0058060   5.0382667  70.5112405  55.0638135  11.2240718  79.3254029
  55.1282567  11.6861125  80.1612201  54.3549059  10.5938083  79.4536339
  45.5655425   4.5881926  76.8503028  45.8163463   5.4728936  77.1160604
  46.1014973   4.4086528  76.0778120  69.3887525   8.0195423  73.5178290
  68.6351233   7.4502821  73.3622294  69.5235066   7.9858088  74.4648924
  54.7786153  12.8908826  69.1933009  54.6431827  13.7360361  69.6217857
  55.3195965  13.0928103  68.4298943  51.2653492  -1.0299595  85.8547364
  50.8720438  -1.5833396  86.5295008  52.0819633  -0.7189016  86.2453882
  48.2315550  10.4084264  69.7660934  48.7440071  11.2027514  69.9166499
  48.8838263   9.7110554  69.6994536  50.0410435  13.5250020  71.8483687
  50.2177063  14.4467985  71.6604671  50.8367268  13.2108439  72.2778067
  54.1821453   0.3858285  83.4467621  54.9231167   0.9865438  83.3672083
  54.4139376  -0.3564078  82.8885663  49.3262791   5.5714652  81.7245850
  49.2116306   4.6699909  82.0252949  48.4707309   5.8178349  81.3730667
  56.4054629  13.5132392  83.3233351  55.9618483  12.7268771  83.0054256
  57.0671843  13.7011543  82.6577242  51.1641750  15.0428194  77.8494030
  51.7149175  14.9145257  77.0771024  50.3253226  15.3423083  77.4988922
  58.5035867  13.7935192  81.3514752  58.4854342  14.6144073  80.8595022
  59.4255787  13.6689267  81.5764894  54.9608921  11.3079321  82.1938261
  55.4937258  10.5467610  81.9637569  54.4323002  11.0152973  82.9362415
  58.1278616  -3.5860613  77.7231902  57.7842886  -2.6958971  77.6471013
  58.4957579  -3.7758955  76.8601487  46.1964467   8.7372918  70.5420505
  47.0339689   9.1469926  70.3254212  46.3742734   7.7972360  70.5120698
  58.0928899   6.4047999  66.2304338  57.5775522   7.1752603  66.4692725
  57.8206207   5.7313135  66.8537399  55.6776010   1.2497699  71.2889576
  54.8217606   0.8604550  71.1095215  56.0902962   1.3289660  70.4289361
  57.2075157  -1.2155957  75.6881136  56.7039952  -1.2525822  74.8748941
  57.5005763  -0.3063215  75.7477792  53.4518042  -1.1317228  74.6947317
  54.3171039  -1.3274419  74.3353207  53.5195551  -1.3606876  75.6216674
  63.0663173   9.1580353  68.1657511  62.2892616   8.8191513  67.7212673
  63.7454654   9.1632976  67.4912476  57.8815202   4.2775091  68.0564119
  57.5765338   4.5921240  68.9074262  58.8345644   4.3556511  68.0991452
  56.3261634  10.4365314  69.7057073  55.7982995   9.7018074  69.3930310
  55.8249137  11.2139990  69.4597041  61.3054480   8.6314334  74.8224119
  60.6478154   9.3213596  74.9104248  62.1094879   9.0210766  75.1658105
  51.0580362   1.0984980  72.0663684  51.6324113   0.8760162  71.3336877
  51.6451344   1.1673675  72.8192286  60.1159939   6.9858707  72.8728061
  60.6291820   7.6188699  73.3749771  60.7661163   6.3859903  72.5071421
  51.3849949   3.1289441  66.0859570  50.5487261   3.4664128  66.4068844
  51.2454718   2.9938421  65.1486706  53.3603029  -2.0273771  70.7938754
  52.7067442  -2.3424754  70.1695368  53.3183503  -2.6498030  71.5198577
  54.4714234   8.2545524  62.7092046  53.5641296   8.0234778  62.9083195
  54.9685266   7.4583143  62.8966027  57.3782313  16.9643031  65.6288732
  56.7044012  17.2674728  66.2373690  57.7648135  17.7672112  65.2794189
  56.5940770   4.4608163  75.1186401  55.6763331   4.6823110  74.9608089
  57.0100913   4.5354473  74.2598109  57.3775817   5.8599578  70.2489082
  58.1247636   6.3720976  69.9396204  57.6467407   5.5383631  71.1093475
  55.6502468   8.3558119  67.2316036  54.7413687   8.0717152  67.3288506
  55.6797551   8.7757198  66.3719343  60.8821735  11.9664709  71.0007203
  60.4284062  11.1255618  71.0572394  60.2515702  12.6026107  71.3381984
  59.8254654   2.8956695  72.2307871  59.0877411   2.3834081  72.5618113
  60.0781428   2.4557076  71.4191148  59.3254674  13.8041205  71.9357022
  59.6177649  14.3646262  71.2169387  59.8353295  14.0969766  72.6910181
  46.2190638   6.0763633  71.2131238  46.0215038   5.4832994  70.4882305
  45.6637302   5.7715843  71.9307177  54.1987362   5.9686740  73.3325831
  54.2535971   5.0160576  73.2568308  53.3878564   6.1246179  73.8167130
  55.3478555   9.8966863  64.5704114  54.9097985   9.1802722  64.1109752
  56.0888996  10.1242978  64.0089206  52.1379721   4.5863799  71.0916210
  51.3247587   4.8857970  71.4981402  52.6338716   4.1919488  71.8090692
  54.2888299  14.5821556  73.0250475  54.2464478  14.8082403  72.0959007
  55.2050998  14.3484931  73.1736276  57.7353933   5.0505624  79.9231104
  58.0903321   5.2777097  80.7825570  58.3826064   5.3824001  79.3008359
  63.4651670   8.1724060  70.6280433  63.3269569   8.3625656  69.7001622
  63.1087889   8.9343443  71.0848484  51.6293796   2.1582155  76.7077445
  52.2693176   2.0170914  76.0100408  50.7971327   1.8716668  76.3316047
  63.4921050  10.2400587  75.6391705  63.9257556  10.1475876  76.4874759
  64.2052630  10.2158087  75.0011721  52.4054100  11.4584585  72.8212437
  53.1994699  10.9634906  72.6195012  51.6945793  10.9302449  72.4580143
  57.2248945  13.8402681  77.1724805  57.2785967  14.4093617  77.9402521
  56.3563726  14.0104566  76.8078842  48.7136864   5.6027667  68.8972190
  47.7834452   5.5412123  69.1142152  48.8094336   5.0803620  68.1008831
  48.6322413   2.1282480  71.4850432  48.8929230   3.0427813  71.3759592
  49.4539585   1.6606923  71.6347045  50.1047338   3.5420237  78.6549256
  50.7770391   3.3337599  78.0061905  49.2777125   3.3442323  78.2154489
  64.3536599  10.2824287  78.1724590  64.5472489  11.1870098  78.4183865
  64.2537217   9.8231707  79.0063175  56.0072910   0.1682178  80.6714917
  55.3600825   0.8672128  80.5779394  56.7773925   0.6018322  81.0391165
  59.4151708  10.4331030  83.7465471  59.2637214  10.2041582  82.8295554
  59.4056387  11.3901632  83.7596816  56.1837044   8.0062943  78.7311737
  57.1129104   8.1574103  78.5580704  55.7628074   8.0946964  77.8760383
  54.9825376  12.0313607  76.5010275  54.8436462  11.6632392  77.3736213
  54.1939972  12.5461247  76.3294232  55.5773528  17.1322704  67.8435811
  55.7525284  16.6610747  68.6581434  54.8906316  17.7588470  68.0717072
  56.5330591  11.4095210  73.8899112  56.1980424  11.3695980  74.7856762
  56.0334537  10.7439926  73.4169523  50.5074835   6.8162840  79.4151694
  50.3694633   6.0843079  80.0163233  51.4179759   6.7271740  79.1335881
  59.4689783   8.7551244  64.1636172  58.8518954   8.0298073  64.0669225
  59.0006271   9.5160605  63.8203246  53.1357136   6.5282799  78.9035373
  53.8456754   5.8875992  78.8621992  53.0926444   6.7795694  79.8261554
  61.1243915  13.4650153  81.8241952  61.0656461  12.7809373  81.1572535
  61.5263433  14.2069143  81.3722578  51.8486070   3.5148017  80.7231013
  51.3123427   3.0638756  81.3752609  51.2602778   3.6493926  79.9801477
  50.1434613  20.2812067  74.6175671  50.3831212  20.9130591  75.2954690
  49.3003810  19.9300107  74.9041031  51.2588329   2.9736669  63.2857476
  50.3817795   2.8525470  62.9219723  51.7346082   2.1822747  63.0336365
  61.1261322  11.4289737  80.0555932  60.2388101  11.0915658  80.1782331
  61.6959873  10.6972768  80.2924697  42.7790469   7.7613828  73.3798983
  43.4661509   7.4475558  72.7919999  42.6238598   8.6655193  73.1066235
  47.5825191   2.6504025  77.8084007  47.4983380   2.0429695  77.0734417
  46.7607898   3.1413043  77.8093503  54.6562475  16.0891189  77.0217175
  54.5832647  16.8946161  77.5336480  54.2139868  16.2883155  76.1965197
  54.4452255  15.3262959  70.5319997  53.6619777  15.8684639  70.6258221
  55.1445000  15.8436939  70.9314238  57.7548905   1.1357589  73.1754202
  58.2517605   0.3827551  72.8555272  56.9835886   1.1721905  72.6097412
  65.6078662   6.8397954  74.8172494  65.5968539   7.7222669  74.4466427
  64.7396042   6.4869505  74.6227031  57.1161159  15.9878023  79.1775334
  57.8289131  16.6225488  79.1051235  56.6251187  16.0841889  78.3615336
  58.8378686   9.8929276  70.7492626  57.9034964  10.0130738  70.5797330
  59.0155354   8.9901743  70.4852635  54.3383874   3.2774972  72.9025887
  53.9681661   2.7246012  73.5906792  54.8342966   2.6733105  72.3500887
  62.2251237   5.7346595  71.2842660  62.6911689   6.5674587  71.2102962
  62.6758738   5.2691577  71.9887918  52.1673072  13.7372467  79.9980905
  52.8682532  14.3708950  80.1510299  51.6968187  14.0787198  79.2376544
  60.2927468  12.0790416  68.2828812  60.5687312  11.9647011  69.1922686
  59.4231967  11.6807901  68.2440985  60.1967900  -1.8972818  75.3233561
  59.2830980  -1.6668591  75.4915768  60.6261001  -1.8134374  76.1747593
  59.9674358   6.2917074  77.8233455  59.3145809   6.5392981  77.1685908
  60.3454738   5.4781212  77.4895932  56.9281532  16.3276767  71.9261625
  57.1103927  15.5098423  72.3889378  57.7514518  16.5444459  71.4886515
  57.2623698  15.2544952  69.1876674  57.7911464  14.7437407  68.5746836
  57.5251917  14.9387483  70.0522207  56.0161931   7.0336885  84.3099492
  55.3402568   6.9331014  84.9801867  56.8389565   6.8776099  84.7735489
  47.7640790  13.2708822  76.9312007  48.3494227  12.5252509  77.0639912
  47.5665629  13.5812778  77.8148671  50.6179446  16.3060069  71.9474450
  49.9489821  16.7906197  71.4638490  50.4792315  16.5529289  72.8617828
  42.3558445   5.8414422  75.6516451  42.3942545   5.3078012  76.4453569
  41.8498738   5.3149627  75.0327428  54.7584714  18.3403813  78.5457108
  55.3103022  18.5035434  79.3106193  55.0990908  18.9308250  77.8737133
  49.7349207   0.6878962  79.1478993  49.7990534   1.5493793  78.7356391
  49.6716328   0.0752964  78.4151351  49.2101480   2.7602095  82.7952027
  49.8373519   2.3779172  83.4089551  48.3529399   2.5416297  83.1607720
  59.6095589  13.1665070  84.4005763  60.1535492  13.7795028  83.9060717
  59.0282433  13.7244648  84.9172776  45.9867023   4.5678524  68.7270382
  46.2820464   3.6589202  68.6737436  45.0855058   4.5466263  68.4051384
  57.8953101  16.2885788  75.5320790  57.7704241  15.4875528  75.0231736
  58.5532193  16.7831981  75.0434760  49.5161270   2.6434521  74.7097931
  48.7947855   3.2570488  74.5705404  50.3054525   3.1792285  74.6314576
  59.9588010  14.0894808  77.1600340  59.0118345  13.9700159  77.0878667
  60.3070783  13.2017306  77.2426602  52.3187583  -0.0211053  80.9838582
  52.8421985   0.2251244  81.7464892  52.0999916   0.8108982  80.5641720
  47.7154864   2.2492622  68.8509707  47.3867570   1.3690001  68.6684813
  48.0694235   2.1940290  69.7386096  56.9634443  13.8847524  73.3604693
  56.8159406  12.9564232  73.5412263  57.7887937  13.9067615  72.8761768
  50.8296687   2.5365591  69.2185185  51.1692760   3.0651513  68.4963793
  51.2768808   2.8745998  69.9943751  60.5668565  14.7076083  74.4469565
  61.4915112  14.5018944  74.3094017  60.3983868  14.4592484  75.3558907
  53.5240128   0.9202642  78.6688253  53.1836949   0.1210455  79.0708933
  52.8179135   1.2204353  78.0965086  54.1756600  -1.9948045  77.1215576
  54.9982669  -2.4687567  76.9994466  54.4194664  -1.2157562  77.6214262
  52.8164835   1.0340213  67.4178478  53.5373197   1.4121466  66.9142194
  52.1930139   1.7529090  67.5213456  56.9595957   1.7385362  68.3536810
  57.1759572   2.6210000  68.0525638  56.4790025   1.3471575  67.6242452
  51.6995179   4.6971075  74.9307554  51.5539760   5.0111378  75.8231836
  51.2220382   5.3155976  74.3778453  53.5591562   1.6873623  74.9788444
  53.5453130   0.7914716  74.6420742  54.2763990   1.6944287  75.6126730
  55.4117692   2.1210963  77.0241571  55.1535470   3.0428034  77.0225902
  54.8802733   1.7241398  77.7142036  60.3563881  15.2261751  69.8031657
  60.5300759  14.6608173  69.0505509  60.8492772  16.0262645  69.6211147
  46.1740841   7.2376420  77.8695216  45.6294309   8.0136228  78.0015490
  47.0520191   7.5847224  77.7114337  52.9628458   0.5688003  70.2476014
  53.0844369  -0.3595350  70.4466902  52.6730500   0.5826689  69.3354330
  55.8319648  -1.7457086  73.3842734  55.8541345  -1.6817753  72.4294714
  56.2487707  -2.5852577  73.5783240  66.2103272   7.9898173  71.4221957
  66.6534418   7.2405499  71.0241080  65.3329783   7.9808310  71.0395689
  61.3439054  14.5428515  66.9028555  62.0389958  15.1635208  67.1215870
  61.6862204  13.6923866  67.1780933  46.9606863   6.3646316  80.7625373
  46.2188599   6.5128951  81.3490003  46.6399607   6.6254581  79.8992122
  63.2430477  11.9928220  68.4315886  63.7681801  12.3315493  67.7065206
  63.1552829  11.0575236  68.2479021  54.9050525  15.9062294  80.5605763
  55.2137652  15.6611441  81.4328462  55.7026008  16.1108933  80.0724633
  54.9271138  18.0600204  72.7911139  54.4876128  17.5676582  73.4843996
  55.6779255  17.5173171  72.5503214  47.4063477  14.2511745  72.7935767
  48.2321496  13.9515516  72.4134411  47.0557529  13.4819367  73.2425556
  52.3745010  13.6038213  74.8633441  51.7525019  12.9408918  74.5635669
  53.0449877  13.6299345  74.1807089  45.6072082  12.1698071  73.7524701
  44.7703990  11.7420245  73.5708702  45.5795727  12.3630514  74.6895492
  52.4469537   2.0820001  84.4565947  52.4957693   2.9582124  84.0743716
  52.9892051   1.5397394  83.8837590  62.9324383  12.6261124  83.7367084
  62.1419927  12.6085263  83.1971583  62.6957737  13.1649418  84.4916120
  63.0522258   9.4753590  81.0499812  63.1020263   9.3103598  81.9915335
  62.9436181   8.6080849  80.6597693  51.9358517  12.1542136  68.3391901
  52.0846637  12.8377601  67.6858574  52.7424960  12.1347226  68.8541357
  60.3426020   5.4584518  82.3659119  61.2435883   5.3190983  82.0743117
  60.4173995   5.6238973  83.3057297  54.6768826   2.8351373  81.2112305
  53.8072135   3.1284939  80.9394894  54.9128306   3.4191818  81.9319569
  64.5540455  11.8950532  81.2941834  64.2625263  12.2580513  82.1305295
  63.9412586  11.1817540  81.1155166  65.7536137   9.4603412  73.8144404
  66.5883028   9.8993216  73.9781965  65.8895266   8.9842065  72.9952650
  62.8027643   7.0183147  79.7621892  63.2781765   7.2110793  78.9540743
  61.8793208   7.0742332  79.5165276  49.6911150   8.1807314  69.3452970
  49.4457192   7.2769644  69.5433180  49.8607064   8.1824464  68.4032448
  57.3807859  -0.9469010  78.7277726  57.8989803  -0.2107983  78.4024214
  57.0262992  -0.6405017  79.5624485  48.9606797   3.9135671  66.8439132
  48.2676042   3.9880026  66.1879168  48.7158549   3.1496015  67.3660649
  55.4353922  14.6490267  65.8103649  54.8627889  15.2680454  65.3574121
  56.0086716  15.1989628  66.3443571  61.5029312   3.8948907  77.9950198
  62.4546735   3.9947004  78.0162422  61.3332762   3.1027175  78.5048282
  59.5243691   0.9804490  78.1809598  58.9293624   1.2609503  77.4856087
  59.2393388   1.4698391  78.9526340  58.6551182  14.9327417  66.9412231
  59.5881855  14.8672978  67.1445107  58.5674395  15.7683684  66.4826764
  61.2839199  14.2493287  63.9016179  61.2052830  13.9153151  64.7951936
  62.1048865  14.7415055  63.9007651  63.9817390   7.1155026  77.1092497
  63.9493710   6.1771027  77.2952181  64.5918013   7.1939063  76.3758322
  55.8200721   5.9851079  63.1519701  56.7659825   5.8557287  63.2208119
  55.4414966   5.2465741  63.6289129  64.1311878   3.9066070  77.1550780
  63.6150927   3.1224526  76.9680709  65.0151827   3.5784786  77.3197300
  61.7922605  -2.3492915  73.1146593  61.5947426  -2.6577826  73.9989925
  62.4022311  -1.6231276  73.2444523  69.7993940   8.1771033  76.2498534
  70.5297328   7.9156321  76.8106237  69.1900885   7.4399755  76.2900602
  67.8809237   6.3178896  76.8472985  67.1542400   6.1834861  76.2389477
  67.4656524   6.6255724  77.6529703  55.7039413  10.0368825  84.6120358
  56.6242423  10.2147424  84.8060405  55.6688996   9.0924871  84.4600057
  54.0043638   3.9101056  63.0874586  53.0975093   3.6134168  63.1637300
  54.2819619   3.6130874  62.2208873  44.9221578   5.2307419  73.5373633
  44.6024363   4.3772727  73.2448007  44.3755006   5.4455997  74.2931600
  48.7001486   7.9469860  77.2543139  48.9187495   8.8786968  77.2731173
  49.1127260   7.5877835  78.0397943  55.6205704  -1.5462055  69.2418828
  54.8106432  -1.8914970  69.6174074  56.3090120  -1.8554511  69.8306439
  57.5496252  -2.4684008  70.8643124  58.1027290  -2.0488554  71.5233147
  57.7866338  -3.3948260  70.9066080  53.5729351   3.5203066  86.6445888
  53.4726078   4.4697423  86.5757979  53.3550893   3.1921305  85.7721958
  52.7742422   0.7687991  63.2286566  53.6361586   1.0942889  63.4882383
  52.9592767  -0.0180513  62.7159631  44.7909838   8.8510331  75.5066754
  44.0973310   8.4364283  74.9936709  45.5382829   8.8930867  74.9100173
  60.9275059  -0.3583483  70.3721789  60.3473728   0.3001321  69.9899841
  60.6610992  -1.1806138  69.9609206  59.3778625  -0.9578425  72.5743109
  59.8778404  -0.8461890  71.7657428  60.0214233  -1.2617372  73.2143917
  53.4360621   6.9500205  85.4610950  52.9527703   7.7500565  85.6674839
  53.5221560   6.9608150  84.5078394  46.7046581   8.7828584  73.3832769
  46.6817269   8.8816272  72.4314652  47.0147217   9.6293735  73.7049935
  49.3633959  10.8404739  77.4979384  50.3177212  10.8088682  77.4309315
  49.1646482  10.3795363  78.3129610  49.9533341   9.4105855  80.0650181
  50.7726230   9.9049934  80.0885019  50.2270148   8.4937824  80.0367749
  59.7099937   1.8016608  69.4278137  58.8225792   2.0866258  69.2098332
  60.1253926   1.6410371  68.5805414  63.0614473   1.8263129  73.1432476
  63.8374863   2.3159581  73.4157093  62.3362607   2.2521183  73.6004346
  65.4987032   2.5390748  74.2006417  66.0931522   2.2986484  73.4899725
  65.5713615   1.8197879  74.8279953  47.7184187  16.3824359  74.5149582
  47.5838655  15.6224760  73.9487580  47.3016250  17.1065259  74.0478370
  58.8543150  11.5661282  63.5226157  59.5579000  11.7711285  64.1383812
  58.1305799  12.1338044  63.7875240  59.6840961   7.3171144  69.6428427
  59.6276162   7.7739695  68.8036059  60.2369303   6.5561828  69.4651270
  63.4945767   3.1060876  70.4678547  63.2382701   2.7057511  71.2986754
  62.8698635   3.8204670  70.3428686  67.8058104   5.8456949  72.9749838
  67.2457662   5.9150138  73.7481400  67.2001608   5.6697933  72.2549334
  50.8753313  17.2793676  74.7268024  50.7585697  18.2239108  74.6246714
  50.0545760  16.9767238  75.1153823  60.7629848  12.0043812  65.5724617
  61.5975452  11.5725010  65.3902092  60.6014191  11.8325825  66.5001511
  60.4175740   8.5075925  66.9380956  60.3624544   8.3420196  65.9969400
  59.7921795   9.2151958  67.0943146  45.2068255   3.7443989  80.7642378
  45.8527119   3.2342943  81.2529604  44.9985406   4.4812671  81.3385804
  57.7321647  10.8124837  86.2634519  58.6012807  10.9865489  85.9021154
  57.2528399  11.6319254  86.1410248  53.7271865  -1.9915966  66.5166275
  53.7150535  -1.0474126  66.6734545  54.6195287  -2.1745821  66.2225736
  51.9007827  17.9321938  77.9423953  52.8035074  17.9645548  78.2590448
  51.6745197  17.0022389  77.9570288  53.6561429  16.6852924  74.6034031
  52.7057060  16.6854786  74.4898404  53.9593916  15.9385659  74.0870066
  49.5465746   0.8911606  84.8617393  50.4097208   0.5348411  85.0720717
  48.9731157   0.5525501  85.5492797  69.3914123  22.5213463  75.6679794
  70.0292533  22.4020210  74.9643134  69.2734966  23.4694307  75.7267746
  66.2003829  22.4740891  75.6041318  65.8622341  22.3581956  74.7161853
  67.0693597  22.0732056  75.5842325  62.0590645  24.3276367  71.5938209
  61.4955510  24.2366304  70.8254497  61.9443040  23.5076272  72.0740702
  66.6823612  23.6275743  81.5627524  66.6712253  23.2328541  80.6908028
  66.8444252  22.8941815  82.1561295  59.6055077  25.8227559  74.4322430
  60.3976369  25.4818384  74.0168729  59.8451727  25.9322534  75.3524583
  67.6390204  27.9947335  66.9052674  66.9878183  28.5801415  66.5186688
  68.4334566  28.5253530  66.9647712  61.5645831  25.0836472  67.3039809
  62.3376707  24.5365459  67.1652684  61.9171230  25.9480721  67.5154270
  63.4030873  26.4112854  80.5106708  63.1120739  27.3158485  80.3953374
  64.0387858  26.4529382  81.2250777  64.3287080  23.7889703  77.1008068
  64.9250652  23.5645725  76.3865030  64.3862052  23.0474448  77.7033515
  63.9012109  21.2429138  64.9358258  64.1537629  20.7210660  64.1741721
  62.9636668  21.0795284  65.0384942  68.9455391  20.2464917  72.7433002
  69.7318481  19.8284340  72.3923419  69.2094096  21.1511009  72.9114650
  69.1165469  25.6837767  67.4421659  68.4811302  25.7572393  68.1542563
  68.7862875  26.2731366  66.7640738  74.3463818  20.1840150  73.6465980
  75.0788990  19.6139367  73.8803810  73.5903174  19.7961750  74.0872486
  63.6208397  23.1457244  67.1382633  63.5044655  22.4702148  67.8063718
  63.7310657  22.6589618  66.3214786  65.9639938  22.6067391  70.8429323
  65.5998145  22.0798012  71.5542244  66.8207054  22.2165860  70.6695808
  71.8689239  13.8961724  78.1060589  71.5372564  14.7657135  77.8821804
  71.2734852  13.5798008  78.7854619  65.6045425  17.6357291  65.8390671
  65.7719828  18.5037527  66.2061142  65.4142594  17.7984573  64.9151960
  68.3620758  26.0974270  77.5056502  68.0621481  26.9999309  77.3972309
  68.0171818  25.8306453  78.3577654  61.8133240  22.5488067  73.5393206
  60.8883736  22.4164281  73.7470898  62.0617653  23.3282286  74.0363148
  71.7617902  18.6156810  75.1853939  70.8534779  18.5472219  74.8912700
  71.7105498  19.0928755  76.0135764  65.5834646  20.0914949  66.8237338
  65.4634271  20.5371999  67.6622818  64.8887234  20.4400266  66.2650876
  59.1742051  22.1921340  74.3736995  59.3034432  22.4455819  75.2876407
  58.4939502  22.7849048  74.0541650  63.3441538  32.8618590  70.4727469
  63.2665568  33.8126415  70.5515950  62.7403182  32.5164463  71.1302396
  65.8358768  20.0346456  83.1288836  65.0592102  20.5940376  83.1191701
  66.4749331  20.5203239  83.6503706  73.6279549  16.8173249  76.9631813
  72.9853929  17.1105782  76.3171607  73.1234477  16.7026169  77.7685009
  71.2819712  20.5636422  67.6517672  72.1937568  20.7963808  67.4765370
  70.7729359  21.1473466  67.0892751  64.0905140  22.8431909  82.6906803
  64.8319825  23.3816953  82.4141627  63.3842126  23.4698198  82.8478355
  69.5660480  24.9861050  81.2878965  69.9743836  24.5443460  80.5433597
  68.8437741  24.4113677  81.5413158  65.9191550  19.9233656  78.6612522
  66.7652745  20.3473070  78.8047171  65.8590188  19.2667281  79.3551085
  69.8889295  25.5462240  75.0431254  69.2598157  25.7107954  74.3407321
  69.5014957  25.9603850  75.8142218  73.7678526  26.4816678  72.3975617
  73.0829565  26.8615579  71.8472651  73.8522376  27.0912005  73.1307565
  69.0690995  17.5838025  80.3193695  68.8251927  18.3380085  79.7827971
  69.3450926  17.9623372  81.1540942  71.0229458  24.1276637  78.9970961
  71.2346353  24.7708397  78.3205342  70.9759206  23.2938954  78.5292891
  68.6255687  16.7394458  75.9007533  67.7640166  17.0375711  76.1924271
  68.6518122  16.9564857  74.9688566  65.4417256  25.2836648  72.3081339
  65.9055602  25.5624351  71.5185961  65.1774055  24.3820093  72.1254429
  62.3341337  24.8308130  75.2461102  62.9042695  25.2595398  74.6078586
  62.9249449  24.5490714  75.9445288  64.3786142  21.4059801  69.1170904
  65.0810186  21.8580844  69.5844830  64.0466771  20.7643619  69.7450797
  62.8266504  19.9971557  83.4922113  62.1965165  20.6787838  83.7257510
  62.7202592  19.8854639  82.5475251  58.1211476  19.6643353  74.4188037
  57.3310530  19.9200882  73.9428148  58.6122724  20.4791691  74.5240078
  72.1375286  27.0048592  77.1693318  72.9592730  26.6028780  76.8876000
  72.1337689  26.9016827  78.1209434  60.0726222  20.0287933  71.3771514
  59.2757385  20.1406627  71.8955010  59.8451814  20.3674585  70.5112405
  65.9031889  26.5532636  79.3254029  65.9676322  27.0153043  80.1612201
  65.1942813  25.9230001  79.4536339  56.4049179  19.9173844  76.8503028
  56.6557218  20.8020854  77.1160604  56.9408728  19.7378445  76.0778120
  80.2281279  23.3487341  73.5178290  79.4744987  22.7794739  73.3622294
  80.3628820  23.3150005  74.4648924  65.6179907  28.2200743  69.1933009
  65.4825582  29.0652279  69.6217857  66.1589720  28.4220021  68.4298943
  62.1047247  14.2992323  85.8547364  61.7114192  13.7458522  86.5295008
  62.9213387  14.6102902  86.2453882  59.0709304  25.7376181  69.7660934
  59.5833825  26.5319432  69.9166499  59.7232017  25.0402472  69.6994536
  60.8804189  28.8541938  71.8483687  61.0570818  29.7759902  71.6604671
  61.6761023  28.5400357  72.2778067  65.0215208  15.7150202  83.4467621
  65.7624921  16.3157355  83.3672083  65.2533131  14.9727840  82.8885663
  60.1656546  20.9006569  81.7245850  60.0510061  19.9991827  82.0252949
  59.3101063  21.1470266  81.3730667  67.2448383  28.8424310  83.3233351
  66.8012238  28.0560688  83.0054256  67.9065597  29.0303460  82.6577242
  62.0035505  30.3720111  77.8494030  62.5542930  30.2437175  77.0771024
  61.1646981  30.6715000  77.4988922  69.3429622  29.1227110  81.3514752
  69.3248097  29.9435991  80.8595022  70.2649542  28.9981185  81.5764894
  65.8002676  26.6371239  82.1938261  66.3331012  25.8759527  81.9637569
  65.2716757  26.3444891  82.9362415  68.9672371  11.7431305  77.7231902
  68.6236640  12.6332947  77.6471013  69.3351333  11.5532963  76.8601487
  57.0358221  24.0664836  70.5420505  57.8733443  24.4761844  70.3254212
  57.2136489  23.1264278  70.5120698  68.9322653  21.7339916  66.2304338
  68.4169277  22.5044521  66.4692725  68.6599962  21.0605052  66.8537399
  66.5169764  16.5789617  71.2889576  65.6611361  16.1896467  71.1095215
  66.9296716  16.6581578  70.4289361  68.0468911  14.1135960  75.6881136
  67.5433707  14.0766095  74.8748941  68.3399518  15.0228703  75.7477792
  64.2911797  14.1974690  74.6947317  65.1564794  14.0017499  74.3353207
  64.3589306  13.9685042  75.6216674  73.9056928  24.4872271  68.1657511
  73.1286370  24.1483430  67.7212673  74.5848408  24.4924894  67.4912476
  68.7208957  19.6067008  68.0564119  68.4159092  19.9213158  68.9074262
  69.6739399  19.6848428  68.0991452  67.1655388  25.7657232  69.7057073
  66.6376750  25.0309991  69.3930310  66.6642891  26.5431908  69.4597041
  72.1448234  23.9606252  74.8224119  71.4871909  24.6505514  74.9104248
  72.9488634  24.3502684  75.1658105  61.8974116  16.4276898  72.0663684
  62.4717868  16.2052079  71.3336877  62.4845098  16.4965592  72.8192286
  70.9553693  22.3150625  72.8728061  71.4685575  22.9480617  73.3749771
  71.6054917  21.7151820  72.5071421  62.2243703  18.4581359  66.0859570
  61.3881015  18.7956045  66.4068844  62.0848473  18.3230339  65.1486706
  64.1996784  13.3018147  70.7938754  63.5461196  12.9867164  70.1695368
  64.1577258  12.6793887  71.5198577  65.3107989  23.5837442  62.7092046
  64.4035050  23.3526695  62.9083195  65.8079021  22.7875061  62.8966027
  68.2176067  32.2934949  65.6288732  67.5437766  32.5966646  66.2373690
  68.6041889  33.0964029  65.2794189  67.4334524  19.7900080  75.1186401
  66.5157085  20.0115027  74.9608089  67.8494668  19.8646391  74.2598109
  68.2169572  21.1891496  70.2489082  68.9641391  21.7012893  69.9396204
  68.4861161  20.8675549  71.1093475  66.4896222  23.6850037  67.2316036
  65.5807441  23.4009070  67.3288506  66.5191306  24.1049115  66.3719343
  71.7215489  27.2956626  71.0007203  71.2677817  26.4547536  71.0572394
  71.0909456  27.9318025  71.3381984  70.6648409  18.2248612  72.2307871
  69.9271166  17.7125999  72.5618113  70.9175183  17.7848994  71.4191148
  70.1648429  29.1333123  71.9357022  70.4571403  29.6938180  71.2169387
  70.6747049  29.4261684  72.6910181  70.7660036  11.0024864  72.8249640
  71.0718913  10.1422228  72.5375555  71.4912641  11.5942485  72.6248634
  57.0584392  21.4055551  71.2131238  56.8608792  20.8124912  70.4882305
  56.5031056  21.1007761  71.9307177  65.0381116  21.2978657  73.3325831
  65.0929726  20.3452494  73.2568308  64.2272318  21.4538096  73.8167130
  66.1872310  25.2258780  64.5704114  65.7491740  24.5094639  64.1109752
  66.9282751  25.4534895  64.0089206  62.9773476  19.9155717  71.0916210
  62.1641342  20.2149888  71.4981402  63.4732470  19.5211406  71.8090692
  65.1282054  29.9113474  73.0250475  65.0858233  30.1374320  72.0959007
  66.0444753  29.6776849  73.1736276  68.5747688  20.3797542  79.9231104
  68.9297075  20.6069015  80.7825570  69.2219819  20.7115918  79.3008359
  74.3045425  23.5015977  70.6280433  74.1663323  23.6917573  69.7001622
  73.9481643  24.2635360  71.0848484  62.4687551  17.4874073  76.7077445
  63.1086930  17.3462832  76.0100408  61.6365081  17.2008586  76.3316047
  74.3314804  25.5692504  75.6391705  74.7651311  25.4767794  76.4874759
  75.0446385  25.5450005  75.0011721  63.2447855  26.7876503  72.8212437
  64.0388453  26.2926823  72.6195012  62.5339547  26.2594366  72.4580143
  68.0642699  29.1694599  77.1724805  68.1179721  29.7385535  77.9402521
  67.1957480  29.3396484  76.8078842  59.5530618  20.9319585  68.8972190
  58.6228206  20.8704040  69.1142152  59.6488090  20.4095538  68.1008831
  59.4716167  17.4574398  71.4850432  59.7322984  18.3719731  71.3759592
  60.2933339  16.9898840  71.6347045  60.9441092  18.8712155  78.6549256
  61.6164146  18.6629517  78.0061905  60.1170879  18.6734241  78.2154489
  75.1930354  25.6116205  78.1724590  75.3866244  26.5162016  78.4183865
  75.0930972  25.1523624  79.0063175  66.8466664  15.4974096  80.6714917
  66.1994580  16.1964045  80.5779394  67.6167680  15.9310240  81.0391165
  70.2545462  25.7622948  83.7465471  70.1030969  25.5333500  82.8295554
  70.2450142  26.7193549  83.7596816  67.0230799  23.3354861  78.7311737
  67.9522859  23.4866020  78.5580704  66.6021829  23.4238881  77.8760383
  65.8219131  27.3605525  76.5010275  65.6830216  26.9924309  77.3736213
  65.0333727  27.8753164  76.3294232  66.4167283  32.4614622  67.8435811
  66.5919038  31.9902665  68.6581434  65.7300071  33.0880388  68.0717072
  67.3724346  26.7387128  73.8899112  67.0374178  26.6987898  74.7856762
  66.8728291  26.0731844  73.4169523  61.3468590  22.1454758  79.4151694
  61.2088388  21.4134997  80.0163233  62.2573513  22.0563658  79.1335881
  70.3083537  24.0843162  64.1636172  69.6912708  23.3589990  64.0669225
  69.8400026  24.8452522  63.8203246  63.9750890  21.8574717  78.9035373
  64.6850509  21.2167909  78.8621992  63.9320199  22.1087612  79.8261554
  71.9637669  28.7942070  81.8241952  71.9050215  28.1101291  81.1572535
  72.3657187  29.5361060  81.3722578  62.6879824  18.8439935  80.7231013
  62.1517181  18.3930673  81.3752609  62.0996533  18.9785844  79.9801477
  60.9828368  35.6103984  74.6175671  61.2224966  36.2422508  75.2954690
  60.1397564  35.2592024  74.9041031  62.0982083  18.3028586  63.2857476
  61.2211550  18.1817387  62.9219723  62.5739836  17.5114665  63.0336365
  71.9655076  26.7581654  80.0555932  71.0781855  26.4207576  80.1782331
  72.5353627  26.0264686  80.2924697  53.6184223  23.0905746  73.3798983
  54.3055263  22.7767476  72.7919999  53.4632352  23.9947111  73.1066235
  58.4218946  17.9795943  77.8084007  58.3377134  17.3721612  77.0734417
  57.6001652  18.4704961  77.8093503  65.4956230  31.4183107  77.0217175
  65.4226401  32.2238078  77.5336480  65.0533623  31.6175073  76.1965197
  65.2846009  30.6554877  70.5319997  64.5013531  31.1976557  70.6258221
  65.9838755  31.1728856  70.9314238  68.5942659  16.4649506  73.1754202
  69.0911359  15.7119469  72.8555272  67.8229641  16.5013823  72.6097412
  76.4472417  22.1689872  74.8172494  76.4362293  23.0514587  74.4466427
  75.5789796  21.8161423  74.6227031  67.9554913  31.3169941  79.1775334
  68.6682885  31.9517406  79.1051235  67.4644942  31.4133807  78.3615336
  69.6772440  25.2221193  70.7492626  68.7428719  25.3422656  70.5797330
  69.8549109  24.3193660  70.4852635  65.1777628  18.6066889  72.9025887
  64.8075416  18.0537930  73.5906792  65.6736721  18.0025023  72.3500887
  73.0644992  21.0638513  71.2842660  73.5305444  21.8966504  71.2102962
  73.5152492  20.5983494  71.9887918  63.0066827  29.0664384  79.9980905
  63.7076286  29.7000867  80.1510299  62.5361942  29.4079116  79.2376544
  71.1321223  27.4082334  68.2828812  71.4081067  27.2938929  69.1922686
  70.2625721  27.0099819  68.2440985  71.0361654  13.4319100  75.3233561
  70.1224734  13.6623327  75.4915768  71.4654756  13.5157544  76.1747593
  70.8068113  21.6208992  77.8233455  70.1539563  21.8684899  77.1685908
  71.1848493  20.8073130  77.4895932  67.7675287  31.6568685  71.9261625
  67.9497681  30.8390341  72.3889378  68.5908273  31.8736377  71.4886515
  68.1017452  30.5836870  69.1876674  68.6305219  30.0729325  68.5746836
  68.3645672  30.2679400  70.0522207  66.8555686  22.3628803  84.3099492
  66.1796323  22.2622932  84.9801867  67.6783320  22.2068016  84.7735489
  58.6034545  28.6000739  76.9312007  59.1887982  27.8544427  77.0639912
  58.4059383  28.9104696  77.8148671  61.4573200  31.6351987  71.9474450
  60.7883575  32.1198114  71.4638490  61.3186070  31.8821207  72.8617828
  53.1952200  21.1706339  75.6516451  53.2336299  20.6369930  76.4453569
  52.6892492  20.6441545  75.0327428  65.5978469  33.6695730  78.5457108
  66.1496777  33.8327352  79.3106193  65.9384662  34.2600168  77.8737133
  60.5742962  16.0170880  79.1478993  60.6384288  16.8785711  78.7356391
  60.5110082  15.4044882  78.4151351  60.0495234  18.0894013  82.7952027
  60.6767273  17.7071090  83.4089551  59.1923153  17.8708214  83.1607720
  70.4489343  28.4956988  84.4005763  70.9929247  29.1086946  83.9060717
  69.8676188  29.0536566  84.9172776  56.8260777  19.8970442  68.7270382
  57.1214218  18.9881120  68.6737436  55.9248813  19.8758181  68.4051384
  68.7346856  31.6177706  75.5320790  68.6097995  30.8167446  75.0231736
  69.3925947  32.1123899  75.0434760  60.3555024  17.9726438  74.7097931
  59.6341610  18.5862406  74.5705404  61.1448280  18.5084203  74.6314576
  70.7981764  29.4186726  77.1600340  69.8512100  29.2992077  77.0878667
  71.1464537  28.5309224  77.2426602  63.1581338  15.3080865  80.9838582
  63.6815740  15.5543161  81.7464892  62.9393671  16.1400900  80.5641720
  58.5548619  17.5784539  68.8509707  58.2261325  16.6981918  68.6684813
  58.9087989  17.5232208  69.7386096  67.8028198  29.2139442  73.3604693
  67.6553160  28.2856149  73.5412263  68.6281691  29.2359533  72.8761768
  61.6690442  17.8657509  69.2185185  62.0086514  18.3943430  68.4963793
  62.1162562  18.2037915  69.9943751  71.4062319  30.0368001  74.4469565
  72.3308867  29.8310862  74.3094017  71.2377623  29.7884402  75.3558907
  64.3633883  16.2494560  78.6688253  64.0230703  15.4502373  79.0708933
  63.6572889  16.5496271  78.0965086  65.0150355  13.3343872  77.1215576
  65.8376424  12.8604350  76.9994466  65.2588418  14.1134356  77.6214262
  63.6558589  16.3632131  67.4178478  64.3766952  16.7413383  66.9142194
  63.0323893  17.0821007  67.5213456  67.7989712  17.0677280  68.3536810
  68.0153326  17.9501918  68.0525638  67.3183779  16.6763493  67.6242452
  62.5388933  20.0262993  74.9307554  62.3933514  20.3403296  75.8231836
  62.0614137  20.6447893  74.3778453  64.3985316  17.0165541  74.9788444
  64.3846885  16.1206634  74.6420742  65.1157744  17.0236205  75.6126730
  66.2511447  17.4502881  77.0241571  65.9929225  18.3719952  77.0225902
  65.7196487  17.0533316  77.7142036  71.1957636  30.5553668  69.8031657
  71.3694513  29.9900091  69.0505509  71.6886527  31.3554563  69.6211147
  57.0134595  22.5668337  77.8695216  56.4688064  23.3428145  78.0015490
  57.8913945  22.9139142  77.7114337  63.8022212  15.8979921  70.2476014
  63.9238123  14.9696567  70.4466902  63.5124255  15.9118607  69.3354330
  66.6713403  13.5834832  73.3842734  66.6935099  13.6474165  72.4294714
  67.0881462  12.7439340  73.5783240  77.0497027  23.3190091  71.4221957
  77.4928173  22.5697416  71.0241080  76.1723537  23.3100227  71.0395689
  72.1832808  29.8720433  66.9028555  72.8783713  30.4927125  67.1215870
  72.5255958  29.0215784  67.1780933  57.8000617  21.6938234  80.7625373
  57.0582353  21.8420869  81.3490003  57.4793362  21.9546499  79.8992122
  74.0824231  27.3220138  68.4315886  74.6075555  27.6607411  67.7065206
  73.9946584  26.3867153  68.2479021  65.7444280  31.2354212  80.5605763
  66.0531406  30.9903359  81.4328462  66.5419762  31.4400850  80.0724633
  65.7664892  33.3892121  72.7911139  65.3269882  32.8968500  73.4843996
  66.5173009  32.8465089  72.5503214  58.2457231  29.5803662  72.7935767
  59.0715251  29.2807434  72.4134411  57.8951283  28.8111285  73.2425556
  63.2138764  28.9330130  74.8633441  62.5918773  28.2700836  74.5635669
  63.8843631  28.9591262  74.1807089  56.4465836  27.4989989  73.7524701
  55.6097744  27.0712163  73.5708702  56.4189481  27.6922432  74.6895492
  63.2863292  17.4111919  84.4565947  63.3351447  18.2874041  84.0743716
  63.8285806  16.8689312  83.8837590  73.7718137  27.9553042  83.7367084
  72.9813681  27.9377181  83.1971583  73.5351492  28.4941335  84.4916120
  73.8916012  24.8045508  81.0499812  73.9414017  24.6395516  81.9915335
  73.7829936  23.9372767  80.6597693  62.7752271  27.4834054  68.3391901
  62.9240391  28.1669518  67.6858574  63.5818715  27.4639144  68.8541357
  71.1819775  20.7876436  82.3659119  72.0829638  20.6482901  82.0743117
  71.2567749  20.9530891  83.3057297  65.5162580  18.1643291  81.2112305
  64.6465890  18.4576857  80.9394894  65.7522060  18.7483736  81.9319569
  75.3934209  27.2242450  81.2941834  75.1019018  27.5872430  82.1305295
  74.7806341  26.5109458  81.1155166  76.5929892  24.7895329  73.8144404
  77.4276783  25.2285134  73.9781965  76.7289020  24.3133983  72.9952650
  73.6421397  22.3475064  79.7621892  74.1175519  22.5402711  78.9540743
  72.7186963  22.4034250  79.5165276  60.5304904  23.5099231  69.3452970
  60.2850946  22.6061561  69.5433180  60.7000819  23.5116382  68.4032448
  68.2201614  14.3822908  78.7277726  68.7383558  15.1183935  78.4024214
  67.8656747  14.6886901  79.5624485  59.8000552  19.2427589  66.8439132
  59.1069797  19.3171944  66.1879168  59.5552304  18.4787933  67.3660649
  68.4714208  10.8023190  74.2478622  68.7515962  10.1346379  74.8739049
  69.2564815  10.9952286  73.7353286  66.2747677  29.9782184  65.8103649
  65.7021644  30.5972371  65.3574121  66.8480470  30.5281546  66.3443571
  72.3423066  19.2240824  77.9950198  73.2940489  19.3238922  78.0162422
  72.1726517  18.4319093  78.5048282  70.3637446  16.3096408  78.1809598
  69.7687378  16.5901420  77.4856087  70.0787143  16.7990309  78.9526340
  69.4944936  30.2619334  66.9412231  70.4275610  30.1964896  67.1445107
  69.4068149  31.0975601  66.4826764  72.1232953  29.5785205  63.9016179
  72.0446585  29.2445068  64.7951936  72.9442620  30.0706973  63.9007651
  74.8211144  22.4446944  77.1092497  74.7887464  21.5062945  77.2952181
  75.4311768  22.5230981  76.3758322  66.6594475  21.3142997  63.1519701
  67.6053580  21.1849205  63.2208119  66.2808720  20.5757659  63.6289129
  74.9705633  19.2357987  77.1550780  74.4544681  18.4516444  76.9680709
  75.8545581  18.9076704  77.3197300  72.6316360  12.9799003  73.1146593
  72.4341181  12.6714091  73.9989925  73.2416065  13.7060642  73.2444523
  80.6387694  23.5062951  76.2498534  81.3691083  23.2448239  76.8106237
  80.0294640  22.7691673  76.2900602  78.7202991  21.6470813  76.8472985
  77.9936155  21.5126778  76.2389477  78.3050278  21.9547642  77.6529703
  66.5433168  25.3660743  84.6120358  67.4636177  25.5439342  84.8060405
  66.5082751  24.4216789  84.4600057  64.8437392  19.2392973  63.0874586
  63.9368848  18.9426086  63.1637300  65.1213373  18.9422792  62.2208873
  55.7615333  20.5599337  73.5373633  55.4418117  19.7064645  73.2448007
  55.2148761  20.7747915  74.2931600  59.5395240  23.2761778  77.2543139
  59.7581250  24.2078886  77.2731173  59.9521014  22.9169752  78.0397943
  66.4599458  13.7829863  69.2418828  65.6500186  13.4376948  69.6174074
  67.1483875  13.4737407  69.8306439  68.3890006  12.8607910  70.8643124
  68.9421045  13.2803363  71.5233147  68.6260093  11.9343658  70.9066080
  64.4123106  18.8494984  86.6445888  64.3119832  19.7989341  86.5757979
  64.1944648  18.5213222  85.7721958  63.6136177  16.0979909  63.2286566
  64.4755341  16.4234807  63.4882383  63.7986521  15.3111405  62.7159631
  55.6303593  24.1802248  75.5066754  54.9367064  23.7656201  74.9936709
  56.3776584  24.2222785  74.9100173  71.7668813  14.9708435  70.3721789
  71.1867482  15.6293239  69.9899841  71.5004746  14.1485780  69.9609206
  70.2172380  14.3713493  72.5743109  70.7172158  14.4830027  71.7657428
  70.8607988  14.0674546  73.2143917  64.2754376  22.2792122  85.4610950
  63.7921457  23.0792483  85.6674839  64.3615315  22.2900067  84.5078394
  57.5440335  24.1120502  73.3832769  57.5211023  24.2108189  72.4314652
  57.8540972  24.9585653  73.7049935  60.2027713  26.1696657  77.4979384
  61.1570967  26.1380599  77.4309315  60.0040237  25.7087281  78.3129610
  60.7927095  24.7397773  80.0650181  61.6119984  25.2341852  80.0885019
  61.0663903  23.8229741  80.0367749  70.5493691  17.1308525  69.4278137
  69.6619546  17.4158176  69.2098332  70.9647680  16.9702289  68.5805414
  73.9008228  17.1555046  73.1432476  74.6768618  17.6451499  73.4157093
  73.1756362  17.5813101  73.6004346  76.3380786  17.8682666  74.2006417
  76.9325277  17.6278402  73.4899725  76.4107370  17.1489796  74.8279953
  58.5577942  31.7116277  74.5149582  58.4232410  30.9516678  73.9487580
  58.1410004  32.4357176  74.0478370  69.6936905  26.8953200  63.5226157
  70.3972755  27.1003203  64.1383812  68.9699554  27.4629962  63.7875240
  70.5234715  22.6463061  69.6428427  70.4669917  23.1031613  68.8036059
  71.0763058  21.8853746  69.4651270  74.3339521  18.4352793  70.4678547
  74.0776455  18.0349429  71.2986754  73.7092389  19.1496587  70.3428686
  78.6451859  21.1748867  72.9749838  78.0851417  21.2442056  73.7481400
  78.0395362  20.9989851  72.2549334  61.7147068  32.6085594  74.7268024
  61.5979452  33.5531026  74.6246714  60.8939514  32.3059155  75.1153823
  71.6023602  27.3335729  65.5724617  72.4369206  26.9016928  65.3902092
  71.4407945  27.1617743  66.5001511  71.2569494  23.8367843  66.9380956
  71.2018298  23.6712114  65.9969400  70.6315550  24.5443876  67.0943146
  56.0462009  19.0735907  80.7642378  56.6920873  18.5634861  81.2529604
  55.8379161  19.8104589  81.3385804  68.5715402  26.1416755  86.2634519
  69.4406561  26.3157407  85.9021154  68.0922153  26.9611171  86.1410248
  64.5665620  13.3375952  66.5166275  64.5544290  14.2817792  66.6734545
  65.4589042  13.1546097  66.2225736  62.7401582  33.2613856  77.9423953
  63.6428829  33.2937466  78.2590448  62.5138952  32.3314306  77.9570288
  64.4955184  32.0144842  74.6034031  63.5450815  32.0146704  74.4898404
  64.7987670  31.2677577  74.0870066  68.3817739   9.9318728  70.7712211
  67.6150135   9.3777215  70.9168894  68.7928444  10.0040597  71.6326363
  60.3859500  16.2203524  84.8617393  61.2490962  15.8640329  85.0720717
  59.8124911  15.8817419  85.5492797  80.2307877  37.8505380  75.6679794
  80.8686287  37.7312128  74.9643134  80.1128720  38.7986224  75.7267746
  77.0397584  37.8032809  75.6041318  76.7016095  37.6873873  74.7161853
  77.9087352  37.4023974  75.5842325  72.8984399  39.6568285  71.5938209
  72.3349264  39.5658222  70.8254497  72.7836794  38.8368189  72.0740702
  77.5217367  38.9567660  81.5627524  77.5106007  38.5620459  80.6908028
  77.6838006  38.2233733  82.1561295  70.4448831  41.1519477  74.4322430
  71.2370123  40.8110301  74.0168729  70.6845481  41.2614452  75.3524583
  78.4783958  43.3239253  66.9052674  77.8271938  43.9093333  66.5186688
  79.2728321  43.8545448  66.9647712  72.4039585  40.4128390  67.3039809
  73.1770461  39.8657377  67.1652684  72.7564984  41.2772639  67.5154270
  74.2424628  41.7404772  80.5106708  73.9514494  42.6450403  80.3953374
  74.8781612  41.7821300  81.2250777  75.1680835  39.1181621  77.1008068
  75.7644407  38.8937643  76.3865030  75.2255806  38.3766366  77.7033515
  74.7405863  36.5721056  64.9358258  74.9931384  36.0502577  64.1741721
  73.8030422  36.4087201  65.0384942  79.7849146  35.5756834  72.7433002
  80.5712235  35.1576257  72.3923419  80.0487850  36.4802926  72.9114650
  79.9559223  41.0129685  67.4421659  79.3205056  41.0864311  68.1542563
  79.6256630  41.6023283  66.7640738  85.1857573  35.5132068  73.6465980
  85.9182745  34.9431284  73.8803810  84.4296929  35.1253668  74.0872486
  74.4602152  38.4749162  67.1382633  74.3438410  37.7994065  67.8063718
  74.5704412  37.9881536  66.3214786  76.8033693  37.9359309  70.8429323
  76.4391900  37.4089930  71.5542244  77.6600809  37.5457778  70.6695808
  82.7082993  29.2253642  78.1060589  82.3766318  30.0949053  77.8821804
  82.1128607  28.9089926  78.7854619  76.4439180  32.9649209  65.8390671
  76.6113582  33.8329445  66.2061142  76.2536349  33.1276490  64.9151960
  79.2014513  41.4266188  77.5056502  78.9015236  42.3291226  77.3972309
  78.8565572  41.1598371  78.3577654  72.6526994  37.8779984  73.5393206
  71.7277491  37.7456199  73.7470898  72.9011408  38.6574204  74.0363148
  82.6011657  33.9448728  75.1853939  81.6928534  33.8764136  74.8912700
  82.5499252  34.4220673  76.0135764  76.4228401  35.4206866  66.8237338
  76.3028026  35.8663917  67.6622818  75.7280989  35.7692184  66.2650876
  70.0135805  37.5213258  74.3736995  70.1428187  37.7747737  75.2876407
  69.3333257  38.1140966  74.0541650  76.6752522  35.3638373  83.1288836
  75.8985856  35.9232294  83.1191701  77.3143085  35.8495156  83.6503706
  84.4673303  32.1465166  76.9631813  83.8247683  32.4397699  76.3171607
  83.9628232  32.0318087  77.7685009  82.1213467  35.8928339  67.6517672
  83.0331323  36.1255726  67.4765370  81.6123114  36.4765384  67.0892751
  74.9298895  38.1723827  82.6906803  75.6713579  38.7108871  82.4141627
  74.2235880  38.7990116  82.8478355  80.4054234  40.3152967  81.2878965
  80.8137590  39.8735378  80.5433597  79.6831496  39.7405595  81.5413158
  76.7585304  35.2525574  78.6612522  77.6046500  35.6764988  78.8047171
  76.6983942  34.5959198  79.3551085  80.7283049  40.8754158  75.0431254
  80.0991911  41.0399872  74.3407321  80.3408711  41.2895767  75.8142218
  84.6072281  41.8108596  72.3975617  83.9223319  42.1907497  71.8472651
  84.6916130  42.4203922  73.1307565  79.9084750  32.9129942  80.3193695
  79.6645682  33.6672003  79.7827971  80.1844680  33.2915290  81.1540942
  81.8623213  39.4568555  78.9970961  82.0740108  40.1000315  78.3205342
  81.8152961  38.6230871  78.5292891  79.4649441  32.0686375  75.9007533
  78.6033921  32.3667629  76.1924271  79.4911876  32.2856774  74.9688566
  76.2811011  40.6128566  72.3081339  76.7449356  40.8916269  71.5185961
  76.0167809  39.7112011  72.1254429  73.1735092  40.1600047  75.2461102
  73.7436449  40.5887316  74.6078586  73.7643204  39.8782632  75.9445288
  75.2179897  36.7351718  69.1170904  75.9203940  37.1872762  69.5844830
  74.8860525  36.0935537  69.7450797  73.6660258  35.3263475  83.4922113
  73.0358919  36.0079756  83.7257510  73.5596346  35.2146557  82.5475251
  68.9605231  34.9935271  74.4188037  68.1704285  35.2492799  73.9428148
  69.4516478  35.8083609  74.5240078  82.9769040  42.3340510  77.1693318
  83.7986484  41.9320697  76.8876000  82.9731443  42.2308744  78.1209434
  70.9119976  35.3579850  71.3771514  70.1151140  35.4698544  71.8955010
  70.6845568  35.6966502  70.5112405  76.7425644  41.8824553  79.3254029
  76.8070076  42.3444961  80.1612201  76.0336568  41.2521918  79.4536339
  67.2442934  35.2465761  76.8503028  67.4950972  36.1312771  77.1160604
  67.7802482  35.0670363  76.0778120  91.0675034  38.6779259  73.5178290
  90.3138742  38.1086657  73.3622294  91.2022575  38.6441923  74.4648924
  76.4573662  43.5492661  69.1933009  76.3219336  44.3944197  69.6217857
  76.9983474  43.7511939  68.4298943  72.9441001  29.6284241  85.8547364
  72.5507947  29.0750439  86.5295008  73.7607142  29.9394819  86.2453882
  69.9103059  41.0668099  69.7660934  70.4227580  41.8611349  69.9166499
  70.5625772  40.3694389  69.6994536  71.7197944  44.1833855  71.8483687
  71.8964572  45.1051820  71.6604671  72.5154777  43.8692274  72.2778067
  75.8608962  31.0442120  83.4467621  76.6018676  31.6449273  83.3672083
  76.0926885  30.3019758  82.8885663  71.0050300  36.2298487  81.7245850
  70.8903815  35.3283744  82.0252949  70.1494818  36.4762184  81.3730667
  78.0842138  44.1716227  83.3233351  77.6405992  43.3852606  83.0054256
  78.7459352  44.3595378  82.6577242  72.8429259  45.7012029  77.8494030
  73.3936684  45.5729092  77.0771024  72.0040735  46.0006918  77.4988922
  80.1823376  44.4519027  81.3514752  80.1641851  45.2727908  80.8595022
  81.1043296  44.3273103  81.5764894  76.6396430  41.9663157  82.1938261
  77.1724767  41.2051445  81.9637569  76.1110511  41.6736809  82.9362415
  79.8066125  27.0723223  77.7231902  79.4630395  27.9624864  77.6471013
  80.1745088  26.8824880  76.8601487  67.8751976  39.3956753  70.5420505
  68.7127198  39.8053762  70.3254212  68.0530243  38.4556195  70.5120698
  79.7716408  37.0631834  66.2304338  79.2563031  37.8336439  66.4692725
  79.4993716  36.3896970  66.8537399  77.3563519  31.9081535  71.2889576
  76.5005115  31.5188385  71.1095215  77.7690471  31.9873495  70.4289361
  78.8862666  29.4427878  75.6881136  78.3827461  29.4058013  74.8748941
  79.1793272  30.3520621  75.7477792  75.1305551  29.5266608  74.6947317
  75.9958548  29.3309416  74.3353207  75.1983060  29.2976959  75.6216674
  84.7450682  39.8164189  68.1657511  83.9680125  39.4775348  67.7212673
  85.4242163  39.8216812  67.4912476  79.5602711  34.9358926  68.0564119
  79.2552847  35.2505075  68.9074262  80.5133153  35.0140346  68.0991452
  78.0049143  41.0949149  69.7057073  77.4770504  40.3601909  69.3930310
  77.5036646  41.8723826  69.4597041  82.9841989  39.2898170  74.8224119
  82.3265663  39.9797431  74.9104248  83.7882388  39.6794602  75.1658105
  72.7367870  31.7568816  72.0663684  73.3111622  31.5343997  71.3336877
  73.3238853  31.8257510  72.8192286  81.7947448  37.6442542  72.8728061
  82.3079329  38.2772534  73.3749771  82.4448672  37.0443738  72.5071421
  73.0637458  33.7873277  66.0859570  72.2274770  34.1247963  66.4068844
  72.9242227  33.6522256  65.1486706  75.0390538  28.6310065  70.7938754
  74.3854951  28.3159082  70.1695368  74.9971012  28.0085805  71.5198577
  76.1501743  38.9129360  62.7092046  75.2428805  38.6818613  62.9083195
  76.6472775  38.1166979  62.8966027  79.0569822  47.6226867  65.6288732
  78.3831521  47.9258564  66.2373690  79.4435644  48.4255947  65.2794189
  78.2728279  35.1191998  75.1186401  77.3550840  35.3406945  74.9608089
  78.6888422  35.1938309  74.2598109  79.0563326  36.5183414  70.2489082
  79.8035145  37.0304811  69.9396204  79.3254916  36.1967466  71.1093475
  77.3289976  39.0141954  67.2316036  76.4201196  38.7300987  67.3288506
  77.3585060  39.4341033  66.3719343  82.5609244  42.6248544  71.0007203
  82.1071571  41.7839454  71.0572394  81.9303211  43.2609942  71.3381984
  81.5042163  33.5540530  72.2307871  80.7664920  33.0417916  72.5618113
  81.7568937  33.1140912  71.4191148  81.0042183  44.4625041  71.9357022
  81.2965158  45.0230098  71.2169387  81.5140804  44.7553602  72.6910181
  81.6053791  26.3316782  72.8249640  81.9112668  25.4714145  72.5375555
  82.3306396  26.9234402  72.6248634  67.8978147  36.7347469  71.2131238
  67.7002547  36.1416829  70.4882305  67.3424811  36.4299679  71.9307177
  75.8774871  36.6270575  73.3325831  75.9323480  35.6744411  73.2568308
  75.0666073  36.7830014  73.8167130  77.0266064  40.5550698  64.5704114
  76.5885494  39.8386557  64.1109752  77.7676505  40.7826813  64.0089206
  73.8167230  35.2447635  71.0916210  73.0035096  35.5441805  71.4981402
  74.3126225  34.8503324  71.8090692  75.9675808  45.2405392  73.0250475
  75.9251987  45.4666238  72.0959007  76.8838507  45.0068766  73.1736276
  79.4141442  35.7089459  79.9231104  79.7690830  35.9360932  80.7825570
  80.0613573  36.0407836  79.3008359  85.1439179  38.8307895  70.6280433
  85.0057078  39.0209491  69.7001622  84.7875398  39.5927278  71.0848484
  73.3081305  32.8165990  76.7077445  73.9480685  32.6754749  76.0100408
  72.4758836  32.5300504  76.3316047  85.1708559  40.8984422  75.6391705
  85.6045065  40.8059711  76.4874759  85.8840139  40.8741923  75.0011721
  74.0841609  42.1168421  72.8212437  74.8782208  41.6218741  72.6195012
  73.3733302  41.5886284  72.4580143  78.9036454  44.4986516  77.1724805
  78.9573476  45.0677453  77.9402521  78.0351235  44.6688401  76.8078842
  70.3924373  36.2611502  68.8972190  69.4621961  36.1995958  69.1142152
  70.4881845  35.7387455  68.1008831  70.3109922  32.7866315  71.4850432
  70.5716739  33.7011649  71.3759592  71.1327094  32.3190758  71.6347045
  71.7834847  34.2004072  78.6549256  72.4557900  33.9921435  78.0061905
  70.9564633  34.0026158  78.2154489  86.0324108  40.9408123  78.1724590
  86.2259998  41.8453933  78.4183865  85.9324726  40.4815542  79.0063175
  77.6860419  30.8266013  80.6714917  77.0388334  31.5255963  80.5779394
  78.4561434  31.2602157  81.0391165  81.0939217  41.0914866  83.7465471
  80.9424723  40.8625417  82.8295554  81.0843896  42.0485467  83.7596816
  77.8624553  38.6646778  78.7311737  78.7916613  38.8157938  78.5580704
  77.4415583  38.7530799  77.8760383  76.6612885  42.6897443  76.5010275
  76.5223971  42.3216227  77.3736213  75.8727481  43.2045082  76.3294232
  77.2561037  47.7906539  67.8435811  77.4312793  47.3194582  68.6581434
  76.5693825  48.4172305  68.0717072  78.2118100  42.0679045  73.8899112
  77.8767933  42.0279815  74.7856762  77.7122046  41.4023761  73.4169523
  72.1862344  37.4746675  79.4151694  72.0482142  36.7426914  80.0163233
  73.0967268  37.3855576  79.1335881  81.1477292  39.4135080  64.1636172
  80.5306463  38.6881908  64.0669225  80.6793780  40.1744440  63.8203246
  74.8144645  37.1866635  78.9035373  75.5244263  36.5459827  78.8621992
  74.7713953  37.4379530  79.8261554  82.8031424  44.1233988  81.8241952
  82.7443970  43.4393208  81.1572535  83.2050942  44.8652978  81.3722578
  73.5273579  34.1731853  80.7231013  72.9910936  33.7222591  81.3752609
  72.9390287  34.3077761  79.9801477  71.8222122  50.9395902  74.6175671
  72.0618721  51.5714426  75.2954690  70.9791319  50.5883942  74.9041031
  72.9375838  33.6320504  63.2857476  72.0605304  33.5109305  62.9219723
  73.4133591  32.8406582  63.0336365  82.8048831  42.0873572  80.0555932
  81.9175610  41.7499494  80.1782331  83.3747382  41.3556603  80.2924697
  64.4577978  38.4197664  73.3798983  65.1449018  38.1059394  72.7919999
  64.3026107  39.3239028  73.1066235  69.2612700  33.3087860  77.8084007
  69.1770889  32.7013530  77.0734417  68.4395407  33.7996879  77.8093503
  76.3349984  46.7475024  77.0217175  76.2620156  47.5529996  77.5336480
  75.8927377  46.9466990  76.1965197  76.1239764  45.9846794  70.5319997
  75.3407286  46.5268475  70.6258221  76.8232509  46.5020774  70.9314238
  79.4336414  31.7941424  73.1754202  79.9305114  31.0411386  72.8555272
  78.6623395  31.8305741  72.6097412  87.2866171  37.4981789  74.8172494
  87.2756048  38.3806505  74.4466427  86.4183551  37.1453340  74.6227031
  78.7948668  46.6461858  79.1775334  79.5076640  47.2809323  79.1051235
  78.3038696  46.7425724  78.3615336  80.5166195  40.5513111  70.7492626
  79.5822473  40.6714574  70.5797330  80.6942863  39.6485578  70.4852635
  76.0171383  33.9358807  72.9025887  75.6469170  33.3829847  73.5906792
  76.5130475  33.3316940  72.3500887  83.9038746  36.3930430  71.2842660
  84.3699198  37.2258422  71.2102962  84.3546247  35.9275412  71.9887918
  73.8460581  44.3956302  79.9980905  74.5470041  45.0292785  80.1510299
  73.3755696  44.7371033  79.2376544  81.9714977  42.7374252  68.2828812
  82.2474821  42.6230846  69.1922686  81.1019476  42.3391737  68.2440985
  81.8755409  28.7611017  75.3233561  80.9618489  28.9915244  75.4915768
  82.3048510  28.8449461  76.1747593  81.6461867  36.9500909  77.8233455
  80.9933317  37.1976817  77.1685908  82.0242247  36.1365048  77.4895932
  78.6069041  46.9860603  71.9261625  78.7891436  46.1682258  72.3889378
  79.4302027  47.2028295  71.4886515  78.9411207  45.9128788  69.1876674
  79.4698973  45.4021242  68.5746836  79.2039426  45.5971318  70.0522207
  77.6949440  37.6920720  84.3099492  77.0190077  37.5914850  84.9801867
  78.5177074  37.5359934  84.7735489  69.4428299  43.9292657  76.9312007
  70.0281736  43.1836345  77.0639912  69.2453138  44.2396614  77.8148671
  72.2966955  46.9643904  71.9474450  71.6277330  47.4490032  71.4638490
  72.1579824  47.2113125  72.8617828  64.0345954  36.4998257  75.6516451
  64.0730054  35.9661848  76.4453569  63.5286247  35.9733463  75.0327428
  76.4372223  48.9987648  78.5457108  76.9890531  49.1619269  79.3106193
  76.7778417  49.5892086  77.8737133  71.4136716  31.3462798  79.1478993
  71.4778043  32.2077629  78.7356391  71.3503837  30.7336799  78.4151351
  70.8888989  33.4185930  82.7952027  71.5161028  33.0363008  83.4089551
  70.0316908  33.2000132  83.1607720  81.2883097  43.8248905  84.4005763
  81.8323001  44.4378864  83.9060717  80.7069942  44.3828484  84.9172776
  67.6654532  35.2262359  68.7270382  67.9607973  34.3173038  68.6737436
  66.7642567  35.2050099  68.4051384  79.5740610  46.9469623  75.5320790
  79.4491750  46.1459363  75.0231736  80.2319702  47.4415817  75.0434760
  71.1948779  33.3018356  74.7097931  70.4735364  33.9154324  74.5705404
  71.9842034  33.8376121  74.6314576  81.6375519  44.7478643  77.1600340
  80.6905854  44.6283995  77.0878667  81.9858292  43.8601142  77.2426602
  73.9975092  30.6372782  80.9838582  74.5209494  30.8835079  81.7464892
  73.7787425  31.4692817  80.5641720  69.3942373  32.9076457  68.8509707
  69.0655079  32.0273836  68.6684813  69.7481744  32.8524126  69.7386096
  78.6421952  44.5431360  73.3604693  78.4946915  43.6148067  73.5412263
  79.4675446  44.5651450  72.8761768  72.5084196  33.1949427  69.2185185
  72.8480269  33.7235348  68.4963793  72.9556317  33.5329833  69.9943751
  82.2456074  45.3659918  74.4469565  83.1702621  45.1602780  74.3094017
  82.0771377  45.1176320  75.3558907  75.2027637  31.5786477  78.6688253
  74.8624458  30.7794291  79.0708933  74.4966644  31.8788188  78.0965086
  75.8544109  28.6635790  77.1215576  76.6770178  28.1896268  76.9994466
  76.0982173  29.4426274  77.6214262  74.4952344  31.6924048  67.4178478
  75.2160706  32.0705301  66.9142194  73.8717648  32.4112925  67.5213456
  78.6383466  32.3969197  68.3536810  78.8547081  33.2793835  68.0525638
  78.1577534  32.0055411  67.6242452  73.3782688  35.3554911  74.9307554
  73.2327269  35.6695214  75.8231836  72.9007891  35.9739811  74.3778453
  75.2379071  32.3457459  74.9788444  75.2240639  31.4498552  74.6420742
  75.9551499  32.3528122  75.6126730  77.0905201  32.7794799  77.0241571
  76.8322979  33.7011869  77.0225902  76.5590242  32.3825233  77.7142036
  82.0351390  45.8845586  69.8031657  82.2088268  45.3192008  69.0505509
  82.5280281  46.6846481  69.6211147  67.8528350  37.8960255  77.8695216
  67.3081818  38.6720063  78.0015490  68.7307700  38.2431059  77.7114337
  74.6415967  31.2271839  70.2476014  74.7631878  30.2988485  70.4466902
  74.3518009  31.2410525  69.3354330  77.5107157  28.9126749  73.3842734
  77.5328854  28.9766082  72.4294714  77.9275216  28.0731258  73.5783240
  87.8890781  38.6482009  71.4221957  88.3321927  37.8989334  71.0241080
  87.0117292  38.6392145  71.0395689  83.0226563  45.2012350  66.9028555
  83.7177467  45.8219043  67.1215870  83.3649713  44.3507701  67.1780933
  68.6394372  37.0230151  80.7625373  67.8976108  37.1712787  81.3490003
  68.3187116  37.2838417  79.8992122  84.9217986  42.6512056  68.4315886
  85.4469310  42.9899329  67.7065206  84.8340338  41.7159071  68.2479021
  76.5838034  46.5646129  80.5605763  76.8925161  46.3195276  81.4328462
  77.3813517  46.7692768  80.0724633  76.6058647  48.7184039  72.7911139
  76.1663637  48.2260418  73.4843996  77.3566763  48.1757007  72.5503214
  69.0850986  44.9095580  72.7935767  69.9109005  44.6099352  72.4134411
  68.7345038  44.1403202  73.2425556  74.0532519  44.2622048  74.8633441
  73.4312528  43.5992753  74.5635669  74.7237386  44.2883180  74.1807089
  67.2859591  42.8281906  73.7524701  66.4491499  42.4004081  73.5708702
  67.2583236  43.0214350  74.6895492  74.1257046  32.7403836  84.4565947
  74.1745202  33.6165959  84.0743716  74.6679560  32.1981229  83.8837590
  84.6111892  43.2844959  83.7367084  83.8207436  43.2669098  83.1971583
  84.3745246  43.8233253  84.4916120  84.7309767  40.1337426  81.0499812
  84.7807772  39.9687433  81.9915335  84.6223690  39.2664685  80.6597693
  73.6146026  42.8125972  68.3391901  73.7634146  43.4961436  67.6858574
  74.4212469  42.7931062  68.8541357  82.0213529  36.1168354  82.3659119
  82.9223392  35.9774819  82.0743117  82.0961504  36.2822809  83.3057297
  76.3556335  33.4935209  81.2112305  75.4859644  33.7868775  80.9394894
  76.5915815  34.0775654  81.9319569  86.2327964  42.5534367  81.2941834
  85.9412772  42.9164348  82.1305295  85.6200095  41.8401376  81.1155166
  87.4323646  40.1187247  73.8144404  88.2670537  40.5577051  73.9781965
  87.5682775  39.6425900  72.9952650  84.4815152  37.6766982  79.7621892
  84.9569274  37.8694628  78.9540743  83.5580717  37.7326168  79.5165276
  71.3698659  38.8391149  69.3452970  71.1244701  37.9353479  69.5433180
  71.5394573  38.8408300  68.4032448  79.0595368  29.7114826  78.7277726
  79.5777312  30.4475852  78.4024214  78.7050501  30.0178819  79.5624485
  70.6394306  34.5719507  66.8439132  69.9463551  34.6463862  66.1879168
  70.3946058  33.8079850  67.3660649  79.3107963  26.1315108  74.2478622
  79.5909716  25.4638297  74.8739049  80.0958570  26.3244204  73.7353286
  77.1141431  45.3074102  65.8103649  76.5415398  45.9264289  65.3574121
  77.6874225  45.8573464  66.3443571  83.1816821  34.5532742  77.9950198
  84.1334244  34.6530840  78.0162422  83.0120271  33.7611011  78.5048282
  81.2031200  31.6388325  78.1809598  80.6081133  31.9193338  77.4856087
  80.9180897  32.1282226  78.9526340  80.3338691  45.5911252  66.9412231
  81.2669364  45.5256814  67.1445107  80.2461904  46.4267519  66.4826764
  82.9626708  44.9077122  63.9016179  82.8840339  44.5736986  64.7951936
  83.7836374  45.3998890  63.9007651  85.6604899  37.7738862  77.1092497
  85.6281219  36.8354862  77.2952181  86.2705522  37.8522898  76.3758322
  77.4988230  36.6434915  63.1519701  78.4447334  36.5141123  63.2208119
  77.1202475  35.9049577  63.6289129  85.8099387  34.5649905  77.1550780
  85.2938436  33.7808362  76.9680709  86.6939336  34.2368622  77.3197300
  83.4710114  28.3090921  73.1146593  83.2734935  28.0006009  73.9989925
  84.0809820  29.0352560  73.2444523  91.4781449  38.8354869  76.2498534
  92.2084837  38.5740157  76.8106237  90.8688394  38.0983591  76.2900602
  89.5596746  36.9762731  76.8472985  88.8329909  36.8418696  76.2389477
  89.1444033  37.2839560  77.6529703  77.3826922  40.6952661  84.6120358
  78.3029932  40.8731260  84.8060405  77.3476505  39.7508706  84.4600057
  75.6831147  34.5684891  63.0874586  74.7762602  34.2718004  63.1637300
  75.9607128  34.2714709  62.2208873  66.6009087  35.8891255  73.5373633
  66.2811871  35.0356563  73.2448007  66.0542515  36.1039833  74.2931600
  70.3788995  38.6053696  77.2543139  70.5975004  39.5370803  77.2731173
  70.7914769  38.2461670  78.0397943  77.2993212  29.1121781  69.2418828
  76.4893941  28.7668866  69.6174074  77.9877629  28.8029325  69.8306439
  79.2283761  28.1899828  70.8643124  79.7814799  28.6095281  71.5233147
  79.4653847  27.2635576  70.9066080  75.2516860  34.1786901  86.6445888
  75.1513587  35.1281258  86.5757979  75.0338402  33.8505140  85.7721958
  74.4529931  31.4271826  63.2286566  75.3149095  31.7526725  63.4882383
  74.6380276  30.6403322  62.7159631  66.4697347  39.5094166  75.5066754
  65.7760819  39.0948119  74.9936709  67.2170338  39.5514703  74.9100173
  82.6062568  30.3000353  70.3721789  82.0261237  30.9585157  69.9899841
  82.3398501  29.4777697  69.9609206  81.0566134  29.7005410  72.5743109
  81.5565913  29.8121945  71.7657428  81.7001742  29.3966463  73.2143917
  75.1148130  37.6084040  85.4610950  74.6315212  38.4084400  85.6674839
  75.2009069  37.6191985  84.5078394  68.3834090  39.4412420  73.3832769
  68.3604778  39.5400107  72.4314652  68.6934726  40.2877571  73.7049935
  71.0421468  41.4988575  77.4979384  71.9964721  41.4672517  77.4309315
  70.8433991  41.0379199  78.3129610  71.6320850  40.0689691  80.0650181
  72.4513739  40.5633770  80.0885019  71.9057657  39.1521659  80.0367749
  81.3887446  32.4600443  69.4278137  80.5013301  32.7450094  69.2098332
  81.8041435  32.2994207  68.5805414  84.7401982  32.4846964  73.1432476
  85.5162372  32.9743417  73.4157093  84.0150116  32.9105018  73.6004346
  87.1774541  33.1974583  74.2006417  87.7719031  32.9570319  73.4899725
  87.2501124  32.4781714  74.8279953  69.3971696  47.0408194  74.5149582
  69.2626164  46.2808595  73.9487580  68.9803759  47.7649094  74.0478370
  80.5330659  42.2245118  63.5226157  81.2366509  42.4295120  64.1383812
  79.8093308  42.7921880  63.7875240  81.3628470  37.9754979  69.6428427
  81.3063671  38.4323531  68.8036059  81.9156812  37.2145664  69.4651270
  85.1733276  33.7644711  70.4678547  84.9170210  33.3641347  71.2986754
  84.5486144  34.4788505  70.3428686  89.4845613  36.5040784  72.9749838
  88.9245171  36.5733974  73.7481400  88.8789117  36.3281769  72.2549334
  72.5540822  47.9377511  74.7268024  72.4373206  48.8822944  74.6246714
  71.7333268  47.6351073  75.1153823  82.4417357  42.6627647  65.5724617
  83.2762961  42.2308846  65.3902092  82.2801700  42.4909661  66.5001511
  82.0963249  39.1659760  66.9380956  82.0412053  39.0004032  65.9969400
  81.4709304  39.8735793  67.0943146  66.8855764  34.4027825  80.7642378
  67.5314628  33.8926779  81.2529604  66.6772915  35.1396506  81.3385804
  79.4109156  41.4708672  86.2634519  80.2800316  41.6449324  85.9021154
  78.9315908  42.2903089  86.1410248  75.4059374  28.6667869  66.5166275
  75.3938044  29.6109709  66.6734545  76.2982796  28.4838015  66.2225736
  73.5795336  48.5905773  77.9423953  74.4822583  48.6229383  78.2590448
  73.3532706  47.6606224  77.9570288  75.3348938  47.3436760  74.6034031
  74.3844569  47.3438621  74.4898404  75.6381425  46.5969494  74.0870066
  79.2211494  25.2610646  70.7712211  78.4543890  24.7069133  70.9168894
  79.6322199  25.3332515  71.6326363  71.2253255  31.5495442  84.8617393
  72.0884716  31.1932247  85.0720717  70.6518666  31.2109337  85.5492797
  87.8791338  53.1324726  75.6041318  87.5409850  53.0165791  74.7161853
  88.7481106  52.7315891  75.5842325  83.7378154  54.9860203  71.5938209
  83.1743019  54.8950140  70.8254497  83.6230549  54.1660107  72.0740702
  88.3611121  54.2859578  81.5627524  88.3499762  53.8912376  80.6908028
  88.5231761  53.5525651  82.1561295  81.2842586  56.4811394  74.4322430
  82.0763878  56.1402219  74.0168729  81.5239236  56.5906369  75.3524583
  89.3177713  58.6531170  66.9052674  88.6665692  59.2385251  66.5186688
  90.1122075  59.1837365  66.9647712  83.2433340  55.7420308  67.3039809
  84.0164216  55.1949295  67.1652684  83.5958739  56.6064557  67.5154270
  85.0818382  57.0696690  80.5106708  84.7908248  57.9742321  80.3953374
  85.7175367  57.1113217  81.2250777  86.0074589  54.4473538  77.1008068
  86.6038161  54.2229561  76.3865030  86.0649561  53.7058284  77.7033515
  85.5799618  51.9012974  64.9358258  85.8325138  51.3794495  64.1741721
  84.6424177  51.7379119  65.0384942  90.7952978  56.3421602  67.4421659
  90.1598811  56.4156229  68.1542563  90.4650384  56.9315201  66.7640738
  96.0251327  50.8423985  73.6465980  96.7576499  50.2723202  73.8803810
  95.2690683  50.4545586  74.0872486  85.2995906  53.8041080  67.1382633
  85.1832164  53.1285983  67.8063718  85.4098166  53.3173454  66.3214786
  87.6427447  53.2651227  70.8429323  87.2785654  52.7381848  71.5542244
  88.4994563  52.8749696  70.6695808  93.5476748  44.5545559  78.1060589
  93.2160073  45.4240970  77.8821804  92.9522361  44.2381843  78.7854619
  87.2832934  48.2941126  65.8390671  87.4507337  49.1621363  66.2061142
  87.0930103  48.4568408  64.9151960  90.0408267  56.7558105  77.5056502
  89.7408990  57.6583144  77.3972309  89.6959327  56.4890289  78.3577654
  83.4920749  53.2071902  73.5393206  82.5671245  53.0748116  73.7470898
  83.7405162  53.9866121  74.0363148  87.2622155  50.7498784  66.8237338
  87.1421780  51.1955835  67.6622818  86.5674743  51.0984102  66.2650876
  80.8529560  52.8505176  74.3736995  80.9821941  53.1039655  75.2876407
  80.1727011  53.4432884  74.0541650  85.0229047  63.5202426  70.4727469
  84.9453077  64.4710251  70.5515950  84.4190691  63.1748298  71.1302396
  95.3067058  47.4757084  76.9631813  94.6641438  47.7689617  76.3171607
  94.8021986  47.3610004  77.7685009  92.9607221  51.2220257  67.6517672
  93.8725077  51.4547644  67.4765370  92.4516868  51.8057301  67.0892751
  85.7692649  53.5015744  82.6906803  86.5107334  54.0400788  82.4141627
  85.0629635  54.1282033  82.8478355  91.2447989  55.6444885  81.2878965
  91.6531345  55.2027295  80.5433597  90.5225250  55.0697512  81.5413158
  87.5979059  50.5817492  78.6612522  88.4440254  51.0056905  78.8047171
  87.5377697  49.9251116  79.3551085  91.5676804  56.2046076  75.0431254
  90.9385666  56.3691790  74.3407321  91.1802466  56.6187685  75.8142218
  90.7478504  48.2421860  80.3193695  90.5039436  48.9963921  79.7827971
  91.0238435  48.6207208  81.1540942  92.7016967  54.7860472  78.9970961
  92.9133862  55.4292232  78.3205342  92.6546715  53.9522789  78.5292891
  90.3043196  47.3978293  75.9007533  89.4427675  47.6959547  76.1924271
  90.3305631  47.6148692  74.9688566  87.1204765  55.9420484  72.3081339
  87.5843111  56.2208187  71.5185961  86.8561563  55.0403928  72.1254429
  84.0128846  55.4891965  75.2461102  84.5830204  55.9179234  74.6078586
  84.6036958  55.2074550  75.9445288  86.0573651  52.0643636  69.1170904
  86.7597695  52.5164680  69.5844830  85.7254280  51.4227455  69.7450797
  84.5054013  50.6555393  83.4922113  83.8752674  51.3371673  83.7257510
  84.3990101  50.5438474  82.5475251  79.7998985  50.3227189  74.4188037
  79.0098039  50.5784717  73.9428148  80.2910233  51.1375526  74.5240078
  93.8162795  57.6632428  77.1693318  94.6380239  57.2612615  76.8876000
  93.8125198  57.5600662  78.1209434  81.7513731  50.6871768  71.3771514
  80.9544894  50.7990462  71.8955010  81.5239323  51.0258420  70.5112405
  87.5819398  57.2116471  79.3254029  87.6463831  57.6736878  80.1612201
  86.8730322  56.5813836  79.4536339  78.0836688  50.5757679  76.8503028
  78.3344727  51.4604689  77.1160604  78.6196237  50.3962281  76.0778120
 101.9068788  54.0071176  73.5178290 101.1532496  53.4378574  73.3622294
 102.0416329  53.9733841  74.4648924  87.2967416  58.8784579  69.1933009
  87.1613091  59.7236114  69.6217857  87.8377229  59.0803856  68.4298943
  83.7834756  44.9576158  85.8547364  83.3901701  44.4042357  86.5295008
  84.6000896  45.2686737  86.2453882  82.5591698  59.5125773  71.8483687
  82.7358326  60.4343738  71.6604671  83.3548532  59.1984192  72.2778067
  86.7002717  46.3734038  83.4467621  87.4412430  46.9741191  83.3672083
  86.9320640  45.6311675  82.8885663  81.8444055  51.5590405  81.7245850
  81.7297570  50.6575662  82.0252949  80.9888572  51.8054102  81.3730667
  88.9235892  59.5008145  83.3233351  88.4799747  58.7144524  83.0054256
  89.5853106  59.6887296  82.6577242  83.6823014  61.0303947  77.8494030
  84.2330439  60.9021010  77.0771024  82.8434490  61.3298836  77.4988922
  91.0217131  59.7810945  81.3514752  91.0035606  60.6019826  80.8595022
  91.9437051  59.6565020  81.5764894  87.4790185  57.2955075  82.1938261
  88.0118521  56.5343363  81.9637569  86.9504266  57.0028726  82.9362415
  90.6459880  42.4015140  77.7231902  90.3024149  43.2916782  77.6471013
  91.0138842  42.2116798  76.8601487  90.6110162  52.3923752  66.2304338
  90.0956786  53.1628356  66.4692725  90.3387471  51.7188888  66.8537399
  88.1957273  47.2373452  71.2889576  87.3398870  46.8480303  71.1095215
  88.6084225  47.3165413  70.4289361  89.7256420  44.7719796  75.6881136
  89.2221216  44.7349931  74.8748941  90.0187027  45.6812538  75.7477792
  85.9699306  44.8558525  74.6947317  86.8352303  44.6601334  74.3353207
  86.0376815  44.6268877  75.6216674  88.8442897  56.4241067  69.7057073
  88.3164259  55.6893827  69.3930310  88.3430400  57.2015743  69.4597041
  83.5761625  47.0860733  72.0663684  84.1505377  46.8635915  71.3336877
  84.1632607  47.1549428  72.8192286  92.6341202  52.9734460  72.8728061
  93.1473084  53.6064452  73.3749771  93.2842426  52.3735656  72.5071421
  83.9031212  49.1165194  66.0859570  83.0668524  49.4539881  66.4068844
  83.7635982  48.9814174  65.1486706  85.8784293  43.9601982  70.7938754
  85.2248705  43.6450999  70.1695368  85.8364767  43.3377723  71.5198577
  86.9895498  54.2421277  62.7092046  86.0822559  54.0110531  62.9083195
  87.4866530  53.4458897  62.8966027  89.8963576  62.9518784  65.6288732
  89.2225275  63.2550481  66.2373690  90.2829398  63.7547865  65.2794189
  89.1122033  50.4483916  75.1186401  88.1944594  50.6698863  74.9608089
  89.5282177  50.5230226  74.2598109  89.8957081  51.8475331  70.2489082
  90.6428900  52.3596729  69.9396204  90.1648670  51.5259384  71.1093475
  88.1683731  54.3433872  67.2316036  87.2594950  54.0592905  67.3288506
  88.1978815  54.7632951  66.3719343  93.4002998  57.9540462  71.0007203
  92.9465326  57.1131372  71.0572394  92.7696965  58.5901860  71.3381984
  92.3435918  48.8832448  72.2307871  91.6058675  48.3709834  72.5618113
  92.5962691  48.4432829  71.4191148  91.8435938  59.7916958  71.9357022
  92.1358912  60.3522015  71.2169387  92.3534558  60.0845519  72.6910181
  92.4447545  41.6608700  72.8249640  92.7506422  40.8006063  72.5375555
  93.1700150  42.2526320  72.6248634  78.7371901  52.0639386  71.2131238
  78.5396301  51.4708747  70.4882305  78.1818565  51.7591596  71.9307177
  86.7168625  51.9562493  73.3325831  86.7717235  51.0036329  73.2568308
  85.9059827  52.1121932  73.8167130  87.8659819  55.8842616  64.5704114
  87.4279249  55.1678475  64.1109752  88.6070260  56.1118731  64.0089206
  84.6560985  50.5739552  71.0916210  83.8428850  50.8733723  71.4981402
  85.1519979  50.1795241  71.8090692  86.8069563  60.5697309  73.0250475
  86.7645742  60.7958156  72.0959007  87.7232262  60.3360684  73.1736276
  95.9832934  54.1599813  70.6280433  95.8450832  54.3501409  69.7001622
  95.6269152  54.9219196  71.0848484  84.1475060  48.1457908  76.7077445
  84.7874439  48.0046667  76.0100408  83.3152590  47.8592421  76.3316047
  96.0102313  56.2276340  75.6391705  96.4438820  56.1351629  76.4874759
  96.7233894  56.2033840  75.0011721  84.9235364  57.4460338  72.8212437
  85.7175962  56.9510659  72.6195012  84.2127056  56.9178202  72.4580143
  89.7430208  59.8278434  77.1724805  89.7967230  60.3969370  77.9402521
  88.8744989  59.9980319  76.8078842  81.2318127  51.5903420  68.8972190
  80.3015715  51.5287876  69.1142152  81.3275599  51.0679373  68.1008831
  81.1503676  48.1158233  71.4850432  81.4110493  49.0303566  71.3759592
  81.9720848  47.6482676  71.6347045  82.6228601  49.5295990  78.6549256
  83.2951655  49.3213352  78.0061905  81.7958388  49.3318076  78.2154489
  96.8717863  56.2700040  78.1724590  97.0653753  57.1745851  78.4183865
  96.7718481  55.8107460  79.0063175  88.5254173  46.1557931  80.6714917
  87.8782089  46.8547881  80.5779394  89.2955189  46.5894075  81.0391165
  91.9332971  56.4206783  83.7465471  91.7818478  56.1917335  82.8295554
  91.9237651  57.3777385  83.7596816  88.7018308  53.9938696  78.7311737
  89.6310368  54.1449856  78.5580704  88.2809338  54.0822717  77.8760383
  87.5006640  58.0189360  76.5010275  87.3617725  57.6508145  77.3736213
  86.7121236  58.5337000  76.3294232  88.0954792  63.1198457  67.8435811
  88.2706547  62.6486500  68.6581434  87.4087580  63.7464223  68.0717072
  89.0511855  57.3970963  73.8899112  88.7161687  57.3571733  74.7856762
  88.5515800  56.7315679  73.4169523  83.0256099  52.8038593  79.4151694
  82.8875897  52.0718832  80.0163233  83.9361022  52.7147493  79.1335881
  91.9871046  54.7426997  64.1636172  91.3700217  54.0173826  64.0669225
  91.5187535  55.5036358  63.8203246  85.6538399  52.5158552  78.9035373
  86.3638018  51.8751745  78.8621992  85.6107708  52.7671447  79.8261554
  93.6425178  59.4525906  81.8241952  93.5837724  58.7685126  81.1572535
  94.0444696  60.1944896  81.3722578  84.3667333  49.5023770  80.7231013
  83.8304690  49.0514509  81.3752609  83.7784042  49.6369679  79.9801477
  83.7769592  48.9612422  63.2857476  82.8999059  48.8401223  62.9219723
  84.2527345  48.1698500  63.0336365  93.6442585  57.4165490  80.0555932
  92.7569364  57.0791412  80.1782331  94.2141136  56.6848521  80.2924697
  80.1006455  48.6379778  77.8084007  80.0164643  48.0305448  77.0734417
  79.2789161  49.1288796  77.8093503  87.1743739  62.0766942  77.0217175
  87.1013910  62.8821914  77.5336480  86.7321132  62.2758908  76.1965197
  86.9633518  61.3138712  70.5319997  86.1801040  61.8560392  70.6258221
  87.6626264  61.8312692  70.9314238  90.2730168  47.1233342  73.1754202
  90.7698868  46.3703304  72.8555272  89.5017150  47.1597658  72.6097412
  98.1259926  52.8273707  74.8172494  98.1149802  53.7098423  74.4466427
  97.2577305  52.4745258  74.6227031  89.6342422  61.9753776  79.1775334
  90.3470394  62.6101241  79.1051235  89.1432451  62.0717642  78.3615336
  86.8565137  49.2650725  72.9025887  86.4862925  48.7121765  73.5906792
  87.3524230  48.6608858  72.3500887  84.6854336  59.7248220  79.9980905
  85.3863795  60.3584703  80.1510299  84.2149451  60.0662951  79.2376544
  92.8108732  58.0666169  68.2828812  93.0868576  57.9522764  69.1922686
  91.9413230  57.6683654  68.2440985  92.7149163  44.0902935  75.3233561
  91.8012243  44.3207162  75.4915768  93.1442265  44.1741379  76.1747593
  92.4855622  52.2792827  77.8233455  91.8327072  52.5268734  77.1685908
  92.8636002  51.4656965  77.4895932  89.4462796  62.3152520  71.9261625
  89.6285190  61.4974176  72.3889378  90.2695782  62.5320212  71.4886515
  89.7804961  61.2420705  69.1876674  90.3092728  60.7313160  68.5746836
  90.0433181  60.9263236  70.0522207  88.5343195  53.0212638  84.3099492
  87.8583832  52.9206767  84.9801867  89.3570829  52.8651852  84.7735489
  80.2822054  59.2584575  76.9312007  80.8675491  58.5128263  77.0639912
  80.0846892  59.5688531  77.8148671  83.1360709  62.2935822  71.9474450
  82.4671084  62.7781950  71.4638490  82.9973579  62.5405042  72.8617828
  74.8739709  51.8290175  75.6516451  74.9123808  51.2953766  76.4453569
  74.3680001  51.3025380  75.0327428  87.2765978  64.3279566  78.5457108
  87.8284286  64.4911187  79.3106193  87.6172171  64.9184003  77.8737133
  82.2530471  46.6754715  79.1478993  82.3171797  47.5369546  78.7356391
  82.1897591  46.0628717  78.4151351  81.7282743  48.7477848  82.7952027
  82.3554782  48.3654925  83.4089551  80.8710662  48.5292050  83.1607720
  92.1276852  59.1540823  84.4005763  92.6716756  59.7670781  83.9060717
  91.5463697  59.7120401  84.9172776  78.5048286  50.5554277  68.7270382
  78.8001727  49.6464955  68.6737436  77.6036322  50.5342016  68.4051384
  90.4134365  62.2761541  75.5320790  90.2885504  61.4751281  75.0231736
  91.0713456  62.7707734  75.0434760  82.0342533  48.6310274  74.7097931
  81.3129119  49.2446241  74.5705404  82.8235789  49.1668038  74.6314576
  92.4769273  60.0770561  77.1600340  91.5299609  59.9575912  77.0878667
  92.8252046  59.1893059  77.2426602  84.8368847  45.9664700  80.9838582
  85.3603248  46.2126997  81.7464892  84.6181180  46.7984735  80.5641720
  80.2336128  48.2368375  68.8509707  79.9048834  47.3565754  68.6684813
  80.5875498  48.1816043  69.7386096  89.4815707  59.8723277  73.3604693
  89.3340669  58.9439985  73.5412263  90.3069200  59.8943368  72.8761768
  83.3477951  48.5241344  69.2185185  83.6874023  49.0527266  68.4963793
  83.7950071  48.8621751  69.9943751  86.0421392  46.9078395  78.6688253
  85.7018212  46.1086208  79.0708933  85.3360398  47.2080106  78.0965086
  86.6937864  43.9927708  77.1215576  87.5163933  43.5188186  76.9994466
  86.9375927  44.7718191  77.6214262  85.3346098  47.0215966  67.4178478
  86.0554461  47.3997219  66.9142194  84.7111402  47.7404843  67.5213456
  84.2176442  50.6846828  74.9307554  84.0721023  50.9987131  75.8231836
  83.7401646  51.3031729  74.3778453  86.0772825  47.6749376  74.9788444
  86.0634394  46.7790470  74.6420742  86.7945253  47.6820040  75.6126730
  87.9298956  48.1086716  77.0241571  87.6716734  49.0303787  77.0225902
  87.3983996  47.7117151  77.7142036  92.8745145  61.2137504  69.8031657
  93.0482022  60.6483926  69.0505509  93.3674036  62.0138398  69.6211147
  78.6922104  53.2252173  77.8695216  78.1475573  54.0011981  78.0015490
  79.5701454  53.5722977  77.7114337  85.4809721  46.5563757  70.2476014
  85.6025632  45.6280403  70.4466902  85.1911763  46.5702442  69.3354330
  88.3500912  44.2418667  73.3842734  88.3722608  44.3058000  72.4294714
  88.7668971  43.4023176  73.5783240  98.7284536  53.9773926  71.4221957
  99.1715682  53.2281252  71.0241080  97.8511046  53.9684063  71.0395689
  93.8620317  60.5304268  66.9028555  94.5571222  61.1510961  67.1215870
  94.2043467  59.6799619  67.1780933  79.4788126  52.3522069  80.7625373
  78.7369862  52.5004704  81.3490003  79.1580871  52.6130335  79.8992122
  87.4231789  61.8938047  80.5605763  87.7318915  61.6487194  81.4328462
  88.2207271  62.0984686  80.0724633  87.4452401  64.0475957  72.7911139
  87.0057391  63.5552335  73.4843996  88.1960518  63.5048924  72.5503214
  79.9244740  60.2387498  72.7935767  80.7502760  59.9391269  72.4134411
  79.5738792  59.4695120  73.2425556  84.8926273  59.5913966  74.8633441
  84.2706282  58.9284671  74.5635669  85.5631140  59.6175098  74.1807089
  78.1253345  58.1573824  73.7524701  77.2885253  57.7295998  73.5708702
  78.0976990  58.3506267  74.6895492  84.9650801  48.0695754  84.4565947
  85.0138956  48.9457877  84.0743716  85.5073315  47.5273147  83.8837590
  95.4505646  58.6136877  83.7367084  94.6601190  58.5961016  83.1971583
  95.2139001  59.1525171  84.4916120  95.5703521  55.4629343  81.0499812
  95.6201526  55.2979351  81.9915335  95.4617445  54.5956603  80.6597693
  84.4539780  58.1417889  68.3391901  84.6027900  58.8253354  67.6858574
  85.2606224  58.1222979  68.8541357  92.8607284  51.4460272  82.3659119
  93.7617147  51.3066736  82.0743117  92.9355258  51.6114726  83.3057297
  87.1950089  48.8227126  81.2112305  86.3253399  49.1160692  80.9394894
  87.4309569  49.4067571  81.9319569  97.0721718  57.8826285  81.2941834
  96.7806527  58.2456266  82.1305295  96.4593849  57.1693293  81.1155166
  98.2717401  55.4479165  73.8144404  99.1064292  55.8868969  73.9781965
  98.4076529  54.9717818  72.9952650  95.3208906  53.0058900  79.7621892
  95.7963028  53.1986546  78.9540743  94.3974472  53.0618085  79.5165276
  82.2092413  54.1683067  69.3452970  81.9638455  53.2645397  69.5433180
  82.3788328  54.1700217  68.4032448  89.8989123  45.0406743  78.7277726
  90.4171067  45.7767770  78.4024214  89.5444256  45.3470736  79.5624485
  81.4788061  49.9011424  66.8439132  80.7857306  49.9755779  66.1879168
  81.2339812  49.1371768  67.3660649  90.1501717  41.4607026  74.2478622
  90.4303471  40.7930215  74.8739049  90.9352324  41.6536121  73.7353286
  87.9535186  60.6366020  65.8103649  87.3809153  61.2556207  65.3574121
  88.5267979  61.1865381  66.3443571  94.0210575  49.8824660  77.9950198
  94.9727998  49.9822757  78.0162422  93.8514026  49.0902928  78.5048282
  92.0424955  46.9680243  78.1809598  91.4474887  47.2485256  77.4856087
  91.7574652  47.4574144  78.9526340  91.1732445  60.9203170  66.9412231
  92.1063119  60.8548731  67.1445107  91.0855658  61.7559437  66.4826764
  93.8020462  60.2369040  63.9016179  93.7234094  59.9028904  64.7951936
  94.6230129  60.7290808  63.9007651  96.4998653  53.1030779  77.1092497
  96.4674973  52.1646780  77.2952181  97.1099277  53.1814816  76.3758322
  88.3381984  51.9726832  63.1519701  89.2841089  51.8433040  63.2208119
  87.9596229  51.2341494  63.6289129  96.6493142  49.8941823  77.1550780
  96.1332190  49.1100279  76.9680709  97.5333090  49.5660539  77.3197300
  94.3103869  43.6382838  73.1146593  94.1128690  43.3297927  73.9989925
  94.9203574  44.3644477  73.2444523 102.3175203  54.1646786  76.2498534
 103.0478592  53.9032074  76.8106237 101.7082149  53.4275508  76.2900602
 100.3990500  52.3054649  76.8472985  99.6723664  52.1710614  76.2389477
  99.9837787  52.6131477  77.6529703  88.2220677  56.0244579  84.6120358
  89.1423686  56.2023178  84.8060405  88.1870260  55.0800624  84.4600057
  86.5224901  49.8976809  63.0874586  85.6156357  49.6009921  63.1637300
  86.8000882  49.6006627  62.2208873  77.4402842  51.2183172  73.5373633
  77.1205626  50.3648480  73.2448007  76.8936270  51.4331750  74.2931600
  81.2182749  53.9345613  77.2543139  81.4368759  54.8662721  77.2731173
  81.6308523  53.5753588  78.0397943  88.1386967  44.4413698  69.2418828
  87.3287695  44.0960783  69.6174074  88.8271384  44.1321242  69.8306439
  90.0677515  43.5191745  70.8643124  90.6208554  43.9387199  71.5233147
  90.3047602  42.5927493  70.9066080  85.2923686  46.7563744  63.2286566
  86.1542850  47.0818642  63.4882383  85.4774030  45.9695240  62.7159631
  77.3091102  54.8386084  75.5066754  76.6154573  54.4240036  74.9936709
  78.0564093  54.8806620  74.9100173  93.4456322  45.6292270  70.3721789
  92.8654991  46.2877074  69.9899841  93.1792255  44.8069615  69.9609206
  91.8959889  45.0297328  72.5743109  92.3959667  45.1413863  71.7657428
  92.5395497  44.7258381  73.2143917  85.9541885  52.9375958  85.4610950
  85.4708966  53.7376318  85.6674839  86.0402824  52.9483903  84.5078394
  79.2227844  54.7704337  73.3832769  79.1998532  54.8692025  72.4314652
  79.5328481  55.6169488  73.7049935  81.8815222  56.8280492  77.4979384
  82.8358476  56.7964435  77.4309315  81.6827746  56.3671116  78.3129610
  82.4714604  55.3981609  80.0650181  83.2907493  55.8925687  80.0885019
  82.7451412  54.4813577  80.0367749  98.0168295  48.5266501  74.2006417
  98.6112786  48.2862237  73.4899725  98.0894879  47.8073632  74.8279953
  80.2365451  62.3700112  74.5149582  80.1019919  61.6100513  73.9487580
  79.8197513  63.0941012  74.0478370  91.3724414  57.5537036  63.5226157
  92.0760264  57.7587038  64.1383812  90.6487063  58.1213797  63.7875240
  92.2022224  53.3046897  69.6428427  92.1457426  53.7615448  68.8036059
  92.7550567  52.5437581  69.4651270  96.0127030  49.0936629  70.4678547
  95.7563964  48.6933264  71.2986754  95.3879898  49.8080423  70.3428686
 100.3239368  51.8332702  72.9749838  99.7638926  51.9025891  73.7481400
  99.7182871  51.6573687  72.2549334  83.3934577  63.2669429  74.7268024
  83.2766961  64.2114861  74.6246714  82.5727023  62.9642991  75.1153823
  93.2811111  57.9919565  65.5724617  94.1156715  57.5600763  65.3902092
  93.1195454  57.8201578  66.5001511  77.7249518  49.7319742  80.7642378
  78.3708382  49.2218696  81.2529604  77.5166670  50.4688424  81.3385804
  90.2502911  56.8000590  86.2634519  91.1194070  56.9741242  85.9021154
  89.7709662  57.6195007  86.1410248  86.2453129  43.9959787  66.5166275
  86.2331799  44.9401627  66.6734545  87.1376551  43.8129932  66.2225736
  84.4189091  63.9197691  77.9423953  85.3216338  63.9521301  78.2590448
  84.1926461  62.9898142  77.9570288  86.1742693  62.6728677  74.6034031
  85.2238324  62.6730539  74.4898404  86.4775179  61.9261412  74.0870066
  90.0605248  40.5902564  70.7712211  89.2937644  40.0361050  70.9168894
  90.4715953  40.6624432  71.6326363  82.0647009  46.8787359  84.8617393
  82.9278471  46.5224164  85.0720717  81.4912420  46.5401254  85.5492797
 101.9095386  68.5089216  75.6679794 102.5473796  68.3895963  74.9643134
 101.7916229  69.4570060  75.7267746  98.7185093  68.4616644  75.6041318
  98.3803604  68.3457709  74.7161853  99.5874861  68.0607809  75.5842325
  99.2004876  69.6151496  81.5627524  99.1893516  69.2204294  80.6908028
  99.3625515  68.8817568  82.1561295  92.1236340  71.8103312  74.4322430
  92.9157632  71.4694137  74.0168729  92.3632990  71.9198287  75.3524583
 100.1571467  73.9823088  66.9052674  99.5059447  74.5677168  66.5186688
 100.9515830  74.5129283  66.9647712  94.0827094  71.0712225  67.3039809
  94.8557970  70.5241212  67.1652684  94.4352493  71.9356475  67.5154270
  95.9212137  72.3988607  80.5106708  95.6302003  73.3034238  80.3953374
  96.5569121  72.4405135  81.2250777  96.8468344  69.7765456  77.1008068
  97.4431916  69.5521478  76.3865030  96.9043315  69.0350201  77.7033515
  96.4193372  67.2304891  64.9358258  96.6718893  66.7086413  64.1741721
  95.4817931  67.0671037  65.0384942 101.4636655  66.2340670  72.7433002
 102.2499744  65.8160093  72.3923419 101.7275359  67.1386762  72.9114650
 101.6346732  71.6713520  67.4421659 100.9992565  71.7448146  68.1542563
 101.3044139  72.2607119  66.7640738 106.8645082  66.1715903  73.6465980
 107.5970254  65.6015120  73.8803810 106.1084438  65.7837503  74.0872486
  98.4821202  68.5943144  70.8429323  98.1179409  68.0673765  71.5542244
  99.3388318  68.2041613  70.6695808 104.3870502  59.8837477  78.1060589
 104.0553827  60.7532888  77.8821804 103.7916116  59.5673761  78.7854619
 100.8802022  72.0850023  77.5056502 100.5802745  72.9875062  77.3972309
 100.5353081  71.8182206  78.3577654  94.3314503  68.5363820  73.5393206
  93.4065000  68.4040034  73.7470898  94.5798917  69.3158039  74.0363148
 104.2799166  64.6032563  75.1853939 103.3716043  64.5347972  74.8912700
 104.2286761  65.0804508  76.0135764  98.1015910  66.0790702  66.8237338
  97.9815535  66.5247752  67.6622818  97.4068498  66.4276019  66.2650876
  91.6923314  68.1797093  74.3736995  91.8215696  68.4331572  75.2876407
  91.0120766  68.7724801  74.0541650  95.8622802  78.8494343  70.4727469
  95.7846831  79.8002168  70.5515950  95.2584445  78.5040216  71.1302396
  98.3540031  66.0222209  83.1288836  97.5773365  66.5816129  83.1191701
  98.9930594  66.5078992  83.6503706 106.1460812  62.8049002  76.9631813
 105.5035192  63.0981535  76.3171607 105.6415741  62.6901922  77.7685009
 103.8000976  66.5512175  67.6517672 104.7118832  66.7839561  67.4765370
 103.2910623  67.1349219  67.0892751  96.6086404  68.8307662  82.6906803
  97.3501088  69.3692706  82.4141627  95.9023389  69.4573951  82.8478355
 102.0841743  70.9736803  81.2878965 102.4925099  70.5319213  80.5433597
 101.3619005  70.3989430  81.5413158  98.4372813  65.9109409  78.6612522
  99.2834009  66.3348823  78.8047171  98.3771451  65.2543034  79.3551085
 102.4070558  71.5337993  75.0431254 101.7779420  71.6983707  74.3407321
 102.0196220  71.9479603  75.8142218 106.2859790  72.4692431  72.3975617
 105.6010828  72.8491332  71.8472651 106.3703639  73.0787758  73.1307565
 101.5872259  63.5713778  80.3193695 101.3433191  64.3255838  79.7827971
 101.8632189  63.9499125  81.1540942 103.5410722  70.1152390  78.9970961
 103.7527617  70.7584150  78.3205342 103.4940470  69.2814707  78.5292891
 101.1436950  62.7270211  75.9007533 100.2821429  63.0251464  76.1924271
 101.1699385  62.9440610  74.9688566  97.9598520  71.2712401  72.3081339
  98.4236865  71.5500104  71.5185961  97.6955318  70.3695846  72.1254429
  95.3447767  65.9847310  83.4922113  94.7146428  66.6663591  83.7257510
  95.2383855  65.8730392  82.5475251  90.6392740  65.6519106  74.4188037
  89.8491794  65.9076635  73.9428148  91.1303987  66.4667444  74.5240078
 104.6556549  72.9924345  77.1693318 105.4773993  72.5904533  76.8876000
 104.6518952  72.8892580  78.1209434  92.5907485  66.0163686  71.3771514
  91.7938649  66.1282380  71.8955010  92.3633077  66.3550338  70.5112405
  98.4213153  72.5408389  79.3254029  98.4857585  73.0028796  80.1612201
  97.7124077  71.9105754  79.4536339  88.9230443  65.9049597  76.8503028
  89.1738481  66.7896607  77.1160604  89.4589991  65.7254198  76.0778120
 112.7462543  69.3363094  73.5178290 111.9926251  68.7670492  73.3622294
 112.8810084  69.3025758  74.4648924  98.1361171  74.2076496  69.1933009
  98.0006845  75.0528032  69.6217857  98.6770983  74.4095774  68.4298943
  94.6228510  60.2868076  85.8547364  94.2295456  59.7334275  86.5295008
  95.4394651  60.5978655  86.2453882  91.5890568  71.7251934  69.7660934
  92.1015089  72.5195185  69.9166499  92.2413281  71.0278225  69.6994536
  93.3985453  74.8417691  71.8483687  93.5752081  75.7635655  71.6604671
  94.1942286  74.5276110  72.2778067  97.5396471  61.7025955  83.4467621
  98.2806185  62.3033108  83.3672083  97.7714394  60.9603593  82.8885663
  92.6837809  66.8882322  81.7245850  92.5691324  65.9867580  82.0252949
  91.8282327  67.1346019  81.3730667  99.7629647  74.8300063  83.3233351
  99.3193501  74.0436441  83.0054256 100.4246861  75.0179213  82.6577242
 101.8610885  75.1102863  81.3514752 101.8429360  75.9311744  80.8595022
 102.7830805  74.9856938  81.5764894  98.3183939  72.6246992  82.1938261
  98.8512276  71.8635280  81.9637569  97.7898020  72.3320644  82.9362415
 101.4853634  57.7307058  77.7231902 101.1417904  58.6208700  77.6471013
 101.8532597  57.5408716  76.8601487  89.5539485  70.0540589  70.5420505
  90.3914707  70.4637597  70.3254212  89.7317752  69.1140031  70.5120698
 101.4503917  67.7215669  66.2304338 100.9350540  68.4920274  66.4692725
 101.1781225  67.0480805  66.8537399  99.0351028  62.5665370  71.2889576
  98.1792624  62.1772220  71.1095215  99.4477980  62.6457331  70.4289361
 100.5650175  60.1011713  75.6881136 100.0614970  60.0641848  74.8748941
 100.8580781  61.0104456  75.7477792  96.8093060  60.1850443  74.6947317
  97.6746057  59.9893252  74.3353207  96.8770569  59.9560795  75.6216674
 106.4238191  70.4748024  68.1657511 105.6467634  70.1359183  67.7212673
 107.1029672  70.4800647  67.4912476 101.2390220  65.5942761  68.0564119
 100.9340356  65.9088911  68.9074262 102.1920662  65.6724181  68.0991452
  99.6836652  71.7532985  69.7057073  99.1558013  71.0185744  69.3930310
  99.1824155  72.5307661  69.4597041 104.6629498  69.9482005  74.8224119
 104.0053172  70.6381267  74.9104248 105.4669897  70.3378437  75.1658105
 103.4734957  68.3026378  72.8728061 103.9866838  68.9356370  73.3749771
 104.1236181  67.7027573  72.5071421  96.7178047  59.2893900  70.7938754
  96.0642460  58.9742917  70.1695368  96.6758521  58.6669640  71.5198577
  97.8289252  69.5713195  62.7092046  96.9216314  69.3402448  62.9083195
  98.3260284  68.7750814  62.8966027 100.7357331  78.2810702  65.6288732
 100.0619030  78.5842399  66.2373690 101.1223153  79.0839782  65.2794189
  99.9515788  65.7775833  75.1186401  99.0338349  65.9990780  74.9608089
 100.3675931  65.8522144  74.2598109 100.7350835  67.1767249  70.2489082
 101.4822654  67.6888646  69.9396204 101.0042425  66.8551302  71.1093475
  99.0077485  69.6725790  67.2316036  98.0988705  69.3884823  67.3288506
  99.0372569  70.0924868  66.3719343 104.2396753  73.2832379  71.0007203
 103.7859080  72.4423289  71.0572394 103.6090720  73.9193778  71.3381984
 103.1829672  64.2124365  72.2307871 102.4452429  63.7001752  72.5618113
 103.4356446  63.7724747  71.4191148 102.6829692  75.1208876  71.9357022
 102.9752667  75.6813933  71.2169387 103.1928313  75.4137437  72.6910181
 103.2841300  56.9900617  72.8249640 103.5900177  56.1297981  72.5375555
 104.0093905  57.5818238  72.6248634  89.5765656  67.3931304  71.2131238
  89.3790056  66.8000665  70.4882305  89.0212320  67.0883514  71.9307177
  98.7053573  71.2134533  64.5704114  98.2673003  70.4970392  64.1109752
  99.4464014  71.4410648  64.0089206  95.4954739  65.9031470  71.0916210
  94.6822605  66.2025641  71.4981402  95.9913734  65.5087159  71.8090692
  97.6463317  75.8989227  73.0250475  97.6039496  76.1250073  72.0959007
  98.5626016  75.6652602  73.1736276 101.0928951  66.3673295  79.9231104
 101.4478339  66.5944768  80.7825570 101.7401082  66.6991671  79.3008359
 106.8226688  69.4891731  70.6280433 106.6844587  69.6793326  69.7001622
 106.4662907  70.2511113  71.0848484 106.8496068  71.5568258  75.6391705
 107.2832574  71.4643547  76.4874759 107.5627648  71.5325758  75.0011721
  95.7629118  72.7752256  72.8212437  96.5569717  72.2802576  72.6195012
  95.0520810  72.2470119  72.4580143 100.5823963  75.1570352  77.1724805
 100.6360985  75.7261288  77.9402521  99.7138744  75.3272237  76.8078842
  92.0711882  66.9195338  68.8972190  91.1409470  66.8579793  69.1142152
  92.1669354  66.3971291  68.1008831  91.9897431  63.4450151  71.4850432
  92.2504248  64.3595484  71.3759592  92.8114603  62.9774593  71.6347045
  93.4622356  64.8587908  78.6549256  94.1345409  64.6505270  78.0061905
  92.6352142  64.6609994  78.2154489 107.7111617  71.5991958  78.1724590
 107.9047507  72.5037769  78.4183865 107.6112235  71.1399377  79.0063175
  99.3647928  61.4849849  80.6714917  98.7175843  62.1839798  80.5779394
 100.1348943  61.9185993  81.0391165 102.7726726  71.7498701  83.7465471
 102.6212232  71.5209253  82.8295554 102.7631405  72.7069302  83.7596816
  99.5412062  69.3230614  78.7311737 100.4704122  69.4741773  78.5580704
  99.1203092  69.4114634  77.8760383  98.3400394  73.3481278  76.5010275
  98.2011480  72.9800062  77.3736213  97.5514990  73.8628918  76.3294232
  98.9348546  78.4490375  67.8435811  99.1100302  77.9778418  68.6581434
  98.2481334  79.0756141  68.0717072  99.8905609  72.7262881  73.8899112
  99.5555442  72.6863651  74.7856762  99.3909555  72.0607597  73.4169523
 102.8264801  70.0718915  64.1636172 102.2093972  69.3465743  64.0669225
 102.3581289  70.8328275  63.8203246  96.4932154  67.8450470  78.9035373
  97.2031772  67.2043662  78.8621992  96.4501462  68.0963365  79.8261554
 104.4818933  74.7817823  81.8241952 104.4231479  74.0977044  81.1572535
 104.8838451  75.5236813  81.3722578  95.2061088  64.8315688  80.7231013
  94.6698445  64.3806426  81.3752609  94.6177796  64.9661597  79.9801477
  93.5009631  81.5979737  74.6175671  93.7406230  82.2298261  75.2954690
  92.6578828  81.2467777  74.9041031  94.6163347  64.2904339  63.2857476
  93.7392813  64.1693140  62.9219723  95.0921100  63.4990418  63.0336365
 104.4836340  72.7457407  80.0555932 103.5963119  72.4083329  80.1782331
 105.0534891  72.0140439  80.2924697  86.1365487  69.0781499  73.3798983
  86.8236527  68.7643229  72.7919999  85.9813616  69.9822864  73.1066235
  90.9400209  63.9671696  77.8084007  90.8558398  63.3597365  77.0734417
  90.1182915  64.4580714  77.8093503  98.0137493  77.4058860  77.0217175
  97.9407665  78.2113831  77.5336480  97.5714886  77.6050826  76.1965197
  97.8027273  76.6430630  70.5319997  97.0194795  77.1852310  70.6258221
  98.5020018  77.1604609  70.9314238 101.1123923  62.4525259  73.1754202
 101.6092622  61.6995222  72.8555272 100.3410904  62.4889576  72.6097412
 108.9653680  68.1565625  74.8172494 108.9543557  69.0390340  74.4466427
 108.0971060  67.8037176  74.6227031 100.4736177  77.3045694  79.1775334
 101.1864149  77.9393159  79.1051235  99.9826205  77.4009560  78.3615336
 102.1953704  71.2096946  70.7492626 101.2609982  71.3298409  70.5797330
 102.3730372  70.3069413  70.4852635 105.5826255  67.0514266  71.2842660
 106.0486707  67.8842257  71.2102962 106.0333755  66.5859247  71.9887918
  95.5248090  75.0540137  79.9980905  96.2257550  75.6876620  80.1510299
  95.0543205  75.3954869  79.2376544 103.6502486  73.3958087  68.2828812
 103.9262330  73.2814682  69.1922686 102.7806985  72.9975572  68.2440985
 103.5542918  59.4194853  75.3233561 102.6405998  59.6499080  75.4915768
 103.9836019  59.5033297  76.1747593 103.3249376  67.6084745  77.8233455
 102.6720826  67.8560652  77.1685908 103.7029756  66.7948883  77.4895932
 100.2856550  77.6444438  71.9261625 100.4678945  76.8266094  72.3889378
 101.1089536  77.8612130  71.4886515 100.6198716  76.5712623  69.1876674
 101.1486482  76.0605078  68.5746836 100.8826935  76.2555153  70.0522207
  99.3736949  68.3504556  84.3099492  98.6977586  68.2498685  84.9801867
 100.1964583  68.1943769  84.7735489  91.1215808  74.5876492  76.9312007
  91.7069245  73.8420180  77.0639912  90.9240647  74.8980449  77.8148671
  93.9754464  77.6227740  71.9474450  93.3064839  78.1073867  71.4638490
  93.8367333  77.8696960  72.8617828  85.7133463  67.1582093  75.6516451
  85.7517563  66.6245683  76.4453569  85.2073756  66.6317298  75.0327428
  98.1159732  79.6571483  78.5457108  98.6678040  79.8203105  79.3106193
  98.4565926  80.2475921  77.8737133  93.0924225  62.0046633  79.1478993
  93.1565552  62.8661464  78.7356391  93.0291346  61.3920635  78.4151351
  92.5676498  64.0769766  82.7952027  93.1948537  63.6946843  83.4089551
  91.7104417  63.8583967  83.1607720 102.9670606  74.4832741  84.4005763
 103.5110510  75.0962699  83.9060717 102.3857451  75.0412319  84.9172776
  89.3442041  65.8846195  68.7270382  89.6395482  64.9756873  68.6737436
  88.4430076  65.8633934  68.4051384 101.2528119  77.6053459  75.5320790
 101.1279259  76.8043199  75.0231736 101.9107211  78.0999652  75.0434760
  92.8736288  63.9602191  74.7097931  92.1522873  64.5738159  74.5705404
  93.6629543  64.4959956  74.6314576 103.3163028  75.4062479  77.1600340
 102.3693363  75.2867830  77.0878667 103.6645801  74.5184977  77.2426602
  95.6762601  61.2956618  80.9838582  96.1997003  61.5418914  81.7464892
  95.4574934  62.1276653  80.5641720  91.0729882  63.5660292  68.8509707
  90.7442588  62.6857671  68.6684813  91.4269253  63.5107961  69.7386096
 100.3209461  75.2015195  73.3604693 100.1734424  74.2731902  73.5412263
 101.1462955  75.2235286  72.8761768  94.1871705  63.8533262  69.2185185
  94.5267778  64.3819183  68.4963793  94.6343826  64.1913668  69.9943751
 103.9243583  76.0243754  74.4469565 104.8490130  75.8186615  74.3094017
 103.7558886  75.7760155  75.3558907  96.8815146  62.2370313  78.6688253
  96.5411967  61.4378126  79.0708933  96.1754152  62.5372024  78.0965086
  97.5331618  59.3219625  77.1215576  98.3557687  58.8480103  76.9994466
  97.7769682  60.1010109  77.6214262  96.1739853  62.3507884  67.4178478
  96.8948215  62.7289136  66.9142194  95.5505157  63.0696761  67.5213456
 100.3170975  63.0553033  68.3536810 100.5334590  63.9377671  68.0525638
  99.8365043  62.6639246  67.6242452  96.9166580  63.0041294  74.9788444
  96.9028148  62.1082387  74.6420742  97.6339008  63.0111958  75.6126730
  98.7692710  63.4378634  77.0241571  98.5110488  64.3595705  77.0225902
  98.2377751  63.0409069  77.7142036 103.7138899  76.5429421  69.8031657
 103.8875777  75.9775844  69.0505509 104.2067790  77.3430316  69.6211147
  89.5315859  68.5544090  77.8695216  88.9869327  69.3303898  78.0015490
  90.4095209  68.9014895  77.7114337  96.3203476  61.8855674  70.2476014
  96.4419387  60.9572320  70.4466902  96.0305518  61.8994360  69.3354330
  99.1894666  59.5710585  73.3842734  99.2116363  59.6349918  72.4294714
  99.6062725  58.7315093  73.5783240 109.5678290  69.3065844  71.4221957
 110.0109436  68.5573169  71.0241080 108.6904801  69.2975981  71.0395689
 104.7014072  75.8596186  66.9028555 105.3964976  76.4802878  67.1215870
 105.0437222  75.0091537  67.1780933  90.3181881  67.6813987  80.7625373
  89.5763617  67.8296622  81.3490003  89.9974625  67.9422252  79.8992122
 106.6005495  73.3095891  68.4315886 107.1256819  73.6483164  67.7065206
 106.5127847  72.3742906  68.2479021  98.2625543  77.2229965  80.5605763
  98.5712670  76.9779112  81.4328462  99.0601025  77.4276603  80.0724633
  98.2846156  79.3767874  72.7911139  97.8451146  78.8844253  73.4843996
  99.0354272  78.8340842  72.5503214  90.7638494  75.5679415  72.7935767
  91.5896514  75.2683187  72.4134411  90.4132546  74.7987038  73.2425556
  88.9647100  73.4865742  73.7524701  88.1279008  73.0587916  73.5708702
  88.9370745  73.6798185  74.6895492  95.8044555  63.3987672  84.4565947
  95.8532711  64.2749794  84.0743716  96.3467069  62.8565065  83.8837590
 106.2899401  73.9428795  83.7367084 105.4994945  73.9252934  83.1971583
 106.0532755  74.4817088  84.4916120 106.4097276  70.7921261  81.0499812
 106.4595281  70.6271269  81.9915335 106.3011199  69.9248520  80.6597693
 103.7001038  66.7752189  82.3659119 104.6010901  66.6358654  82.0743117
 103.7749013  66.9406644  83.3057297  98.0343844  64.1519044  81.2112305
  97.1647153  64.4452610  80.9394894  98.2703324  64.7359489  81.9319569
 107.9115473  73.2118203  81.2941834 107.6200281  73.5748183  82.1305295
 107.2987604  72.4985211  81.1155166 109.1111155  70.7771082  73.8144404
 109.9458046  71.2160887  73.9781965 109.2470284  70.3009736  72.9952650
 106.1602661  68.3350817  79.7621892 106.6356783  68.5278464  78.9540743
 105.2368226  68.3910003  79.5165276  93.0486168  69.4974984  69.3452970
  92.8032209  68.5937314  69.5433180  93.2182082  69.4992135  68.4032448
 100.7382877  60.3698661  78.7277726 101.2564821  61.1059688  78.4024214
 100.3838010  60.6762654  79.5624485  92.3181815  65.2303342  66.8439132
  91.6251060  65.3047697  66.1879168  92.0733567  64.4663686  67.3660649
 100.9895472  56.7898943  74.2478622 101.2697225  56.1222132  74.8739049
 101.7746079  56.9828039  73.7353286  98.7928940  75.9657937  65.8103649
  98.2202907  76.5848124  65.3574121  99.3661734  76.5157299  66.3443571
 104.8604330  65.2116577  77.9950198 105.8121753  65.3114675  78.0162422
 104.6907780  64.4194846  78.5048282 102.8818709  62.2972161  78.1809598
 102.2868642  62.5777173  77.4856087 102.5968406  62.7866062  78.9526340
 102.0126200  76.2495087  66.9412231 102.9456873  76.1840649  67.1445107
 101.9249413  77.0851354  66.4826764 104.6414217  75.5660958  63.9016179
 104.5627848  75.2320821  64.7951936 105.4623883  76.0582726  63.9007651
 107.3392408  68.4322697  77.1092497 107.3068728  67.4938698  77.2952181
 107.9493031  68.5106734  76.3758322 107.4886896  65.2233741  77.1550780
 106.9725945  64.4392197  76.9680709 108.3726845  64.8952457  77.3197300
 105.1497623  58.9674756  73.1146593 104.9522444  58.6589844  73.9989925
 105.7597329  59.6936395  73.2444523 113.1568958  69.4938704  76.2498534
 113.8872346  69.2323992  76.8106237 112.5475903  68.7567426  76.2900602
 111.2384255  67.6346567  76.8472985 110.5117418  67.5002531  76.2389477
 110.8231542  67.9423395  77.6529703  99.0614431  71.3536496  84.6120358
  99.9817441  71.5315095  84.8060405  99.0264014  70.4092542  84.4600057
  97.3618656  65.2268726  63.0874586  96.4550111  64.9301839  63.1637300
  97.6394637  64.9298545  62.2208873  88.2796596  66.5475090  73.5373633
  87.9599380  65.6940398  73.2448007  87.7330024  66.7623668  74.2931600
  92.0576504  69.2637531  77.2543139  92.2762513  70.1954639  77.2731173
  92.4702277  68.9045505  78.0397943 100.9071270  58.8483663  70.8643124
 101.4602308  59.2679116  71.5233147 101.1441356  57.9219411  70.9066080
  96.9304369  64.8370737  86.6445888  96.8301096  65.7865094  86.5757979
  96.7125911  64.5088976  85.7721958  96.1317440  62.0855662  63.2286566
  96.9936604  62.4110560  63.4882383  96.3167785  61.2987158  62.7159631
  88.1484856  70.1678001  75.5066754  87.4548328  69.7531954  74.9936709
  88.8957847  70.2098538  74.9100173 104.2850077  60.9584188  70.3721789
 103.7048746  61.6168992  69.9899841 104.0186010  60.1361533  69.9609206
 102.7353643  60.3589246  72.5743109 103.2353422  60.4705780  71.7657428
 103.3789251  60.0550299  73.2143917  96.7935639  68.2667875  85.4610950
  96.3102721  69.0668236  85.6674839  96.8796578  68.2775820  84.5078394
  90.0621599  70.0996255  73.3832769  90.0392287  70.1983942  72.4314652
  90.3722235  70.9461406  73.7049935  92.7208977  72.1572410  77.4979384
  93.6752230  72.1256352  77.4309315  92.5221500  71.6963034  78.3129610
  93.3108359  70.7273526  80.0650181  94.1301248  71.2217605  80.0885019
  93.5845166  69.8105494  80.0367749 103.0674955  63.1184279  69.4278137
 102.1800810  63.4033929  69.2098332 103.4828944  62.9578042  68.5805414
 106.4189491  63.1430799  73.1432476 107.1949881  63.6327252  73.4157093
 105.6937625  63.5688854  73.6004346 108.8562050  63.8558419  74.2006417
 109.4506540  63.6154155  73.4899725 108.9288633  63.1365549  74.8279953
  91.0759205  77.6992030  74.5149582  90.9413673  76.9392431  73.9487580
  90.6591268  78.4232930  74.0478370 102.2118168  72.8828953  63.5226157
 102.9154018  73.0878956  64.1383812 101.4880817  73.4505715  63.7875240
 103.0415979  68.6338814  69.6428427 102.9851180  69.0907366  68.8036059
 103.5944321  67.8729499  69.4651270 106.8520785  64.4228546  70.4678547
 106.5957719  64.0225182  71.2986754 106.2273653  65.1372340  70.3428686
 111.1633122  67.1624620  72.9749838 110.6032680  67.2317809  73.7481400
 110.5576626  66.9865604  72.2549334  94.2328331  78.5961347  74.7268024
  94.1160715  79.5406779  74.6246714  93.4120777  78.2934908  75.1153823
 104.1204866  73.3211482  65.5724617 104.9550470  72.8892681  65.3902092
 103.9589209  73.1493496  66.5001511 103.7750758  69.8243596  66.9380956
 103.7199562  69.6587867  65.9969400 103.1496813  70.5319629  67.0943146
  88.5643273  65.0611660  80.7642378  89.2102137  64.5510614  81.2529604
  88.3560424  65.7980342  81.3385804 101.0896665  72.1292508  86.2634519
 101.9587825  72.3033160  85.9021154 100.6103417  72.9486924  86.1410248
  95.2582845  79.2489609  77.9423953  96.1610092  79.2813219  78.2590448
  95.0320215  78.3190060  77.9570288  97.0136447  78.0020595  74.6034031
  96.0632078  78.0022457  74.4898404  97.3168933  77.2553330  74.0870066
 100.8999003  55.9194481  70.7712211 100.1331399  55.3652968  70.9168894
 101.3109708  55.9916350  71.6326363 112.7489141  83.8381133  75.6679794
 113.3867551  83.7187881  74.9643134 112.6309984  84.7861977  75.7267746
 109.5578847  83.7908562  75.6041318 109.2197359  83.6749626  74.7161853
 110.4268615  83.3899727  75.5842325 105.4165663  85.6444038  71.5938209
 104.8530528  85.5533975  70.8254497 105.3018058  84.8243942  72.0740702
 110.0398630  84.9443413  81.5627524 110.0287271  84.5496212  80.6908028
 110.2019270  84.2109486  82.1561295 102.9630095  87.1395230  74.4322430
 103.7551387  86.7986054  74.0168729 103.2026745  87.2490205  75.3524583
 110.9965222  89.3115006  66.9052674 110.3453201  89.8969086  66.5186688
 111.7909584  89.8421201  66.9647712 104.9220849  86.4004143  67.3039809
 105.6951725  85.8533130  67.1652684 105.2746248  87.2648392  67.5154270
 106.7605891  87.7280525  80.5106708 106.4695757  88.6326156  80.3953374
 107.3962876  87.7697053  81.2250777 107.6862098  85.1057374  77.1008068
 108.2825670  84.8813396  76.3865030 107.7437070  84.3642119  77.7033515
 107.2587127  82.5596809  64.9358258 107.5112647  82.0378330  64.1741721
 106.3211686  82.3962954  65.0384942 112.3030409  81.5632587  72.7433002
 113.0893499  81.1452011  72.3923419 112.5669114  82.4678680  72.9114650
 112.4740487  87.0005438  67.4421659 111.8386320  87.0740064  68.1542563
 112.1437893  87.5899036  66.7640738 117.7038836  81.5007821  73.6465980
 118.4364008  80.9307037  73.8803810 116.9478192  81.1129421  74.0872486
 106.9783415  84.4624915  67.1382633 106.8619673  83.7869818  67.8063718
 107.0885675  83.9757289  66.3214786 109.3214956  83.9235062  70.8429323
 108.9573163  83.3965683  71.5542244 110.1782072  83.5333531  70.6695808
 115.2264257  75.2129395  78.1060589 114.8947582  76.0824806  77.8821804
 114.6309870  74.8965679  78.7854619 108.9620443  78.9524962  65.8390671
 109.1294845  79.8205198  66.2061142 108.7717612  79.1152243  64.9151960
 111.7195776  87.4141941  77.5056502 111.4196499  88.3166979  77.3972309
 111.3746836  87.1474124  78.3577654 105.1708258  83.8655737  73.5393206
 104.2458754  83.7331952  73.7470898 105.4192671  84.6449957  74.0363148
 115.1192920  79.9324481  75.1853939 114.2109797  79.8639889  74.8912700
 115.0680516  80.4096426  76.0135764 108.9409664  81.4082619  66.8237338
 108.8209289  81.8539670  67.6622818 108.2462252  81.7567937  66.2650876
 102.5317069  83.5089011  74.3736995 102.6609450  83.7623490  75.2876407
 101.8514520  84.1016719  74.0541650 106.7016556  94.1786261  70.4727469
 106.6240586  95.1294086  70.5515950 106.0978200  93.8332133  71.1302396
 109.1933786  81.3514126  83.1288836 108.4167120  81.9108047  83.1191701
 109.8324349  81.8370909  83.6503706 116.9854567  78.1340919  76.9631813
 116.3428947  78.4273452  76.3171607 116.4809495  78.0193840  77.7685009
 114.6394730  81.8804092  67.6517672 115.5512586  82.1131479  67.4765370
 114.1304377  82.4641137  67.0892751 107.4480158  84.1599580  82.6906803
 108.1894843  84.6984624  82.4141627 106.7417144  84.7865869  82.8478355
 112.9235498  86.3028720  81.2878965 113.3318854  85.8611131  80.5433597
 112.2012759  85.7281348  81.5413158 109.2766568  81.2401327  78.6612522
 110.1227763  81.6640741  78.8047171 109.2165206  80.5834951  79.3551085
 113.2464312  86.8629911  75.0431254 112.6173175  87.0275625  74.3407321
 112.8589975  87.2771520  75.8142218 117.1253544  87.7984349  72.3975617
 116.4404583  88.1783250  71.8472651 117.2097394  88.4079675  73.1307565
 112.4266013  78.9005695  80.3193695 112.1826945  79.6547756  79.7827971
 112.7025944  79.2791043  81.1540942 114.3804476  85.4444308  78.9970961
 114.5921371  86.0876068  78.3205342 114.3334224  84.6106624  78.5292891
 111.9830705  78.0562128  75.9007533 111.1215184  78.3543382  76.1924271
 112.0093140  78.2732527  74.9688566 108.7992274  86.6004319  72.3081339
 109.2630620  86.8792022  71.5185961 108.5349072  85.6987764  72.1254429
 105.6916355  86.1475800  75.2461102 106.2617712  86.5763069  74.6078586
 106.2824467  85.8658385  75.9445288 107.7361160  82.7227471  69.1170904
 108.4385204  83.1748515  69.5844830 107.4041789  82.0811290  69.7450797
 106.1841522  81.3139228  83.4922113 105.5540183  81.9955509  83.7257510
 106.0777610  81.2022310  82.5475251 101.4786494  80.9811024  74.4188037
 100.6885548  81.2368553  73.9428148 101.9697742  81.7959362  74.5240078
 115.4950304  88.3216263  77.1693318 116.3167748  87.9196450  76.8876000
 115.4912707  88.2184497  78.1209434 103.4301240  81.3455603  71.3771514
 102.6332403  81.4574297  71.8955010 103.2026832  81.6842255  70.5112405
 109.2606907  87.8700306  79.3254029 109.3251340  88.3320714  80.1612201
 108.5517831  87.2397671  79.4536339  99.7624197  81.2341514  76.8503028
 100.0132236  82.1188524  77.1160604 100.2983746  81.0546116  76.0778120
 108.9754925  89.5368414  69.1933009 108.8400600  90.3819950  69.6217857
 109.5164738  89.7387692  68.4298943 105.4622265  75.6159994  85.8547364
 105.0689210  75.0626192  86.5295008 106.2788405  75.9270572  86.2453882
 102.4284322  87.0543852  69.7660934 102.9408843  87.8487102  69.9166499
 103.0807035  86.3570142  69.6994536 104.2379207  90.1709608  71.8483687
 104.4145835  91.0927573  71.6604671 105.0336041  89.8568027  72.2778067
 108.3790226  77.0317873  83.4467621 109.1199939  77.6325026  83.3672083
 108.6108148  76.2895511  82.8885663 103.5231564  82.2174240  81.7245850
 103.4085079  81.3159497  82.0252949 102.6676081  82.4637937  81.3730667
 110.6023401  90.1591980  83.3233351 110.1587256  89.3728359  83.0054256
 111.2640615  90.3471131  82.6577242 105.3610523  91.6887782  77.8494030
 105.9117948  91.5604845  77.0771024 104.5221998  91.9882671  77.4988922
 112.7004639  90.4394780  81.3514752 112.6823115  91.2603661  80.8595022
 113.6224560  90.3148856  81.5764894 109.1577694  87.9538910  82.1938261
 109.6906030  87.1927198  81.9637569 108.6291775  87.6612562  82.9362415
 112.3247389  73.0598976  77.7231902 111.9811658  73.9500618  77.6471013
 112.6926351  72.8700633  76.8601487 100.3933239  85.3832506  70.5420505
 101.2308461  85.7929515  70.3254212 100.5711507  84.4431948  70.5120698
 112.2897671  83.0507587  66.2304338 111.7744295  83.8212192  66.4692725
 112.0174980  82.3772723  66.8537399 109.8744782  77.8957288  71.2889576
 109.0186379  77.5064138  71.1095215 110.2871734  77.9749249  70.4289361
 111.4043929  75.4303631  75.6881136 110.9008725  75.3933766  74.8748941
 111.6974536  76.3396374  75.7477792 107.6486815  75.5142361  74.6947317
 108.5139812  75.3185169  74.3353207 107.7164324  75.2852712  75.6216674
 117.2631945  85.8039942  68.1657511 116.4861388  85.4651101  67.7212673
 117.9423426  85.8092565  67.4912476 112.0783974  80.9234679  68.0564119
 111.7734110  81.2380828  68.9074262 113.0314417  81.0016099  68.0991452
 110.5230406  87.0824902  69.7057073 109.9951768  86.3477662  69.3930310
 110.0217909  87.8599579  69.4597041 115.5023252  85.2773923  74.8224119
 114.8446927  85.9673184  74.9104248 116.3063652  85.6670355  75.1658105
 105.2549134  77.7444569  72.0663684 105.8292886  77.5219750  71.3336877
 105.8420116  77.8133263  72.8192286 114.3128711  83.6318296  72.8728061
 114.8260593  84.2648287  73.3749771 114.9629935  83.0319491  72.5071421
 105.5818721  79.7749030  66.0859570 104.7456033  80.1123716  66.4068844
 105.4423491  79.6398009  65.1486706 107.5571802  74.6185818  70.7938754
 106.9036214  74.3034835  70.1695368 107.5152276  73.9961558  71.5198577
 108.6683007  84.9005113  62.7092046 107.7610068  84.6694366  62.9083195
 109.1654039  84.1042732  62.8966027 111.5751085  93.6102620  65.6288732
 110.9012784  93.9134317  66.2373690 111.9616907  94.4131700  65.2794189
 110.7909542  81.1067751  75.1186401 109.8732103  81.3282698  74.9608089
 111.2069686  81.1814062  74.2598109 111.5744590  82.5059167  70.2489082
 112.3216409  83.0180564  69.9396204 111.8436179  82.1843219  71.1093475
 109.8471240  85.0017707  67.2316036 108.9382459  84.7176740  67.3288506
 109.8766324  85.4216786  66.3719343 115.0790507  88.6124297  71.0007203
 114.6252834  87.7715207  71.0572394 114.4484474  89.2485695  71.3381984
 114.0223427  79.5416283  72.2307871 113.2846184  79.0293669  72.5618113
 114.2750200  79.1016665  71.4191148 113.5223447  90.4500794  71.9357022
 113.8146421  91.0105851  71.2169387 114.0322067  90.7429355  72.6910181
 114.1235054  72.3192535  72.8249640 114.4293931  71.4589898  72.5375555
 114.8487659  72.9110155  72.6248634 100.4159410  82.7223222  71.2131238
 100.2183810  82.1292582  70.4882305  99.8606074  82.4175432  71.9307177
 108.3956134  82.6146328  73.3325831 108.4504744  81.6620164  73.2568308
 107.5847336  82.7705767  73.8167130 109.5447328  86.5426451  64.5704114
 109.1066758  85.8262310  64.1109752 110.2857769  86.7702566  64.0089206
 106.3348494  81.2323388  71.0916210 105.5216359  81.5317558  71.4981402
 106.8307488  80.8379077  71.8090692 108.4857072  91.2281145  73.0250475
 108.4433251  91.4541991  72.0959007 109.4019771  90.9944519  73.1736276
 111.9322706  81.6965212  79.9231104 112.2872093  81.9236685  80.7825570
 112.5794837  82.0283589  79.3008359 117.6620443  84.8183648  70.6280433
 117.5238341  85.0085244  69.7001622 117.3056661  85.5803031  71.0848484
 105.8262569  78.8041743  76.7077445 106.4661948  78.6630502  76.0100408
 104.9940099  78.5176257  76.3316047 117.6889822  86.8860175  75.6391705
 118.1226329  86.7935464  76.4874759 118.4021403  86.8617676  75.0011721
 106.6022873  88.1044174  72.8212437 107.3963471  87.6094494  72.6195012
 105.8914565  87.5762037  72.4580143 111.4217717  90.4862269  77.1724805
 111.4754739  91.0553206  77.9402521 110.5532498  90.6564154  76.8078842
 102.9105636  82.2487256  68.8972190 101.9803224  82.1871711  69.1142152
 103.0063108  81.7263208  68.1008831 102.8291185  78.7742068  71.4850432
 103.0898002  79.6887402  71.3759592 103.6508357  78.3066511  71.6347045
 104.3016110  80.1879826  78.6549256 104.9739164  79.9797188  78.0061905
 103.4745897  79.9901912  78.2154489 118.5505372  86.9283876  78.1724590
 118.7441262  87.8329686  78.4183865 118.4505990  86.4691295  79.0063175
 110.2041682  76.8141766  80.6714917 109.5569597  77.5131716  80.5779394
 110.9742698  77.2477910  81.0391165 113.6120480  87.0790619  83.7465471
 113.4605987  86.8501170  82.8295554 113.6025160  88.0361220  83.7596816
 110.3805817  84.6522531  78.7311737 111.3097877  84.8033691  78.5580704
 109.9596847  84.7406552  77.8760383 109.1794149  88.6773196  76.5010275
 109.0405234  88.3091980  77.3736213 108.3908745  89.1920835  76.3294232
 109.7742301  93.7782292  67.8435811 109.9494056  93.3070335  68.6581434
 109.0875089  94.4048058  68.0717072 110.7299364  88.0554798  73.8899112
 110.3949196  88.0155568  74.7856762 110.2303309  87.3899514  73.4169523
 104.7043608  83.4622428  79.4151694 104.5663406  82.7302667  80.0163233
 105.6148531  83.3731329  79.1335881 113.6658555  85.4010833  64.1636172
 113.0487726  84.6757661  64.0669225 113.1975044  86.1620193  63.8203246
 107.3325908  83.1742388  78.9035373 108.0425527  82.5335580  78.8621992
 107.2895217  83.4255283  79.8261554 115.3212687  90.1109741  81.8241952
 115.2625233  89.4268961  81.1572535 115.7232205  90.8528731  81.3722578
 106.0454842  80.1607606  80.7231013 105.5092199  79.7098344  81.3752609
 105.4571551  80.2953515  79.9801477 104.3403386  96.9271655  74.6175671
 104.5799984  97.5590179  75.2954690 103.4972582  96.5759695  74.9041031
 105.4557101  79.6196257  63.2857476 104.5786568  79.4985058  62.9219723
 105.9314854  78.8282335  63.0336365 115.3230094  88.0749325  80.0555932
 114.4356873  87.7375247  80.1782331 115.8928645  87.3432356  80.2924697
  96.9759241  84.4073417  73.3798983  97.6630281  84.0935147  72.7919999
  96.8207370  85.3114781  73.1066235 101.7793964  79.2963613  77.8084007
 101.6952152  78.6889283  77.0734417 100.9576670  79.7872632  77.8093503
 108.8531248  92.7350777  77.0217175 108.7801419  93.5405749  77.5336480
 108.4108641  92.9342743  76.1965197 108.6421027  91.9722547  70.5319997
 107.8588549  92.5144228  70.6258221 109.3413773  92.4896527  70.9314238
 111.9517677  77.7817177  73.1754202 112.4486377  77.0287139  72.8555272
 111.1804659  77.8181494  72.6097412 119.8047435  83.4857542  74.8172494
 119.7937311  84.3682258  74.4466427 118.9364814  83.1329093  74.6227031
 111.3129931  92.6337611  79.1775334 112.0257903  93.2685076  79.1051235
 110.8219960  92.7301477  78.3615336 113.0347458  86.5388864  70.7492626
 112.1003737  86.6590327  70.5797330 113.2124127  85.6361331  70.4852635
 108.5352646  79.9234560  72.9025887 108.1650434  79.3705600  73.5906792
 109.0311739  79.3192693  72.3500887 116.4220009  82.3806183  71.2842660
 116.8880462  83.2134175  71.2102962 116.8727510  81.9151165  71.9887918
 106.3641845  90.3832055  79.9980905 107.0651304  91.0168538  80.1510299
 105.8936960  90.7246786  79.2376544 114.4896241  88.7250005  68.2828812
 114.7656084  88.6106599  69.1922686 113.6200739  88.3267490  68.2440985
 114.3936672  74.7486770  75.3233561 113.4799752  74.9790997  75.4915768
 114.8229774  74.8325214  76.1747593 114.1643131  82.9376662  77.8233455
 113.5114581  83.1852570  77.1685908 114.5423511  82.1240801  77.4895932
 111.1250305  92.9736356  71.9261625 111.3072699  92.1558011  72.3889378
 111.9483291  93.1904048  71.4886515 111.4592470  91.9004541  69.1876674
 111.9880237  91.3896995  68.5746836 111.7220690  91.5847071  70.0522207
 110.2130704  83.6796473  84.3099492 109.5371341  83.5790603  84.9801867
 111.0358338  83.5235687  84.7735489 101.9609563  89.9168410  76.9312007
 102.5463000  89.1712098  77.0639912 101.7634401  90.2272367  77.8148671
 104.8148218  92.9519657  71.9474450 104.1458593  93.4365785  71.4638490
 104.6761088  93.1988878  72.8617828  96.5527218  82.4874010  75.6516451
  96.5911317  81.9537601  76.4453569  96.0467510  81.9609216  75.0327428
 108.9553487  94.9863401  78.5457108 109.5071795  95.1495022  79.3106193
 109.2959680  95.5767839  77.8737133 103.9317980  77.3338551  79.1478993
 103.9959306  78.1953382  78.7356391 103.8685100  76.7212552  78.4151351
 103.4070252  79.4061683  82.7952027 104.0342291  79.0238761  83.4089551
 102.5498171  79.1875885  83.1607720 113.8064361  89.8124658  84.4005763
 114.3504265  90.4254617  83.9060717 113.2251206  90.3704237  84.9172776
 100.1835795  81.2138112  68.7270382 100.4789236  80.3048791  68.6737436
  99.2823831  81.1925852  68.4051384 112.0921874  92.9345376  75.5320790
 111.9673013  92.1335116  75.0231736 112.7500965  93.4291570  75.0434760
 103.7130042  79.2894109  74.7097931 102.9916628  79.9030077  74.5705404
 104.5023298  79.8251874  74.6314576 114.1556782  90.7354396  77.1600340
 113.2087118  90.6159748  77.0878667 114.5039555  89.8476895  77.2426602
 106.5156356  76.6248535  80.9838582 107.0390757  76.8710832  81.7464892
 106.2968689  77.4568570  80.5641720 101.9123637  78.8952210  68.8509707
 101.5836343  78.0149589  68.6684813 102.2663007  78.8399879  69.7386096
 111.1603216  90.5307113  73.3604693 111.0128178  89.6023820  73.5412263
 111.9856709  90.5527203  72.8761768 105.0265460  79.1825180  69.2185185
 105.3661532  79.7111101  68.4963793 105.4737580  79.5205586  69.9943751
 114.7637337  91.3535671  74.4469565 115.6883885  91.1478533  74.3094017
 114.5952641  91.1052073  75.3558907 107.7208901  77.5662231  78.6688253
 107.3805721  76.7670044  79.0708933 107.0147907  77.8663941  78.0965086
 108.3725373  74.6511543  77.1215576 109.1951442  74.1772021  76.9994466
 108.6163436  75.4302027  77.6214262 107.0133607  77.6799801  67.4178478
 107.7341970  78.0581054  66.9142194 106.3898911  78.3988678  67.5213456
 111.1564730  78.3844950  68.3536810 111.3728344  79.2669588  68.0525638
 110.6758797  77.9931164  67.6242452 105.8963951  81.3430664  74.9307554
 105.7508532  81.6570967  75.8231836 105.4189155  81.9615564  74.3778453
 107.7560334  78.3333212  74.9788444 107.7421903  77.4374305  74.6420742
 108.4732762  78.3403875  75.6126730 109.6086465  78.7670552  77.0241571
 109.3504243  79.6887622  77.0225902 109.0771505  78.3700986  77.7142036
 114.5532654  91.8721339  69.8031657 114.7269531  91.3067761  69.0505509
 115.0461545  92.6722234  69.6211147 100.3709613  83.8836008  77.8695216
  99.8263082  84.6595816  78.0015490 101.2488963  84.2306812  77.7114337
 107.1597230  77.2147592  70.2476014 107.2813141  76.2864238  70.4466902
 106.8699272  77.2286278  69.3354330 110.0288420  74.9002502  73.3842734
 110.0510117  74.9641835  72.4294714 110.4456479  74.0607011  73.5783240
 120.4072045  84.6357762  71.4221957 120.8503191  83.8865087  71.0241080
 119.5298555  84.6267898  71.0395689 115.5407826  91.1888103  66.9028555
 116.2358731  91.8094796  67.1215870 115.8830976  90.3383455  67.1780933
 101.1575635  83.0105904  80.7625373 100.4157371  83.1588540  81.3490003
 100.8368380  83.2714170  79.8992122 117.4399249  88.6387809  68.4315886
 117.9650573  88.9775082  67.7065206 117.3521602  87.7034824  68.2479021
 109.1019298  92.5521882  80.5605763 109.4106424  92.3071029  81.4328462
 109.8994780  92.7568521  80.0724633 109.1239910  94.7059792  72.7911139
 108.6844900  94.2136171  73.4843996 109.8748027  94.1632760  72.5503214
 101.6032249  90.8971333  72.7935767 102.4290269  90.5975105  72.4134411
 101.2526301  90.1278955  73.2425556 106.5713782  90.2497801  74.8633441
 105.9493791  89.5868506  74.5635669 107.2418649  90.2758933  74.1807089
  99.8040854  88.8157659  73.7524701  98.9672762  88.3879834  73.5708702
  99.7764499  89.0090103  74.6895492 106.6438310  78.7279589  84.4565947
 106.6926465  79.6041712  84.0743716 107.1860824  78.1856982  83.8837590
 117.1293155  89.2720712  83.7367084 116.3388699  89.2544851  83.1971583
 116.8926510  89.8109006  84.4916120 117.2491030  86.1213179  81.0499812
 117.2989035  85.9563186  81.9915335 117.1404954  85.2540438  80.6597693
 106.1327289  88.8001725  68.3391901 106.2815409  89.4837189  67.6858574
 106.9393733  88.7806815  68.8541357 114.5394793  82.1044107  82.3659119
 115.4404656  81.9650572  82.0743117 114.6142767  82.2698562  83.3057297
 108.8737598  79.4810962  81.2112305 108.0040907  79.7744528  80.9394894
 109.1097078  80.0651407  81.9319569 118.7509227  88.5410120  81.2941834
 118.4594035  88.9040101  82.1305295 118.1381358  87.8277129  81.1155166
 119.9504910  86.1063000  73.8144404 120.7851801  86.5452804  73.9781965
 120.0864038  85.6301653  72.9952650 116.9996415  83.6642735  79.7621892
 117.4750537  83.8570381  78.9540743 116.0761981  83.7201921  79.5165276
 103.8879922  84.8266902  69.3452970 103.6425964  83.9229232  69.5433180
 104.0575837  84.8284053  68.4032448 111.5776632  75.6990579  78.7277726
 112.0958576  76.4351605  78.4024214 111.2231765  76.0054572  79.5624485
 103.1575570  80.5595260  66.8439132 102.4644815  80.6339615  66.1879168
 102.9127321  79.7955603  67.3660649 111.8289226  72.1190861  74.2478622
 112.1090980  71.4514050  74.8739049 112.6139833  72.3119957  73.7353286
 109.6322695  91.2949855  65.8103649 109.0596662  91.9140042  65.3574121
 110.2055488  91.8449217  66.3443571 115.6998084  80.5408495  77.9950198
 116.6515507  80.6406593  78.0162422 115.5301535  79.7486764  78.5048282
 113.7212464  77.6264078  78.1809598 113.1262396  77.9069091  77.4856087
 113.4362161  78.1157979  78.9526340 112.8519954  91.5787005  66.9412231
 113.7850628  91.5132567  67.1445107 112.7643167  92.4143272  66.4826764
 115.4807971  90.8952875  63.9016179 115.4021603  90.5612739  64.7951936
 116.3017638  91.3874643  63.9007651 118.1786162  83.7614615  77.1092497
 118.1462482  82.8230615  77.2952181 118.7886786  83.8398651  76.3758322
 110.0169493  82.6310668  63.1519701 110.9628598  82.5016876  63.2208119
 109.6383738  81.8925330  63.6289129 118.3280651  80.5525658  77.1550780
 117.8119699  79.7684115  76.9680709 119.2120599  80.2244375  77.3197300
 115.9891378  74.2966674  73.1146593 115.7916199  73.9881762  73.9989925
 116.5991083  75.0228313  73.2444523 109.9008186  86.6828414  84.6120358
 110.8211195  86.8607013  84.8060405 109.8657769  85.7384459  84.4600057
 108.2012410  80.5560644  63.0874586 107.2943866  80.2593757  63.1637300
 108.4788391  80.2590462  62.2208873  99.1190351  81.8767008  73.5373633
  98.7993135  81.0232316  73.2448007  98.5723779  82.0915586  74.2931600
 102.8970258  84.5929449  77.2543139 103.1156268  85.5246556  77.2731173
 103.3096032  84.2337423  78.0397943 109.8174476  75.0997534  69.2418828
 109.0075204  74.7544619  69.6174074 110.5058893  74.7905078  69.8306439
 111.7465024  74.1775581  70.8643124 112.2996063  74.5971034  71.5233147
 111.9835111  73.2511329  70.9066080 107.7698123  80.1662654  86.6445888
 107.6694850  81.1157011  86.5757979 107.5519666  79.8380893  85.7721958
 106.9711195  77.4147579  63.2286566 107.8330359  77.7402478  63.4882383
 107.1561539  76.6279075  62.7159631  98.9878611  85.4969919  75.5066754
  98.2942082  85.0823872  74.9936709  99.7351602  85.5390456  74.9100173
 115.1243831  76.2876106  70.3721789 114.5442500  76.9460910  69.9899841
 114.8579764  75.4653450  69.9609206 113.5747398  75.6881164  72.5743109
 114.0747176  75.7997698  71.7657428 114.2183006  75.3842216  73.2143917
 107.6329394  83.5959793  85.4610950 107.1496475  84.3960153  85.6674839
 107.7190333  83.6067738  84.5078394 100.9015353  85.4288173  73.3832769
 100.8786041  85.5275860  72.4314652 101.2115990  86.2753324  73.7049935
 103.5602731  87.4864328  77.4979384 104.5145985  87.4548270  77.4309315
 103.3615255  87.0254952  78.3129610 104.1502113  86.0565444  80.0650181
 104.9695002  86.5509523  80.0885019 104.4238921  85.1397412  80.0367749
 113.9068709  78.4476196  69.4278137 113.0194564  78.7325847  69.2098332
 114.3222698  78.2869960  68.5805414 117.2583245  78.4722717  73.1432476
 118.0343636  78.9619170  73.4157093 116.5331380  78.8980771  73.6004346
 119.6955804  79.1850336  74.2006417 120.2900295  78.9446072  73.4899725
 119.7682388  78.4657467  74.8279953 101.9152960  93.0283947  74.5149582
 101.7807428  92.2684348  73.9487580 101.4985022  93.7524847  74.0478370
 113.0511923  88.2120871  63.5226157 113.7547773  88.4170873  64.1383812
 112.3274572  88.7797633  63.7875240 113.8809733  83.9630732  69.6428427
 113.8244935  84.4199284  68.8036059 114.4338076  83.2021417  69.4651270
 117.6914539  79.7520464  70.4678547 117.4351473  79.3517100  71.2986754
 117.0667407  80.4664258  70.3428686 105.0722086  93.9253264  74.7268024
 104.9554470  94.8698697  74.6246714 104.2514532  93.6226826  75.1153823
 114.9598620  88.6503400  65.5724617 115.7944224  88.2184599  65.3902092
 114.7982963  88.4785414  66.5001511 114.6144512  85.1535513  66.9380956
 114.5593316  84.9879785  65.9969400 113.9890568  85.8611546  67.0943146
  99.4037027  80.3903578  80.7642378 100.0495891  79.8802532  81.2529604
  99.1954179  81.1272259  81.3385804 111.9290420  87.4584425  86.2634519
 112.7981579  87.6325078  85.9021154 111.4497171  88.2778842  86.1410248
 107.9240638  74.6543622  66.5166275 107.9119308  75.5985462  66.6734545
 108.8164060  74.4713768  66.2225736 106.0976600  94.5781526  77.9423953
 107.0003847  94.6105137  78.2590448 105.8713970  93.6481977  77.9570288
 107.8530202  93.3312513  74.6034031 106.9025833  93.3314374  74.4898404
 108.1562688  92.5845247  74.0870066 111.7392757  71.2486399  70.7712211
 110.9725153  70.6944886  70.9168894 112.1503462  71.3208268  71.6326363
 103.7434518  77.5371195  84.8617393 104.6065980  77.1808000  85.0720717
 103.1699929  77.1985090  85.5492797 120.3972602  99.1200479  75.6041318
 120.0591113  99.0041544  74.7161853 121.2662370  98.7191644  75.5842325
 116.2559417 100.9735956  71.5938209 115.6924282 100.8825893  70.8254497
 116.1411812 100.1535860  72.0740702 120.8792385 100.2735331  81.5627524
 120.8681025  99.8788129  80.6908028 121.0413024  99.5401404  82.1561295
 113.8023849 102.4687147  74.4322430 114.5945141 102.1277972  74.0168729
 114.0420499 102.5782122  75.3524583 115.7614603 101.7296061  67.3039809
 116.5345479 101.1825048  67.1652684 116.1140002 102.5940310  67.5154270
 117.5999646 103.0572443  80.5106708 117.3089512 103.9618074  80.3953374
 118.2356630 103.0988970  81.2250777 118.5255853 100.4349291  77.1008068
 119.1219425 100.2105314  76.3865030 118.5830824  99.6934037  77.7033515
 118.0980881  97.8888727  64.9358258 118.3506402  97.3670248  64.1741721
 117.1605440  97.7254872  65.0384942 117.8177170  99.7916833  67.1382633
 117.7013428  99.1161736  67.8063718 117.9279430  99.3049207  66.3214786
 120.1608711  99.2526980  70.8429323 119.7966918  98.7257601  71.5542244
 121.0175827  98.8625449  70.6695808 119.8014198  94.2816879  65.8390671
 119.9688600  95.1497116  66.2061142 119.6111367  94.4444161  64.9151960
 116.0102012  99.1947655  73.5393206 115.0852509  99.0623869  73.7470898
 116.2586426  99.9741874  74.0363148 119.7803419  96.7374537  66.8237338
 119.6603044  97.1831588  67.6622818 119.0856007  97.0859855  66.2650876
 113.3710823  98.8380929  74.3736995 113.5003205  99.0915408  75.2876407
 112.6908275  99.4308637  74.0541650 120.0327540  96.6806044  83.1288836
 119.2560874  97.2399964  83.1191701 120.6718103  97.1662827  83.6503706
 118.2873913  99.4891497  82.6906803 119.0288597 100.0276541  82.4141627
 117.5810898 100.1157786  82.8478355 120.1160322  96.5693245  78.6612522
 120.9621518  96.9932658  78.8047171 120.0558960  95.9126869  79.3551085
 119.6386029 101.9296237  72.3081339 120.1024374 102.2083940  71.5185961
 119.3742827 101.0279681  72.1254429 116.5310110 101.4767718  75.2461102
 117.1011467 101.9054987  74.6078586 117.1218222 101.1950303  75.9445288
 118.5754915  98.0519389  69.1170904 119.2778958  98.5040433  69.5844830
 118.2435543  97.4103208  69.7450797 117.0235276  96.6431146  83.4922113
 116.3933937  97.3247426  83.7257510 116.9171364  96.5314227  82.5475251
 112.3180249  96.3102942  74.4188037 111.5279303  96.5660470  73.9428148
 112.8091496  97.1251280  74.5240078 114.2694994  96.6747521  71.3771514
 113.4726158  96.7866215  71.8955010 114.0420586  97.0134173  70.5112405
 120.1000662 103.1992224  79.3254029 120.1645094 103.6612631  80.1612201
 119.3911586 102.5689589  79.4536339 110.6017952  96.5633432  76.8503028
 110.8525990  97.4480442  77.1160604 111.1377500  96.3838034  76.0778120
 116.3016019  90.9451911  85.8547364 115.9082965  90.3918110  86.5295008
 117.1182159  91.2562490  86.2453882 113.2678077 102.3835770  69.7660934
 113.7802597 103.1779020  69.9166499 113.9200790 101.6862060  69.6994536
 115.0772962 105.5001526  71.8483687 115.2539590 106.4219491  71.6604671
 115.8729795 105.1859945  72.2778067 119.2183980  92.3609791  83.4467621
 119.9593694  92.9616944  83.3672083 119.4501903  91.6187428  82.8885663
 114.3625318  97.5466158  81.7245850 114.2478833  96.6451415  82.0252949
 113.5069836  97.7929855  81.3730667 116.2004277 107.0179700  77.8494030
 116.7511702 106.8896763  77.0771024 115.3615753 107.3174589  77.4988922
 119.9971448 103.2830828  82.1938261 120.5299785 102.5219116  81.9637569
 119.4685529 102.9904479  82.9362415 111.2326994 100.7124424  70.5420505
 112.0702216 101.1221432  70.3254212 111.4105261  99.7723866  70.5120698
 120.7138537  93.2249205  71.2889576 119.8580133  92.8356056  71.1095215
 121.1265489  93.3041166  70.4289361 118.4880569  90.8434278  74.6947317
 119.3533566  90.6477087  74.3353207 118.5558078  90.6144630  75.6216674
 121.3624161 102.4116820  69.7057073 120.8345522 101.6769580  69.3930310
 120.8611664 103.1891496  69.4597041 116.0942888  93.0736486  72.0663684
 116.6686640  92.8511668  71.3336877 116.6813871  93.1425181  72.8192286
 116.4212476  95.1040947  66.0859570 115.5849788  95.4415634  66.4068844
 116.2817245  94.9689927  65.1486706 118.3965556  89.9477735  70.7938754
 117.7429968  89.6326752  70.1695368 118.3546030  89.3253476  71.5198577
 119.5076761 100.2297030  62.7092046 118.6003823  99.9986284  62.9083195
 120.0047793  99.4334650  62.8966027 120.6864994 100.3309625  67.2316036
 119.7776214 100.0468658  67.3288506 120.7160078 100.7508704  66.3719343
 111.2553165  98.0515139  71.2131238 111.0577565  97.4584500  70.4882305
 110.6999829  97.7467349  71.9307177 119.2349888  97.9438246  73.3325831
 119.2898498  96.9912082  73.2568308 118.4241091  98.0997685  73.8167130
 120.3841082 101.8718369  64.5704114 119.9460512 101.1554228  64.1109752
 121.1251523 102.0994484  64.0089206 117.1742248  96.5615306  71.0916210
 116.3610114  96.8609476  71.4981402 117.6701243  96.1670994  71.8090692
 116.6656323  94.1333661  76.7077445 117.3055702  93.9922420  76.0100408
 115.8333854  93.8468174  76.3316047 117.4416627 103.4336091  72.8212437
 118.2357226 102.9386412  72.6195012 116.7308319 102.9053955  72.4580143
 113.7499391  97.5779173  68.8972190 112.8196979  97.5163629  69.1142152
 113.8456863  97.0555126  68.1008831 113.6684940  94.1033986  71.4850432
 113.9291757  95.0179319  71.3759592 114.4902112  93.6358429  71.6347045
 115.1409865  95.5171743  78.6549256 115.8132918  95.3089105  78.0061905
 114.3139651  95.3193829  78.2154489 120.0187903 104.0065113  76.5010275
 119.8798989 103.6383898  77.3736213 119.2302499 104.5212753  76.3294232
 121.5693118 103.3846716  73.8899112 121.2342951 103.3447486  74.7856762
 121.0697064 102.7191432  73.4169523 115.5437362  98.7914346  79.4151694
 115.4057160  98.0594585  80.0163233 116.4542286  98.7023246  79.1335881
 118.1719663  98.5034305  78.9035373 118.8819281  97.8627498  78.8621992
 118.1288971  98.7547200  79.8261554 116.8848597  95.4899523  80.7231013
 116.3485954  95.0390262  81.3752609 116.2965305  95.6245432  79.9801477
 116.2950856  94.9488175  63.2857476 115.4180322  94.8276976  62.9219723
 116.7708609  94.1574253  63.0336365 107.8152996  99.7365335  73.3798983
 108.5024036  99.4227065  72.7919999 107.6601125 100.6406699  73.1066235
 112.6187718  94.6255531  77.8084007 112.5345907  94.0181201  77.0734417
 111.7970424  95.1164549  77.8093503 119.3746401  95.2526478  72.9025887
 119.0044188  94.6997518  73.5906792 119.8705493  94.6484611  72.3500887
 117.2035599 105.7123973  79.9980905 117.9045059 106.3460456  80.1510299
 116.7330714 106.0538704  79.2376544 112.8003317 105.2460328  76.9312007
 113.3856754 104.5004016  77.0639912 112.6028156 105.5564284  77.8148671
 107.3920972  97.8165928  75.6516451 107.4305072  97.2829519  76.4453569
 106.8861265  97.2901133  75.0327428 114.7711734  92.6630468  79.1478993
 114.8353061  93.5245299  78.7356391 114.7078855  92.0504470  78.4151351
 114.2464007  94.7353601  82.7952027 114.8736046  94.3530678  83.4089551
 113.3891926  94.5167803  83.1607720 111.0229550  96.5430030  68.7270382
 111.3182991  95.6340708  68.6737436 110.1217585  96.5217769  68.4051384
 114.5523797  94.6186027  74.7097931 113.8310382  95.2321994  74.5705404
 115.3417052  95.1543791  74.6314576 117.3550110  91.9540453  80.9838582
 117.8784512  92.2002750  81.7464892 117.1362443  92.7860488  80.5641720
 112.7517391  94.2244128  68.8509707 112.4230097  93.3441507  68.6684813
 113.1056762  94.1691796  69.7386096 115.8659214  94.5117097  69.2185185
 116.2055287  95.0403019  68.4963793 116.3131335  94.8497504  69.9943751
 118.5602655  92.8954148  78.6688253 118.2199476  92.0961961  79.0708933
 117.8541661  93.1955859  78.0965086 119.2119127  89.9803461  77.1215576
 120.0345196  89.5063939  76.9994466 119.4557191  90.7593944  77.6214262
 117.8527362  93.0091719  67.4178478 118.5735724  93.3872972  66.9142194
 117.2292666  93.7280596  67.5213456 116.7357706  96.6722581  74.9307554
 116.5902286  96.9862884  75.8231836 116.2582909  97.2907482  74.3778453
 118.5954089  93.6625129  74.9788444 118.5815657  92.7666223  74.6420742
 119.3126517  93.6695793  75.6126730 120.4480219  94.0962469  77.0241571
 120.1897997  95.0179540  77.0225902 119.9165260  93.6992904  77.7142036
 111.2103368  99.2127926  77.8695216 110.6656836  99.9887734  78.0015490
 112.0882718  99.5598730  77.7114337 117.9990985  92.5439510  70.2476014
 118.1206896  91.6156156  70.4466902 117.7093027  92.5578195  69.3354330
 120.8682175  90.2294420  73.3842734 120.8903872  90.2933753  72.4294714
 121.2850234  89.3898929  73.5783240 111.9969390  98.3397822  80.7625373
 111.2551126  98.4880457  81.3490003 111.6762134  98.6006088  79.8992122
 112.4426003 106.2263251  72.7935767 113.2684023 105.9267023  72.4134411
 112.0920055 105.4570873  73.2425556 117.4107537 105.5789719  74.8633441
 116.7887546 104.9160424  74.5635669 118.0812404 105.6050851  74.1807089
 110.6434609 104.1449577  73.7524701 109.8066517 103.7171751  73.5708702
 110.6158254 104.3382020  74.6895492 117.4832064  94.0571507  84.4565947
 117.5320220  94.9333630  84.0743716 118.0254578  93.5148900  83.8837590
 116.9721044 104.1293642  68.3391901 117.1209164 104.8129107  67.6858574
 117.7787487 104.1098732  68.8541357 119.7131353  94.8102879  81.2112305
 118.8434662  95.1036445  80.9394894 119.9490833  95.3943324  81.9319569
 114.7273677 100.1558820  69.3452970 114.4819718  99.2521150  69.5433180
 114.8969591 100.1575970  68.4032448 113.9969324  95.8887177  66.8439132
 113.3038569  95.9631532  66.1879168 113.7521076  95.1247521  67.3660649
 119.0406165  95.8852562  63.0874586 118.1337620  95.5885675  63.1637300
 119.3182146  95.5882380  62.2208873 109.9584105  97.2058925  73.5373633
 109.6386889  96.3524233  73.2448007 109.4117533  97.4207503  74.2931600
 113.7364013  99.9221366  77.2543139 113.9550022 100.8538474  77.2731173
 114.1489786  99.5629341  78.0397943 120.6568230  90.4289452  69.2418828
 119.8468959  90.0836536  69.6174074 121.3452647  90.1196995  69.8306439
 118.6091878  95.4954572  86.6445888 118.5088605  96.4448929  86.5757979
 118.3913420  95.1672811  85.7721958 117.8104949  92.7439497  63.2286566
 118.6724113  93.0694395  63.4882383 117.9955294  91.9570993  62.7159631
 109.8272365 100.8261837  75.5066754 109.1335837 100.4115789  74.9936709
 110.5745356 100.8682373  74.9100173 118.4723148  98.9251711  85.4610950
 117.9890230  99.7252071  85.6674839 118.5584087  98.9359656  84.5078394
 111.7409108 100.7580090  73.3832769 111.7179796 100.8567778  72.4314652
 112.0509744 101.6045241  73.7049935 114.3996486 102.8156246  77.4979384
 115.3539739 102.7840188  77.4309315 114.2009009 102.3546869  78.3129610
 114.9895868 101.3857362  80.0650181 115.8088757 101.8801440  80.0885019
 115.2632675 100.4689330  80.0367749 112.7546714 108.3575865  74.5149582
 112.6201182 107.5976266  73.9487580 112.3378777 109.0816765  74.0478370
 110.2430782  95.7195495  80.7642378 110.8889645  95.2094449  81.2529604
 110.0347933  96.4564177  81.3385804 118.7634392  89.9835540  66.5166275
 118.7513062  90.9277380  66.6734545 119.6557814  89.8005685  66.2225736
 114.5828273  92.8663112  84.8617393 115.4459734  92.5099917  85.0720717
 114.0093684  92.5277007  85.5492797  52.5047785  -5.4611205  57.1972776
  52.4271815  -4.5103380  57.2761256  51.9009429  -5.8065332  57.8547702
  50.1434615  -2.7125811  61.3420978  50.3831213  -2.0807287  62.0199996
  49.3003811  -3.0637771  61.6286337  50.6179447  -6.6877808  58.6719756
  49.9489822  -6.2031681  58.1883796  50.4792317  -6.4408588  59.5863135
  54.7584715  -4.6534065  65.2702415  55.3103023  -4.4902443  66.0351500
  55.0990909  -4.0629627  64.5982440  47.7184189  -6.6113518  61.2394888
  47.5838657  -7.3713118  60.6732886  47.3016251  -5.8872619  60.7723677
  50.8753314  -5.7144201  61.4513331  50.7585699  -4.7698769  61.3492021
  50.0545761  -6.0170640  61.8399130  51.9007829  -5.0615940  64.6669259
  52.8035075  -5.0292329  64.9835754  51.6745199  -5.9915489  64.6815595
  66.2003830  -0.5196987  62.3286625  65.8622342  -0.6355922  61.4407160
  67.0693599  -0.9205821  62.3087631  62.0590646   1.3338490  58.3183516
  61.4955511   1.2428427  57.5499804  61.9443041   0.5138394  58.7986008
  66.6823613   0.6337865  68.2872831  66.6712254   0.2390663  67.4153334
  66.8444253  -0.0996062  68.8806602  59.6055078   2.8289682  61.1567736
  60.3976370   2.4880506  60.7414036  59.8451728   2.9384657  62.0769890
  67.6390205   5.0009458  53.6297981  66.9878185   5.5863538  53.2431995
  68.4334568   5.5315653  53.6893018  61.5645832   2.0898595  54.0285115
  62.3376708   1.5427582  53.8897991  61.9171231   2.9542844  54.2399577
  63.4030875   3.4174977  67.2352015  63.1120741   4.3220608  67.1198681
  64.0387859   3.4591505  67.9496084  64.3287081   0.7951826  63.8253374
  64.9250654   0.5707848  63.1110337  64.3862053   0.0536571  64.4278822
  69.1165470   2.6899890  54.1666965  68.4811303   2.7634516  54.8787870
  68.7862876   3.2793488  53.4886044  63.6208399   0.1519367  53.8627940
  63.5044657  -0.5235730  54.5309024  63.7310658  -0.3348259  53.0460093
  65.9639939  -0.3870486  57.5674629  65.5998147  -0.9139865  58.2787551
  66.8207055  -0.7772017  57.3941115  68.3620760   3.1036393  64.2301808
  68.0621483   4.0061431  64.1217615  68.0171819   2.8368576  65.0822961
  61.8133241  -0.4449811  60.2638513  60.8883738  -0.5773597  60.4716204
  62.0617654   0.3344409  60.7608455  59.1742052  -0.8016537  61.0982302
  59.3034433  -0.5482058  62.0121713  58.4939503  -0.2088829  60.7786957
  63.3441539   9.8680713  57.1972776  63.2665569  10.8188538  57.2761256
  62.7403183   9.5226585  57.8547702  64.0905142  -0.1505968  69.4152110
  64.8319826   0.3879076  69.1386933  63.3842127   0.4760320  69.5723662
  69.5660481   1.9923172  68.0124271  69.9743837   1.5505583  67.2678904
  68.8437743   1.4175800  68.2658464  69.8889296   2.5524363  61.7676560
  69.2598158   2.7170077  61.0652628  69.5014958   2.9665972  62.5387524
  73.7678528   3.4878801  59.1220924  73.0829566   3.8677702  58.5717957
  73.8522377   4.0974127  59.8552872  71.0229459   1.1338760  65.7216267
  71.2346355   1.7770520  65.0450649  70.9759208   0.3001076  65.2538198
  65.4417258   2.2898771  59.0326645  65.9055603   2.5686474  58.2431268
  65.1774056   1.3882215  58.8499736  62.3341339   1.8370252  61.9706409
  62.9042696   2.2657521  61.3323893  62.9249451   1.5552837  62.6690594
  58.1211478  -3.3294524  61.1433344  57.3310532  -3.0736996  60.6673455
  58.6122725  -2.5146186  61.2485385  72.1375287   4.0110715  63.8938625
  72.9592731   3.6090902  63.6121306  72.1337690   3.9078949  64.8454741
  60.0726223  -2.9649945  58.1016821  59.2757386  -2.8531251  58.6200316
  59.8451815  -2.6263293  57.2357711  65.9031891   3.5594758  66.0499335
  65.9676323   4.0215166  66.8857507  65.1942815   2.9292123  66.1781645
  56.4049181  -3.0764034  63.5748335  56.6557219  -2.1917024  63.8405911
  56.9408729  -3.2559432  62.8023427  65.6179908   5.2262866  55.9178316
  65.4825583   6.0714402  56.3463163  66.1589721   5.4282143  55.1544249
  59.0709306   2.7438304  56.4906241  59.5833826   3.5381554  56.6411805
  59.7232019   2.0464594  56.4239842  60.8804190   5.8604060  58.5728994
  61.0570819   6.7822025  58.3849978  61.6761024   5.5462479  59.0023374
  60.1656547  -2.0931308  68.4491157  60.0510062  -2.9946051  68.7498256
  59.3101065  -1.8467611  68.0975974  67.2448385   5.8486432  70.0478658
  66.8012239   5.0622811  69.7299562  67.9065598   6.0365583  69.3822548
  62.0035506   7.3782234  64.5739336  62.5542931   7.2499297  63.8016330
  61.1646982   7.6777123  64.2234229  69.3429623   6.1289232  68.0760059
  69.3248098   6.9498113  67.5840328  70.2649543   6.0043307  68.3010200
  65.8002677   3.6433362  68.9183567  66.3331014   2.8821650  68.6882875
  65.2716758   3.3507014  69.6607722  57.0358223   1.0726958  57.2665811
  57.8733445   1.4823967  57.0499519  57.2136490   0.1326400  57.2366005
  67.1655390   2.7719354  56.4302379  66.6376751   2.0372114  56.1175617
  66.6642892   3.5494031  56.1842348  72.1448236   0.9668375  61.5469426
  71.4871910   1.6567636  61.6349554  72.9488635   1.3564807  61.8903412
  65.3107990   0.5899565  49.4337352  64.4035052   0.3588818  49.6328501
  65.8079022  -0.2062816  49.6211334  68.2176069   9.2997072  52.3534039
  67.5437767   9.6028768  52.9618996  68.6041891  10.1026152  52.0039496
  66.4896223   0.6912159  53.9561342  65.5807443   0.4071192  54.0533812
  66.5191307   1.1111238  53.0964649  71.7215491   4.3018749  57.7252510
  71.2677818   3.4609659  57.7817701  71.0909457   4.9380147  58.0627290
  70.1648430   6.1395246  58.6602328  70.4571404   6.7000303  57.9414694
  70.6747050   6.4323807  59.4155487  57.0584394  -1.5882327  57.9376545
  56.8608793  -2.1812966  57.2127611  56.5031058  -1.8930116  58.6552483
  66.1872311   2.2320903  51.2949421  65.7491741   1.5156762  50.8355058
  66.9282752   2.4597018  50.7334512  65.1282055   6.9175597  59.7495781
  65.0858234   7.1436443  58.8204313  66.0444754   6.6838971  59.8981583
  74.3314805   2.5754627  62.3637011  74.7651312   2.4829916  63.2120065
  75.0446386   2.5512128  61.7257027  63.2447856   3.7938626  59.5457744
  64.0388454   3.2988946  59.3440319  62.5339548   3.2656489  59.1825450
  68.0642700   6.1756721  63.8970112  68.1179723   6.7447658  64.6647828
  67.1957482   6.3458606  63.5324149  59.5530619  -2.0618293  55.6217497
  58.6228207  -2.1233837  55.8387459  59.6488091  -2.5842340  54.8254138
  75.1930355   2.6178328  64.8969897  75.3866245   3.5224138  65.1429171
  75.0930973   2.1585747  65.7308482  70.2545464   2.7685070  70.4710777
  70.1030970   2.5395622  69.5540861  70.2450143   3.7255672  70.4842122
  67.0230800   0.3416983  65.4557044  67.9522860   0.4928143  65.2826011
  66.6021830   0.4301004  64.6005690  65.8219132   4.3667648  63.2255581
  65.6830218   3.9986432  64.0981519  65.0333728   4.8815287  63.0539539
  66.4167284   9.4676744  54.5681118  66.5919040   8.9964787  55.3826740
  65.7300072  10.0942510  54.7962378  67.3724347   3.7449250  60.6144419
  67.0374180   3.7050020  61.5102069  66.8728293   3.0793966  60.1414829
  61.3468591  -0.8483120  66.1397000  61.2088389  -1.5802881  66.7408539
  62.2573514  -0.9374220  65.8581188  70.3083539   1.0905285  50.8881479
  69.6912709   0.3652113  50.7914531  69.8400027   1.8514645  50.5448553
  63.9750892  -1.1363160  65.6280680  64.6850510  -1.7769968  65.5867298
  63.9320200  -0.8850265  66.5506861  71.9637670   5.8004193  68.5487259
  71.9050216   5.1163413  67.8817842  72.3657189   6.5423183  68.0967885
  60.9828369  12.6166107  61.3420978  61.2224967  13.2484631  62.0199996
  60.1397566  12.2654147  61.6286337  71.9655078   3.7643777  66.7801239
  71.0781856   3.4269699  66.9027638  72.5353629   3.0326808  67.0170004
  53.6184225   0.0967869  60.1044290  54.3055265  -0.2170401  59.5165305
  53.4632353   1.0009233  59.8311541  65.4956231   8.4245229  63.7462482
  65.4226402   9.2300201  64.2581786  65.0533624   8.6237195  62.9210503
  65.2846011   7.6616999  57.2565303  64.5013533   8.2038680  57.3503528
  65.9838756   8.1790979  57.6559545  67.9554915   8.3232063  65.9020641
  68.6682887   8.9579528  65.8296542  67.4644943   8.4195929  65.0860642
  69.6772441   2.2283316  57.4737932  68.7428720   2.3484778  57.3042637
  69.8549110   1.3255783  57.2097942  63.0066828   6.0726507  66.7226211
  63.7076288   6.7062990  66.8755606  62.5361943   6.4141238  65.9621851
  71.1321224   4.4144457  55.0074118  71.4081068   4.3001051  55.9167992
  70.2625723   4.0161941  54.9686291  67.7675288   8.6630807  58.6506932
  67.9497682   7.8452463  59.1134684  68.5908274   8.8798500  58.2131822
  68.1017453   7.5898993  55.9121981  68.6305220   7.0791447  55.2992143
  68.3645673   7.2741523  56.7767514  66.8555687  -0.6309075  71.0344799
  66.1796324  -0.7314945  71.7047174  67.6783321  -0.7869861  71.4980796
  58.6034546   5.6062862  63.6557314  59.1887983   4.8606550  63.7885218
  58.4059385   5.9166819  64.5393978  61.4573201   8.6414109  58.6719756
  60.7883577   9.1260237  58.1883796  61.3186071   8.8883330  59.5863135
  53.1952201  -1.8231538  62.3761757  53.2336300  -2.3567947  63.1698875
  52.6892494  -2.3496332  61.7572734  65.5978470  10.6757853  65.2702415
  66.1496778  10.8389474  66.0351500  65.9384663  11.2662291  64.5982440
  70.4489344   5.5019110  71.1251069  70.9929248   6.1149069  70.6306024
  69.8676189   6.0598689  71.6418082  56.8260778  -3.0967436  55.4515689
  57.1214220  -4.0056757  55.3982742  55.9248814  -3.1179696  55.1296691
  68.7346857   8.6239828  62.2566097  68.6097997   7.8229568  61.7477042
  69.3925948   9.1186022  61.7680067  70.7981766   6.4248848  63.8845647
  69.8512101   6.3054200  63.8123974  71.1464539   5.5371346  63.9671908
  67.8028199   6.2201565  60.0849999  67.6553161   5.2918272  60.2657569
  68.6281692   6.2421655  59.6007075  71.4062321   7.0430123  61.1714872
  72.3308868   6.8372985  61.0339323  71.2377624   6.7946524  62.0804214
  71.1957637   7.5615791  56.5276963  71.3694514   6.9962213  55.7750816
  71.6886528   8.3616686  56.3456453  57.0134597  -0.4269540  64.5940522
  56.4688065   0.3490268  64.7260797  57.8913947  -0.0798736  64.4359644
  72.1832809   6.8782555  53.6273862  72.8783714   7.4989248  53.8461176
  72.5255960   6.0277906  53.9026240  57.8000619  -1.2999644  67.4870679
  57.0582355  -1.1517009  68.0735310  57.4793363  -1.0391378  66.6237429
  74.0824233   4.3282261  55.1561193  74.6075557   4.6669533  54.4310513
  73.9946585   3.3929276  54.9724327  65.7444281   8.2416334  67.2851069
  66.0531408   7.9965481  68.1573769  66.5419763   8.4462973  66.7969939
  65.7664893  10.3954244  59.5156446  65.3269884   9.9030623  60.2089302
  66.5173010   9.8527212  59.2748521  58.2457232   6.5865785  59.5181074
  59.0715252   6.2869557  59.1379717  57.8951284   5.8173407  59.9670862
  63.2138765   5.9392253  61.5878747  62.5918775   5.2762958  61.2880975
  63.8843632   5.9653385  60.9052395  56.4465837   4.5052111  60.4770007
  55.6097746   4.0774286  60.2954009  56.4189483   4.6984555  61.4140799
  73.7718139   4.9615164  70.4612390  72.9813682   4.9439303  69.9216890
  73.5351493   5.5003458  71.2161427  62.7752272   4.4896176  55.0637208
  62.9240393   5.1731641  54.4103881  63.5818716   4.4701266  55.5786664
  75.3934210   4.2304572  68.0187141  75.1019019   4.5934553  68.8550602
  74.7806342   3.5171581  67.8400473  60.5304905   0.5161354  56.0698277
  60.2850947  -0.3876316  56.2678487  60.7000820   0.5178505  55.1277755
  66.2747678   6.9844307  52.5348955  65.7021645   7.6034494  52.0819427
  66.8480472   7.5343669  53.0688877  69.4944938   7.2681457  53.6657538
  70.4275611   7.2027019  53.8690413  69.4068150   8.1037724  53.2072070
  72.1232954   6.5847327  50.6261485  72.0446586   6.2507191  51.5197243
  72.9442621   7.0769095  50.6252958  66.5433169   2.3722866  71.3365665
  67.4636178   2.5501465  71.5305711  66.5082752   1.4278911  71.1845364
  55.7615334  -2.4338541  60.2618939  55.4418118  -3.2873232  59.9693313
  55.2148762  -2.2189962  61.0176907  59.5395241   0.2823900  63.9788446
  59.7581251   1.2141008  63.9976480  59.9521015  -0.0768125  64.7643250
  55.6303594   1.1864371  62.2312061  54.9367065   0.7718324  61.7182015
  56.3776585   1.2284907  61.6345480  64.2754377  -0.7145755  72.1856257
  63.7921459   0.0854605  72.3920146  64.3615316  -0.7037810  71.2323701
  57.5440336   1.1182625  60.1078076  57.5211025   1.2170312  59.1559959
  57.8540973   1.9647775  60.4295242  60.2027714   3.1758780  64.2224690
  61.1570968   3.1442722  64.1554622  60.0040238   2.7149403  65.0374916
  60.7927096   1.7459896  66.7895488  61.6119985   2.2403974  66.8130325
  61.0663904   0.8291864  66.7613056  58.5577943   8.7178399  61.2394888
  58.4232411   7.9578800  60.6732886  58.1410005   9.4419299  60.7723677
  69.6936906   3.9015323  50.2471464  70.3972756   4.1065325  50.8629119
  68.9699555   4.4692085  50.5120547  61.7147069   9.6147716  61.4513331
  61.5979453  10.5593149  61.3492021  60.8939515   9.3121278  61.8399130
  71.6023604   4.3397852  52.2969924  72.4369207   3.9079050  52.1147398
  71.4407946   4.1679866  53.2246818  71.2569496   0.8429965  53.6626263
  71.2018300   0.6774237  52.7214707  70.6315551   1.5505998  53.8188453
  56.0462011  -3.9201970  67.4887685  56.6920874  -4.4303016  67.9774910
  55.8379162  -3.1833289  68.0631110  68.5715403   3.1478877  72.9879826
  69.4406563   3.3219529  72.6266461  68.0922154   3.9673294  72.8655555
  62.7401583  10.2675978  64.6669259  63.6428830  10.2999588  64.9835754
  62.5138953   9.3376429  64.6815595  64.4955185   9.0206965  61.3279338
  63.5450816   9.0208826  61.2143710  64.7987671   8.2739699  60.8115373
  80.2307879  14.8567503  62.3925100  80.8686289  14.7374250  61.6888440
  80.1128722  15.8048347  62.4513052  77.0397585  14.8094931  62.3286625
  76.7016096  14.6935996  61.4407160  77.9087353  14.4086096  62.3087631
  72.8984401  16.6630408  58.3183516  72.3349266  16.5720345  57.5499804
  72.7836796  15.8430312  58.7986008  77.5217368  15.9629783  68.2872831
  77.5106009  15.5682581  67.4153334  77.6838007  15.2295856  68.8806602
  70.4448833  18.1581599  61.1567736  71.2370124  17.8172424  60.7414036
  70.6845483  18.2676574  62.0769890  78.4783959  20.3301375  53.6297981
  77.8271939  20.9155456  53.2431995  79.2728322  20.8607570  53.6893018
  72.4039586  17.4190512  54.0285115  73.1770462  16.8719500  53.8897991
  72.7564985  18.2834762  54.2399577  74.2424629  18.7466895  67.2352015
  73.9514495  19.6512526  67.1198681  74.8781613  18.7883422  67.9496084
  75.1680836  16.1243743  63.8253374  75.7644408  15.8999766  63.1110337
  75.2255807  15.3828489  64.4278822  74.7405864  13.5783179  51.6603565
  74.9931385  13.0564700  50.8987028  73.8030423  13.4149324  51.7630249
  79.7849147  12.5818957  59.4678308  80.5712236  12.1638380  59.1168725
  80.0487851  13.4865049  59.6359957  79.9559224  18.0191807  54.1666965
  79.3205057  18.0926434  54.8787870  79.6256631  18.6085406  53.4886044
  85.1857574  12.5194190  60.3711287  85.9182746  11.9493407  60.6049116
  84.4296930  12.1315791  60.8117792  74.4602153  15.4811285  53.8627940
  74.3438411  14.8056188  54.5309024  74.5704413  14.9943658  53.0460093
  76.8033694  14.9421432  57.5674629  76.4391901  14.4152053  58.2787551
  77.6600810  14.5519901  57.3941115  82.7082995   6.2315764  64.8305895
  82.3766319   7.1011175  64.6067110  82.1128608   5.9152048  65.5099926
  76.4439181   9.9711331  52.5635978  76.6113583  10.8391568  52.9306449
  76.2536350  10.1338613  51.6397267  79.2014514  18.4328310  64.2301808
  78.9015237  19.3353349  64.1217615  78.8565574  18.1660493  65.0822961
  72.6526996  14.8842107  60.2638513  71.7277492  14.7518321  60.4716204
  72.9011409  15.6636326  60.7608455  82.6011658  10.9510850  61.9099246
  81.6928535  10.8826259  61.6158006  82.5499254  11.4282795  62.7381071
  76.4228402  12.4268989  53.5482645  76.3028027  12.8726040  54.3868125
  75.7280990  12.7754306  52.9896183  70.0135807  14.5275381  61.0982302
  70.1428188  14.7809860  62.0121713  69.3333258  15.1203089  60.7786957
  74.1835294  25.1972631  57.1972776  74.1059324  26.1480456  57.2761256
  73.5796938  24.8518503  57.8547702  76.6752524  12.3700496  69.8534143
  75.8985858  12.9294416  69.8437007  77.3143087  12.8557279  70.3749013
  84.4673304   9.1527289  63.6877119  83.8247685   9.4459822  63.0416914
  83.9628233   9.0380209  64.4930316  82.1213468  12.8990462  54.3762979
  83.0331324  13.1317849  54.2010676  81.6123115  13.4827506  53.8138057
  74.9298896  15.1785949  69.4152110  75.6713580  15.7170993  69.1386933
  74.2235881  15.8052238  69.5723662  80.4054236  17.3215090  68.0124271
  80.8137592  16.8797500  67.2678904  79.6831497  16.7467717  68.2658464
  76.7585306  12.2587697  65.3857828  77.6046501  12.6827110  65.5292477
  76.6983943  11.6021321  66.0796391  80.7283050  17.8816280  61.7676560
  80.0991913  18.0461995  61.0652628  80.3408712  18.2957890  62.5387524
  84.6072282  18.8170718  59.1220924  83.9223320  19.1969620  58.5717957
  84.6916131  19.4266045  59.8552872  79.9084751   9.9192065  67.0439002
  79.6645683  10.6734125  66.5073278  80.1844682  10.2977413  67.8786249
  81.8623214  16.4630677  65.7216267  82.0740109  17.1062437  65.0450649
  81.8152962  15.6292994  65.2538198  79.4649443   9.0748498  62.6252840
  78.6033922   9.3729752  62.9169577  79.4911877   9.2918897  61.6933872
  76.2811012  17.6190689  59.0326645  76.7449358  17.8978392  58.2431268
  76.0167810  16.7174133  58.8499736  73.1735093  17.1662170  61.9706409
  73.7436450  17.5949438  61.3323893  73.7643205  16.8844755  62.6690594
  75.2179898  13.7413841  55.8416210  75.9203942  14.1934885  56.3090137
  74.8860527  13.0997660  56.4696104  73.6660260  12.3325598  70.2167420
  73.0358920  13.0141878  70.4502817  73.5596348  12.2208679  69.2720558
  68.9605232  11.9997394  61.1433344  68.1704286  12.2554922  60.6673455
  69.4516480  12.8145731  61.2485385  82.9769042  19.3402633  63.8938625
  83.7986485  18.9382820  63.6121306  82.9731445  19.2370867  64.8454741
  70.9119978  12.3641973  58.1016821  70.1151141  12.4760667  58.6200316
  70.6845570  12.7028625  57.2357711  76.7425645  18.8886676  66.0499335
  76.8070078  19.3507083  66.8857507  76.0336569  18.2584041  66.1781645
  67.2442935  12.2527884  63.5748335  67.4950974  13.1374894  63.8405911
  67.7802484  12.0732486  62.8023427  91.0675035  15.6841381  60.2423596
  90.3138743  15.1148779  60.0867601  91.2022576  15.6504046  61.1894231
  76.4573663  20.5554784  55.9178316  76.3219338  21.4006319  56.3463163
  76.9983475  20.7574061  55.1544249  72.9441002   6.6346363  72.5792671
  72.5507948   6.0812562  73.2540315  73.7607143   6.9456942  72.9699188
  69.9103060  18.0730222  56.4906241  70.4227581  18.8673472  56.6411805
  70.5625773  17.3756512  56.4239842  71.7197945  21.1895978  58.5728994
  71.8964573  22.1113943  58.3849978  72.5154778  20.8754397  59.0023374
  75.8608963   8.0504242  70.1712927  76.6018677   8.6511396  70.0917390
  76.0926886   7.3081880  69.6130970  71.0050301  13.2360610  68.4491157
  70.8903817  12.3345867  68.7498256  70.1494819  13.4824306  68.0975974
  78.0842139  21.1778350  70.0478658  77.6405993  20.3914729  69.7299562
  78.7459353  21.3657501  69.3822548  72.8429260  22.7074152  64.5739336
  73.3936686  22.5791215  63.8016330  72.0040736  23.0069041  64.2234229
  80.1823377  21.4581150  68.0760059  80.1641853  22.2790031  67.5840328
  81.1043297  21.3335225  68.3010200  76.6396431  18.9725279  68.9183567
  77.1724768  18.2113568  68.6882875  76.1110513  18.6798931  69.6607722
  79.8066126   4.0785345  64.4477209  79.4630396   4.9686987  64.3716320
  80.1745089   3.8887003  63.5846794  67.8751977  16.4018876  57.2665811
  68.7127199  16.8115884  57.0499519  68.0530245  15.4618318  57.2366005
  79.7716409  14.0693957  52.9549644  79.2563033  14.8398561  53.1938032
  79.4993718  13.3959093  53.5782706  77.3563520   8.9143657  58.0134883
  76.5005116   8.5250508  57.8340521  77.7690472   8.9935618  57.1534668
  78.8862667   6.4490001  62.4126442  78.3827462   6.4120136  61.5994248
  79.1793274   7.3582743  62.4723099  75.1305553   6.5328730  61.4192624
  75.9958549   6.3371539  61.0598514  75.1983062   6.3039082  62.3461981
  84.7450683  16.8226311  54.8902818  83.9680126  16.4837471  54.4457980
  85.4242164  16.8278934  54.2157783  79.5602712  11.9421049  54.7809425
  79.2552848  12.2567198  55.6319569  80.5133154  12.0202468  54.8236758
  78.0049144  18.1011272  56.4302379  77.4770506  17.3664031  56.1175617
  77.5036647  18.8785948  56.1842348  82.9841990  16.2960292  61.5469426
  82.3265665  16.9859554  61.6349554  83.7882389  16.6856724  61.8903412
  72.7367872   8.7630938  58.7908991  73.3111624   8.5406120  58.0582184
  73.3238854   8.8319633  59.5437592  81.7947449  14.6504665  59.5973367
  82.3079331  15.2834657  60.0995077  82.4448673  14.0505861  59.2316727
  73.0637459  10.7935399  52.8104876  72.2274771  11.1310086  53.1314151
  72.9242229  10.6584379  51.8732013  75.0390539   5.6372187  57.5184060
  74.3854952   5.3221204  56.8940675  74.9971014   5.0147928  58.2443883
  76.1501744  15.9191482  49.4337352  75.2428806  15.6880736  49.6328501
  76.6472776  15.1229101  49.6211334  79.0569823  24.6288989  52.3534039
  78.3831522  24.9320686  52.9618996  79.4435645  25.4318070  52.0039496
  78.2728280  12.1254121  61.8431708  77.3550841  12.3469068  61.6853396
  78.6888423  12.2000431  60.9843415  79.0563328  13.5245536  56.9734388
  79.8035147  14.0366934  56.6641510  79.3254917  13.2029589  57.8338782
  77.3289978  16.0204077  53.9561342  76.4201197  15.7363110  54.0533812
  77.3585062  16.4403156  53.0964649  82.5609245  19.6310667  57.7252510
  82.1071572  18.7901576  57.7817701  81.9303212  20.2672065  58.0627290
  81.5042165  10.5602653  58.9553177  80.7664922  10.0480039  59.2863420
  81.7568938  10.1203034  58.1436454  81.0042184  21.4687163  58.6602328
  81.2965159  22.0292220  57.9414694  81.5140805  21.7615724  59.4155487
  67.8978148  13.7409591  57.9376545  67.7002548  13.1478952  57.2127611
  67.3424812  13.4361801  58.6552483  75.8774872  13.6332698  60.0571138
  75.9323482  12.6806534  59.9813614  75.0666074  13.7892137  60.5412436
  77.0266066  17.5612821  51.2949421  76.5885495  16.8448680  50.8355058
  77.7676506  17.7888936  50.7334512  73.8167232  12.2509757  57.8161517
  73.0035097  12.5503928  58.2226709  74.3126226  11.8565446  58.5335999
  75.9675810  22.2467514  59.7495781  75.9251988  22.4728361  58.8204313
  76.8838508  22.0130889  59.8981583  79.4141443  12.7151582  66.6476411
  79.7690831  12.9423055  67.5070876  80.0613575  13.0469959  66.0253666
  85.1439180  15.8370018  57.3525740  85.0057079  16.0271614  56.4246929
  84.7875399  16.5989401  57.8093791  73.3081306   9.8228113  63.4322752
  73.9480686   9.6816872  62.7345715  72.4758837   9.5362626  63.0561354
  85.1708560  17.9046545  62.3637011  85.6045067  17.8121834  63.2120065
  85.8840141  17.8804045  61.7257027  74.0841610  19.1230543  59.5457744
  74.8782209  18.6280863  59.3440319  73.3733303  18.5948406  59.1825450
  78.9036455  21.5048639  63.8970112  78.9573477  22.0739575  64.6647828
  78.0351236  21.6750524  63.5324149  70.3924374  13.2673625  55.6217497
  69.4621962  13.2058081  55.8387459  70.4881846  12.7449578  54.8254138
  70.3109923   9.7928438  58.2095738  70.5716740  10.7073771  58.1004899
  71.1327095   9.3252880  58.3592351  71.7834848  11.2066195  65.3794563
  72.4557902  10.9983557  64.7307212  70.9564635  11.0088281  64.9399795
  86.0324110  17.9470245  64.8969897  86.2260000  18.8516056  65.1429171
  85.9324728  17.4877664  65.7308482  77.6860420   7.8328136  67.3960224
  77.0388335   8.5318086  67.3024700  78.4561436   8.2664280  67.7636472
  81.0939218  18.0976988  70.4710777  80.9424725  17.8687540  69.5540861
  81.0843898  19.0547590  70.4842122  77.8624555  15.6708901  65.4557044
  78.7916615  15.8220061  65.2826011  77.4415585  15.7592922  64.6005690
  76.6612886  19.6959565  63.2255581  76.5223972  19.3278350  64.0981519
  75.8727483  20.2107205  63.0539539  77.2561038  24.7968662  54.5681118
  77.4312794  24.3256705  55.3826740  76.5693826  25.4234428  54.7962378
  78.2118102  19.0741168  60.6144419  77.8767934  19.0341938  61.5102069
  77.7122047  18.4085884  60.1414829  72.1862345  14.4808798  66.1397000
  72.0482143  13.7489037  66.7408539  73.0967269  14.3917698  65.8581188
  81.1477293  16.4197202  50.8881479  80.5306464  15.6944031  50.7914531
  80.6793782  17.1806563  50.5448553  74.8144646  14.1928757  65.6280680
  75.5244265  13.5521950  65.5867298  74.7713954  14.4441652  66.5506861
  82.8031425  21.1296111  68.5487259  82.7443971  20.4455331  67.8817842
  83.2050943  21.8715101  68.0967885  73.5273580  11.1793975  67.4476319
  72.9910937  10.7284714  68.0997916  72.9390289  11.3139884  66.7046784
  71.8222124  27.9458025  61.3420978  72.0618722  28.5776549  62.0199996
  70.9791320  27.5946065  61.6286337  72.9375839  10.6382627  50.0102783
  72.0605305  10.5171427  49.6465030  73.4133592   9.8468705  49.7581672
  82.8048832  19.0935695  66.7801239  81.9175611  18.7561616  66.9027638
  83.3747383  18.3618726  67.0170004  64.4577979  15.4259786  60.1044290
  65.1449019  15.1121516  59.5165305  64.3026108  16.3301151  59.8311541
  69.2612701  10.3149983  64.5329314  69.1770890   9.7075653  63.7979724
  68.4395408  10.8059001  64.5338810  76.3349986  23.7537147  63.7462482
  76.2620157  24.5592119  64.2581786  75.8927379  23.9529113  62.9210503
  76.1239765  22.9908917  57.2565303  75.3407287  23.5330597  57.3503528
  76.8232510  23.5082897  57.6559545  79.4336415   8.8003546  59.8999509
  79.9305115   8.0473509  59.5800579  78.6623397   8.8367863  59.3342718
  87.2866173  14.5043912  61.5417800  87.2756049  15.3868627  61.1711733
  86.4183552  14.1515463  61.3472337  78.7948669  23.6523981  65.9020641
  79.5076641  24.2871446  65.8296542  78.3038698  23.7487847  65.0860642
  80.5166196  17.5575234  57.4737932  79.5822475  17.6776696  57.3042637
  80.6942864  16.6547700  57.2097942  76.0171384  10.9420929  59.6271193
  75.6469172  10.3891970  60.3152099  76.5130476  10.3379063  59.0746193
  83.9038747  13.3992553  58.0087966  84.3699199  14.2320545  57.9348269
  84.3546248  12.9337535  58.7133225  73.8460583  21.4018425  66.7226211
  74.5470042  22.0354907  66.8755606  73.3755698  21.7433156  65.9621851
  81.9714978  19.7436374  55.0074118  82.2474822  19.6292969  55.9167992
  81.1019477  19.3453859  54.9686291  81.8755410   5.7673140  62.0478868
  80.9618490   5.9977367  62.2161075  82.3048511   5.8511584  62.8992900
  81.6461869  13.9563032  64.5478762  80.9933319  14.2038939  63.8931214
  82.0242248  13.1427170  64.2141239  78.6069042  23.9922725  58.6506932
  78.7891437  23.1744381  59.1134684  79.4302028  24.2090417  58.2131822
  78.9411208  22.9190910  55.9121981  79.4698974  22.4083365  55.2992143
  79.2039427  22.6033440  56.7767514  77.6949442  14.6982843  71.0344799
  77.0190079  14.5976972  71.7047174  78.5177075  14.5422057  71.4980796
  69.4428301  20.9354780  63.6557314  70.0281737  20.1898467  63.7885218
  69.2453139  21.2458736  64.5393978  72.2966956  23.9706027  58.6719756
  71.6277331  24.4552155  58.1883796  72.1579826  24.2175247  59.5863135
  64.0345955  13.5060380  62.3761757  64.0730055  12.9723970  63.1698875
  63.5286248  12.9795585  61.7572734  76.4372224  26.0049770  65.2702415
  76.9890532  26.1681392  66.0351500  76.7778418  26.5954208  64.5982440
  71.4136718   8.3524920  65.8724299  71.4778044   9.2139751  65.4601697
  71.3503838   7.7398922  65.1396658  70.8888990  10.4248053  69.5197334
  71.5161029  10.0425130  70.1334858  70.0316909  10.2062255  69.8853026
  81.2883099  20.8311028  71.1251069  81.8323003  21.4440986  70.6306024
  80.7069944  21.3890606  71.6418082  67.6654533  12.2324482  55.4515689
  67.9607974  11.3235160  55.3982742  66.7642569  12.2112221  55.1296691
  79.5740612  23.9531746  62.2566097  79.4491751  23.1521486  61.7477042
  80.2319703  24.4477939  61.7680067  71.1948780  10.3080478  61.4343237
  70.4735366  10.9216446  61.2950710  71.9842036  10.8438243  61.3559883
  81.6375520  21.7540766  63.8845647  80.6905856  21.6346117  63.8123974
  81.9858293  20.8663264  63.9671908  73.9975093   7.6434905  67.7083889
  74.5209495   7.8897202  68.4710198  73.7787427   8.4754940  67.2887026
  69.3942375   9.9138580  55.5755014  69.0655081   9.0335958  55.3930120
  69.7481745   9.8586248  56.4631403  78.6421953  21.5493482  60.0849999
  78.4946916  20.6210190  60.2657569  79.4675447  21.5713573  59.6007075
  72.5084198  10.2011549  55.9430491  72.8480270  10.7297471  55.2209100
  72.9556318  10.5391955  56.7189058  82.2456075  22.3722041  61.1714872
  83.1702623  22.1664902  61.0339323  82.0771379  22.1238442  62.0804214
  75.2027638   8.5848600  65.3933559  74.8624459   7.7856413  65.7954239
  74.4966645   8.8850311  64.8210393  75.8544110   5.6697913  63.8460882
  76.6770180   5.1958391  63.7239773  76.0982174   6.4488396  64.3459569
  74.4952345   8.6986171  54.1423784  75.2160707   9.0767424  53.6387501
  73.8717649   9.4175048  54.2458762  78.6383468   9.4031320  55.0782117
  78.8547082  10.2855958  54.7770945  78.1577535   9.0117533  54.3487759
  73.3782689  12.3617033  61.6552861  73.2327270  12.6757336  62.5477143
  72.9007893  12.9801933  61.1023760  75.2379072   9.3519581  61.7033751
  75.2240641   8.4560674  61.3666049  75.9551500   9.3590245  62.3372037
  77.0905203   9.7856921  63.7486878  76.8322980  10.7073992  63.7471209
  76.5590243   9.3887356  64.4387342  82.0351391  22.8907708  56.5276963
  82.2088269  22.3254131  55.7750816  82.5280283  23.6908603  56.3456453
  67.8528351  14.9022378  64.5940522  67.3081819  15.6782186  64.7260797
  68.7307701  15.2493182  64.4359644  74.6415968   8.2333961  56.9721321
  74.7631879   7.3050608  57.1712208  74.3518010   8.2472647  56.0599636
  77.5107158   5.9188872  60.1088041  77.5328855   5.9828205  59.1540020
  77.9275217   5.0793380  60.3028547  87.8890783  15.6544131  58.1467263
  88.3321929  14.9051457  57.7486386  87.0117293  15.6454268  57.7640995
  83.0226564  22.2074473  53.6273862  83.7177469  22.8281166  53.8461176
  83.3649714  21.3569824  53.9026240  68.6394373  14.0292274  67.4870679
  67.8976109  14.1774909  68.0735310  68.3187117  14.2900539  66.6237429
  84.9217987  19.6574178  55.1561193  85.4469311  19.9961451  54.4310513
  84.8340340  18.7221194  54.9724327  76.5838036  23.5708252  67.2851069
  76.8925162  23.3257399  68.1573769  77.3813518  23.7754891  66.7969939
  76.6058648  25.7246162  59.5156446  76.1663638  25.2322540  60.2089302
  77.3566765  25.1819129  59.2748521  69.0850987  21.9157703  59.5181074
  69.9109007  21.6161474  59.1379717  68.7345039  21.1465325  59.9670862
  74.0532520  21.2684171  61.5878747  73.4312529  20.6054876  61.2880975
  74.7237387  21.2945303  60.9052395  67.2859592  19.8344029  60.4770007
  66.4491500  19.4066203  60.2954009  67.2583237  20.0276472  61.4140799
  74.1257047   9.7465959  71.1811253  74.1745203  10.6228082  70.7989023
  74.6679562   9.2043352  70.6082897  84.6111893  20.2907082  70.4612390
  83.8207437  20.2731221  69.9216890  84.3745248  20.8295376  71.2161427
  84.7309768  17.1399548  67.7745119  84.7807773  16.9749556  68.7160642
  84.6223692  16.2726807  67.3843000  73.6146027  19.8188094  55.0637208
  73.7634147  20.5023558  54.4103881  74.4212470  19.7993184  55.5786664
  82.0213531  13.1230476  69.0904426  82.9223393  12.9836941  68.7988424
  82.0961505  13.2884931  70.0302603  76.3556336  10.4997331  67.9357612
  75.4859645  10.7930897  67.6640201  76.5915816  11.0837776  68.6564876
  86.2327965  19.5596490  68.0187141  85.9412773  19.9226470  68.8550602
  85.6200096  18.8463498  67.8400473  87.4323647  17.1249370  60.5389711
  88.2670539  17.5639174  60.7027271  87.5682776  16.6488023  59.7197957
  84.4815153  14.6829105  66.4867199  84.9569275  14.8756751  65.6786050
  83.5580719  14.7388290  66.2410582  71.3698660  15.8453272  56.0698277
  71.1244702  14.9415602  56.2678487  71.5394574  15.8470422  55.1277755
  79.0595370   6.7176948  65.4523032  79.5777314   7.4537975  65.1269521
  78.7050502   7.0240941  66.2869792  70.6394307  11.5781629  53.5684438
  69.9463552  11.6525984  52.9124474  70.3946059  10.8141973  54.0905955
  77.1141432  22.3136225  52.5348955  76.5415399  22.9326412  52.0819427
  77.6874226  22.8635586  53.0688877  83.1816822  11.5594865  64.7195504
  84.1334245  11.6592962  64.7407728  83.0120273  10.7673133  65.2293589
  81.2031202   8.6450448  64.9054905  80.6081134   8.9255461  64.2101394
  80.9180898   9.1344349  65.6771646  80.3338692  22.5973375  53.6657538
  81.2669365  22.5318936  53.8690413  80.2461905  23.4329642  53.2072070
  82.9626709  21.9139245  50.6261485  82.8840340  21.5799109  51.5197243
  83.7836376  22.4061013  50.6252958  85.6604900  14.7800984  63.8337804
  85.6281220  13.8416985  64.0197488  86.2705524  14.8585021  63.1003629
  77.4988231  13.6497037  49.8765008  78.4447336  13.5203245  49.9453426
  77.1202476  12.9111699  50.3534436  85.8099388  11.5712028  63.8796087
  85.2938437  10.7870484  63.6926016  86.6939337  11.2430744  64.0442606
  83.4710115   5.3153043  59.8391900  83.2734937   5.0068132  60.7235232
  84.0809821   6.0414682  59.9689830  91.4781450  15.8416991  62.9743841
  92.2084838  15.5802279  63.5351544  90.8688395  15.1045713  63.0145909
  89.5596747  13.9824854  63.5718292  88.8329911  13.8480819  62.9634783
  89.1444034  14.2901682  64.3775010  77.3826923  17.7014783  71.3365665
  78.3029933  17.8793382  71.5305711  77.3476506  16.7570829  71.1845364
  75.6831148  11.5747014  49.8119893  74.7762603  11.2780126  49.8882607
  75.9607129  11.2776832  48.9454179  66.6009088  12.8953377  60.2618939
  66.2811873  12.0418685  59.9693313  66.0542517  13.1101955  61.0176907
  70.3788996  15.6115818  63.9788446  70.5975006  16.5432926  63.9976480
  70.7914770  15.2523793  64.7643250  77.2993214   6.1183903  55.9664134
  76.4893942   5.7730988  56.3419380  77.9877631   5.8091447  56.5551746
  79.2283762   5.1961950  57.5888431  79.7814801   5.6157404  58.2478454
  79.4653848   4.2697698  57.6311387  75.2516861  11.1849024  73.3691195
  75.1513588  12.1343381  73.3003286  75.0338403  10.8567263  72.4967265
  74.4529933   8.4333949  49.9531872  75.3149097   8.7588847  50.2127690
  74.6380277   7.6465445  49.4404938  66.4697348  16.5156289  62.2312061
  65.7760820  16.1010241  61.7182015  67.2170339  16.5576825  61.6345480
  82.6062569   7.3062475  57.0967095  82.0261238   7.9647279  56.7145148
  82.3398502   6.4839820  56.6854513  81.0566135   6.7067533  59.2988416
  81.5565914   6.8184068  58.4902734  81.7001743   6.4028586  59.9389224
  75.1148131  14.6146163  72.1856257  74.6315213  15.4146523  72.3920146
  75.2009070  14.6254108  71.2323701  68.3834091  16.4474542  60.1078076
  68.3604779  16.5462230  59.1559959  68.6934727  17.2939693  60.4295242
  71.0421469  18.5050697  64.2224690  71.9964722  18.4734640  64.1554622
  70.8433992  18.0441321  65.0374916  71.6320851  17.0751813  66.7895488
  72.4513740  17.5695892  66.8130325  71.9057659  16.1583782  66.7613056
  81.3887447   9.4662566  56.1523444  80.5013302   9.7512216  55.9343638
  81.8041436   9.3056329  55.3050720  84.7401983   9.4909087  59.8677783
  85.5162373   9.9805539  60.1402400  84.0150117   9.9167141  60.3249652
  87.1774542  10.2036706  60.9251723  87.7719033   9.9632442  60.2145032
  87.2501126   9.4843837  61.5525260  69.3971698  24.0470317  61.2394888
  69.2626166  23.2870718  60.6732886  68.9803760  24.7711217  60.7723677
  80.5330661  19.2307240  50.2471464  81.2366511  19.4357243  50.8629119
  79.8093309  19.7984002  50.5120547  81.3628471  14.9817102  56.3673734
  81.3063672  15.4385653  55.5281366  81.9156813  14.2207786  56.1896576
  85.1733277  10.7706834  57.1923853  84.9170211  10.3703469  58.0232061
  84.5486145  11.4850627  57.0673992  89.4845615  13.5102907  59.6995145
  88.9245173  13.5796096  60.4726707  88.8789118  13.3343891  58.9794641
  72.5540823  24.9439634  61.4513331  72.4373208  25.8885066  61.3492021
  71.7333270  24.6413195  61.8399130  82.4417358  19.6689770  52.2969924
  83.2762962  19.2370968  52.1147398  82.2801701  19.4971783  53.2246818
  82.0963250  16.1721883  53.6626263  82.0412054  16.0066154  52.7214707
  81.4709305  16.8797916  53.8188453  66.8855765  11.4089947  67.4887685
  67.5314629  10.8988901  67.9774910  66.6772916  12.1458629  68.0631110
  79.4109157  18.4770795  72.9879826  80.2800317  18.6511447  72.6266461
  78.9315909  19.2965212  72.8655555  75.4059376   5.6729992  53.2411581
  75.3938045   6.6171832  53.3979852  76.2982798   5.4900137  52.9471042
  73.5795338  25.5967896  64.6669259  74.4822584  25.6291506  64.9835754
  73.3532708  24.6668347  64.6815595  75.3348940  24.3498882  61.3279338
  74.3844571  24.3500744  61.2143710  75.6381426  23.6031617  60.8115373
  71.2253256   8.5557564  71.5862699  72.0884718   8.1994369  71.7966024
  70.6518667   8.2171459  72.2738104  91.0701633  30.1859421  62.3925100
  91.7080043  30.0666168  61.6888440  90.9522476  31.1340265  62.4513052
  87.8791339  30.1386849  62.3286625  87.5409851  30.0227914  61.4407160
  88.7481108  29.7378014  62.3087631  88.3611122  31.2921701  68.2872831
  88.3499763  30.8974499  67.4153334  88.5231762  30.5587773  68.8806602
  85.0818384  34.0758812  67.2352015  84.7908250  34.9804443  67.1198681
  85.7175368  34.1175340  67.9496084  86.0074590  31.4535661  63.8253374
  86.6038163  31.2291683  63.1110337  86.0649562  30.7120406  64.4278822
  96.0251329  27.8486108  60.3711287  96.7576501  27.2785325  60.6049116
  95.2690684  27.4607708  60.8117792  93.5476749  21.5607682  64.8305895
  93.2160074  22.4303093  64.6067110  92.9522362  21.2443966  65.5099926
  90.0408269  33.7620228  64.2301808  89.7408992  34.6645267  64.1217615
  89.6959328  33.4952411  65.0822961  93.4405412  26.2802768  61.9099246
  92.5322290  26.2118177  61.6158006  93.3893008  26.7574713  62.7381071
  80.8529561  29.8567298  61.0982302  80.9821942  30.1101777  62.0121713
  80.1727012  30.4495006  60.7786957  87.5146278  27.6992414  69.8534143
  86.7379612  28.2586334  69.8437007  88.1536841  28.1849197  70.3749013
  95.3067059  24.4819206  63.6877119  94.6641439  24.7751740  63.0416914
  94.8021987  24.3672127  64.4930316  85.7692650  30.5077867  69.4152110
  86.5107335  31.0462911  69.1386933  85.0629636  31.1344156  69.5723662
  91.2447990  32.6507007  68.0124271  91.6531346  32.2089418  67.2678904
  90.5225252  32.0759635  68.2658464  87.5979060  27.5879614  65.3857828
  88.4440255  28.0119028  65.5292477  87.5377698  26.9313239  66.0796391
  90.7478506  25.2483983  67.0439002  90.5039437  26.0026043  66.5073278
  91.0238436  25.6269330  67.8786249  92.7016968  31.7922595  65.7216267
  92.9133864  32.4354355  65.0450649  92.6546717  30.9584912  65.2538198
  90.3043197  24.4040416  62.6252840  89.4427676  24.7021669  62.9169577
  90.3305632  24.6210815  61.6933872  84.0128848  32.4954088  61.9706409
  84.5830205  32.9241356  61.3323893  84.6036960  32.2136672  62.6690594
  84.5054014  27.6617515  70.2167420  83.8752675  28.3433796  70.4502817
  84.3990102  27.5500597  69.2720558  79.7998987  27.3289311  61.1433344
  79.0098041  27.5846840  60.6673455  80.2910234  28.1437649  61.2485385
  93.8162796  34.6694550  63.8938625  94.6380240  34.2674738  63.6121306
  93.8125199  34.5662785  64.8454741  81.7513732  27.6933890  58.1016821
  80.9544895  27.8052585  58.6200316  81.5239324  28.0320543  57.2357711
  87.5819400  34.2178594  66.0499335  87.6463832  34.6799001  66.8857507
  86.8730324  33.5875959  66.1781645  78.0836690  27.5819802  63.5748335
  78.3344728  28.4666812  63.8405911  78.6196238  27.4024403  62.8023427
 101.9068789  31.0133299  60.2423596 101.1532498  30.4440697  60.0867601
 102.0416330  30.9795963  61.1894231  83.7834757  21.9638281  72.5792671
  83.3901703  21.4104480  73.2540315  84.6000897  22.2748860  72.9699188
  86.7002718  23.3796160  70.1712927  87.4412431  23.9803313  70.0917390
  86.9320641  22.6373798  69.6130970  81.8444056  28.5652527  68.4491157
  81.7297571  27.6637785  68.7498256  80.9888574  28.8116224  68.0975974
  88.9235894  36.5070268  70.0478658  88.4799748  35.7206646  69.7299562
  89.5853107  36.6949418  69.3822548  83.6823015  38.0366069  64.5739336
  84.2330440  37.9083133  63.8016330  82.8434491  38.3360958  64.2234229
  91.0217132  36.7873068  68.0760059  91.0035607  37.6081949  67.5840328
  91.9437052  36.6627143  68.3010200  87.4790186  34.3017197  68.9183567
  88.0118523  33.5405485  68.6882875  86.9504267  34.0090849  69.6607722
  90.6459881  19.4077263  64.4477209  90.3024150  20.2978905  64.3716320
  91.0138843  19.2178921  63.5846794  89.7256421  21.7781918  62.4126442
  89.2221217  21.7412053  61.5994248  90.0187028  22.6874661  62.4723099
  85.9699307  21.8620648  61.4192624  86.8352304  21.6663457  61.0598514
  86.0376816  21.6331000  62.3461981  83.5761626  24.0922856  58.7908991
  84.1505378  23.8698037  58.0582184  84.1632609  24.1611550  59.5437592
  85.8784294  20.9664105  57.5184060  85.2248706  20.6513122  56.8940675
  85.8364768  20.3439845  58.2443883  89.1122034  27.4546038  61.8431708
  88.1944596  27.6760985  61.6853396  89.5282178  27.5292349  60.9843415
  92.4447547  18.6670822  59.5494947  92.7506423  17.8068186  59.2620862
  93.1700151  19.2588442  59.3493941  78.7371903  29.0701509  57.9376545
  78.5396302  28.4770870  57.2127611  78.1818567  28.7653719  58.6552483
  90.2535198  28.0443500  66.6476411  90.6084586  28.2714973  67.5070876
  90.9007329  28.3761876  66.0253666  84.1475061  25.1520031  63.4322752
  84.7874440  25.0108790  62.7345715  83.3152592  24.8654544  63.0561354
  89.7430209  36.8340557  63.8970112  89.7967232  37.4031493  64.6647828
  88.8744991  37.0042442  63.5324149  81.1503677  25.1220356  58.2095738
  81.4110495  26.0365689  58.1004899  81.9720850  24.6544798  58.3592351
  82.6228603  26.5358113  65.3794563  83.2951656  26.3275475  64.7307212
  81.7958389  26.3380199  64.9399795  96.8717864  33.2762163  64.8969897
  97.0653754  34.1807974  65.1429171  96.7718482  32.8169582  65.7308482
  88.5254175  23.1620054  67.3960224  87.8782090  23.8610003  67.3024700
  89.2955190  23.5956198  67.7636472  91.9332973  33.4268906  70.4710777
  91.7818479  33.1979458  69.5540861  91.9237652  34.3839507  70.4842122
  88.7018309  31.0000819  65.4557044  89.6310369  31.1511978  65.2826011
  88.2809339  31.0884839  64.6005690  87.5006641  35.0251483  63.2255581
  87.3617727  34.6570267  64.0981519  86.7121237  35.5399122  63.0539539
  83.0256100  29.8100716  66.1397000  82.8875898  29.0780955  66.7408539
  83.9361023  29.7209616  65.8581188  85.6538401  29.5220675  65.6280680
  86.3638019  28.8813867  65.5867298  85.6107709  29.7733570  66.5506861
  93.6425179  36.4588028  68.5487259  93.5837725  35.7747249  67.8817842
  94.0444698  37.2007018  68.0967885  84.3667335  26.5085893  67.4476319
  83.8304692  26.0576631  68.0997916  83.7784043  26.6431802  66.7046784
  82.6615878  43.2749942  61.3420978  82.9012476  43.9068466  62.0199996
  81.8185075  42.9237982  61.6286337  93.6442587  34.4227612  66.7801239
  92.7569365  34.0853534  66.9027638  94.2141138  33.6910644  67.0170004
  75.2971734  30.7551704  60.1044290  75.9842774  30.4413434  59.5165305
  75.1419862  31.6593069  59.8311541  80.1006456  25.6441901  64.5329314
  80.0164645  25.0367570  63.7979724  79.2789162  26.1350919  64.5338810
  87.1743740  39.0829065  63.7462482  87.1013911  39.8884036  64.2581786
  86.7321133  39.2821030  62.9210503  90.2730170  24.1295464  59.8999509
  90.7698869  23.3765426  59.5800579  89.5017151  24.1659781  59.3342718
  98.1259927  29.8335830  61.5417800  98.1149803  30.7160545  61.1711733
  97.2577307  29.4807381  61.3472337  89.6342424  38.9815899  65.9020641
  90.3470396  39.6163364  65.8296542  89.1432452  39.0779765  65.0860642
  84.6854337  36.7310342  66.7226211  85.3863797  37.3646825  66.8755606
  84.2149452  37.0725074  65.9621851  92.7149165  21.0965058  62.0478868
  91.8012244  21.3269285  62.2161075  93.1442266  21.1803502  62.8992900
  92.4855623  29.2854950  64.5478762  91.8327073  29.5330857  63.8931214
  92.8636003  28.4719088  64.2141239  88.5343196  30.0274761  71.0344799
  87.8583833  29.9268890  71.7047174  89.3570830  29.8713974  71.4980796
  80.2822055  36.2646697  63.6557314  80.8675492  35.5190385  63.7885218
  80.0846894  36.5750654  64.5393978  74.8739710  28.8352297  62.3761757
  74.9123809  28.3015888  63.1698875  74.3680003  28.3087503  61.7572734
  87.2765979  41.3341688  65.2702415  87.8284287  41.4973310  66.0351500
  87.6172172  41.9246126  64.5982440  82.2530472  23.6816838  65.8724299
  82.3171799  24.5431669  65.4601697  82.1897592  23.0690840  65.1396658
  81.7282745  25.7539970  69.5197334  82.3554783  25.3717048  70.1334858
  80.8710664  25.5354172  69.8853026  92.1276853  36.1602946  71.1251069
  92.6716757  36.7732904  70.6306024  91.5463698  36.7182524  71.6418082
  78.5048287  27.5616400  55.4515689  78.8001729  26.6527078  55.3982742
  77.6036323  27.5404139  55.1296691  90.4134366  39.2823664  62.2566097
  90.2885506  38.4813404  61.7477042  91.0713457  39.7769857  61.7680067
  82.0342534  25.6372396  61.4343237  81.3129120  26.2508364  61.2950710
  82.8235790  26.1730161  61.3559883  92.4769275  37.0832684  63.8845647
  91.5299610  36.9638035  63.8123974  92.8252048  36.1955182  63.9671908
  84.8368848  22.9726823  67.7083889  85.3603250  23.2189119  68.4710198
  84.6181181  23.8046857  67.2887026  86.0421393  23.9140518  65.3933559
  85.7018213  23.1148331  65.7954239  85.3360399  24.2142229  64.8210393
  86.6937865  20.9989830  63.8460882  87.5163934  20.5250308  63.7239773
  86.9375928  21.7780314  64.3459569  84.2176444  27.6908951  61.6552861
  84.0721024  28.0049254  62.5477143  83.7401647  28.3093851  61.1023760
  86.0772826  24.6811499  61.7033751  86.0634395  23.7852592  61.3666049
  86.7945255  24.6882163  62.3372037  87.9298957  25.1148839  63.7486878
  87.6716735  26.0365910  63.7471209  87.3983998  24.7179274  64.4387342
  78.6922106  30.2314295  64.5940522  78.1475574  31.0074103  64.7260797
  79.5701456  30.5785100  64.4359644  85.4809722  23.5625879  56.9721321
  85.6025634  22.6342525  57.1712208  85.1911765  23.5764565  56.0599636
  88.3500913  21.2480790  60.1088041  88.3722610  21.3120123  59.1540020
  88.7668972  20.4085298  60.3028547  79.4788128  29.3584191  67.4870679
  78.7369864  29.5066827  68.0735310  79.1580872  29.6192457  66.6237429
  87.4231790  38.9000170  67.2851069  87.7318917  38.6549316  68.1573769
  88.2207272  39.1046808  66.7969939  78.1253346  35.1635947  60.4770007
  77.2885255  34.7358121  60.2954009  78.0976992  35.3568390  61.4140799
  84.9650802  25.0757876  71.1811253  85.0138957  25.9519999  70.7989023
  85.5073316  24.5335270  70.6082897  95.4505648  35.6199000  70.4612390
  94.6601191  35.6023139  69.9216890  95.2139002  36.1587293  71.2161427
  95.5703523  32.4691466  67.7745119  95.6201528  32.3041474  68.7160642
  95.4617446  31.6018725  67.3843000  92.8607285  28.4522394  69.0904426
  93.7617148  28.3128859  68.7988424  92.9355260  28.6176849  70.0302603
  87.1950090  25.8289249  67.9357612  86.3253400  26.1222815  67.6640201
  87.4309571  26.4129694  68.6564876  97.0721719  34.8888408  68.0187141
  96.7806528  35.2518388  68.8550602  96.4593851  34.1755416  67.8400473
  95.3208908  30.0121022  66.4867199  95.7963029  30.2048669  65.6786050
  94.3974473  30.0680208  66.2410582  89.8989124  22.0468866  65.4523032
  90.4171068  22.7829893  65.1269521  89.5444257  22.3532859  66.2869792
  90.1501718  18.4669148  60.9723929  90.4303472  17.7992337  61.5984356
  90.9352325  18.6598244  60.4598593  94.0210577  26.8886782  64.7195504
  94.9728000  26.9884880  64.7407728  93.8514027  26.0965051  65.2293589
  92.0424956  23.9742366  64.9054905  91.4474888  24.2547378  64.2101394
  91.7574653  24.4636266  65.6771646  96.4998655  30.1092902  63.8337804
  96.4674975  29.1708903  64.0197488  97.1099278  30.1876939  63.1003629
  96.6493143  26.9003945  63.8796087  96.1332192  26.1162402  63.6926016
  97.5333092  26.5722662  64.0442606  94.3103870  20.6444961  59.8391900
  94.1128691  20.3360049  60.7235232  94.9203575  21.3706600  59.9689830
 102.3175204  31.1708909  62.9743841 103.0478593  30.9094197  63.5351544
 101.7082150  30.4337631  63.0145909 100.3990501  29.3116771  63.5718292
  99.6723665  29.1772736  62.9634783  99.9837788  29.6193600  64.3775010
  88.2220678  33.0306701  71.3365665  89.1423687  33.2085300  71.5305711
  88.1870261  32.0862746  71.1845364  77.4402843  28.2245295  60.2618939
  77.1205627  27.3710603  59.9693313  76.8936271  28.4393873  61.0176907
  81.2182750  30.9407736  63.9788446  81.4368760  31.8724844  63.9976480
  81.6308524  30.5815710  64.7643250  88.1386968  21.4475821  55.9664134
  87.3287697  21.1022906  56.3419380  88.8271385  21.1383365  56.5551746
  90.0677517  20.5253868  57.5888431  90.6208555  20.9449321  58.2478454
  90.3047603  19.5989616  57.6311387  86.0910616  26.5140942  73.3691195
  85.9907343  27.4635298  73.3003286  85.8732158  26.1859180  72.4967265
  77.3091103  31.8448206  62.2312061  76.6154574  31.4302159  61.7182015
  78.0564094  31.8868743  61.6345480  93.4456324  22.6354393  57.0967095
  92.8654993  23.2939197  56.7145148  93.1792256  21.8131738  56.6854513
  91.8959890  22.0359451  59.2988416  92.3959668  22.1475985  58.4902734
  92.5395498  21.7320504  59.9389224  85.9541886  29.9438080  72.1856257
  85.4708968  30.7438440  72.3920146  86.0402825  29.9546025  71.2323701
  79.2227845  31.7766460  60.1078076  79.1998534  31.8754147  59.1559959
  79.5328482  32.6231611  60.4295242  81.8815223  33.8342615  64.2224690
  82.8358477  33.8026557  64.1554622  81.6827747  33.3733239  65.0374916
  82.4714605  32.4043731  66.7895488  83.2907494  32.8987810  66.8130325
  82.7451413  31.4875699  66.7613056  95.5795738  24.8201004  59.8677783
  96.3556128  25.3097457  60.1402400  94.8543872  25.2459059  60.3249652
  98.0168296  25.5328624  60.9251723  98.6112787  25.2924360  60.2145032
  98.0894880  24.8135754  61.5525260  80.2365452  39.3762235  61.2394888
  80.1019920  38.6162635  60.6732886  79.8197514  40.1003134  60.7723677
  96.0127031  26.0998751  57.1923853  95.7563966  25.6995387  58.0232061
  95.3879899  26.8142545  57.0673992 100.3239369  28.8394824  59.6995145
  99.7638927  28.9088014  60.4726707  99.7182873  28.6635809  58.9794641
  83.3934578  40.2731552  61.4513331  83.2766962  41.2176984  61.3492021
  82.5727024  39.9705113  61.8399130  77.7249520  26.7381865  67.4887685
  78.3708383  26.2280819  67.9774910  77.5166671  27.4750547  68.0631110
  90.2502912  33.8062712  72.9879826  91.1194071  33.9803365  72.6266461
  89.7709663  34.6257129  72.8655555  86.2453130  21.0021910  53.2411581
  86.2331800  21.9463750  53.3979852  87.1376552  20.8192055  52.9471042
  84.4189092  40.9259813  64.6669259  85.3216339  40.9583424  64.9835754
  84.1926462  39.9960264  64.6815595  90.0605250  17.5964686  57.4957518
  89.2937645  17.0423173  57.6414200  90.4715955  17.6686555  58.3571670
  82.0647011  23.8849482  71.5862699  82.9278472  23.5286287  71.7966024
  81.4912421  23.5463377  72.2738104 101.9095388  45.5151338  62.3925100
 102.5473798  45.3958086  61.6888440 101.7916230  46.4632182  62.4513052
  98.7185094  45.4678767  62.3286625  98.3803605  45.3519831  61.4407160
  99.5874862  45.0669932  62.3087631  94.5771910  47.3214243  58.3183516
  94.0136775  47.2304180  57.5499804  94.4624305  46.5014147  58.7986008
  99.2004877  46.6213618  68.2872831  99.1893518  46.2266417  67.4153334
  99.3625516  45.8879691  68.8806602  92.1236342  48.8165435  61.1567736
  92.9157633  48.4756259  60.7414036  92.3632992  48.9260410  62.0769890
 100.1571468  50.9885211  53.6297981  99.5059448  51.5739291  53.2431995
 100.9515831  51.5191406  53.6893018  94.0827095  48.0774348  54.0285115
  94.8557971  47.5303335  53.8897991  94.4352494  48.9418597  54.2399577
  95.9212138  49.4050730  67.2352015  95.6302004  50.3096361  67.1198681
  96.5569122  49.4467258  67.9496084  96.8468345  46.7827579  63.8253374
  97.4431917  46.5583601  63.1110337  96.9043316  46.0412324  64.4278822
  96.4193373  44.2367014  51.6603565  96.6718894  43.7148535  50.8987028
  95.4817932  44.0733159  51.7630249 101.4636656  43.2402792  59.4678308
 102.2499745  42.8222215  59.1168725 101.7275360  44.1448884  59.6359957
 101.6346733  48.6775643  54.1666965 100.9992566  48.7510269  54.8787870
 101.3044140  49.2669241  53.4886044 106.8645083  43.1778025  60.3711287
 107.5970255  42.6077242  60.6049116 106.1084439  42.7899626  60.8117792
  96.1389662  46.1395120  53.8627940  96.0225920  45.4640023  54.5309024
  96.2491922  45.6527494  53.0460093  98.4821203  45.6005267  57.5674629
  98.1179410  45.0735888  58.2787551  99.3388319  45.2103736  57.3941115
 104.3870504  36.8899600  64.8305895 104.0553828  37.7595011  64.6067110
 103.7916117  36.5735884  65.5099926 100.8802023  49.0912146  64.2301808
 100.5802746  49.9937184  64.1217615 100.5353083  48.8244329  65.0822961
  94.3314505  45.5425942  60.2638513  93.4065001  45.4102157  60.4716204
  94.5798918  46.3220162  60.7608455 104.2799167  41.6094686  61.9099246
 103.3716044  41.5410094  61.6158006 104.2286763  42.0866631  62.7381071
  98.1015911  43.0852824  53.5482645  97.9815536  43.5309875  54.3868125
  97.4068499  43.4338142  52.9896183  91.6923316  45.1859216  61.0982302
  91.8215697  45.4393695  62.0121713  91.0120767  45.7786924  60.7786957
  95.8622803  55.8556466  57.1972776  95.7846833  56.8064291  57.2761256
  95.2584446  55.5102338  57.8547702  98.3540033  43.0284331  69.8534143
  97.5773367  43.5878251  69.8437007  98.9930596  43.5141114  70.3749013
 106.1460813  39.8111124  63.6877119 105.5035194  40.1043657  63.0416914
 105.6415742  39.6964044  64.4930316 103.8000977  43.5574297  54.3762979
 104.7118833  43.7901684  54.2010676 103.2910624  44.1411342  53.8138057
  96.6086405  45.8369785  69.4152110  97.3501089  46.3754829  69.1386933
  95.9023390  46.4636073  69.5723662  98.4372815  42.9171532  65.3857828
  99.2834010  43.3410945  65.5292477  98.3771452  42.2605156  66.0796391
 102.4070559  48.5400116  61.7676560 101.7779422  48.7045830  61.0652628
 102.0196221  48.9541725  62.5387524 106.2859791  49.4754554  59.1220924
 105.6010829  49.8553455  58.5717957 106.3703640  50.0849880  59.8552872
 101.5872260  40.5775900  67.0439002 101.3433192  41.3317961  66.5073278
 101.8632190  40.9561248  67.8786249 103.5410723  47.1214513  65.7216267
 103.7527618  47.7646273  65.0450649 103.4940471  46.2876829  65.2538198
 101.1436952  39.7332333  62.6252840 100.2821431  40.0313587  62.9169577
 101.1699386  39.9502732  61.6933872  97.9598521  48.2774524  59.0326645
  98.4236867  48.5562227  58.2431268  97.6955319  47.3757968  58.8499736
  94.8522602  47.8246005  61.9706409  95.4223959  48.2533274  61.3323893
  95.4430714  47.5428590  62.6690594  95.3447769  42.9909433  70.2167420
  94.7146429  43.6725714  70.4502817  95.2383857  42.8792514  69.2720558
  90.6392741  42.6581229  61.1433344  89.8491795  42.9138757  60.6673455
  91.1303989  43.4729567  61.2485385 104.6556551  49.9986468  63.8938625
 105.4773994  49.5966655  63.6121306 104.6518954  49.8954702  64.8454741
  98.4213154  49.5470511  66.0499335  98.4857587  50.0090919  66.8857507
  97.7124078  48.9167876  66.1781645  88.9230444  42.9111719  63.5748335
  89.1738483  43.7958729  63.8405911  89.4589993  42.7316321  62.8023427
 112.7462544  46.3425217  60.2423596 111.9926252  45.7732615  60.0867601
 112.8810085  46.3087881  61.1894231  98.1361172  51.2138619  55.9178316
  98.0006847  52.0590155  56.3463163  98.6770984  51.4157897  55.1544249
  94.6228511  37.2930199  72.5792671  94.2295457  36.7396397  73.2540315
  95.4394652  37.6040777  72.9699188  91.5890569  48.7314057  56.4906241
  92.1015090  49.5257307  56.6411805  92.2413282  48.0340347  56.4239842
  93.3985454  51.8479813  58.5728994  93.5752082  52.7697778  58.3849978
  94.1942287  51.5338232  59.0023374  97.5396472  38.7088078  70.1712927
  98.2806186  39.3095231  70.0917390  97.7714395  37.9665716  69.6130970
  92.6837810  43.8944445  68.4491157  92.5691326  42.9929702  68.7498256
  91.8282328  44.1408142  68.0975974  99.7629648  51.8362185  70.0478658
  99.3193502  51.0498564  69.7299562 100.4246862  52.0241336  69.3822548
  94.5216769  53.3657987  64.5739336  95.0724194  53.2375050  63.8016330
  93.6828245  53.6652876  64.2234229 101.8610886  52.1164985  68.0760059
 101.8429362  52.9373866  67.5840328 102.7830806  51.9919061  68.3010200
  98.3183940  49.6309115  68.9183567  98.8512277  48.8697403  68.6882875
  97.7898022  49.3382767  69.6607722 101.4853635  34.7369181  64.4477209
 101.1417905  35.6270822  64.3716320 101.8532598  34.5470838  63.5846794
  89.5539486  47.0602711  57.2665811  90.3914708  47.4699720  57.0499519
  89.7317754  46.1202153  57.2366005 101.4503918  44.7277792  52.9549644
 100.9350542  45.4982396  53.1938032 101.1781227  44.0542928  53.5782706
 100.5650176  37.1073836  62.4126442 100.0614971  37.0703971  61.5994248
 100.8580783  38.0166579  62.4723099 106.4238192  47.4810147  54.8902818
 105.6467635  47.1421306  54.4457980 107.1029673  47.4862770  54.2157783
  99.6836653  48.7595107  56.4302379  99.1558015  48.0247867  56.1175617
  99.1824156  49.5369784  56.1842348 104.6629499  46.9544128  61.5469426
 104.0053174  47.6443389  61.6349554 105.4669898  47.3440560  61.8903412
 103.4734958  45.3088500  59.5973367 103.9866840  45.9418492  60.0995077
 104.1236182  44.7089696  59.2316727  97.8289253  46.5775318  49.4337352
  96.9216315  46.3464571  49.6328501  98.3260285  45.7812937  49.6211334
 100.7357332  55.2872825  52.3534039 100.0619031  55.5904521  52.9618996
 101.1223154  56.0901905  52.0039496  99.9515789  42.7837956  61.8431708
  99.0338350  43.0052903  61.6853396 100.3675932  42.8584266  60.9843415
  99.0077487  46.6787912  53.9561342  98.0988706  46.3946945  54.0533812
  99.0372571  47.0986991  53.0964649 104.2396754  50.2894502  57.7252510
 103.7859081  49.4485412  57.7817701 103.6090721  50.9255900  58.0627290
 103.1829674  41.2186488  58.9553177 102.4452431  40.7063874  59.2863420
 103.4356447  40.7786870  58.1436454 102.6829693  52.1270999  58.6602328
 102.9752668  52.6876056  57.9414694 103.1928314  52.4199560  59.4155487
 103.2841301  33.9962740  59.5494947 103.5900178  33.1360103  59.2620862
 104.0093906  34.5880360  59.3493941  97.5562381  44.2916533  60.0571138
  97.6110991  43.3390369  59.9813614  96.7453583  44.4475972  60.5412436
  98.7053575  48.2196656  51.2949421  98.2673004  47.5032515  50.8355058
  99.4464015  48.4472771  50.7334512  97.6463319  52.9051350  59.7495781
  97.6039497  53.1312196  58.8204313  98.5626017  52.6714724  59.8981583
 101.0928952  43.3735417  66.6476411 101.4478340  43.6006890  67.5070876
 101.7401084  43.7053794  66.0253666 106.8226689  46.4953853  57.3525740
 106.6844588  46.6855449  56.4246929 106.4662908  47.2573236  57.8093791
  94.9868815  40.4811948  63.4322752  95.6268195  40.3400707  62.7345715
  94.1546346  40.1946462  63.0561354 106.8496069  48.5630380  62.3637011
 107.2832576  48.4705669  63.2120065 107.5627650  48.5387881  61.7257027
  95.7629119  49.7814379  59.5457744  96.5569718  49.2864699  59.3440319
  95.0520812  49.2532242  59.1825450 100.5823964  52.1632474  63.8970112
 100.6360986  52.7323411  64.6647828  99.7138745  52.3334359  63.5324149
  93.4622357  41.8650030  65.3794563  94.1345411  41.6567393  64.7307212
  92.6352144  41.6672116  64.9399795 107.7111618  48.6054081  64.8969897
 107.9047509  49.5099891  65.1429171 107.6112237  48.1461500  65.7308482
  99.3647929  38.4911971  67.3960224  98.7175844  39.1901921  67.3024700
 100.1348945  38.9248115  67.7636472 102.7726727  48.7560824  70.4710777
 102.6212234  48.5271375  69.5540861 102.7631407  49.7131425  70.4842122
  99.5412064  46.3292736  65.4557044 100.4704124  46.4803896  65.2826011
  99.1203094  46.4176757  64.6005690  98.3400395  50.3543401  63.2255581
  98.2011481  49.9862185  64.0981519  97.5514992  50.8691040  63.0539539
  98.9348547  55.4552497  54.5681118  99.1100303  54.9840540  55.3826740
  98.2481335  56.0818263  54.7962378  99.8905611  49.7325003  60.6144419
  99.5555443  49.6925773  61.5102069  99.3909556  49.0669719  60.1414829
  93.8649854  45.1392633  66.1397000  93.7269652  44.4072872  66.7408539
  94.7754778  45.0501534  65.8581188 102.8264802  47.0781038  50.8881479
 102.2093973  46.3527866  50.7914531 102.3581291  47.8390398  50.5448553
  96.4932155  44.8512593  65.6280680  97.2031774  44.2105785  65.5867298
  96.4501463  45.1025488  66.5506861 104.4818934  51.7879946  68.5487259
 104.4231480  51.1039166  67.8817842 104.8838452  52.5298936  68.0967885
  95.2061089  41.8377811  67.4476319  94.6698446  41.3868549  68.0997916
  94.6177798  41.9723719  66.7046784 104.4836341  49.7519530  66.7801239
 103.5963120  49.4145452  66.9027638 105.0534892  49.0202561  67.0170004
  86.1365488  46.0843622  60.1044290  86.8236528  45.7705352  59.5165305
  85.9813617  46.9884986  59.8311541  90.9400210  40.9733818  64.5329314
  90.8558399  40.3659488  63.7979724  90.1182917  41.4642837  64.5338810
  98.0137494  54.4120982  63.7462482  97.9407666  55.2175954  64.2581786
  97.5714888  54.6112948  62.9210503  97.8027274  53.6492752  57.2565303
  97.0194796  54.1914433  57.3503528  98.5020019  54.1666732  57.6559545
 108.9653682  45.1627747  61.5417800 108.9543558  46.0452463  61.1711733
 108.0971061  44.8099298  61.3472337 100.4736178  54.3107816  65.9020641
 101.1864150  54.9455281  65.8296542  99.9826207  54.4071682  65.0860642
 102.1953705  48.2159069  57.4737932 101.2609984  48.3360532  57.3042637
 102.3730373  47.3131536  57.2097942 105.5826256  44.0576388  58.0087966
 106.0486708  44.8904380  57.9348269 106.0333757  43.5921370  58.7133225
  95.5248092  52.0602260  66.7226211  96.2257551  52.6938743  66.8755606
  95.0543207  52.4016991  65.9621851 103.6502487  50.4020210  55.0074118
 103.9262331  50.2876804  55.9167992 102.7806986  50.0037694  54.9686291
 103.5542919  36.4256975  62.0478868 102.6405999  36.6561202  62.2161075
 103.9836020  36.5095419  62.8992900 103.3249377  44.6146867  64.5478762
 102.6720828  44.8622775  63.8931214 103.7029757  43.8011005  64.2141239
 100.2856551  54.6506560  58.6506932 100.4678946  53.8328216  59.1134684
 101.1089537  54.8674253  58.2131822 100.6198717  53.5774746  55.9121981
 101.1486483  53.0667200  55.2992143 100.8826936  53.2617276  56.7767514
  99.3736951  45.3566678  71.0344799  98.6977588  45.2560808  71.7047174
 100.1964584  45.2005892  71.4980796  91.1215810  51.5938615  63.6557314
  91.7069246  50.8482303  63.7885218  90.9240648  51.9042572  64.5393978
  93.9754465  54.6289862  58.6719756  93.3064840  55.1135990  58.1883796
  93.8367335  54.8759083  59.5863135  85.7133464  44.1644215  62.3761757
  85.7517564  43.6307806  63.1698875  85.2073757  43.6379421  61.7572734
  98.1159733  56.6633606  65.2702415  98.6678041  56.8265227  66.0351500
  98.4565927  57.2538044  64.5982440  93.0924227  39.0108756  65.8724299
  93.1565553  39.8723587  65.4601697  93.0291347  38.3982757  65.1396658
  92.5676499  41.0831888  69.5197334  93.1948538  40.7008965  70.1334858
  91.7104418  40.8646090  69.8853026 102.9670608  51.4894863  71.1251069
 103.5110512  52.1024822  70.6306024 102.3857453  52.0474442  71.6418082
 101.2528121  54.6115581  62.2566097 101.1279260  53.8105321  61.7477042
 101.9107212  55.1061775  61.7680067  92.8736289  40.9664314  61.4343237
  92.1522875  41.5800282  61.2950710  93.6629545  41.5022079  61.3559883
 103.3163029  52.4124601  63.8845647 102.3693365  52.2929953  63.8123974
 103.6645802  51.5247099  63.9671908  95.6762602  38.3018740  67.7083889
  96.1997004  38.5481037  68.4710198  95.4574936  39.1338775  67.2887026
 100.3209462  52.2077318  60.0849999 100.1734425  51.2794025  60.2657569
 101.1462956  52.2297408  59.6007075 103.9243584  53.0305876  61.1714872
 104.8490132  52.8248738  61.0339323 103.7558888  52.7822278  62.0804214
  96.8815147  39.2432435  65.3933559  96.5411968  38.4440249  65.7954239
  96.1754154  39.5434146  64.8210393  97.5331619  36.3281748  63.8460882
  98.3557689  35.8542226  63.7239773  97.7769683  37.1072232  64.3459569
  95.0570198  43.0200869  61.6552861  94.9114779  43.3341172  62.5477143
  94.5795402  43.6385769  61.1023760  96.9166581  40.0103416  61.7033751
  96.9028150  39.1144510  61.3666049  97.6339009  40.0174080  62.3372037
  98.7692712  40.4440757  63.7486878  98.5110489  41.3657827  63.7471209
  98.2377752  40.0471191  64.4387342 103.7138900  53.5491544  56.5276963
 103.8875778  52.9837966  55.7750816 104.2067792  54.3492439  56.3456453
  89.5315860  45.5606213  64.5940522  88.9869328  46.3366021  64.7260797
  90.4095210  45.9077017  64.4359644 109.5678292  46.3127967  58.1467263
 110.0109438  45.5635292  57.7486386 108.6904802  46.3038103  57.7640995
 104.7014073  52.8658308  53.6273862 105.3964978  53.4865001  53.8461176
 105.0437223  52.0153659  53.9026240  90.3181882  44.6876109  67.4870679
  89.5763618  44.8358745  68.0735310  89.9974626  44.9484375  66.6237429
 106.6005496  50.3158014  55.1561193 107.1256820  50.6545287  54.4310513
 106.5127849  49.3805029  54.9724327  98.2625545  54.2292087  67.2851069
  98.5712671  53.9841234  68.1573769  99.0601027  54.4338726  66.7969939
  98.2846157  56.3829997  59.5156446  97.8451147  55.8906376  60.2089302
  99.0354274  55.8402965  59.2748521  90.7638496  52.5741538  59.5181074
  91.5896516  52.2745310  59.1379717  90.4132548  51.8049160  59.9670862
  95.7320029  51.9268006  61.5878747  95.1100038  51.2638711  61.2880975
  96.4024896  51.9529138  60.9052395  88.9647101  50.4927864  60.4770007
  88.1279009  50.0650039  60.2954009  88.9370746  50.6860308  61.4140799
  95.8044556  40.4049794  71.1811253  95.8532712  41.2811917  70.7989023
  96.3467071  39.8627187  70.6082897 106.2899402  50.9490917  70.4612390
 105.4994946  50.9315056  69.9216890 106.0532757  51.4879211  71.2161427
  95.2933536  50.4771929  55.0637208  95.4421656  51.1607394  54.4103881
  96.0999979  50.4577020  55.5786664 103.7001040  43.7814312  69.0904426
 104.6010902  43.6420777  68.7988424 103.7749014  43.9468767  70.0302603
  98.0343845  41.1581167  67.9357612  97.1647154  41.4514733  67.6640201
  98.2703325  41.7421612  68.6564876 107.9115474  50.2180325  68.0187141
 107.6200282  50.5810306  68.8550602 107.2987605  49.5047334  67.8400473
 109.1111156  47.7833205  60.5389711 109.9458048  48.2223009  60.7027271
 109.2470285  47.3071858  59.7197957 106.1602662  45.3412940  66.4867199
 106.6356784  45.5340586  65.6786050 105.2368228  45.3972126  66.2410582
  93.0486169  46.5037107  56.0698277  92.8032211  45.5999437  56.2678487
  93.2182083  46.5054258  55.1277755 100.7382879  37.3760783  65.4523032
 101.2564823  38.1121810  65.1269521 100.3838011  37.6824777  66.2869792
 100.9895473  33.7961066  60.9723929 101.2697227  33.1284255  61.5984356
 101.7746080  33.9890162  60.4598593  98.7928941  52.9720060  52.5348955
  98.2202908  53.5910247  52.0819427  99.3661735  53.5219422  53.0688877
 104.8604331  42.2178700  64.7195504 105.8121754  42.3176798  64.7407728
 104.6907782  41.4256969  65.2293589 102.8818711  39.3034283  64.9054905
 102.2868643  39.5839296  64.2101394 102.5968407  39.7928184  65.6771646
 102.0126201  53.2557210  53.6657538 102.9456874  53.1902772  53.8690413
 101.9249414  54.0913477  53.2072070 104.6414218  52.5723080  50.6261485
 104.5627849  52.2382944  51.5197243 105.4623885  53.0644848  50.6252958
 107.3392409  45.4384820  63.8337804 107.3068729  44.5000820  64.0197488
 107.9493033  45.5168856  63.1003629 107.4886897  42.2295863  63.8796087
 106.9725946  41.4454320  63.6926016 108.3726846  41.9014580  64.0442606
 105.1497624  35.9736879  59.8391900 104.9522446  35.6651967  60.7235232
 105.7597330  36.6998518  59.9689830 113.1568959  46.5000827  62.9743841
 113.8872347  46.2386115  63.5351544 112.5475904  45.7629548  63.0145909
  88.2796597  43.5537212  60.2618939  87.9599382  42.7002521  59.9693313
  87.7330026  43.7685791  61.0176907  92.0576505  46.2699653  63.9788446
  92.2762515  47.2016761  63.9976480  92.4702279  45.9107628  64.7643250
 100.9071271  35.8545786  57.5888431 101.4602310  36.2741239  58.2478454
 101.1441357  34.9281534  57.6311387  96.9304370  41.8432859  73.3691195
  96.8301097  42.7927216  73.3003286  96.7125912  41.5151098  72.4967265
  88.1484857  47.1740124  62.2312061  87.4548329  46.7594077  61.7182015
  88.8957848  47.2160660  61.6345480 104.2850078  37.9646311  57.0967095
 103.7048747  38.6231115  56.7145148 104.0186011  37.1423655  56.6854513
 102.7353644  37.3651368  59.2988416 103.2353423  37.4767903  58.4902734
 103.3789252  37.0612421  59.9389224  96.7935640  45.2729998  72.1856257
  96.3102722  46.0730358  72.3920146  96.8796579  45.2837943  71.2323701
  90.0621600  47.1058378  60.1078076  90.0392288  47.2046065  59.1559959
  90.3722236  47.9523529  60.4295242  92.7208978  49.1634533  64.2224690
  93.6752231  49.1318475  64.1554622  92.5221501  48.7025156  65.0374916
  93.3108360  47.7335649  66.7895488  94.1301249  48.2279727  66.8130325
  93.5845168  46.8167617  66.7613056 106.4189492  40.1492922  59.8677783
 107.1949882  40.6389375  60.1402400 105.6937626  40.5750976  60.3249652
 108.8562051  40.8620541  60.9251723 109.4506542  40.6216277  60.2145032
 108.9288635  40.1427672  61.5525260  91.0759207  54.7054152  61.2394888
  90.9413675  53.9454553  60.6732886  90.6591269  55.4295052  60.7723677
 102.2118170  49.8891076  50.2471464 102.9154020  50.0941078  50.8629119
 101.4880818  50.4567838  50.5120547 103.0415980  45.6400937  56.3673734
 102.9851181  46.0969488  55.5281366 103.5944322  44.8791622  56.1896576
 106.8520786  41.4290669  57.1923853 106.5957720  41.0287305  58.0232061
 106.2273654  42.1434463  57.0673992 111.1633124  44.1686742  59.6995145
 110.6032682  44.2379931  60.4726707 110.5576627  43.9927727  58.9794641
  94.2328332  55.6023469  61.4513331  94.1160717  56.5468902  61.3492021
  93.4120779  55.2997031  61.8399130 104.1204867  50.3273605  52.2969924
 104.9550471  49.8954803  52.1147398 103.9589210  50.1555619  53.2246818
 103.7750759  46.8305718  53.6626263 103.7199563  46.6649990  52.7214707
 103.1496814  47.5381751  53.8188453  88.5643274  42.0673783  67.4887685
  89.2102138  41.5572737  67.9774910  88.3560425  42.8042464  68.0631110
 101.0896666  49.1354630  72.9879826 101.9587826  49.3095282  72.6266461
 100.6103418  49.9549047  72.8655555  97.0136449  55.0082718  61.3279338
  96.0632080  55.0084579  61.2143710  97.3168935  54.2615452  60.8115373
 100.8999004  32.9256604  57.4957518 100.1331400  32.3715091  57.6414200
 101.3109709  32.9978473  58.3571670  92.9040765  39.2141400  71.5862699
  93.7672227  38.8578205  71.7966024  92.3306176  38.8755295  72.2738104
 112.7489142  60.8443256  62.3925100 113.3867552  60.7250003  61.6888440
 112.6309985  61.7924100  62.4513052 109.5578848  60.7970684  62.3286625
 109.2197360  60.6811749  61.4407160 110.4268617  60.3961849  62.3087631
 105.4165664  62.6506161  58.3183516 104.8530529  62.5596098  57.5499804
 105.3018059  61.8306065  58.7986008 110.0398631  61.9505536  68.2872831
 110.0287272  61.5558334  67.4153334 110.2019271  61.2171609  68.8806602
 102.9630096  64.1457352  61.1567736 103.7551388  63.8048177  60.7414036
 103.2026746  64.2552327  62.0769890 110.9965223  66.3177128  53.6297981
 110.3453203  66.9031209  53.2431995 111.7909586  66.8483323  53.6893018
 104.9220850  63.4066265  54.0285115 105.6951726  62.8595253  53.8897991
 105.2746249  64.2710515  54.2399577 106.7605893  64.7342648  67.2352015
 106.4695758  65.6388279  67.1198681 107.3962877  64.7759175  67.9496084
 107.6862099  62.1119496  63.8253374 108.2825672  61.8875519  63.1110337
 107.7437071  61.3704242  64.4278822 107.2587128  59.5658932  51.6603565
 107.5112648  59.0440453  50.8987028 106.3211687  59.4025077  51.7630249
 112.3030411  58.5694710  59.4678308 113.0893500  58.1514133  59.1168725
 112.5669115  59.4740802  59.6359957 112.4740488  64.0067560  54.1666965
 111.8386321  64.0802187  54.8787870 112.1437894  64.5961159  53.4886044
 117.7038838  58.5069943  60.3711287 118.4364010  57.9369160  60.6049116
 116.9478193  58.1191544  60.8117792 106.9783416  61.4687038  53.8627940
 106.8619675  60.7931941  54.5309024 107.0885676  60.9819411  53.0460093
 109.3214957  60.9297185  57.5674629 108.9573165  60.4027806  58.2787551
 110.1782073  60.5395654  57.3941115 115.2264258  52.2191517  64.8305895
 114.8947583  53.0886928  64.6067110 114.6309871  51.9027801  65.5099926
 108.9620444  55.9587084  52.5635978 109.1294847  56.8267321  52.9306449
 108.7717613  56.1214366  51.6397267 111.7195778  64.4204063  64.2301808
 111.4196501  65.3229102  64.1217615 111.3746837  64.1536246  65.0822961
 105.1708259  60.8717860  60.2638513 104.2458756  60.7394074  60.4716204
 105.4192672  61.6512079  60.7608455 115.1192921  56.9386603  61.9099246
 114.2109799  56.8702012  61.6158006 115.0680517  57.4158548  62.7381071
 108.9409665  58.4144742  53.5482645 108.8209290  58.8601793  54.3868125
 108.2462254  58.7630060  52.9896183 102.5317070  60.5151134  61.0982302
 102.6609451  60.7685613  62.0121713 101.8514521  61.1078842  60.7786957
 106.7016557  71.1848384  57.1972776 106.6240587  72.1356209  57.2761256
 106.0978201  70.8394256  57.8547702 109.1933787  58.3576249  69.8534143
 108.4167121  58.9170169  69.8437007 109.8324350  58.8433032  70.3749013
 116.9854568  55.1403042  63.6877119 116.3428948  55.4335575  63.0416914
 116.4809496  55.0255962  64.4930316 114.6394731  58.8866215  54.3762979
 115.5512588  59.1193602  54.2010676 114.1304379  59.4703259  53.8138057
 107.4480159  61.1661702  69.4152110 108.1894844  61.7046746  69.1386933
 106.7417145  61.7927991  69.5723662 112.9235499  63.3090843  68.0124271
 113.3318855  62.8673253  67.2678904 112.2012761  62.7343470  68.2658464
 109.2766569  58.2463450  65.3857828 110.1227764  58.6702863  65.5292477
 109.2165207  57.5897074  66.0796391 113.2464314  63.8692033  61.7676560
 112.6173176  64.0337748  61.0652628 112.8589976  64.2833643  62.5387524
 117.1253546  64.8046471  59.1220924 116.4404584  65.1845373  58.5717957
 117.2097395  65.4141798  59.8552872 112.4266014  55.9067818  67.0439002
 112.1826946  56.6609879  66.5073278 112.7025945  56.2853166  67.8786249
 114.3804477  62.4506430  65.7216267 114.5921372  63.0938190  65.0450649
 114.3334225  61.6168747  65.2538198 111.9830706  55.0624251  62.6252840
 111.1215185  55.3605505  62.9169577 112.0093141  55.2794650  61.6933872
 108.7992276  63.6066442  59.0326645 109.2630621  63.8854145  58.2431268
 108.5349074  62.7049886  58.8499736 105.6916357  63.1537923  61.9706409
 106.2617714  63.5825191  61.3323893 106.2824469  62.8720508  62.6690594
 107.7361162  59.7289594  55.8416210 108.4385205  60.1810638  56.3090137
 107.4041790  59.0873413  56.4696104 106.1841523  58.3201351  70.2167420
 105.5540184  59.0017631  70.4502817 106.0777611  58.2084432  69.2720558
 101.4786496  57.9873147  61.1433344 100.6885550  58.2430675  60.6673455
 101.9697743  58.8021484  61.2485385 115.4950305  65.3278386  63.8938625
 116.3167749  64.9258573  63.6121306 115.4912708  65.2246620  64.8454741
 103.4301241  58.3517726  58.1016821 102.6332404  58.4636420  58.6200316
 103.2026833  58.6904378  57.2357711 109.2606909  64.8762429  66.0499335
 109.3251341  65.3382836  66.8857507 108.5517833  64.2459794  66.1781645
  99.7624199  58.2403637  63.5748335 100.0132237  59.1250647  63.8405911
 100.2983747  58.0608239  62.8023427 108.9754926  66.5430537  55.9178316
 108.8400601  67.3882072  56.3463163 109.5164739  66.7449814  55.1544249
 105.4622266  52.6222116  72.5792671 105.0689212  52.0688315  73.2540315
 106.2788406  52.9332695  72.9699188 102.4284324  64.0605975  56.4906241
 102.9408844  64.8549225  56.6411805 103.0807037  63.3632265  56.4239842
 104.2379208  67.1771731  58.5728994 104.4145837  68.0989696  58.3849978
 105.0336042  66.8630150  59.0023374 108.3790227  54.0379995  70.1712927
 109.1199940  54.6387149  70.0917390 108.6108150  53.2957633  69.6130970
 103.5231565  59.2236363  68.4491157 103.4085080  58.3221620  68.7498256
 102.6676083  59.4700060  68.0975974 110.6023403  67.1654103  70.0478658
 110.1587257  66.3790482  69.7299562 111.2640616  67.3533254  69.3822548
 105.3610524  68.6949905  64.5739336 105.9117949  68.5666968  63.8016330
 104.5222000  68.9944794  64.2234229 112.7004641  67.4456903  68.0760059
 112.6823116  68.2665784  67.5840328 113.6224561  67.3210978  68.3010200
 109.1577695  64.9601032  68.9183567 109.6906032  64.1989321  68.6882875
 108.6291776  64.6674684  69.6607722 112.3247390  50.0661098  64.4477209
 111.9811659  50.9562740  64.3716320 112.6926352  49.8762756  63.5846794
 100.3933240  62.3894629  57.2665811 101.2308462  62.7991637  57.0499519
 100.5711508  61.4494071  57.2366005 112.2897673  60.0569710  52.9549644
 111.7744296  60.8274314  53.1938032 112.0174981  59.3834846  53.5782706
 109.8744784  54.9019410  58.0134883 109.0186380  54.5126261  57.8340521
 110.2871735  54.9811371  57.1534668 111.4043930  52.4365754  62.4126442
 110.9008726  52.3995889  61.5994248 111.6974537  53.3458496  62.4723099
 107.6486816  52.5204483  61.4192624 108.5139813  52.3247292  61.0598514
 107.7164325  52.2914835  62.3461981 117.2631947  62.8102064  54.8902818
 116.4861389  62.4713224  54.4457980 117.9423428  62.8154687  54.2157783
 112.0783976  57.9296802  54.7809425 111.7734111  58.2442951  55.6319569
 113.0314418  58.0078222  54.8236758 110.5230408  64.0887025  56.4302379
 109.9951769  63.3539785  56.1175617 110.0217910  64.8661701  56.1842348
 115.5023254  62.2836045  61.5469426 114.8446928  62.9735307  61.6349554
 116.3063653  62.6732477  61.8903412 105.2549135  54.7506691  58.7908991
 105.8292887  54.5281873  58.0582184 105.8420118  54.8195386  59.5437592
 114.3128712  60.6380418  59.5973367 114.8260594  61.2710410  60.0995077
 114.9629936  60.0381614  59.2316727 105.5818722  56.7811152  52.8104876
 104.7456035  57.1185839  53.1314151 105.4423492  56.6460132  51.8732013
 107.5571803  51.6247940  57.5184060 106.9036215  51.3096957  56.8940675
 107.5152277  51.0023681  58.2443883 108.6683008  61.9067235  49.4337352
 107.7610070  61.6756489  49.6328501 109.1654040  61.1104854  49.6211334
 111.5751087  70.6164742  52.3534039 110.9012785  70.9196439  52.9618996
 111.9616909  71.4193823  52.0039496 110.7909543  58.1129874  61.8431708
 109.8732105  58.3344821  61.6853396 111.2069687  58.1876184  60.9843415
 111.5744591  59.5121289  56.9734388 112.3216410  60.0242687  56.6641510
 111.8436181  59.1905342  57.8338782 109.8471241  62.0079830  53.9561342
 108.9382460  61.7238863  54.0533812 109.8766325  62.4278909  53.0964649
 115.0790509  65.6186420  57.7252510 114.6252836  64.7777329  57.7817701
 114.4484475  66.2547818  58.0627290 114.0223428  56.5478406  58.9553177
 113.2846185  56.0355792  59.2863420 114.2750202  56.1078787  58.1436454
 113.5223448  67.4562916  58.6602328 113.8146422  68.0167973  57.9414694
 114.0322068  67.7491477  59.4155487 114.1235056  49.3254658  59.5494947
 114.4293932  48.4652021  59.2620862 114.8487660  49.9172278  59.3493941
 100.4159412  59.7285344  57.9376545 100.2183811  59.1354705  57.2127611
  99.8606076  59.4237554  58.6552483 108.3956135  59.6208451  60.0571138
 108.4504745  58.6682287  59.9813614 107.5847337  59.7767890  60.5412436
 109.5447329  63.5488574  51.2949421 109.1066759  62.8324433  50.8355058
 110.2857770  63.7764689  50.7334512 106.3348495  58.2385510  57.8161517
 105.5216361  58.5379681  58.2226709 106.8307489  57.8441199  58.5335999
 108.4857073  68.2343267  59.7495781 108.4433252  68.4604114  58.8204313
 109.4019772  68.0006642  59.8981583 111.9322707  58.7027335  66.6476411
 112.2872095  58.9298808  67.5070876 112.5794838  59.0345712  66.0253666
 117.6620444  61.8245771  57.3525740 117.5238342  62.0147367  56.4246929
 117.3056663  62.5865154  57.8093791 105.8262570  55.8103866  63.4322752
 106.4661949  55.6692625  62.7345715 104.9940100  55.5238379  63.0561354
 117.6889823  63.8922298  62.3637011 118.1226330  63.7997587  63.2120065
 118.4021404  63.8679798  61.7257027 106.6022874  65.1106296  59.5457744
 107.3963472  64.6156617  59.3440319 105.8914566  64.5824160  59.1825450
 111.4217718  67.4924392  63.8970112 111.4754741  68.0615328  64.6647828
 110.5532500  67.6626277  63.5324149 102.9105637  59.2549378  55.6217497
 101.9803225  59.1933834  55.8387459 103.0063109  58.7325331  54.8254138
 102.8291186  55.7804191  58.2095738 103.0898004  56.6949524  58.1004899
 103.6508359  55.3128634  58.3592351 104.3016112  57.1941948  65.3794563
 104.9739165  56.9859310  64.7307212 103.4745898  56.9964034  64.9399795
 118.5505373  63.9345998  64.8969897 118.7441263  64.8391809  65.1429171
 118.4505991  63.4753418  65.7308482 110.2041684  53.8203889  67.3960224
 109.5569599  54.5193839  67.3024700 110.9742699  54.2540033  67.7636472
 113.6120482  64.0852741  70.4710777 113.4605988  63.8563293  69.5540861
 113.6025161  65.0423343  70.4842122 110.3805818  61.6584654  65.4557044
 111.3097878  61.8095814  65.2826011 109.9596848  61.7468675  64.6005690
 109.1794150  65.6835318  63.2255581 109.0405236  65.3154103  64.0981519
 108.3908746  66.1982958  63.0539539 109.7742302  70.7844415  54.5681118
 109.9494058  70.3132458  55.3826740 109.0875090  71.4110181  54.7962378
 110.7299365  65.0616921  60.6144419 110.3949198  65.0217691  61.5102069
 110.2303311  64.3961637  60.1414829 104.7043609  60.4684551  66.1397000
 104.5663407  59.7364790  66.7408539 105.6148532  60.3793451  65.8581188
 113.6658557  62.4072955  50.8881479 113.0487727  61.6819784  50.7914531
 113.1975045  63.1682316  50.5448553 107.3325910  60.1804510  65.6280680
 108.0425528  59.5397703  65.5867298 107.2895218  60.4317405  66.5506861
 115.3212688  67.1171864  68.5487259 115.2625234  66.4331084  67.8817842
 115.7232207  67.8590854  68.0967885 106.0454844  57.1669728  67.4476319
 105.5092201  56.7160467  68.0997916 105.4571552  57.3015637  66.7046784
 104.3403387  73.9333778  61.3420978 104.5799985  74.5652302  62.0199996
 103.4972584  73.5821818  61.6286337 105.4557103  56.6258380  50.0102783
 104.5786569  56.5047180  49.6465030 105.9314856  55.8344458  49.7581672
 115.3230096  65.0811448  66.7801239 114.4356874  64.7437369  66.9027638
 115.8928647  64.3494479  67.0170004  96.9759243  61.4135539  60.1044290
  97.6630283  61.0997269  59.5165305  96.8207371  62.3176904  59.8311541
 101.7793965  56.3025736  64.5329314 101.6952154  55.6951406  63.7979724
 100.9576671  56.7934754  64.5338810 108.8531249  69.7412900  63.7462482
 108.7801420  70.5467872  64.2581786 108.4108642  69.9404866  62.9210503
 108.6421029  68.9784670  57.2565303 107.8588550  69.5206350  57.3503528
 109.3413774  69.4958650  57.6559545 111.9517679  54.7879300  59.8999509
 112.4486378  54.0349262  59.5800579 111.1804660  54.8243616  59.3342718
 119.8047436  60.4919665  61.5417800 119.7937312  61.3744380  61.1711733
 118.9364816  60.1391216  61.3472337 111.3129932  69.6399734  65.9020641
 112.0257905  70.2747199  65.8296542 110.8219961  69.7363600  65.0860642
 113.0347459  63.5450987  57.4737932 112.1003738  63.6652449  57.3042637
 113.2124128  62.6423454  57.2097942 108.5352647  56.9296683  59.6271193
 108.1650435  56.3767723  60.3152099 109.0311740  56.3254816  59.0746193
 116.4220011  59.3868306  58.0087966 116.8880463  60.2196298  57.9348269
 116.8727511  58.9213288  58.7133225 106.3641846  67.3894178  66.7226211
 107.0651306  68.0230660  66.8755606 105.8936961  67.7308909  65.9621851
 114.4896242  65.7312127  55.0074118 114.7656086  65.6168722  55.9167992
 113.6200741  65.3329612  54.9686291 114.3936673  51.7548893  62.0478868
 113.4799753  51.9853120  62.2161075 114.8229775  51.8387337  62.8992900
 114.1643132  59.9438785  64.5478762 113.5114582  60.1914692  63.8931214
 114.5423512  59.1302923  64.2141239 111.1250306  69.9798478  58.6506932
 111.3072700  69.1620134  59.1134684 111.9483292  70.1966170  58.2131822
 111.4592471  68.9066663  55.9121981 111.9880238  68.3959118  55.2992143
 111.7220691  68.5909193  56.7767514 110.2130705  60.6858596  71.0344799
 109.5371342  60.5852725  71.7047174 111.0358339  60.5297810  71.4980796
 101.9609564  66.9230533  63.6557314 102.5463001  66.1774220  63.7885218
 101.7634403  67.2334489  64.5393978 104.8148219  69.9581780  58.6719756
 104.1458595  70.4427908  58.1883796 104.6761089  70.2051000  59.5863135
  96.5527219  59.4936133  62.3761757  96.5911318  58.9599723  63.1698875
  96.0467512  58.9671338  61.7572734 108.9553488  71.9925523  65.2702415
 109.5071796  72.1557145  66.0351500 109.2959681  72.5829961  64.5982440
 103.9317981  54.3400673  65.8724299 103.9959308  55.2015504  65.4601697
 103.8685101  53.7274675  65.1396658 103.4070254  56.4123806  69.5197334
 104.0342292  56.0300883  70.1334858 102.5498172  56.1938008  69.8853026
 113.8064362  66.8186781  71.1251069 114.3504266  67.4316739  70.6306024
 113.2251207  67.3766359  71.6418082 100.1835796  58.2200235  55.4515689
 100.4789237  57.3110913  55.3982742  99.2823832  58.1987974  55.1296691
 112.0921875  69.9407499  62.2566097 111.9673015  69.1397239  61.7477042
 112.7500966  70.4353692  61.7680067 103.7130043  56.2956232  61.4343237
 102.9916629  56.9092199  61.2950710 104.5023299  56.8313996  61.3559883
 114.1556784  67.7416519  63.8845647 113.2087119  67.6221870  63.8123974
 114.5039557  66.8539017  63.9671908 106.5156357  53.6310658  67.7083889
 107.0390759  53.8772955  68.4710198 106.2968690  54.4630693  67.2887026
 101.9123638  55.9014333  55.5755014 101.5836344  55.0211712  55.3930120
 102.2663009  55.8462001  56.4631403 111.1603217  67.5369235  60.0849999
 111.0128179  66.6085943  60.2657569 111.9856710  67.5589326  59.6007075
 105.0265461  56.1887302  55.9430491 105.3661534  56.7173224  55.2209100
 105.4737582  56.5267709  56.7189058 114.7637339  68.3597794  61.1714872
 115.6883886  68.1540655  61.0339323 114.5952642  68.1114195  62.0804214
 107.7208902  54.5724353  65.3933559 107.3805722  53.7732166  65.7954239
 107.0147908  54.8726064  64.8210393 108.3725374  51.6573666  63.8460882
 109.1951443  51.1834144  63.7239773 108.6163437  52.4364149  64.3459569
 107.0133608  54.6861924  54.1423784 107.7341971  55.0643177  53.6387501
 106.3898912  55.4050801  54.2458762 111.1564731  55.3907073  55.0782117
 111.3728346  56.2731711  54.7770945 110.6758798  54.9993286  54.3487759
 105.8963953  58.3492786  61.6552861 105.7508533  58.6633089  62.5477143
 105.4189156  58.9677687  61.1023760 107.7560335  55.3395334  61.7033751
 107.7421904  54.4436427  61.3666049 108.4732764  55.3465998  62.3372037
 109.6086466  55.7732674  63.7486878 109.3504244  56.6949745  63.7471209
 109.0771507  55.3763109  64.4387342 114.5532655  68.8783461  56.5276963
 114.7269532  68.3129884  55.7750816 115.0461546  69.6784356  56.3456453
 100.3709615  60.8898131  64.5940522  99.8263083  61.6657939  64.7260797
 101.2488965  61.2368935  64.4359644 107.1597231  54.2209714  56.9721321
 107.2813143  53.2926361  57.1712208 106.8699274  54.2348400  56.0599636
 110.0288422  51.9064625  60.1088041 110.0510119  51.9703958  59.1540020
 110.4456481  51.0669134  60.3028547 120.4072046  61.6419884  58.1467263
 120.8503192  60.8927210  57.7486386 119.5298556  61.6330021  57.7640995
 115.5407827  68.1950226  53.6273862 116.2358732  68.8156919  53.8461176
 115.8830978  67.3445577  53.9026240 101.1575637  60.0168027  67.4870679
 100.4157373  60.1650662  68.0735310 100.8368381  60.2776292  66.6237429
 117.4399251  65.6449931  55.1561193 117.9650575  65.9837204  54.4310513
 117.3521603  64.7096947  54.9724327 109.1019299  69.5584005  67.2851069
 109.4106426  69.3133152  68.1573769 109.8994781  69.7630644  66.7969939
 109.1239911  71.7121915  59.5156446 108.6844902  71.2198293  60.2089302
 109.8748028  71.1694882  59.2748521 101.6032250  67.9033456  59.5181074
 102.4290270  67.6037227  59.1379717 101.2526302  67.1341078  59.9670862
 106.5713783  67.2559924  61.5878747 105.9493793  66.5930629  61.2880975
 107.2418650  67.2821056  60.9052395  99.8040855  65.8219782  60.4770007
  98.9672764  65.3941956  60.2954009  99.7764501  66.0152225  61.4140799
 106.6438311  55.7341712  71.1811253 106.6926466  56.6103835  70.7989023
 107.1860825  55.1919105  70.6082897 117.1293157  66.2782835  70.4612390
 116.3388700  66.2606974  69.9216890 116.8926511  66.8171129  71.2161427
 117.2491032  63.1275301  67.7745119 117.2989037  62.9625309  68.7160642
 117.1404955  62.2602560  67.3843000 106.1327290  65.8063847  55.0637208
 106.2815411  66.4899312  54.4103881 106.9393734  65.7868937  55.5786664
 114.5394794  59.1106229  69.0904426 115.4404657  58.9712694  68.7988424
 114.6142769  59.2760684  70.0302603 108.8737599  56.4873084  67.9357612
 108.0040909  56.7806650  67.6640201 109.1097080  57.0713529  68.6564876
 118.7509228  65.5472243  68.0187141 118.4594037  65.9102224  68.8550602
 118.1381360  64.8339251  67.8400473 119.9504911  63.1125123  60.5389711
 120.7851802  63.5514927  60.7027271 120.0864040  62.6363776  59.7197957
 116.9996417  60.6704858  66.4867199 117.4750538  60.8632504  65.6786050
 116.0761982  60.7264043  66.2410582 103.8879923  61.8329025  56.0698277
 103.6425965  60.9291355  56.2678487 104.0575838  61.8346175  55.1277755
 111.5776633  52.7052701  65.4523032 112.0958577  53.4413728  65.1269521
 111.2231766  53.0116694  66.2869792 103.1575571  57.5657382  53.5684438
 102.4644816  57.6401737  52.9124474 102.9127323  56.8017726  54.0905955
 111.8289227  49.1252984  60.9723929 112.1090981  48.4576173  61.5984356
 112.6139834  49.3182079  60.4598593 109.6322696  68.3011978  52.5348955
 109.0596663  68.9202165  52.0819427 110.2055490  68.8511339  53.0688877
 115.6998086  57.5470618  64.7195504 116.6515509  57.6468715  64.7407728
 115.5301536  56.7548886  65.2293589 113.7212465  54.6326201  64.9054905
 113.1262397  54.9131214  64.2101394 113.4362162  55.1220102  65.6771646
 112.8519956  68.5849128  53.6657538 113.7850629  68.5194689  53.8690413
 112.7643168  69.4205395  53.2072070 115.4807972  67.9014998  50.6261485
 115.4021604  67.5674862  51.5197243 116.3017639  68.3936766  50.6252958
 118.1786163  60.7676737  63.8337804 118.1462484  59.8292738  64.0197488
 118.7886787  60.8460774  63.1003629 110.0169494  59.6372790  49.8765008
 110.9628599  59.5078998  49.9453426 109.6383739  58.8987452  50.3534436
 118.3280652  57.5587781  63.8796087 117.8119701  56.7746237  63.6926016
 119.2120600  57.2306497  64.0442606 115.9891379  51.3028796  59.8391900
 115.7916200  50.9943885  60.7235232 116.5991084  52.0290435  59.9689830
 109.9008187  63.6890536  71.3365665 110.8211196  63.8669135  71.5305711
 109.8657770  62.7446582  71.1845364 108.2012411  57.5622767  49.8119893
 107.2943867  57.2655879  49.8882607 108.4788393  57.2652585  48.9454179
  99.1190352  58.8829130  60.2618939  98.7993136  58.0294438  59.9693313
  98.5723780  59.0977708  61.0176907 102.8970259  61.5991571  63.9788446
 103.1156269  62.5308679  63.9976480 103.3096033  61.2399546  64.7643250
 109.8174477  52.1059656  55.9664134 109.0075206  51.7606741  56.3419380
 110.5058894  51.7967200  56.5551746 111.7465026  51.1837703  57.5888431
 112.2996064  51.6033157  58.2478454 111.9835112  50.2573451  57.6311387
 107.7698125  57.1724777  73.3691195 107.6694852  58.1219134  73.3003286
 107.5519667  56.8443016  72.4967265 106.9711196  54.4209702  49.9531872
 107.8330360  54.7464600  50.2127690 107.1561540  53.6341198  49.4404938
  98.9878612  62.5032042  62.2312061  98.2942083  62.0885994  61.7182015
  99.7351603  62.5452578  61.6345480 115.1243833  53.2938228  57.0967095
 114.5442502  53.9523032  56.7145148 114.8579765  52.4715573  56.6854513
 113.5747399  52.6943286  59.2988416 114.0747177  52.8059821  58.4902734
 114.2183007  52.3904339  59.9389224 107.6329395  60.6021916  72.1856257
 107.1496476  61.4022276  72.3920146 107.7190334  60.6129861  71.2323701
 100.9015354  62.4350295  60.1078076 100.8786043  62.5337983  59.1559959
 101.2115991  63.2815446  60.4295242 103.5602732  64.4926450  64.2224690
 104.5145986  64.4610393  64.1554622 103.3615256  64.0317074  65.0374916
 104.1502114  63.0627566  66.7895488 104.9695003  63.5571645  66.8130325
 104.4238922  62.1459535  66.7613056 113.9068711  55.4538319  56.1523444
 113.0194566  55.7387969  55.9343638 114.3222700  55.2932082  55.3050720
 117.2583247  55.4784840  59.8677783 118.0343637  55.9681292  60.1402400
 116.5331381  55.9042894  60.3249652 119.6955805  56.1912459  60.9251723
 120.2900296  55.9508195  60.2145032 119.7682389  55.4719590  61.5525260
 101.9152961  70.0346070  61.2394888 101.7807429  69.2746471  60.6732886
 101.4985023  70.7586970  60.7723677 113.0511924  65.2182993  50.2471464
 113.7547774  65.4232996  50.8629119 112.3274573  65.7859755  50.5120547
 113.8809734  60.9692855  56.3673734 113.8244936  61.4261406  55.5281366
 114.4338077  60.2083539  56.1896576 117.6914540  56.7582587  57.1923853
 117.4351475  56.3579222  58.0232061 117.0667408  57.4726381  57.0673992
 105.0722087  70.9315387  61.4513331 104.9554471  71.8760819  61.3492021
 104.2514533  70.6288948  61.8399130 114.9598621  65.6565523  52.2969924
 115.7944225  65.2246721  52.1147398 114.7982964  65.4847536  53.2246818
 114.6144514  62.1597636  53.6626263 114.5593317  61.9941907  52.7214707
 113.9890569  62.8673669  53.8188453  99.4037029  57.3965700  67.4887685
 100.0495892  56.8864654  67.9774910  99.1954180  58.1334382  68.0631110
 111.9290421  64.4646548  72.9879826 112.7981580  64.6387200  72.6266461
 111.4497172  65.2840965  72.8655555 107.9240639  51.6605745  53.2411581
 107.9119309  52.6047585  53.3979852 108.8164061  51.4775890  52.9471042
 106.0976601  71.5843649  64.6669259 107.0003848  71.6167259  64.9835754
 105.8713971  70.6544100  64.6815595 107.8530203  70.3374635  61.3279338
 106.9025834  70.3376497  61.2143710 108.1562689  69.5907370  60.8115373
 111.7392759  48.2548522  57.4957518 110.9725154  47.7007008  57.6414200
 112.1503464  48.3270390  58.3571670 103.7434520  54.5433317  71.5862699
 104.6065981  54.1870122  71.7966024 103.1699930  54.2047212  72.2738104
 120.3972603  76.1262602  62.3286625 120.0591114  76.0103667  61.4407160
 121.2662371  75.7253767  62.3087631 116.2559419  77.9798078  58.3183516
 115.6924284  77.8888015  57.5499804 116.1411814  77.1597983  58.7986008
 120.8792386  77.2797454  68.2872831 120.8681027  76.8850252  67.4153334
 121.0413025  76.5463526  68.8806602 113.8023850  79.4749270  61.1567736
 114.5945142  79.1340095  60.7414036 114.0420501  79.5844245  62.0769890
 115.7614604  78.7358183  54.0285115 116.5345480  78.1887170  53.8897991
 116.1140003  79.6002432  54.2399577 117.5999647  80.0634565  67.2352015
 117.3089513  80.9680196  67.1198681 118.2356631  80.1051093  67.9496084
 118.5255854  77.4411414  63.8253374 119.1219426  77.2167436  63.1110337
 118.5830825  76.6996159  64.4278822 118.0980882  74.8950849  51.6603565
 118.3506403  74.3732371  50.8987028 117.1605441  74.7316995  51.7630249
 117.8177171  76.7978955  53.8627940 117.7013429  76.1223859  54.5309024
 117.9279431  76.3111329  53.0460093 120.1608712  76.2589102  57.5674629
 119.7966919  75.7319723  58.2787551 121.0175828  75.8687571  57.3941115
 119.8014199  71.2879002  52.5635978 119.9688601  72.1559238  52.9306449
 119.6111368  71.4506284  51.6397267 116.0102014  76.2009778  60.2638513
 115.0852510  76.0685992  60.4716204 116.2586427  76.9803997  60.7608455
 119.7803420  73.7436660  53.5482645 119.6603045  74.1893710  54.3868125
 119.0856008  74.0921977  52.9896183 113.3710825  75.8443051  61.0982302
 113.5003206  76.0977530  62.0121713 112.6908276  76.4370759  60.7786957
 117.5410312  86.5140301  57.1972776 117.4634342  87.4648126  57.2761256
 116.9371955  86.1686174  57.8547702 120.0327542  73.6868167  69.8534143
 119.2560876  74.2462087  69.8437007 120.6718105  74.1724950  70.3749013
 118.2873914  76.4953620  69.4152110 119.0288598  77.0338664  69.1386933
 117.5810899  77.1219909  69.5723662 120.1160324  73.5755367  65.3857828
 120.9621519  73.9994781  65.5292477 120.0558961  72.9188992  66.0796391
 119.6386030  78.9358359  59.0326645 120.1024376  79.2146062  58.2431268
 119.3742828  78.0341804  58.8499736 116.5310111  78.4829841  61.9706409
 117.1011468  78.9117109  61.3323893 117.1218223  78.2012425  62.6690594
 118.5754916  75.0581512  55.8416210 119.2778960  75.5102555  56.3090137
 118.2435545  74.4165330  56.4696104 117.0235278  73.6493268  70.2167420
 116.3933938  74.3309549  70.4502817 116.9171366  73.5376350  69.2720558
 112.3180250  73.3165064  61.1433344 111.5279304  73.5722593  60.6673455
 112.8091497  74.1313402  61.2485385 114.2694996  73.6809644  58.1016821
 113.4726159  73.7928338  58.6200316 114.0420588  74.0196296  57.2357711
 120.1000663  80.2054347  66.0499335 120.1645096  80.6674754  66.8857507
 119.3911587  79.5751712  66.1781645 110.6017953  73.5695555  63.5748335
 110.8525992  74.4542565  63.8405911 111.1377502  73.3900156  62.8023427
 119.8148681  81.8722454  55.9178316 119.6794356  82.7173990  56.3463163
 120.3558493  82.0741732  55.1544249 116.3016020  67.9514034  72.5792671
 115.9082966  67.3980233  73.2540315 117.1182161  68.2624613  72.9699188
 113.2678078  79.3897892  56.4906241 113.7802599  80.1841143  56.6411805
 113.9200791  78.6924183  56.4239842 115.0772963  82.5063649  58.5728994
 115.2539591  83.4281613  58.3849978 115.8729796  82.1922068  59.0023374
 119.2183981  69.3671913  70.1712927 119.9593695  69.9679066  70.0917390
 119.4501904  68.6249551  69.6130970 114.3625319  74.5528280  68.4491157
 114.2478835  73.6513538  68.7498256 113.5069837  74.7991977  68.0975974
 116.2004278  84.0241822  64.5739336 116.7511703  83.8958886  63.8016330
 115.3615754  84.3236711  64.2234229 119.9971449  80.2892950  68.9183567
 120.5299786  79.5281238  68.6882875 119.4685530  79.9966602  69.6607722
 111.2326995  77.7186547  57.2665811 112.0702217  78.1283555  57.0499519
 111.4105263  76.7785989  57.2366005 120.7138538  70.2311328  58.0134883
 119.8580134  69.8418178  57.8340521 121.1265490  70.3103289  57.1534668
 118.4880571  67.8496401  61.4192624 119.3533567  67.6539210  61.0598514
 118.5558080  67.6206753  62.3461981 121.3624162  79.4178943  56.4302379
 120.8345524  78.6831702  56.1175617 120.8611665  80.1953619  56.1842348
 116.0942890  70.0798609  58.7908991 116.6686642  69.8573790  58.0582184
 116.6813872  70.1487303  59.5437592 116.4212477  72.1103070  52.8104876
 115.5849789  72.4477756  53.1314151 116.2817246  71.9752050  51.8732013
 118.3965557  66.9539858  57.5184060 117.7429970  66.6388875  56.8940675
 118.3546032  66.3315598  58.2443883 119.5076762  77.2359153  49.4337352
 118.6003824  77.0048406  49.6328501 120.0047794  76.4396772  49.6211334
 120.6864996  77.3371748  53.9561342 119.7776215  77.0530781  54.0533812
 120.7160080  77.7570826  53.0964649 111.2553166  75.0577262  57.9376545
 111.0577566  74.4646623  57.2127611 110.6999830  74.7529472  58.6552483
 119.2349890  74.9500368  60.0571138 119.2898500  73.9974205  59.9813614
 118.4241092  75.1059807  60.5412436 120.3841084  78.8780491  51.2949421
 119.9460513  78.1616350  50.8355058 121.1251524  79.1056606  50.7334512
 117.1742250  73.5677428  57.8161517 116.3610115  73.8671599  58.2226709
 117.6701244  73.1733117  58.5335999 119.3250828  83.5635185  59.7495781
 119.2827006  83.7896031  58.8204313 120.2413526  83.3298560  59.8981583
 116.6656324  71.1395784  63.4322752 117.3055704  70.9984543  62.7345715
 115.8333855  70.8530297  63.0561354 117.4416628  80.4398214  59.5457744
 118.2357227  79.9448534  59.3440319 116.7308321  79.9116077  59.1825450
 113.7499392  74.5841296  55.6217497 112.8196980  74.5225751  55.8387459
 113.8456864  74.0617249  54.8254138 113.6684941  71.1096109  58.2095738
 113.9291758  72.0241442  58.1004899 114.4902113  70.6420551  58.3592351
 115.1409866  72.5233866  65.3794563 115.8132920  72.3151228  64.7307212
 114.3139653  72.3255952  64.9399795 120.0187904  81.0127236  63.2255581
 119.8798990  80.6446020  64.0981519 119.2302501  81.5274875  63.0539539
 120.6136056  86.1136332  54.5681118 120.7887812  85.6424376  55.3826740
 119.9268844  86.7402099  54.7962378 121.5693119  80.3908839  60.6144419
 121.2342952  80.3509609  61.5102069 121.0697065  79.7253555  60.1414829
 115.5437363  75.7976469  66.1397000 115.4057161  75.0656708  66.7408539
 116.4542287  75.7085369  65.8581188 118.1719664  75.5096428  65.6280680
 118.8819283  74.8689620  65.5867298 118.1288972  75.7609323  66.5506861
 116.8848598  72.4961646  67.4476319 116.3485955  72.0452384  68.0997916
 116.2965307  72.6307555  66.7046784 115.1797142  89.2625695  61.3420978
 115.4193740  89.8944219  62.0199996 114.3366338  88.9113735  61.6286337
 116.2950857  71.9550297  50.0102783 115.4180323  71.8339098  49.6465030
 116.7708610  71.1636376  49.7581672 107.8152997  76.7427457  60.1044290
 108.5024037  76.4289187  59.5165305 107.6601126  77.6468822  59.8311541
 112.6187719  71.6317654  64.5329314 112.5345908  71.0243323  63.7979724
 111.7970426  72.1226672  64.5338810 119.6925003  85.0704818  63.7462482
 119.6195175  85.8759789  64.2581786 119.2502397  85.2696784  62.9210503
 119.4814783  84.3076588  57.2565303 118.6982305  84.8498268  57.3503528
 120.1807528  84.8250567  57.6559545 119.3746402  72.2588600  59.6271193
 119.0044189  71.7059641  60.3152099 119.8705494  71.6546734  59.0746193
 117.2035601  82.7186095  66.7226211 117.9045060  83.3522578  66.8755606
 116.7330715  83.0600827  65.9621851 112.8003319  82.2522450  63.6557314
 113.3856755  81.5066138  63.7885218 112.6028157  82.5626407  64.5393978
 115.6541974  85.2873698  58.6719756 114.9852349  85.7719825  58.1883796
 115.5154843  85.5342918  59.5863135 107.3920973  74.8228050  62.3761757
 107.4305073  74.2891641  63.1698875 106.8861266  74.2963256  61.7572734
 119.7947242  87.3217441  65.2702415 120.3465550  87.4849063  66.0351500
 120.1353436  87.9121879  64.5982440 114.7711736  69.6692591  65.8724299
 114.8353062  70.5307422  65.4601697 114.7078856  69.0566593  65.1396658
 114.2464008  71.7415724  69.5197334 114.8736047  71.3592801  70.1334858
 113.3891927  71.5229925  69.8853026 111.0229551  73.5492153  55.4515689
 111.3182992  72.6402831  55.3982742 110.1217587  73.5279892  55.1296691
 114.5523798  71.6248149  61.4343237 113.8310384  72.2384117  61.2950710
 115.3417054  72.1605914  61.3559883 117.3550111  68.9602576  67.7083889
 117.8784513  69.2064872  68.4710198 117.1362445  69.7922610  67.2887026
 112.7517392  71.2306250  55.5755014 112.4230099  70.3503629  55.3930120
 113.1056763  71.1753919  56.4631403 115.8659216  71.5179220  55.9430491
 116.2055288  72.0465141  55.2209100 116.3131336  71.8559626  56.7189058
 118.5602656  69.9016271  65.3933559 118.2199477  69.1024084  65.7954239
 117.8541663  70.2017982  64.8210393 119.2119128  66.9865583  63.8460882
 120.0345198  66.5126061  63.7239773 119.4557192  67.7656067  64.3459569
 117.8527363  70.0153842  54.1423784 118.5735725  70.3935094  53.6387501
 117.2292667  70.7342718  54.2458762 116.7357707  73.6784704  61.6552861
 116.5902288  73.9925007  62.5477143 116.2582911  74.2969604  61.1023760
 118.5954090  70.6687252  61.7033751 118.5815659  69.7728345  61.3666049
 119.3126518  70.6757916  62.3372037 120.4480221  71.1024592  63.7486878
 120.1897998  72.0241663  63.7471209 119.9165261  70.7055027  64.4387342
 111.2103369  76.2190048  64.5940522 110.6656837  76.9949856  64.7260797
 112.0882719  76.5660853  64.4359644 117.9990986  69.5501632  56.9721321
 118.1206897  68.6218278  57.1712208 117.7093028  69.5640318  56.0599636
 120.8682176  67.2356543  60.1088041 120.8903873  67.2995876  59.1540020
 121.2850235  66.3961051  60.3028547 111.9969391  75.3459945  67.4870679
 111.2551127  75.4942580  68.0735310 111.6762135  75.6068210  66.6237429
 119.9413054  84.8875923  67.2851069 120.2500180  84.6425070  68.1573769
 120.7388536  85.0922561  66.7969939 119.9633666  87.0413832  59.5156446
 119.5238656  86.5490211  60.2089302 120.7141783  86.4986800  59.2748521
 112.4426005  83.2325373  59.5181074 113.2684025  82.9329145  59.1379717
 112.0920057  82.4632996  59.9670862 117.4107538  82.5851841  61.5878747
 116.7887547  81.9222546  61.2880975 118.0812405  82.6112973  60.9052395
 110.6434610  81.1511700  60.4770007 109.8066518  80.7233874  60.2954009
 110.6158255  81.3444143  61.4140799 117.4832065  71.0633629  71.1811253
 117.5320221  71.9395752  70.7989023 118.0254580  70.5211023  70.6082897
 116.9721045  81.1355765  55.0637208 117.1209165  81.8191229  54.4103881
 117.7787488  81.1160855  55.5786664 119.7131354  71.8165002  67.9357612
 118.8434663  72.1098568  67.6640201 119.9490834  72.4005447  68.6564876
 114.7273678  77.1620942  56.0698277 114.4819720  76.2583272  56.2678487
 114.8969592  77.1638093  55.1277755 113.9969325  72.8949300  53.5684438
 113.3038570  72.9693655  52.9124474 113.7521077  72.1309644  54.0905955
 120.4716450  83.6303895  52.5348955 119.8990417  84.2494082  52.0819427
 121.0449244  84.1803257  53.0688877 119.0406166  72.8914684  49.8119893
 118.1337621  72.5947797  49.8882607 119.3182147  72.5944502  48.9454179
 109.9584106  74.2121048  60.2618939 109.6386891  73.3586356  59.9693313
 109.4117535  74.4269626  61.0176907 113.7364014  76.9283489  63.9788446
 113.9550024  77.8600597  63.9976480 114.1489788  76.5691463  64.7643250
 120.6568232  67.4351574  55.9664134 119.8468960  67.0898659  56.3419380
 121.3452649  67.1259118  56.5551746 118.6091879  72.5016695  73.3691195
 118.5088606  73.4511052  73.3003286 118.3913421  72.1734933  72.4967265
 117.8104951  69.7501620  49.9531872 118.6724115  70.0756518  50.2127690
 117.9955295  68.9633116  49.4404938 109.8272366  77.8323959  62.2312061
 109.1335838  77.4177912  61.7182015 110.5745357  77.8744496  61.6345480
 118.4723149  75.9313833  72.1856257 117.9890231  76.7314194  72.3920146
 118.5584088  75.9421778  71.2323701 111.7409109  77.7642213  60.1078076
 111.7179797  77.8629900  59.1559959 112.0509745  78.6107364  60.4295242
 114.3996487  79.8218368  64.2224690 115.3539740  79.7902310  64.1554622
 114.2009010  79.3608992  65.0374916 114.9895869  78.3919484  66.7895488
 115.8088758  78.8863563  66.8130325 115.2632677  77.4751452  66.7613056
 112.7546716  85.3637988  61.2394888 112.6201183  84.6038388  60.6732886
 112.3378778  86.0878887  60.7723677 115.9115841  86.2607305  61.4513331
 115.7948226  87.2052737  61.3492021 115.0908288  85.9580866  61.8399130
 110.2430783  72.7257618  67.4887685 110.8889647  72.2156572  67.9774910
 110.0347934  73.4626300  68.0631110 118.7634394  66.9897663  53.2411581
 118.7513063  67.9339503  53.3979852 119.6557815  66.8067808  52.9471042
 116.9370356  86.9135567  64.6669259 117.8397602  86.9459177  64.9835754
 116.7107726  85.9836017  64.6815595 118.6923958  85.6666553  61.3279338
 117.7419589  85.6668415  61.2143710 118.9956444  84.9199288  60.8115373
 114.5828274  69.8725235  71.5862699 115.4459736  69.5162040  71.7966024
 114.0093685  69.5339130  72.2738104 118.6546752  92.0719375  60.1044290
 119.3417792  91.7581105  59.5165305 118.4994880  92.9760739  59.8311541
 118.2314728  90.1519968  62.3761757 118.2698827  89.6183559  63.1698875
 117.7255021  89.6255174  61.7572734 121.4828364  96.4803617  60.4770007
 120.6460273  96.0525792  60.2954009 121.4552010  96.6736061  61.4140799
 120.7977861  89.5412965  60.2618939 120.4780645  88.6878274  59.9693313
 120.2511289  89.7561544  61.0176907 120.6666121  93.1615877  62.2312061
 119.9729592  92.7469830  61.7182015 121.4139112  93.2036413  61.6345480
  74.1835295   2.2034753  43.9218083  74.1059325   3.1542578  44.0006563
  73.5796939   1.8580626  44.5793009  71.8222125   4.9520147  48.0666285
  72.0618723   5.5838671  48.7445303  70.9791321   4.6008187  48.3531644
  72.2966957   0.9768150  45.3965063  71.6277332   1.4614277  44.9129103
  72.1579827   1.2237370  46.3108442  76.4372226   3.0111893  51.9947721
  76.9890534   3.1743515  52.7596807  76.7778419   3.6016331  51.3227746
  69.3971699   1.0532439  47.9640195  69.2626167   0.2932840  47.3978193
  68.9803761   1.7773339  47.4968984  72.5540825   1.9501757  48.1758638
  72.4373209   2.8947189  48.0737328  71.7333271   1.6475318  48.5644437
  73.5795339   2.6030018  51.3914566  74.4822586   2.6353629  51.7081061
  73.3532709   1.6730469  51.4060902  87.8791341   7.1448971  49.0531932
  87.5409852   7.0290036  48.1652467  88.7481109   6.7440137  49.0332938
  83.7378156   8.9984448  45.0428823  83.1743021   8.9074385  44.2745110
  83.6230551   8.1784352  45.5231315  88.3611124   8.2983823  55.0118137
  88.3499764   7.9036621  54.1398641  88.5231763   7.5649896  55.6051909
  81.2842588  10.4935639  47.8813043  82.0763880  10.1526464  47.4659342
  81.5239238  10.6030615  48.8015196  89.3177715  12.6655416  40.3543288
  88.6665695  13.2509496  39.9677301  90.1122078  13.1961610  40.4138325
  83.2433342   9.7544553  40.7530422  84.0164218   9.2073540  40.6143298
  83.5958741  10.6188802  40.9644883  85.0818385  11.0820935  53.9597321
  84.7908251  11.9866566  53.8443987  85.7175369  11.1237463  54.6741391
  86.0074592   8.4597783  50.5498681  86.6038164   8.2353806  49.8355644
  86.0649563   7.7182529  51.1524129  90.7952980  10.3545847  40.8912272
  90.1598813  10.4280474  41.6033176  90.4650387  10.9439446  40.2131351
  85.2995909   7.8165325  40.5873247  85.1832167   7.1410228  41.2554331
  85.4098169   7.3297699  39.7705400  87.6427450   7.2775472  44.2919936
  87.2785657   6.7506093  45.0032857  88.4994566   6.8873941  44.1186421
  90.0408270  10.7682350  50.9547115  89.7408993  11.6707389  50.8462922
  89.6959329  10.5014534  51.8068268  83.4920751   7.2196147  46.9883819
  82.5671248   7.0872361  47.1961511  83.7405165   7.9990367  47.4853762
  80.8529562   6.8629421  47.8227608  80.9821944   7.1163900  48.7367020
  80.1727014   7.4557129  47.5032263  85.0229050  17.5326671  43.9218083
  84.9453079  18.4834496  44.0006563  84.4190693  17.1872543  44.5793009
  85.7692652   7.5139990  56.1397416  86.5107336   8.0525034  55.8632240
  85.0629637   8.1406278  56.2968968  91.2447991   9.6569130  54.7369578
  91.6531347   9.2151541  53.9924210  90.5225253   9.0821758  54.9903771
  91.5676806  10.2170321  48.4921867  90.9385668  10.3816035  47.7897935
  91.1802468  10.6311930  49.2632831  95.4466038  11.1524759  45.8466231
  94.7617076  11.5323660  45.2963264  95.5309887  11.7620085  46.5798178
  92.7016970   8.7984718  52.4461574  92.9133865   9.4416477  51.7695955
  92.6546718   7.9647034  51.9783504  87.1204768   9.9544729  45.7571952
  87.5843113  10.2332432  44.9676574  86.8561566   9.0528173  45.5745043
  84.0128849   9.5016210  48.6951715  84.5830206   9.9303479  48.0569200
  84.6036961   9.2198795  49.3935901  79.7998988   4.3351434  47.8678651
  79.0098042   4.5908962  47.3918761  80.2910235   5.1499772  47.9730691
  93.8162797  11.6756673  50.6183931  94.6380241  11.2736860  50.3366613
  93.8125200  11.5724907  51.5700047  81.7513733   4.6996013  44.8262127
  80.9544897   4.8114707  45.3445623  81.5239325   5.0382665  43.9603018
  87.5819401  11.2240716  52.7744642  87.6463833  11.6861124  53.6102814
  86.8730325  10.5938081  52.9026952  78.0836691   4.5881924  50.2993641
  78.3344729   5.4728934  50.5651217  78.6196239   4.4086526  49.5268733
  87.2967419  12.8908824  42.6423622  87.1613093  13.7360360  43.0708470
  87.8377231  13.0928101  41.8789556  80.7496816  10.4084262  43.2151547
  81.2621337  11.2027512  43.3657112  81.4019529   9.7110552  43.1485149
  82.5591701  13.5250018  45.2974301  82.7358329  14.4467983  45.1095284
  83.3548534  13.2108437  45.7268680  81.8444057   5.5714650  55.1736464
  81.7297572   4.6699907  55.4743563  80.9888575   5.8178347  54.8221280
  88.9235895  13.5132390  56.7723964  88.4799749  12.7268769  56.4544869
  89.5853109  13.7011541  56.1067855  83.6823016  15.0428192  51.2984643
  84.2330441  14.9145255  50.5261637  82.8434492  15.3423081  50.9479536
  91.0217133  13.7935190  54.8005366  91.0035608  14.6144071  54.3085635
  91.9437053  13.6689265  55.0255507  87.4790187  11.3079320  55.6428874
  88.0118524  10.5467608  55.4128182  86.9504268  11.0152972  56.3853028
  78.7145733   8.7372916  43.9911118  79.5520955   9.1469924  43.7744826
  78.8924000   7.7972358  43.9611312  88.8442900  10.4365312  43.1547686
  88.3164261   9.7018072  42.8420923  88.3430403  11.2139989  42.9087654
  93.8235746   8.6314333  48.2714732  93.1659420   9.3213594  48.3594861
  94.6276145   9.0210765  48.6148719  86.9895500   8.2545522  36.1582659
  86.0822562   8.0234776  36.3573808  87.4866532   7.4583142  36.3456641
  89.8963579  16.9643030  39.0779345  89.2225278  17.2674726  39.6864303
  90.2829401  17.7672110  38.7284802  88.1683734   8.3558117  40.6806649
  87.2594953   8.0717150  40.7779119  88.1978817   8.7757196  39.8209956
  93.4003001  11.9664707  44.4497817  92.9465328  11.1255617  44.5063007
  92.7696968  12.6026105  44.7872597  91.8435940  13.8041204  45.3847635
  92.1358915  14.3646261  44.6660000  92.3534561  14.0969765  46.1400794
  78.7371904   6.0763631  44.6621851  78.5396304   5.4832992  43.9372918
  78.1818568   5.7715842  45.3797790  87.8659821   9.8966861  38.0194728
  87.4279251   9.1802720  37.5600365  88.6070262  10.1242976  37.4579819
  86.8069565  14.5821555  46.4741088  86.7645744  14.8082401  45.5449620
  87.7232264  14.3484929  46.6226889  96.0102316  10.2400585  49.0882318
  96.4438822  10.1475874  49.9365372  96.7233896  10.2158086  48.4502334
  84.9235366  11.4584584  46.2703051  85.7175965  10.9634904  46.0685626
  84.2127059  10.9302447  45.9070756  89.7430211  13.8402679  50.6215418
  89.7967233  14.4093615  51.3893134  88.8744992  14.0104564  50.2569456
  81.2318130   5.6027665  42.3462803  80.3015718   5.5412121  42.5632766
  81.3275602   5.0803618  41.5499445  96.8717865  10.2824286  51.6215203
  97.0653755  11.1870096  51.8674478  96.7718483   9.8231705  52.4553788
  91.9332974  10.4331028  57.1956084  91.7818480  10.2041580  56.2786167
  91.9237653  11.3901630  57.2087429  88.7018310   8.0062941  52.1802350
  89.6310370   8.1574101  52.0071318  88.2809340   8.0946962  51.3250997
  87.5006642  12.0313606  49.9500888  87.3617728  11.6632390  50.8226826
  86.7121238  12.5461245  49.7784846  88.0954794  17.1322702  41.2926424
  88.2706550  16.6610745  42.1072047  87.4087582  17.7588468  41.5207685
  89.0511857  11.4095208  47.3389726  88.7161690  11.3695978  48.2347376
  88.5515803  10.7439924  46.8660136  83.0256101   6.8162838  52.8642307
  82.8875899   6.0843077  53.4653846  83.9361025   6.7271738  52.5826495
  91.9871049   8.7551243  37.6126785  91.3700220   8.0298071  37.5159838
  91.5187537   9.5160603  37.2693860  85.6538402   6.5282798  52.3525986
  86.3638020   5.8875990  52.3112605  85.6107710   6.7795692  53.2752167
  93.6425181  13.4650151  55.2732566  93.5837727  12.7809371  54.6063149
  94.0444699  14.2069141  54.8213192  82.6615879  20.2812065  48.0666285
  82.9012478  20.9130589  48.7445303  81.8185076  19.9300105  48.3531644
  93.6442588  11.4289735  53.5046545  92.7569367  11.0915657  53.6272944
  94.2141139  10.6972766  53.7415311  75.2971735   7.7613827  46.8289597
  75.9842775   7.4475557  46.2410612  75.1419864   8.6655191  46.5556848
  87.1743741  16.0891187  50.4707789  87.1013913  16.8946159  50.9827093
  86.7321134  16.2883153  49.6455810  86.9633521  15.3262957  43.9810610
  86.1801043  15.8684637  44.0748835  87.6626266  15.8436937  44.3804851
  89.6342425  15.9878021  52.6265947  90.3470397  16.6225486  52.5541849
  89.1432453  16.0841887  51.8105949  91.3559952   9.8929274  44.1983239
  90.4216230  10.0130736  44.0287943  91.5336620   8.9901741  43.9343249
  84.6854338  13.7372465  53.4471518  85.3863798  14.3708948  53.6000912
  84.2149453  14.0787196  52.6867157  92.8108734  12.0790415  41.7319425
  93.0868578  11.9647009  42.6413299  91.9413233  11.6807899  41.6931598
  89.4462798  16.3276765  45.3752239  89.6285193  15.5098421  45.8379991
  90.2695784  16.5444458  44.9377129  89.7804964  15.2544951  42.6367287
  90.3092730  14.7437405  42.0237449  90.0433183  14.9387481  43.5012820
  88.5343197   7.0336883  57.7590105  87.8583834   6.9331013  58.4292481
  89.3570831   6.8776097  58.2226103  80.2822056  13.2708820  50.3802621
  80.8675493  12.5252508  50.5130525  80.0846895  13.5812777  51.2639285
  83.1360712  16.3060067  45.3965063  82.4671087  16.7906195  44.9129103
  82.9973581  16.5529288  46.3108442  74.8739711   5.8414420  49.1007064
  74.9123811   5.3078011  49.8944182  74.3680004   5.3149626  48.4818041
  87.2765980  18.3403811  51.9947721  87.8284288  18.5035432  52.7596807
  87.6172174  18.9308249  51.3227746  92.1276854  13.1665068  57.8496376
  92.6716758  13.7795027  57.3551331  91.5463699  13.7244647  58.3663389
  78.5048289   4.5678522  42.1760995  78.8001730   3.6589201  42.1228049
  77.6036324   4.5466262  41.8541998  90.4134367  16.2885786  48.9811404
  90.2885507  15.4875526  48.4722349  91.0713459  16.7831980  48.4925374
  92.4769276  14.0894806  50.6090954  91.5299611  13.9700158  50.5369280
  92.8252049  13.2017304  50.6917215  89.4815709  13.8847523  46.8095306
  89.3340672  12.9564230  46.9902876  90.3069203  13.9067613  46.3252381
  93.0849831  14.7076081  47.8960179  94.0096378  14.5018943  47.7584630
  92.9165134  14.4592482  48.8049520  92.8745147  15.2261749  43.2522270
  93.0482025  14.6608171  42.4996123  93.3674038  16.0262644  43.0701760
  78.6922107   7.2376418  51.3185829  78.1475575   8.0136226  51.4506103
  79.5701457   7.5847222  51.1604950  93.8620320  14.5428513  40.3519168
  94.5571224  15.1635206  40.5706483  94.2043470  13.6923864  40.6271546
  79.4788129   6.3646314  54.2115986  78.7369865   6.5128949  54.7980616
  79.1580873   6.6254580  53.3482735  95.7611743  11.9928219  41.8806499
  96.2863067  12.3315491  41.1555819  95.6734095  11.0575234  41.6969634
  87.4231791  15.9062292  54.0096376  87.7318918  15.6611439  54.8819075
  88.2207274  16.1108931  53.5215246  87.4452404  18.0600202  46.2401752
  87.0057394  17.5676581  46.9334609  88.1960520  17.5173170  45.9993828
  79.9244743  14.2511743  46.2426380  80.7502762  13.9515515  45.8625024
  79.5738795  13.4819365  46.6916169  84.8926276  13.6038211  48.3124054
  84.2706285  12.9408916  48.0126282  85.5631143  13.6299343  47.6297702
  78.1253348  12.1698069  47.2015314  77.2885256  11.7420244  47.0199315
  78.0976993  12.3630513  48.1386105  95.4505649  12.6261122  57.1857697
  94.6601193  12.6085261  56.6462197  95.2139003  13.1649416  57.9406734
  84.4539783  12.1542134  41.7882515  84.6027903  12.8377599  41.1349187
  85.2606226  12.1347224  42.3031970  97.0721721  11.8950530  54.7432447
  96.7806529  12.2580511  55.5795908  96.4593852  11.1817538  54.5645779
  82.2092416   8.1807312  42.7943583  81.9638458   7.2769642  42.9923794
  82.3788330   8.1824462  41.8523061  87.9535188  14.6490265  39.2594262
  87.3809155  15.2680452  38.8064734  88.5267982  15.1989627  39.7934184
  91.1732448  14.9327415  40.3902844  92.1063121  14.8672977  40.5935720
  91.0855661  15.7683682  39.9317377  93.8020465  14.2493285  37.3506792
  93.7234096  13.9153149  38.2442550  94.6230131  14.7415053  37.3498264
  88.2220679  10.0368824  58.0610971  89.1423689  10.2147423  58.2551018
  88.1870262   9.0924869  57.9090671  77.4402844   5.2307417  46.9864246
  77.1205628   4.3772726  46.6938620  76.8936272   5.4455996  47.7422213
  81.2182752   7.9469858  50.7033753  81.4368761   8.8786966  50.7221786
  81.6308526   7.5877833  51.4888556  77.3091104   8.8510329  48.9557368
  76.6154576   8.4364282  48.4427322  78.0564095   8.8930865  48.3590787
  85.9541887   6.9500203  58.9101563  85.4708969   7.7500563  59.1165452
  86.0402826   6.9608148  57.9569007  79.2227847   8.7828583  46.8323383
  79.1998535   8.8816270  45.8805266  79.5328483   9.6293733  47.1540549
  81.8815225  10.8404738  50.9469997  82.8358478  10.8088680  50.8799929
  81.6827748  10.3795361  51.7620223  82.4714607   9.4105854  53.5140795
  83.2907496   9.9049932  53.5375632  82.7451414   8.4937822  53.4858362
  80.2365453  16.3824357  47.9640195  80.1019921  15.6224758  47.3978193
  79.8197516  17.1065257  47.4968984  91.3724416  11.5661281  36.9716770
  92.0760266  11.7711283  37.5874426  90.6487065  12.1338043  37.2365854
  83.3934579  17.2793674  48.1758638  83.2766963  18.2239107  48.0737328
  82.5727025  16.9767236  48.5644437  93.2811114  12.0043810  39.0215230
  94.1156718  11.5725008  38.8392705  93.1195457  11.8325824  39.9492125
  92.9357006   8.5075923  40.3871570  92.8805810   8.3420195  39.4460014
  92.3103061   9.2151956  40.5433759  77.7249521   3.7443988  54.2132992
  78.3708385   3.2342942  54.7020217  77.5166672   4.4812669  54.7876417
  90.2502913  10.8124835  59.7125132  91.1194073  10.9865487  59.3511767
  89.7709665  11.6319252  59.5900862  84.4189093  17.9321936  51.3914566
  85.3216340  17.9645546  51.7081061  84.1926463  17.0022387  51.4060902
  86.1742695  16.6852923  48.0524645  85.2238326  16.6854784  47.9389017
  86.4775182  15.9385657  47.5360679 101.9095389  22.5213461  49.1170407
 102.5473799  22.4020208  48.4133747 101.7916232  23.4694305  49.1758359
  98.7185095  22.4740889  49.0531932  98.3803607  22.3581954  48.1652467
  99.5874863  22.0732054  49.0332938  99.2004878  23.6275741  55.0118137
  99.1893519  23.2328539  54.1398641  99.3625518  22.8941813  55.6051909
  96.4193375  21.2429137  38.3848872  96.6718895  20.7210658  37.6232335
  95.4817934  21.0795282  38.4875555 101.4636657  20.2464915  46.1923615
 102.2499747  19.8284338  45.8414032 101.7275362  21.1511007  46.3605263
 101.6346735  25.6837765  40.8912272 100.9992568  25.7572392  41.6033176
 101.3044141  26.2731364  40.2131351 106.8645084  20.1840148  47.0956594
 107.5970256  19.6139365  47.3294423 106.1084440  19.7961749  47.5363099
  96.1389663  23.1457242  40.5873247  96.0225921  22.4702146  41.2554331
  96.2491923  22.6589616  39.7705400  98.4821204  22.6067390  44.2919936
  98.1179411  22.0798011  45.0032857  99.3388320  22.2165859  44.1186421
 104.3870505  13.8961722  51.5551202 104.0553830  14.7657133  51.3312417
 103.7916118  13.5798006  52.2345233  98.1226691  17.6357289  39.2881284
  98.2901094  18.5037526  39.6551756  97.9323860  17.7984571  38.3642574
 100.8802024  26.0974268  50.9547115 100.5802747  26.9999307  50.8462922
 100.5353084  25.8306451  51.8068268  94.3314506  22.5488065  46.9883819
  93.4065002  22.4164279  47.1961511  94.5798919  23.3282284  47.4853762
 104.2799168  18.6156808  48.6344552 103.3716045  18.5472217  48.3403313
 104.2286764  19.0928753  49.4626378  98.1015912  20.0914947  40.2727951
  97.9815537  20.5371998  41.1113432  97.4068500  20.4400264  39.7141489
  91.6923317  22.1921339  47.8227608  91.8215698  22.4455817  48.7367020
  91.0120768  22.7849047  47.5032263  98.3540034  20.0346454  56.5779449
  97.5773368  20.5940374  56.5682314  98.9930597  20.5203237  57.0994320
 106.1460815  16.8173247  50.4122426 105.5035195  17.1105780  49.7662221
 105.6415743  16.7026167  51.2175623 103.8000978  20.5636420  41.1008285
 104.7118834  20.7963807  40.9255983 103.2910625  21.1473464  40.5383364
  96.6086406  22.8431907  56.1397416  97.3501091  23.3816951  55.8632240
  95.9023392  23.4698196  56.2968968 102.0841746  24.9861048  54.7369578
 102.4925102  24.5443458  53.9924210 101.3619007  24.4113675  54.9903771
  98.4372816  19.9233655  52.1103135  99.2834011  20.3473068  52.2537784
  98.3771454  19.2667279  52.8041698 102.4070561  25.5462238  48.4921867
 101.7779423  25.7107953  47.7897935 102.0196223  25.9603848  49.2632831
 106.2859792  26.4816676  45.8466231 105.6010831  26.8615578  45.2963264
 106.3703642  27.0912003  46.5798178 101.5872261  17.5838023  53.7684309
 101.3433193  18.3380083  53.2318584 101.8632192  17.9623370  54.6031556
 103.5410724  24.1276635  52.4461574 103.7527619  24.7708395  51.7695955
 103.4940472  23.2938952  51.9783504 101.1436953  16.7394456  49.3498146
 100.2821432  17.0375709  49.6414884 101.1699388  16.9564855  48.4179179
  96.8967408  21.4059799  42.5661517  97.5991452  21.8580843  43.0335443
  96.5648037  20.7643618  43.1941410  95.3447770  19.9971555  56.9412726
  94.7146431  20.6787836  57.1748123  95.2383858  19.8854637  55.9965865
  90.6392742  19.6643352  47.8678651  89.8491796  19.9200880  47.3918761
  91.1303990  20.4791689  47.9730691 104.6556552  27.0048591  50.6183931
 105.4773996  26.6028778  50.3366613 104.6518955  26.9016825  51.5700047
  92.5907488  20.0287931  44.8262127  91.7938651  20.1406625  45.3445623
  92.3633080  20.3674583  43.9603018  98.4213155  26.5532634  52.7744642
  98.4857588  27.0153041  53.6102814  97.7124079  25.9229999  52.9026952
  88.9230445  19.9173842  50.2993641  89.1738484  20.8020852  50.5651217
  89.4589994  19.7378443  49.5268733 112.7462545  23.3487339  46.9668903
 111.9926253  22.7794737  46.8112907 112.8810086  23.3150004  47.9139538
  94.6228513  14.2992321  59.3037977  94.2295458  13.7458520  59.9785622
  95.4394653  14.6102900  59.6944495  97.5396474  15.7150200  56.8958234
  98.2806187  16.3157354  56.8162697  97.7714397  14.9727838  56.3376277
  92.6837812  20.9006568  55.1736464  92.5691327  19.9991825  55.4743563
  91.8282329  21.1470264  54.8221280  99.7629649  28.8424308  56.7723964
  99.3193504  28.0560687  56.4544869 100.4246863  29.0303458  56.1067855
 101.8610888  29.1227108  54.8005366 101.8429363  29.9435989  54.3085635
 102.7830808  28.9981183  55.0255507  98.3183942  26.6371237  55.6428874
  98.8512278  25.8759526  55.4128182  97.7898023  26.3444889  56.3853028
 101.4853637  11.7431303  51.1722516 101.1417906  12.6332945  51.0961626
 101.8532599  11.5532961  50.3092101 101.4503919  21.7339914  39.6794951
 100.9350543  22.5044519  39.9183338 101.1781228  21.0605051  40.3028012
  99.0351030  16.5789615  44.7380189  98.1792627  16.1896466  44.5585828
  99.4477982  16.6581576  43.8779975 100.5650177  14.1135959  49.1371749
 100.0614973  14.0766094  48.3239554 100.8580784  15.0228701  49.1968406
  96.8093063  14.1974688  48.1437931  97.6746060  14.0017497  47.7843820
  96.8770572  13.9685040  49.0707287 106.4238193  24.4872269  41.6148124
 105.6467636  24.1483429  41.1703286 107.1029674  24.4924892  40.9403089
 101.2390223  19.6067007  41.5054732 100.9340358  19.9213156  42.3564875
 102.1920665  19.6848426  41.5482065 104.6629500  23.9606250  48.2714732
 104.0053175  24.6505512  48.3594861 105.4669900  24.3502682  48.6148719
  94.4155382  16.4276896  45.5154298  94.9899134  16.2052078  44.7827490
  95.0026364  16.4965591  46.2682899 103.4734959  22.3150623  46.3218674
 103.9866841  22.9480615  46.8240384 104.1236183  21.7151819  45.9562034
  94.7424969  18.4581357  39.5350183  93.9062281  18.7956044  39.8559458
  94.6029739  18.3230337  38.5977320  96.7178050  13.3018145  44.2429367
  96.0642462  12.9867162  43.6185982  96.6758524  12.6793886  44.9689190
  97.8289255  23.5837440  36.1582659  96.9216316  23.3526694  36.3573808
  98.3260287  22.7875059  36.3456641  99.9515790  19.7900079  48.5677015
  99.0338351  20.0115026  48.4098703 100.3675934  19.8646389  47.7088722
 100.7350838  21.1891494  43.6979695 101.4822657  21.7012891  43.3886817
 101.0042427  20.8675547  44.5584088  99.0077488  23.6850035  40.6806649
  98.0988707  23.4009068  40.7779119  99.0372572  24.1049114  39.8209956
 104.2396755  27.2956624  44.4497817 103.7859083  26.4547534  44.5063007
 103.6090722  27.9318023  44.7872597 103.1829675  18.2248611  45.6798484
 102.4452432  17.7125997  46.0108727 103.4356449  17.7848992  44.8681761
  97.5562382  21.2978656  46.7816444  97.6110992  20.3452492  46.7058921
  96.7453584  21.4538095  47.2657743  98.7053576  25.2258779  38.0194728
  98.2673006  24.5094638  37.5600365  99.4464017  25.4534893  37.4579819
  95.4954742  19.9155715  44.5406823  94.6822607  20.2149886  44.9472015
  95.9913736  19.5211404  45.2581306 101.0928954  20.3797540  53.3721717
 101.4478341  20.6069013  54.2316183 101.7401085  20.7115917  52.7498973
 106.8226691  23.5015976  44.0771046 106.6844589  23.6917572  43.1492235
 106.4662909  24.2635359  44.5339097  94.9868817  17.4874071  50.1568058
  95.6268196  17.3462830  49.4591022  94.1546347  17.2008584  49.7806660
 106.8496070  25.5692503  49.0882318 107.2832577  25.4767792  49.9365372
 107.5627651  25.5450003  48.4502334 100.5823965  29.1694597  50.6215418
 100.6360987  29.7385533  51.3893134  99.7138746  29.3396482  50.2569456
  91.9897433  17.4574396  44.9341045  92.2504250  18.3719729  44.8250206
  92.8114605  16.9898838  45.0837658  93.4622358  18.8712153  52.1039870
  94.1345412  18.6629515  51.4552519  92.6352145  18.6734239  51.6645102
 107.7111620  25.6116203  51.6215203 107.9047510  26.5162014  51.8674478
 107.6112238  25.1523622  52.4553788  99.3647930  15.4974094  54.1205531
  98.7175846  16.1964044  54.0270007 100.1348946  15.9310238  54.4881779
 102.7726728  25.7622946  57.1956084 102.6212235  25.5333498  56.2786167
 102.7631408  26.7193548  57.2087429  99.5412065  23.3354859  52.1802350
 100.4704125  23.4866018  52.0071318  99.1203095  23.4238880  51.3250997
  98.3400397  27.3605523  49.9500888  98.2011482  26.9924308  50.8226826
  97.5514993  27.8753163  49.7784846 102.8264803  24.0843160  37.6126785
 102.2093974  23.3589988  37.5159838 102.3581292  24.8452521  37.2693860
  96.4932156  21.8574715  52.3525986  97.2031775  21.2167908  52.3112605
  96.4501465  22.1087610  53.2752167 104.4818935  28.7942069  55.2732566
 104.4231481  28.1101289  54.6063149 104.8838453  29.5361059  54.8213192
  95.2061090  18.8439933  54.1721626  94.6698447  18.3930672  54.8243222
  94.6177799  18.9785842  53.4292090  94.6163349  18.3028585  36.7348090
  93.7392816  18.1817385  36.3710336  95.0921102  17.5114663  36.4826978
 104.4836342  26.7581653  53.5046545 103.5963121  26.4207574  53.6272944
 105.0534893  26.0264684  53.7415311  90.9400212  17.9795941  51.2574620
  90.8558400  17.3721610  50.5225030  90.1182918  18.4704959  51.2584117
 101.1123925  16.4649504  46.6244815 101.6092625  15.7119467  46.3045886
 100.3410907  16.5013821  46.0588025 108.9653683  22.1689870  48.2663107
 108.9543559  23.0514585  47.8957040 108.0971062  21.8161421  48.0717644
 100.4736179  31.3169939  52.6265947 101.1864151  31.9517404  52.5541849
  99.9826208  31.4133805  51.8105949 102.1953706  25.2221192  44.1983239
 101.2609985  25.3422654  44.0287943 102.3730375  24.3193658  43.9343249
  97.6958894  18.6066887  46.3516500  97.3256682  18.0537928  47.0397406
  98.1917987  18.0025021  45.7991500 105.5826258  21.0638511  44.7333273
 106.0486710  21.8966503  44.6593576 106.0333758  20.5983493  45.4378531
 103.6502489  27.4082332  41.7319425 103.9262333  27.2938927  42.6413299
 102.7806987  27.0099817  41.6931598 103.5542920  13.4319098  48.7724174
 102.6406000  13.6623325  48.9406381 103.9836022  13.5157542  49.6238207
 103.3249379  21.6208990  51.2724068 102.6720829  21.8684897  50.6176521
 103.7029759  20.8073128  50.9386546  99.3736952  22.3628801  57.7590105
  98.6977589  22.2622930  58.4292481 100.1964586  22.2068015  58.2226103
  85.7133466  21.1706338  49.1007064  85.7517565  20.6369928  49.8944182
  85.2073758  20.6441543  48.4818041  93.0924228  16.0170878  52.5969606
  93.1565554  16.8785709  52.1847004  93.0291348  15.4044880  51.8641965
  92.5676500  18.0894011  56.2442640  93.1948539  17.7071088  56.8580165
  91.7104419  17.8708213  56.6098333 102.9670609  28.4956986  57.8496376
 103.5110513  29.1086944  57.3551331 102.3857454  29.0536564  58.3663389
  89.3442043  19.8970440  42.1760995  89.6395484  18.9881118  42.1228049
  88.4430079  19.8758179  41.8541998 101.2528122  31.6177704  48.9811404
 101.1279261  30.8167444  48.4722349 101.9107213  32.1123897  48.4925374
  92.8736290  17.9726436  48.1588544  92.1522876  18.5862404  48.0196017
  93.6629546  18.5084201  48.0805190 103.3163030  29.4186724  50.6090954
 102.3693366  29.2992075  50.5369280 103.6645803  28.5309222  50.6917215
  95.6762604  15.3080863  54.4329196  96.1997005  15.5543159  55.1955505
  95.4574937  16.1400898  54.0132333  91.0729885  17.5784538  42.3000320
  90.7442591  16.6981916  42.1175426  91.4269255  17.5232206  43.1876710
  94.1871708  17.8657507  42.6675798  94.5267780  18.3943429  41.9454406
  94.6343828  18.2037913  43.4434365 103.9243585  30.0367999  47.8960179
 104.8490133  29.8310860  47.7584630 103.7558889  29.7884400  48.8049520
  96.8815149  16.2494558  52.1178866  96.5411969  15.4502371  52.5199546
  96.1754155  16.5496269  51.5455699  97.5331621  13.3343870  50.5706189
  98.3557690  12.8604349  50.4485079  97.7769684  14.1134354  51.0704875
  96.1739855  16.3632129  40.8669091  96.8948218  16.7413382  40.3632808
  95.5505159  17.0821006  40.9704069 100.3170978  17.0677278  41.8027423
 100.5334592  17.9501916  41.5016251  99.8365045  16.6763491  41.0733065
  95.0570199  20.0262991  48.3798168  94.9114780  20.3403294  49.2722449
  94.5795403  20.6447891  47.8269066  96.9166582  17.0165539  48.4279057
  96.9028151  16.1206632  48.0911355  97.6339010  17.0236203  49.0617343
  98.7692713  17.4502879  50.4732185  98.5110491  18.3719950  50.4716515
  98.2377753  17.0533314  51.1632649  96.3203478  15.8979919  43.6966627
  96.4419389  14.9696566  43.8957515  96.0305520  15.9118605  42.7844943
  99.1894669  13.5834830  46.8333347  99.2116365  13.6474163  45.8785327
  99.6062728  12.7439338  47.0273853 109.5678293  23.3190089  44.8712570
 110.0109439  22.5697415  44.4731693 108.6904803  23.3100226  44.4886302
 104.7014074  29.8720431  40.3519168 105.3964979  30.4927123  40.5706483
 105.0437224  29.0215782  40.6271546  90.3181883  21.6938232  54.2115986
  89.5763619  21.8420867  54.7980616  89.9974628  21.9546497  53.3482735
 106.6005497  27.3220136  41.8806499 107.1256821  27.6607409  41.1555819
 106.5127850  26.3867152  41.6969634  95.8044558  17.4111917  57.9056560
  95.8532713  18.2874040  57.5234330  96.3467072  16.8689310  57.3328203
 106.2899403  27.9553040  57.1857697 105.4994947  27.9377179  56.6462197
 106.0532758  28.4941334  57.9406734 106.4097278  24.8045506  54.4990426
 106.4595283  24.6395514  55.4405948 106.3011202  23.9372765  54.1088306
 103.7001041  20.7876434  55.8149732 104.6010904  20.6482899  55.5233730
 103.7749015  20.9530889  56.7547910  98.0343846  18.1643289  54.6602919
  97.1647156  18.4576855  54.3885507  98.2703326  18.7483734  55.3810182
 107.9115475  27.2242448  54.7432447 107.6200284  27.5872428  55.5795908
 107.2987607  26.5109456  54.5645779 109.1111158  24.7895328  47.2635017
 109.9458049  25.2285132  47.4272578 109.2470286  24.3133981  46.4443263
 106.1602663  22.3475063  53.2112505 106.6356785  22.5402709  52.4031357
 105.2368229  22.4034248  52.9655889 100.7382880  14.3822906  52.1768339
 101.2564824  15.1183933  51.8514828 100.3838013  14.6886899  53.0115098
 104.8604332  19.2240823  51.4440811 105.8121755  19.3238920  51.4653035
 104.6907783  18.4319091  51.9538895 102.8818712  16.3096406  51.6300212
 102.2868644  16.5901419  50.9346700 102.5968409  16.7990307  52.4016953
 104.6414219  29.5785203  37.3506792 104.5627851  29.2445067  38.2442550
 105.4623886  30.0706971  37.3498264 107.3392410  22.4446942  50.5583110
 107.3068730  21.5062943  50.7442794 107.9493034  22.5230979  49.8248935
  99.1775741  21.3142995  36.6010314 100.1234846  21.1849203  36.6698733
  98.7989986  20.5757657  37.0779743 107.4886899  19.2357986  50.6041394
 106.9725947  18.4516442  50.4171322 108.3726847  18.9076702  50.7687913
 105.1497626  12.9799001  46.5637206 104.9522447  12.6714089  47.4480538
 105.7597331  13.7060640  46.6935136 113.1568960  23.5062949  49.6989147
 113.8872349  23.2448237  50.2596851 112.5475906  22.7691671  49.7391215
 111.2384257  21.6470812  50.2963598 110.5117421  21.5126777  49.6880090
 110.8231544  21.9547640  51.1020316  99.0614434  25.3660741  58.0610971
  99.9817443  25.5439340  58.2551018  99.0264017  24.4216787  57.9090671
  97.3618658  19.2392972  36.5365200  96.4550114  18.9426084  36.6127913
  97.6394639  18.9422790  35.6699486  98.9780724  13.7829861  42.6909441
  98.1681452  13.4376946  43.0664687  99.6665141  13.4737405  43.2797053
 100.9071272  12.8607908  44.3133738 101.4602311  13.2803362  44.9723761
 101.1441359  11.9343656  44.3556694  96.9304372  18.8494982  60.0936502
  96.8301098  19.7989339  60.0248593  96.7125914  18.5213221  59.2212572
  96.1317443  16.0979907  36.6777179  96.9936607  16.4234805  36.9372996
  96.3167787  15.3111403  36.1650245 104.2850079  14.9708433  43.8212402
 103.7048748  15.6293237  43.4390454 104.0186012  14.1485778  43.4099819
 102.7353646  14.3713491  46.0233722 103.2353424  14.4830026  45.2148041
 103.3789254  14.0674544  46.6634531  96.7935642  22.2792121  58.9101563
  96.3102723  23.0792481  59.1165452  96.8796581  22.2900066  57.9569007
 103.0674957  17.1308524  42.8768750 102.1800812  17.4158174  42.6588945
 103.4828946  16.9702287  42.0296027 106.4189494  17.1555045  46.5923089
 107.1949884  17.6451497  46.8647706 105.6937628  17.5813099  47.0494959
 108.8562052  17.8682664  47.6497030 109.4506543  17.6278400  46.9390338
 108.9288636  17.1489794  48.2770566 102.2118171  26.8953198  36.9716770
 102.9154021  27.1003201  37.5874426 101.4880820  27.4629960  37.2365854
 103.0415981  22.6463060  43.0919040 102.9851183  23.1031611  42.2526673
 103.5944324  21.8853744  42.9141883 106.8520787  18.4352792  43.9169160
 106.5957721  18.0349427  44.7477368 106.2273655  19.1496585  43.7919299
 111.1633125  21.1748865  46.4240451 110.6032683  21.2442054  47.1972013
 110.5576628  20.9989849  45.7039947 104.1204868  27.3335728  39.0215230
 104.9550472  26.9016926  38.8392705 103.9589211  27.1617741  39.9492125
 103.7750760  23.8367841  40.3871570 103.7199564  23.6712112  39.4460014
 103.1496816  24.5443874  40.5433759  88.5643275  19.0735905  54.2132992
  89.2102139  18.5634859  54.7020217  88.3560427  19.8104587  54.7876417
 101.0896668  26.1416753  59.7125132 101.9587827  26.3157405  59.3511767
 100.6103419  26.9611170  59.5900862  97.0846886  13.3375950  39.9656888
  97.0725556  14.2817790  40.1225159  97.9770308  13.1546095  39.6716349
  92.9040766  16.2203522  58.3108006  93.7672228  15.8640327  58.5211331
  92.3306177  15.8817417  58.9983410 112.7489143  37.8505379  49.1170407
 113.3867553  37.7312126  48.4133747 112.6309986  38.7986223  49.1758359
 109.5578850  37.8032807  49.0531932 109.2197361  37.6873871  48.1652467
 110.4268618  37.4023972  49.0332938 105.4165665  39.6568283  45.0428823
 104.8530530  39.5658220  44.2745110 105.3018060  38.8368188  45.5231315
 110.0398633  38.9567659  55.0118137 110.0287273  38.5620457  54.1398641
 110.2019272  38.2233731  55.6051909 102.9630097  41.1519475  47.8813043
 103.7551389  40.8110299  47.4659342 103.2026747  41.2614450  48.8015196
 110.9965224  43.3239251  40.3543288 110.3453204  43.9093331  39.9677301
 111.7909587  43.8545446  40.4138325 104.9220851  40.4128388  40.7530422
 105.6951727  39.8657375  40.6143298 105.2746250  41.2772637  40.9644883
 106.7605894  41.7404770  53.9597321 106.4695760  42.6450401  53.8443987
 107.3962878  41.7821298  54.6741391 107.6862101  39.1181619  50.5498681
 108.2825673  38.8937641  49.8355644 107.7437072  38.3766364  51.1524129
 107.2587129  36.5721054  38.3848872 107.5112650  36.0502575  37.6232335
 106.3211688  36.4087200  38.4875555 112.3030412  35.5756833  46.1923615
 113.0893501  35.1576256  45.8414032 112.5669116  36.4802925  46.3605263
 112.4740489  41.0129683  40.8912272 111.8386322  41.0864309  41.6033176
 112.1437896  41.6023282  40.2131351 117.7038839  35.5132066  47.0956594
 118.4364011  34.9431283  47.3294423 116.9478195  35.1253666  47.5363099
 106.9783418  38.4749160  40.5873247 106.8619676  37.7994064  41.2554331
 107.0885678  37.9881534  39.7705400 109.3214959  37.9359307  44.2919936
 108.9573166  37.4089928  45.0032857 110.1782075  37.5457776  44.1186421
 115.2264259  29.2253640  51.5551202 114.8947584  30.0949051  51.3312417
 114.6309873  28.9089924  52.2345233 108.9620446  32.9649207  39.2881284
 109.1294848  33.8329443  39.6551756 108.7717615  33.1276489  38.3642574
 111.7195779  41.4266186  50.9547115 111.4196502  42.3291225  50.8462922
 111.3746838  41.1598369  51.8068268 105.1708260  37.8779983  46.9883819
 104.2458757  37.7456197  47.1961511 105.4192674  38.6574202  47.4853762
 115.1192923  33.9448726  48.6344552 114.2109800  33.8764134  48.3403313
 115.0680518  34.4220671  49.4626378 108.9409667  35.4206864  40.2727951
 108.8209292  35.8663915  41.1113432 108.2462255  35.7692182  39.7141489
 102.5317071  37.5213256  47.8227608 102.6609453  37.7747735  48.7367020
 101.8514523  38.1140964  47.5032263 106.7016559  48.1910506  43.9218083
 106.6240588  49.1418331  44.0006563 106.0978202  47.8456379  44.5793009
 109.1933788  35.3638372  56.5779449 108.4167122  35.9232292  56.5682314
 109.8324351  35.8495155  57.0994320 116.9854569  32.1465164  50.4122426
 116.3428949  32.4397698  49.7662221 116.4809498  32.0318085  51.2175623
 114.6394733  35.8928338  41.1008285 115.5512589  36.1255724  40.9255983
 114.1304380  36.4765382  40.5383364 107.4480161  38.1723825  56.1397416
 108.1894845  38.7108869  55.8632240 106.7417146  38.7990114  56.2968968
 112.9235500  40.3152965  54.7369578 113.3318856  39.8735376  53.9924210
 112.2012762  39.7405593  54.9903771 109.2766570  35.2525572  52.1103135
 110.1227766  35.6764986  52.2537784 109.2165208  34.5959197  52.8041698
 113.2464315  40.8754156  48.4921867 112.6173177  41.0399870  47.7897935
 112.8589977  41.2895766  49.2632831 117.1253547  41.8108594  45.8466231
 116.4404585  42.1907495  45.2963264 117.2097396  42.4203921  46.5798178
 112.4266016  32.9129941  53.7684309 112.1826948  33.6672001  53.2318584
 112.7025946  33.2915288  54.6031556 114.3804479  39.4568553  52.4461574
 114.5921374  40.1000313  51.7695955 114.3334227  38.6230869  51.9783504
 111.9830707  32.0686374  49.3498146 111.1215186  32.3667627  49.6414884
 112.0093142  32.2856772  48.4179179 108.7992277  40.6128564  45.7571952
 109.2630622  40.8916267  44.9676574 108.5349075  39.7112009  45.5745043
 105.6916358  40.1600046  48.6951715 106.2617715  40.5887314  48.0569200
 106.2824470  39.8782630  49.3935901 107.7361163  36.7351717  42.5661517
 108.4385206  37.1872760  43.0335443 107.4041791  36.0935535  43.1941410
 106.1841524  35.3263473  56.9412726 105.5540185  36.0079754  57.1748123
 106.0777612  35.2146555  55.9965865 115.4950306  42.3340508  50.6183931
 116.3167750  41.9320696  50.3366613 115.4912709  42.2308743  51.5700047
 109.2606910  41.8824552  52.7744642 109.3251342  42.3444959  53.6102814
 108.5517834  41.2521917  52.9026952 108.9754928  43.5492659  42.6423622
 108.8400602  44.3944195  43.0708470 109.5164740  43.7511937  41.8789556
 105.4622267  29.6284239  59.3037977 105.0689213  29.0750438  59.9785622
 106.2788408  29.9394817  59.6944495 104.2379210  44.1833853  45.2974301
 104.4145838  45.1051818  45.1095284 105.0336043  43.8692273  45.7268680
 108.3790228  31.0442118  56.8958234 109.1199942  31.6449271  56.8162697
 108.6108151  30.3019756  56.3376277 103.5231566  36.2298485  55.1736464
 103.4085081  35.3283743  55.4743563 102.6676084  36.4762182  54.8221280
 110.6023404  44.1716226  56.7723964 110.1587258  43.3852604  56.4544869
 111.2640618  44.3595376  56.1067855 105.3610525  45.7012027  51.2984643
 105.9117950  45.5729091  50.5261637 104.5222001  46.0006916  50.9479536
 112.7004642  44.4519026  54.8005366 112.6823117  45.2727907  54.3085635
 113.6224562  44.3273101  55.0255507 109.1577696  41.9663155  55.6428874
 109.6906033  41.2051443  55.4128182 108.6291777  41.6736807  56.3853028
 112.3247391  27.0723221  51.1722516 111.9811661  27.9624863  51.0961626
 112.6926354  26.8824879  50.3092101 112.2897674  37.0631832  39.6794951
 111.7744297  37.8336437  39.9183338 112.0174982  36.3896968  40.3028012
 109.8744785  31.9081533  44.7380189 109.0186381  31.5188383  44.5585828
 110.2871737  31.9873494  43.8779975 111.4043932  29.4427876  49.1371749
 110.9008727  29.4058011  48.3239554 111.6974538  30.3520619  49.1968406
 107.6486817  29.5266606  48.1437931 108.5139814  29.3309415  47.7843820
 107.7164326  29.2976958  49.0707287 117.2631948  39.8164187  41.6148124
 116.4861391  39.4775346  41.1703286 117.9423429  39.8216810  40.9403089
 112.0783977  34.9358924  41.5054732 111.7734113  35.2505073  42.3564875
 113.0314419  35.0140344  41.5482065 110.5230409  41.0949148  43.1547686
 109.9951770  40.3601907  42.8420923 110.0217912  41.8723824  42.9087654
 115.5023255  39.2898168  48.2714732 114.8446929  39.9797429  48.3594861
 116.3063654  39.6794600  48.6148719 105.2549136  31.7568814  45.5154298
 105.8292888  31.5343995  44.7827490 105.8420119  31.8257508  46.2682899
 114.3128714  37.6442541  46.3218674 114.8260595  38.2772533  46.8240384
 114.9629938  37.0443736  45.9562034 105.5818724  33.7873275  39.5350183
 104.7456036  34.1247961  39.8559458 105.4423493  33.6522255  38.5977320
 107.5571804  28.6310063  44.2429367 106.9036217  28.3159080  43.6185982
 107.5152278  28.0085803  44.9689190 108.6683009  38.9129358  36.1582659
 107.7610071  38.6818611  36.3573808 109.1654041  38.1166977  36.3456641
 111.5751088  47.6226865  39.0779345 110.9012787  47.9258562  39.6864303
 111.9616910  48.4255945  38.7284802 110.7909545  35.1191996  48.5677015
 109.8732106  35.3406943  48.4098703 111.2069688  35.1938307  47.7088722
 111.5744592  36.5183412  43.6979695 112.3216411  37.0304809  43.3886817
 111.8436182  36.1967465  44.5584088 109.8471242  39.0141953  40.6806649
 108.9382462  38.7300985  40.7779119 109.8766326  39.4341031  39.8209956
 115.0790510  42.6248542  44.4497817 114.6252837  41.7839452  44.5063007
 114.4484477  43.2609941  44.7872597 114.0223429  33.5540528  45.6798484
 113.2846186  33.0417914  46.0108727 114.2750203  33.1140910  44.8681761
 113.5223449  44.4625039  45.3847635 113.8146424  45.0230096  44.6660000
 114.0322070  44.7553600  46.1400794 114.1235057  26.3316780  46.2740253
 114.4293934  25.4714144  45.9866168 114.8487662  26.9234400  46.0739247
 108.3956137  36.6270573  46.7816444 108.4504746  35.6744410  46.7058921
 107.5847339  36.7830012  47.2657743 109.5447330  40.5550696  38.0194728
 109.1066760  39.8386555  37.5600365 110.2857771  40.7826811  37.4579819
 106.3348496  35.2447633  44.5406823 105.5216362  35.5441804  44.9472015
 106.8307491  34.8503322  45.2581306 108.4857074  45.2405390  46.4741088
 108.4433253  45.4666236  45.5449620 109.4019773  45.0068765  46.6226889
 111.9322708  35.7089457  53.3721717 112.2872096  35.9360931  54.2316183
 112.5794839  36.0407834  52.7498973 117.6620445  38.8307893  44.0771046
 117.5238344  39.0209489  43.1492235 117.3056664  39.5927276  44.5339097
 105.8262571  32.8165989  50.1568058 106.4661951  32.6754748  49.4591022
 104.9940102  32.5300502  49.7806660 117.6889825  40.8984420  49.0882318
 118.1226331  40.8059709  49.9365372 118.4021405  40.8741921  48.4502334
 106.6022875  42.1168419  46.2703051 107.3963474  41.6218739  46.0685626
 105.8914567  41.5886282  45.9070756 111.4217720  44.4986514  50.6215418
 111.4754742  45.0677451  51.3893134 110.5532501  44.6688400  50.2569456
 104.3016113  34.2004071  52.1039870 104.9739166  33.9921433  51.4552519
 103.4745899  34.0026157  51.6645102 118.5505374  40.9408121  51.6215203
 118.7441264  41.8453932  51.8674478 118.4505992  40.4815540  52.4553788
 110.2041685  30.8266012  54.1205531 109.5569600  31.5255961  54.0270007
 110.9742700  31.2602156  54.4881779 113.6120483  41.0914864  57.1956084
 113.4605989  40.8625415  56.2786167 113.6025162  42.0485465  57.2087429
 110.3805819  38.6646777  52.1802350 111.3097879  38.8157936  52.0071318
 109.9596849  38.7530797  51.3250997 109.1794151  42.6897441  49.9500888
 109.0405237  42.3216225  50.8226826 108.3908747  43.2045080  49.7784846
 109.7742303  47.7906537  41.2926424 109.9494059  47.3194581  42.1072047
 109.0875091  48.4172304  41.5207685 110.7299366  42.0679044  47.3389726
 110.3949199  42.0279814  48.2347376 110.2303312  41.4023760  46.8660136
 104.7043610  37.4746674  52.8642307 104.5663408  36.7426913  53.4653846
 105.6148534  37.3855574  52.5826495 113.6658558  39.4135078  37.6126785
 113.0487729  38.6881906  37.5159838 113.1975046  40.1744438  37.2693860
 107.3325911  37.1866633  52.3525986 108.0425529  36.5459825  52.3112605
 107.2895219  37.4379528  53.2752167 115.3212690  44.1233986  55.2732566
 115.2625236  43.4393206  54.6063149 115.7232208  44.8652976  54.8213192
 106.0454845  34.1731851  54.1721626 105.5092202  33.7222589  54.8243222
 105.4571553  34.3077760  53.4292090 104.3403388  50.9395900  48.0666285
 104.5799987  51.5714424  48.7445303 103.4972585  50.5883940  48.3531644
 105.4557104  33.6320502  36.7348090 104.5786570  33.5109303  36.3710336
 105.9314857  32.8406581  36.4826978 115.3230097  42.0873570  53.5046545
 114.4356876  41.7499492  53.6272944 115.8928648  41.3556602  53.7415311
 101.7793966  33.3087859  51.2574620 101.6952155  32.7013528  50.5225030
 100.9576672  33.7996877  51.2584117 108.8531250  46.7475023  50.4707789
 108.7801422  47.5529994  50.9827093 108.4108643  46.9466988  49.6455810
 108.6421030  45.9846793  43.9810610 107.8588552  46.5268473  44.0748835
 109.3413775  46.5020772  44.3804851 111.9517680  31.7941422  46.6244815
 112.4486379  31.0411384  46.3045886 111.1804661  31.8305739  46.0588025
 119.8047437  37.4981788  48.2663107 119.7937314  38.3806503  47.8957040
 118.9364817  37.1453338  48.0717644 111.3129934  46.6461857  52.6265947
 112.0257906  47.2809321  52.5541849 110.8219962  46.7425723  51.8105949
 113.0347461  40.5513109  44.1983239 112.1003739  40.6714572  44.0287943
 113.2124129  39.6485576  43.9343249 108.5352649  33.9358805  46.3516500
 108.1650436  33.3829845  47.0397406 109.0311741  33.3316939  45.7991500
 116.4220012  36.3930429  44.7333273 116.8880464  37.2258420  44.6593576
 116.8727512  35.9275410  45.4378531 106.3641847  44.3956300  53.4471518
 107.0651307  45.0292783  53.6000912 105.8936962  44.7371032  52.6867157
 114.4896243  42.7374250  41.7319425 114.7656087  42.6230844  42.6413299
 113.6200742  42.3391735  41.6931598 114.3936675  28.7611016  48.7724174
 113.4799755  28.9915242  48.9406381 114.8229776  28.8449460  49.6238207
 114.1643133  36.9500908  51.2724068 113.5114583  37.1976815  50.6176521
 114.5423513  36.1365046  50.9386546 111.1250307  46.9860601  45.3752239
 111.3072702  46.1682257  45.8379991 111.9483293  47.2028293  44.9377129
 111.4592473  45.9128786  42.6367287 111.9880239  45.4021240  42.0237449
 111.7220692  45.5971316  43.5012820 110.2130706  37.6920719  57.7590105
 109.5371343  37.5914848  58.4292481 111.0358340  37.5359932  58.2226103
 101.9609565  43.9292655  50.3802621 102.5463002  43.1836343  50.5130525
 101.7634404  44.2396612  51.2639285 104.8148221  46.9643903  45.3965063
 104.1458596  47.4490030  44.9129103 104.6761090  47.2113123  46.3108442
 108.9553489  48.9987646  51.9947721 109.5071797  49.1619268  52.7596807
 109.2959683  49.5892084  51.3227746 103.9317982  31.3462796  52.5969606
 103.9959309  32.2077627  52.1847004 103.8685103  30.7336798  51.8641965
 103.4070255  33.4185928  56.2442640 104.0342294  33.0363006  56.8580165
 102.5498174  33.2000130  56.6098333 113.8064363  43.8248904  57.8496376
 114.3504267  44.4378862  57.3551331 113.2251208  44.3828482  58.3663389
 112.0921876  46.9469622  48.9811404 111.9673016  46.1459361  48.4722349
 112.7500968  47.4415815  48.4925374 103.7130045  33.3018354  48.1588544
 102.9916630  33.9154322  48.0196017 104.5023300  33.8376119  48.0805190
 114.1556785  44.7478642  50.6090954 113.2087120  44.6283993  50.5369280
 114.5039558  43.8601140  50.6917215 106.5156358  30.6372781  54.4329196
 107.0390760  30.8835077  55.1955505 106.2968691  31.4692815  54.0132333
 111.1603218  44.5431358  46.8095306 111.0128181  43.6148065  46.9902876
 111.9856712  44.5651449  46.3252381 105.0265462  33.1949425  42.6675798
 105.3661535  33.7235346  41.9454406 105.4737583  33.5329831  43.4434365
 114.7637340  45.3659917  47.8960179 115.6883887  45.1602778  47.7584630
 114.5952643  45.1176318  48.8049520 107.7208903  31.5786476  52.1178866
 107.3805724  30.7794289  52.5199546 107.0147909  31.8788187  51.5455699
 108.3725375  28.6635788  50.5706189 109.1951444  28.1896266  50.4485079
 108.6163439  29.4426272  51.0704875 107.0133610  31.6924047  40.8669091
 107.7341972  32.0705299  40.3632808 106.3898914  32.4112923  40.9704069
 111.1564732  32.3969196  41.8027423 111.3728347  33.2793833  41.5016251
 110.6758800  32.0055409  41.0733065 105.8963954  35.3554909  48.3798168
 105.7508535  35.6695212  49.2722449 105.4189157  35.9739809  47.8269066
 107.7560337  32.3457457  48.4279057 107.7421905  31.4498550  48.0911355
 108.4732765  32.3528121  49.0617343 109.6086467  32.7794797  50.4732185
 109.3504245  33.7011868  50.4716515 109.0771508  32.3825232  51.1632649
 114.5532656  45.8845584  43.2522270 114.7269534  45.3192007  42.4996123
 115.0461547  46.6846479  43.0701760 107.1597233  31.2271837  43.6966627
 107.2813144  30.2988483  43.8957515 106.8699275  31.2410523  42.7844943
 110.0288423  28.9126747  46.8333347 110.0510120  28.9766081  45.8785327
 110.4456482  28.0731256  47.0273853 120.4072047  38.6482007  44.8712570
 120.8503193  37.8989332  44.4731693 119.5298558  38.6392143  44.4886302
 115.5407829  45.2012348  40.3519168 116.2358733  45.8219041  40.5706483
 115.8830979  44.3507700  40.6271546 101.1575638  37.0230149  54.2115986
 100.4157374  37.1712785  54.7980616 100.8368382  37.2838415  53.3482735
 117.4399252  42.6512054  41.8806499 117.9650576  42.9899327  41.1555819
 117.3521604  41.7159069  41.6969634 109.1019300  46.5646128  54.0096376
 109.4106427  46.3195274  54.8819075 109.8994782  46.7692766  53.5215246
 109.1239913  48.7184037  46.2401752 108.6844903  48.2260416  46.9334609
 109.8748029  48.1757005  45.9993828 101.6032251  44.9095578  46.2426380
 102.4290271  44.6099350  45.8625024 101.2526303  44.1403201  46.6916169
 106.5713785  44.2622046  48.3124054 105.9493794  43.5992751  48.0126282
 107.2418652  44.2883178  47.6297702 106.6438312  32.7403834  57.9056560
 106.6926468  33.6165957  57.5234330 107.1860826  32.1981227  57.3328203
 117.1293158  43.2844958  57.1857697 116.3388702  43.2669097  56.6462197
 116.8926512  43.8233251  57.9406734 117.2491033  40.1337424  54.4990426
 117.2989038  39.9687431  55.4405948 117.1404956  39.2664683  54.1088306
 106.1327292  42.8125970  41.7882515 106.2815412  43.4961434  41.1349187
 106.9393735  42.7931060  42.3031970 114.5394795  36.1168352  55.8149732
 115.4404658  35.9774817  55.5233730 114.6142770  36.2822807  56.7547910
 108.8737601  33.4935207  54.6602919 108.0040910  33.7868773  54.3885507
 109.1097081  34.0775652  55.3810182 118.7509230  42.5534366  54.7432447
 118.4594038  42.9164346  55.5795908 118.1381361  41.8401374  54.5645779
 119.9504912  40.1187245  47.2635017 120.7851803  40.5577049  47.4272578
 120.0864041  39.6425899  46.4443263 116.9996418  37.6766980  53.2112505
 117.4750540  37.8694626  52.4031357 116.0761983  37.7326166  52.9655889
 111.5776634  29.7114824  52.1768339 112.0958578  30.4475851  51.8514828
 111.2231767  30.0178817  53.0115098 111.8289229  26.1315106  47.6969236
 112.1090982  25.4638295  48.3229662 112.6139836  26.3244202  47.1843900
 109.6322697  45.3074100  39.2594262 109.0596664  45.9264287  38.8064734
 110.2055491  45.8573462  39.7934184 115.6998087  34.5532740  51.4440811
 116.6515510  34.6530838  51.4653035 115.5301537  33.7611009  51.9538895
 113.7212466  31.6388323  51.6300212 113.1262399  31.9193336  50.9346700
 113.4362163  32.1282224  52.4016953 112.8519957  45.5911250  40.3902844
 113.7850630  45.5256812  40.5935720 112.7643170  46.4267517  39.9317377
 115.4807974  44.9077121  37.3506792 115.4021605  44.5736984  38.2442550
 116.3017640  45.3998889  37.3498264 118.1786165  37.7738860  50.5583110
 118.1462485  36.8354861  50.7442794 118.7886788  37.8522897  49.8248935
 110.0169496  36.6434913  36.6010314 110.9628600  36.5141121  36.6698733
 109.6383741  35.9049575  37.0779743 118.3280653  34.5649903  50.6041394
 117.8119702  33.7808360  50.4171322 119.2120602  34.2368620  50.7687913
 115.9891380  28.3090919  46.5637206 115.7916201  28.0006007  47.4480538
 116.5991086  29.0352558  46.6935136 109.9008188  40.6952659  58.0610971
 110.8211198  40.8731258  58.2551018 109.8657771  39.7508704  57.9090671
 108.2012413  34.5684889  36.5365200 107.2943868  34.2718002  36.6127913
 108.4788394  34.2714707  35.6699486 102.8970261  38.6053694  50.7033753
 103.1156270  39.5370802  50.7221786 103.3096035  38.2461668  51.4888556
 109.8174478  29.1121779  42.6909441 109.0075207  28.7668864  43.0664687
 110.5058895  28.8029323  43.2797053 111.7465027  28.1899826  44.3133738
 112.2996065  28.6095279  44.9723761 111.9835113  27.2635574  44.3556694
 107.7698126  34.1786899  60.0936502 107.6694853  35.1281256  60.0248593
 107.5519668  33.8505138  59.2212572 106.9711197  31.4271825  36.6777179
 107.8330361  31.7526723  36.9372996 107.1561542  30.6403320  36.1650245
 115.1243834  30.3000351  43.8212402 114.5442503  30.9585155  43.4390454
 114.8579767  29.4777696  43.4099819 113.5747400  29.7005409  46.0233722
 114.0747179  29.8121943  45.2148041 114.2183008  29.3966462  46.6634531
 107.6329396  37.6084038  58.9101563 107.1496478  38.4084398  59.1165452
 107.7190335  37.6191983  57.9569007 103.5602734  41.4988573  50.9469997
 104.5145987  41.4672515  50.8799929 103.3615257  41.0379197  51.7620223
 104.1502116  40.0689689  53.5140795 104.9695005  40.5633768  53.5375632
 104.4238923  39.1521657  53.4858362 113.9068712  32.4600441  42.8768750
 113.0194567  32.7450092  42.6588945 114.3222701  32.2994205  42.0296027
 117.2583248  32.4846962  46.5923089 118.0343638  32.9743415  46.8647706
 116.5331382  32.9105017  47.0494959 119.6955807  33.1974582  47.6497030
 120.2900297  32.9570318  46.9390338 119.7682390  32.4781712  48.2770566
 101.9152962  47.0408193  47.9640195 101.7807430  46.2808593  47.3978193
 101.4985025  47.7649092  47.4968984 113.0511925  42.2245116  36.9716770
 113.7547775  42.4295119  37.5874426 112.3274574  42.7921878  37.2365854
 113.8809736  37.9754977  43.0919040 113.8244937  38.4323529  42.2526673
 114.4338078  37.2145662  42.9141883 117.6914542  33.7644709  43.9169160
 117.4351476  33.3641345  44.7477368 117.0667410  34.4788503  43.7919299
 105.0722088  47.9377510  48.1758638 104.9554472  48.8822942  48.0737328
 104.2514534  47.6351071  48.5644437 114.9598623  42.6627645  39.0215230
 115.7944227  42.2308844  38.8392705 114.7982966  42.4909659  39.9492125
 114.6144515  39.1659759  40.3871570 114.5593319  39.0004030  39.4460014
 113.9890570  39.8735791  40.5433759 107.9240640  28.6667868  39.9656888
 107.9119310  29.6109707  40.1225159 108.8164062  28.4838013  39.6716349
 106.0976602  48.5905771  51.3914566 107.0003849  48.6229382  51.7081061
 105.8713972  47.6606222  51.4060902 107.8530204  47.3436758  48.0524645
 106.9025835  47.3438620  47.9389017 108.1562690  46.5969493  47.5360679
 111.7392760  25.2610644  44.2202825 110.9725156  24.7069131  44.3659507
 112.1503465  25.3332513  45.0816976 103.7434521  31.5495440  58.3108006
 104.6065982  31.1932245  58.5211331 103.1699932  31.2109335  58.9983410
 120.3972604  53.1324724  49.0531932 120.0591116  53.0165789  48.1652467
 121.2662372  52.7315890  49.0332938 116.2559420  54.9860201  45.0428823
 115.6924285  54.8950138  44.2745110 116.1411815  54.1660105  45.5231315
 120.8792387  54.2859576  55.0118137 120.8681028  53.8912374  54.1398641
 121.0413027  53.5525649  55.6051909 113.8023852  56.4811392  47.8813043
 114.5945144  56.1402217  47.4659342 114.0420502  56.5906368  48.8015196
 115.7614606  55.7420306  40.7530422 116.5345482  55.1949293  40.6143298
 116.1140005  56.6064555  40.9644883 117.5999648  57.0696688  53.9597321
 117.3089514  57.9742319  53.8443987 118.2356633  57.1113216  54.6741391
 118.5255855  54.4473537  50.5498681 119.1219427  54.2229559  49.8355644
 118.5830827  53.7058282  51.1524129 118.0980884  51.9012972  38.3848872
 118.3506404  51.3794493  37.6232335 117.1605443  51.7379117  38.4875555
 117.8177172  53.8041078  40.5873247 117.7013430  53.1285981  41.2554331
 117.9279432  53.3173452  39.7705400 120.1608713  53.2651225  44.2919936
 119.7966920  52.7381846  45.0032857 121.0175829  52.8749694  44.1186421
 119.8014200  48.2941125  39.2881284 119.9688603  49.1621361  39.6551756
 119.6111369  48.4568406  38.3642574 116.0102015  53.2071900  46.9883819
 115.0852511  53.0748114  47.1961511 116.2586428  53.9866120  47.4853762
 119.7803421  50.7498782  40.2727951 119.6603046  51.1955833  41.1113432
 119.0856009  51.0984100  39.7141489 113.3710826  52.8505174  47.8227608
 113.5003207  53.1039653  48.7367020 112.6908277  53.4432882  47.5032263
 117.5410313  63.5202424  43.9218083 117.4634343  64.4710249  44.0006563
 116.9371957  63.1748296  44.5793009 120.0327543  50.6930289  56.5779449
 119.2560877  51.2524209  56.5682314 120.6718106  51.1787072  57.0994320
 118.2873915  53.5015743  56.1397416 119.0288600  54.0400787  55.8632240
 117.5810901  54.1282031  56.2968968 120.1160325  50.5817490  52.1103135
 120.9621520  51.0056903  52.2537784 120.0558963  49.9251114  52.8041698
 119.6386031  55.9420482  45.7571952 120.1024377  56.2208185  44.9676574
 119.3742829  55.0403926  45.5745043 116.5310112  55.4891963  48.6951715
 117.1011469  55.9179232  48.0569200 117.1218224  55.2074548  49.3935901
 118.5754917  52.0643634  42.5661517 119.2778961  52.5164678  43.0335443
 118.2435546  51.4227453  43.1941410 117.0235279  50.6555391  56.9412726
 116.3933940  51.3371672  57.1748123 116.9171367  50.5438472  55.9965865
 112.3180251  50.3227187  47.8678651 111.5279305  50.5784715  47.3918761
 112.8091499  51.1375525  47.9730691 114.2694997  50.6871766  44.8262127
 113.4726160  50.7990460  45.3445623 114.0420589  51.0258418  43.9603018
 120.1000664  57.2116469  52.7744642 120.1645097  57.6736877  53.6102814
 119.3911588  56.5813834  52.9026952 110.6017954  50.5757677  50.2993641
 110.8525993  51.4604687  50.5651217 111.1377503  50.3962279  49.5268733
 119.8148682  58.8784577  42.6423622 119.6794357  59.7236113  43.0708470
 120.3558495  59.0803854  41.8789556 116.3016022  44.9576157  59.3037977
 115.9082967  44.4042355  59.9785622 117.1182162  45.2686735  59.6944495
 113.2678079  56.3960015  43.2151547 113.7802600  57.1903265  43.3657112
 113.9200792  55.6986305  43.1485149 115.0772964  59.5125771  45.2974301
 115.2539592  60.4343736  45.1095284 115.8729798  59.1984190  45.7268680
 119.2183983  46.3734036  56.8958234 119.9593696  46.9741189  56.8162697
 119.4501905  45.6311674  56.3376277 114.3625321  51.5590403  55.1736464
 114.2478836  50.6575660  55.4743563 113.5069838  51.8054100  54.8221280
 116.2004280  61.0303945  51.2984643 116.7511705  60.9021008  50.5261637
 115.3615756  61.3298834  50.9479536 119.9971451  57.2955073  55.6428874
 120.5299787  56.5343361  55.4128182 119.4685532  57.0028725  56.3853028
 111.2326996  54.7248669  43.9911118 112.0702218  55.1345678  43.7744826
 111.4105264  53.7848111  43.9611312 120.7138539  47.2373451  44.7380189
 119.8580136  46.8480301  44.5585828 121.1265491  47.3165411  43.8779975
 118.4880572  44.8558524  48.1437931 119.3533569  44.6601332  47.7843820
 118.5558081  44.6268875  49.0707287 121.3624163  56.4241065  43.1547686
 120.8345525  55.6893825  42.8420923 120.8611666  57.2015742  42.9087654
 116.0942891  47.0860732  45.5154298 116.6686643  46.8635913  44.7827490
 116.6813873  47.1549426  46.2682899 116.4212478  49.1165193  39.5350183
 115.5849790  49.4539879  39.8559458 116.2817248  48.9814172  38.5977320
 118.3965559  43.9601980  44.2429367 117.7429971  43.6450998  43.6185982
 118.3546033  43.3377721  44.9689190 119.5076764  54.2421275  36.1582659
 118.6003825  54.0110529  36.3573808 120.0047796  53.4458895  36.3456641
 120.6864997  54.3433870  40.6806649 119.7776216  54.0592903  40.7779119
 120.7160081  54.7632949  39.8209956 111.2553167  52.0639384  44.6621851
 111.0577567  51.4708745  43.9372918 110.6999831  51.7591595  45.3797790
 119.2349891  51.9562491  46.7816444 119.2898501  51.0036327  46.7058921
 118.4241093  52.1121930  47.2657743 120.3841085  55.8842614  38.0194728
 119.9460515  55.1678473  37.5600365 121.1251526  56.1118729  37.4579819
 117.1742251  50.5739551  44.5406823 116.3610116  50.8733721  44.9472015
 117.6701245  50.1795239  45.2581306 119.3250829  60.5697308  46.4741088
 119.2827008  60.7958154  45.5449620 120.2413528  60.3360682  46.6226889
 116.6656326  48.1457906  50.1568058 117.3055705  48.0046665  49.4591022
 115.8333856  47.8592420  49.7806660 117.4416630  57.4460337  46.2703051
 118.2357228  56.9510657  46.0685626 116.7308322  56.9178200  45.9070756
 113.7499393  51.5903418  42.3462803 112.8196981  51.5287874  42.5632766
 113.8456865  51.0679371  41.5499445 113.6684942  48.1158231  44.9341045
 113.9291759  49.0303564  44.8250206 114.4902114  47.6482674  45.0837658
 115.1409867  49.5295988  52.1039870 115.8132921  49.3213351  51.4552519
 114.3139654  49.3318074  51.6645102 120.0187906  58.0189359  49.9500888
 119.8798991  57.6508143  50.8226826 119.2302502  58.5336998  49.7784846
 120.6136058  63.1198455  41.2926424 120.7887813  62.6486498  42.1072047
 119.9268846  63.7464221  41.5207685 121.5693121  57.3970961  47.3389726
 121.2342953  57.3571731  48.2347376 121.0697066  56.7315677  46.8660136
 115.5437365  52.8038591  52.8642307 115.4057163  52.0718830  53.4653846
 116.4542288  52.7147491  52.5826495 118.1719665  52.5158551  52.3525986
 118.8819284  51.8751743  52.3112605 118.1288974  52.7671446  53.2752167
 116.8848599  49.5023769  54.1721626 116.3485956  49.0514507  54.8243222
 116.2965308  49.6369677  53.4292090 115.1797143  66.2687818  48.0666285
 115.4193741  66.9006342  48.7445303 114.3366339  65.9175858  48.3531644
 116.2950858  48.9612420  36.7348090 115.4180325  48.8401221  36.3710336
 116.7708611  48.1698498  36.4826978 107.8152998  53.7489580  46.8289597
 108.5024038  53.4351310  46.2410612 107.6601127  54.6530944  46.5556848
 112.6187721  48.6379776  51.2574620 112.5345909  48.0305446  50.5225030
 111.7970427  49.1288795  51.2584117 119.6925005  62.0766940  50.4707789
 119.6195176  62.8821912  50.9827093 119.2502398  62.2758906  49.6455810
 119.4814784  61.3138710  43.9810610 118.6982306  61.8560391  44.0748835
 120.1807530  61.8312690  44.3804851 119.3746403  49.2650723  46.3516500
 119.0044191  48.7121763  47.0397406 119.8705496  48.6608856  45.7991500
 117.2035602  59.7248218  53.4471518 117.9045061  60.3584701  53.6000912
 116.7330717  60.0662949  52.6867157 112.8003320  59.2584573  50.3802621
 113.3856757  58.5128261  50.5130525 112.6028158  59.5688530  51.2639285
 115.6541975  62.2935820  45.3965063 114.9852350  62.7781948  44.9129103
 115.5154845  62.5405041  46.3108442 107.3920975  51.8290173  49.1007064
 107.4305074  51.2953764  49.8944182 106.8861267  51.3025379  48.4818041
 119.7947244  64.3279564  51.9947721 120.3465552  64.4911185  52.7596807
 120.1353437  64.9184002  51.3227746 114.7711737  46.6754714  52.5969606
 114.8353063  47.5369544  52.1847004 114.7078857  46.0628715  51.8641965
 114.2464009  48.7477846  56.2442640 114.8736048  48.3654923  56.8580165
 113.3891928  48.5292048  56.6098333 111.0229552  50.5554275  42.1760995
 111.3182993  49.6464954  42.1228049 110.1217588  50.5342015  41.8541998
 114.5523799  48.6310272  48.1588544 113.8310385  49.2446239  48.0196017
 115.3417055  49.1668037  48.0805190 117.3550113  45.9664698  54.4329196
 117.8784514  46.2126995  55.1955505 117.1362446  46.7984733  54.0132333
 112.7517394  48.2368373  42.3000320 112.4230100  47.3565752  42.1175426
 113.1056764  48.1816042  43.1876710 115.8659217  48.5241343  42.6675798
 116.2055289  49.0527264  41.9454406 116.3131337  48.8621749  43.4434365
 118.5602658  46.9078393  52.1178866 118.2199478  46.1086206  52.5199546
 117.8541664  47.2080104  51.5455699 119.2119130  43.9927706  50.5706189
 120.0345199  43.5188184  50.4485079 119.4557193  44.7718190  51.0704875
 117.8527364  47.0215964  40.8669091 118.5735727  47.3997217  40.3632808
 117.2292668  47.7404841  40.9704069 116.7357708  50.6846826  48.3798168
 116.5902289  50.9987130  49.2722449 116.2582912  51.3031727  47.8269066
 118.5954091  47.6749374  48.4279057 118.5815660  46.7790468  48.0911355
 119.3126519  47.6820038  49.0617343 120.4480222  48.1086715  50.4732185
 120.1898000  49.0303785  50.4716515 119.9165262  47.7117149  51.1632649
 111.2103370  53.2252171  51.3185829 110.6656839  54.0011979  51.4506103
 112.0882720  53.5722975  51.1604950 117.9990987  46.5563755  43.6966627
 118.1206898  45.6280401  43.8957515 117.7093029  46.5702441  42.7844943
 120.8682177  44.2418665  46.8333347 120.8903874  44.3057998  45.8785327
 121.2850236  43.4023174  47.0273853 111.9969392  52.3522067  54.2115986
 111.2551128  52.5004702  54.7980616 111.6762137  52.6130333  53.3482735
 119.9413055  61.8938045  54.0096376 120.2500181  61.6487192  54.8819075
 120.7388537  62.0984684  53.5215246 119.9633667  64.0475955  46.2401752
 119.5238657  63.5552334  46.9334609 120.7141784  63.5048923  45.9993828
 112.4426006  60.2387496  46.2426380 113.2684026  59.9391268  45.8625024
 112.0920058  59.4695118  46.6916169 117.4107539  59.5913964  48.3124054
 116.7887548  58.9284669  48.0126282 118.0812406  59.6175096  47.6297702
 110.6434611  58.1573822  47.2015314 109.8066519  57.7295997  47.0199315
 110.6158256  58.3506266  48.1386105 117.4832067  48.0695752  57.9056560
 117.5320222  48.9457875  57.5234330 118.0254581  47.5273145  57.3328203
 116.9721046  58.1417887  41.7882515 117.1209166  58.8253352  41.1349187
 117.7787490  58.1222977  42.3031970 119.7131355  48.8227124  54.6602919
 118.8434664  49.1160691  54.3885507 119.9490835  49.4067569  55.3810182
 114.7273679  54.1683065  42.7943583 114.4819721  53.2645395  42.9923794
 114.8969594  54.1700215  41.8523061 113.9969327  49.9011423  40.2929745
 113.3038572  49.9755778  39.6369781 113.7521078  49.1371766  40.8151262
 120.4716452  60.6366018  39.2594262 119.8990419  61.2556205  38.8064734
 121.0449245  61.1865380  39.7934184 119.0406167  49.8976807  36.5365200
 118.1337623  49.6009920  36.6127913 119.3182148  49.6006625  35.6699486
 109.9584108  51.2183170  46.9864246 109.6386892  50.3648479  46.6938620
 109.4117536  51.4331749  47.7422213 113.7364015  53.9345611  50.7033753
 113.9550025  54.8662719  50.7221786 114.1489789  53.5753586  51.4888556
 120.6568233  44.4413697  42.6909441 119.8468961  44.0960782  43.0664687
 121.3452650  44.1321240  43.2797053 118.6091880  49.5078817  60.0936502
 118.5088607  50.4573174  60.0248593 118.3913423  49.1797056  59.2212572
 117.8104952  46.7563742  36.6777179 118.6724116  47.0818641  36.9372996
 117.9955296  45.9695238  36.1650245 109.8272368  54.8386082  48.9557368
 109.1335839  54.4240035  48.4427322 110.5745359  54.8806618  48.3590787
 118.4723151  52.9375956  58.9101563 117.9890232  53.7376316  59.1165452
 118.5584090  52.9483901  57.9569007 111.7409110  54.7704336  46.8323383
 111.7179798  54.8692023  45.8805266 112.0509747  55.6169486  47.1540549
 114.3996488  56.8280491  50.9469997 115.3539742  56.7964433  50.8799929
 114.2009012  56.3671114  51.7620223 114.9895870  55.3981607  53.5140795
 115.8088759  55.8925685  53.5375632 115.2632678  54.4813575  53.4858362
 112.7546717  62.3700110  47.9640195 112.6201185  61.6100511  47.3978193
 112.3378779  63.0941010  47.4968984 115.9115843  63.2669427  48.1758638
 115.7948227  64.2114860  48.0737328 115.0908289  62.9642989  48.5644437
 110.2430784  49.7319741  54.2132992 110.8889648  49.2218695  54.7020217
 110.0347936  50.4688422  54.7876417 118.7634395  43.9959785  39.9656888
 118.7513065  44.9401625  40.1225159 119.6557817  43.8129931  39.6716349
 116.9370357  63.9197689  51.3914566 117.8397604  63.9521299  51.7081061
 116.7107727  62.9898140  51.4060902 118.6923959  62.6728676  48.0524645
 117.7419590  62.6730537  47.9389017 118.9956445  61.9261410  47.5360679
 114.5828275  46.8787358  58.3108006 115.4459737  46.5224163  58.5211331
 114.0093686  46.5401253  58.9983410 118.6546753  69.0781497  46.8289597
 119.3417793  68.7643227  46.2410612 118.4994882  69.9822862  46.5556848
 118.2314729  67.1582091  49.1007064 118.2698829  66.6245681  49.8944182
 117.7255022  66.6317296  48.4818041 121.4828366  73.4865740  47.2015314
 120.6460274  73.0587914  47.0199315 121.4552011  73.6798183  48.1386105
 120.7977862  66.5475088  46.9864246 120.4780646  65.6940396  46.6938620
 120.2511290  66.7623666  47.7422213 120.6666122  70.1678000  48.9557368
 119.9729594  69.7531952  48.4427322 121.4139113  70.2098536  48.3590787
  95.8622805   9.8680711  30.6463389  95.7846835  10.8188536  30.7251870
  95.2584449   9.5226584  31.3038315  93.5009635  12.6166105  34.7911591
  93.7406233  13.2484629  35.4690610  92.6578832  12.2654145  35.0776950
  93.9754467   8.6414107  32.1210370  93.3064843   9.1260235  31.6374410
  93.8367337   8.8883328  33.0353748  98.1159736  10.6757851  38.7193028
  98.6678044  10.8389472  39.4842113  98.4565929  11.2662289  38.0473053
  91.0759209   8.7178397  34.6885502  90.9413677   7.9578798  34.1223500
  90.6591271   9.4419297  34.2214290  94.2328335   9.6147714  34.9003944
  94.1160719  10.5593147  34.7982634  93.4120781   9.3121276  35.2889743
  95.2582849  10.2675976  38.1159873  96.1610096  10.2999587  38.4326368
  95.0320219   9.3376427  38.1306208 109.5578851  14.8094929  35.7777238
 109.2197362  14.6935994  34.8897773 110.4268619  14.4086094  35.7578244
 105.4165667  16.6630406  31.7674129 104.8530532  16.5720343  30.9990417
 105.3018062  15.8430310  32.2476622 110.0398634  15.9629781  41.7363444
 110.0287275  15.5682579  40.8643947 110.2019273  15.2295854  42.3297215
 102.9630099  18.1581597  34.6058350 103.7551390  17.8172422  34.1904649
 103.2026749  18.2676572  35.5260503 110.9965225  20.3301373  27.0788594
 110.3453205  20.9155454  26.6922608 111.7909588  20.8607568  27.1383632
 104.9220852  17.4190511  27.4775728 105.6951728  16.8719498  27.3388604
 105.2746251  18.2834760  27.6890190 106.7605895  18.7466893  40.6842628
 106.4695761  19.6512524  40.5689294 107.3962879  18.7883421  41.3986697
 107.6862102  16.1243741  37.2743987 108.2825674  15.8999764  36.5600950
 107.7437073  15.3828487  37.8769435 106.9783419  15.4811283  27.3118553
 106.8619677  14.8056186  27.9799638 107.0885679  14.9943657  26.4950706
 109.3214960  14.9421430  31.0165243 108.9573167  14.4152051  31.7278164
 110.1782076  14.5519899  30.8431728 111.7195780  18.4328308  37.6792421
 111.4196503  19.3353347  37.5708229 111.3746840  18.1660492  38.5313574
 105.1708262  14.8842105  33.7129126 104.2458758  14.7518319  33.9206818
 105.4192675  15.6636325  34.2099068 102.5317073  14.5275379  34.5472915
 102.6609454  14.7809858  35.4612327 101.8514524  15.1203087  34.2277570
 106.7016560  25.1972629  30.6463389 106.6240590  26.1480454  30.7251870
 106.0978203  24.8518501  31.3038315 107.4480162  15.1785948  42.8642723
 108.1894846  15.7170992  42.5877547 106.7417147  15.8052236  43.0214275
 112.9235502  17.3215088  41.4614885 113.3318858  16.8797499  40.7169517
 112.2012763  16.7467716  41.7149077 113.2464316  17.8816279  35.2167173
 112.6173179  18.0461993  34.5143241 112.8589978  18.2957888  35.9878137
 117.1253548  18.8170717  32.5711537 116.4404586  19.1969618  32.0208571
 117.2097397  19.4266043  33.3043485 114.3804480  16.4630676  39.1706881
 114.5921375  17.1062435  38.4941262 114.3334228  15.6292992  38.7028811
 108.7992278  17.6190687  32.4817259 109.2630624  17.8978390  31.6921881
 108.5349076  16.7174131  32.2990349 105.6916359  17.1662168  35.4197022
 106.2617716  17.5949437  34.7814506 106.2824471  16.8844753  36.1181207
 101.4786498  11.9997392  34.5923957 100.6885552  12.2554920  34.1164068
 101.9697746  12.8145730  34.6975998 115.4950308  19.3402631  37.3429238
 116.3167751  18.9382818  37.0611920 115.4912711  19.2370865  38.2945354
 103.4301244  12.3641971  31.5507434 102.6332407  12.4760665  32.0690930
 103.2026836  12.7028623  30.6848324 109.2606911  18.8886674  39.4989949
 109.3251344  19.3507081  40.3348120 108.5517835  18.2584039  39.6272258
  99.7624201  12.2527882  37.0238948 100.0132240  13.1374892  37.2896524
 100.2983750  12.0732484  36.2514040 108.9754929  20.5554782  29.3668929
 108.8400604  21.4006317  29.7953777 109.5164741  20.7574059  28.6034863
 102.4284326  18.0730220  29.9396854 102.9408847  18.8673470  30.0902419
 103.0807039  17.3756510  29.8730455 104.2379211  21.1895976  32.0219607
 104.4145839  22.1113941  31.8340591 105.0336044  20.8754395  32.4513987
 103.5231567  13.2360608  41.8981770 103.4085083  12.3345865  42.1988869
 102.6676085  13.4824305  41.5466587 110.6023405  21.1778348  43.4969271
 110.1587259  20.3914727  43.1790175 111.2640619  21.3657499  42.8313162
 105.3610526  22.7074150  38.0229950 105.9117951  22.5791213  37.2506943
 104.5222002  23.0069039  37.6724842 112.7004643  21.4581148  41.5250672
 112.6823119  22.2790029  41.0330941 113.6224563  21.3335223  41.7500813
 109.1577697  18.9725278  42.3674181 109.6906034  18.2113566  42.1373489
 108.6291779  18.6798929  43.1098335 100.3933243  16.4018874  30.7156425
 101.2308465  16.8115882  30.4990132 100.5711511  15.4618316  30.6856618
 110.5230410  18.1011270  29.8792993 109.9951772  17.3664030  29.5666230
 110.0217913  18.8785946  29.6332961 115.5023256  16.2960291  34.9960039
 114.8446931  16.9859552  35.0840168 116.3063655  16.6856723  35.3394025
 111.5751089  24.6288988  25.8024652 110.9012788  24.9320684  26.4109610
 111.9616911  25.4318068  25.4530109 115.0790511  19.6310665  31.1743123
 114.6252838  18.7901575  31.2308314 114.4484478  20.2672063  31.5117903
 113.5223450  21.4687161  32.1092941 113.8146425  22.0292219  31.3905307
 114.0322071  21.7615722  32.8646101 100.4159414  13.7409589  31.3867158
 100.2183814  13.1478950  30.6618225  99.8606078  13.4361800  32.1043097
 108.4857076  22.2467513  33.1986395 108.4433254  22.4728359  32.2694927
 109.4019774  22.0130887  33.3472196 117.6889826  17.9046543  35.8127624
 118.1226333  17.8121832  36.6610678 118.4021407  17.8804043  35.1747640
 106.6022876  19.1230542  32.9948357 107.3963475  18.6280862  32.7930932
 105.8914569  18.5948405  32.6316063 111.4217721  21.5048637  37.3460725
 111.4754743  22.0739573  38.1138441 110.5532502  21.6750522  36.9814762
 102.9105640  13.2673623  29.0708110 101.9803228  13.2058079  29.2878072
 103.0063112  12.7449576  28.2744751 118.5505376  17.9470244  38.3460510
 118.7441266  18.8516054  38.5919785 118.4505994  17.4877663  39.1799095
 113.6120484  18.0976986  43.9201390 113.4605991  17.8687538  43.0031474
 113.6025164  19.0547588  43.9332735 110.3805821  15.6708899  38.9047657
 111.3097881  15.8220059  38.7316624 109.9596851  15.7592920  38.0496303
 109.1794152  19.6959564  36.6746194 109.0405238  19.3278348  37.5472133
 108.3908749  20.2107203  36.5030152 109.7742304  24.7968660  28.0171731
 109.9494060  24.3256703  28.8317354 109.0875092  25.4234426  28.2452992
 110.7299368  19.0741166  34.0635032 110.3949200  19.0341936  34.9592682
 110.2303313  18.4085882  33.5905443 104.7043611  14.4808796  39.5887613
 104.5663409  13.7489035  40.1899152 105.6148535  14.3917696  39.3071801
 107.3325912  14.1928756  39.0771293 108.0425531  13.5521948  39.0357912
 107.2895220  14.4441650  39.9997474 115.3212691  21.1296109  41.9977872
 115.2625237  20.4455329  41.3308455 115.7232209  21.8715099  41.5458498
 104.3403390  27.9458023  34.7911591 104.5799988  28.5776547  35.4690610
 103.4972586  27.5946063  35.0776950 115.3230098  19.0935693  40.2291852
 114.4356877  18.7561615  40.3518251 115.8928649  18.3618724  40.4660617
  96.9759245  15.4259785  33.5534903  97.6630285  15.1121515  32.9655919
  96.8207374  16.3301149  33.2802155 108.8531251  23.7537145  37.1953095
 108.7801423  24.5592117  37.7072400 108.4108645  23.9529111  36.3701117
 108.6421031  22.9908915  30.7055917 107.8588553  23.5330595  30.7994141
 109.3413776  23.5082895  31.1050158 111.3129935  23.6523979  39.3511254
 112.0257907  24.2871444  39.2787155 110.8219964  23.7487845  38.5351256
 113.0347462  17.5575232  30.9228546 112.1003741  17.6776694  30.7533250
 113.2124130  16.6547699  30.6588555 106.3641849  21.4018423  40.1716825
 107.0651308  22.0354906  40.3246219 105.8936964  21.7433154  39.4112464
 111.1250308  23.9922723  32.0997545 111.3072703  23.1744379  32.5625298
 111.9483294  24.2090416  31.6622435 111.4592474  22.9190908  29.3612594
 111.9880240  22.4083363  28.7482756 111.7220693  22.6033439  30.2258127
 110.2130708  14.6982841  44.4835412 109.5371345  14.5976971  45.1537787
 111.0358341  14.5422055  44.9471409 101.9609567  20.9354778  37.1047927
 102.5463003  20.1898466  37.2375832 101.7634405  21.2458734  37.9884591
 104.8148222  23.9706025  32.1210370 104.1458597  24.4552153  31.6374410
 104.6761092  24.2175246  33.0353748  96.5527221  13.5060378  35.8252370
  96.5911321  12.9723969  36.6189489  96.0467514  12.9795583  35.2063348
 108.9553490  26.0049769  38.7193028 109.5071798  26.1681390  39.4842113
 109.2959684  26.5954207  38.0473053 113.8064365  20.8311026  44.5741683
 114.3504269  21.4440984  44.0796637 113.2251210  21.3890605  45.0908696
 100.1835799  12.2324480  28.9006302 100.4789240  11.3235159  28.8473356
  99.2823835  12.2112220  28.5787304 112.0921878  23.9531744  35.7056710
 111.9673017  23.1521484  35.1967656 112.7500969  24.4477938  35.2170680
 114.1556786  21.7540764  37.3336260 113.2087122  21.6346115  37.2614587
 114.5039559  20.8663262  37.4162522 111.1603219  21.5493481  33.5340613
 111.0128182  20.6210188  33.7148183 111.9856713  21.5713571  33.0497688
 114.7637341  22.3722039  34.6205485 115.6883889  22.1664901  34.4829936
 114.5952645  22.1238440  35.5294827 114.5532657  22.8907707  29.9767577
 114.7269535  22.3254129  29.2241429 115.0461549  23.6908602  29.7947067
 100.3709617  14.9022376  38.0431136  99.8263085  15.6782184  38.1751410
 101.2488967  15.2493180  37.8850257 101.1575639  14.0292272  40.9361292
 100.4157375  14.1774907  41.5225923 100.8368383  14.2900538  40.0728042
 109.1019302  23.5708250  40.7341682 109.4106428  23.3257397  41.6064382
 109.8994784  23.7754889  40.2460553 109.1239914  25.7246160  32.9647059
 108.6844904  25.2322539  33.6579916 109.8748031  25.1819128  32.7239134
 101.6032253  21.9157701  32.9671687 102.4290273  21.6161473  32.5870331
 101.2526305  21.1465323  33.4161476 106.5713786  21.2684169  35.0369361
 105.9493795  20.6054874  34.7371589 107.2418653  21.2945301  34.3543008
  99.8040858  19.8344027  33.9260621  98.9672766  19.4066202  33.7444622
  99.7764503  20.0276471  34.8631412 117.1293159  20.2907080  43.9103004
 116.3388703  20.2731219  43.3707503 116.8926514  20.8295374  44.6652040
 106.1327293  19.8188092  28.5127821 106.2815413  20.5023557  27.8594494
 106.9393736  19.7993182  29.0277277 118.7509231  19.5596488  41.4677754
 118.4594039  19.9226469  42.3041215 118.1381362  18.8463496  41.2891086
 103.8879926  15.8453270  29.5188890 103.6425968  14.9415600  29.7169100
 104.0575840  15.8470420  28.5768368 109.6322698  22.3136223  25.9839569
 109.0596665  22.9326410  25.5310040 110.2055492  22.8635584  26.5179491
 109.9008189  17.7014782  44.7856278 110.8211199  17.8793381  44.9796325
 109.8657772  16.7570827  44.6335977  99.1190354  12.8953375  33.7109553
  98.7993139  12.0418684  33.4183927  98.5723783  13.1101953  34.4667520
 102.8970262  15.6115816  37.4279059 103.1156272  16.5432924  37.4467093
 103.3096036  15.2523791  38.2133863  98.9878614  16.5156287  35.6802674
  98.2942086  16.1010240  35.1672629  99.7351605  16.5576823  35.0836093
 107.6329397  14.6146161  45.6346870 107.1496479  15.4146521  45.8410759
 107.7190336  14.6254106  44.6814314 100.9015357  16.4474541  33.5568689
 100.8786045  16.5462228  32.6050572 101.2115993  17.2939691  33.8785855
 103.5602735  18.5050696  37.6715304 104.5145988  18.4734638  37.6045235
 103.3615258  18.0441319  38.4865530 104.1502117  17.0751812  40.2386101
 104.9695006  17.5695890  40.2620939 104.4238925  16.1583780  40.2103669
 101.9152964  24.0470315  34.6885502 101.7807432  23.2870716  34.1223500
 101.4985026  24.7711215  34.2214290 105.0722089  24.9439632  34.9003944
 104.9554474  25.8885065  34.7982634 104.2514536  24.6413194  35.2889743
  99.4037031  11.4089946  40.9378298 100.0495895  10.8988900  41.4265524
  99.1954182  12.1458627  41.5121724 111.9290423  18.4770793  46.4370439
 112.7981583  18.6511445  46.0757074 111.4497175  19.2965210  46.3146168
 106.0976604  25.5967894  38.1159873 107.0003850  25.6291504  38.4326368
 105.8713974  24.6668345  38.1306208 107.8530206  24.3498881  34.7769951
 106.9025837  24.3500742  34.6634323 108.1562692  23.6031615  34.2605986
 120.3972605  30.1386847  35.7777238 120.0591117  30.0227912  34.8897773
 121.2662374  29.7378012  35.7578244 116.2559421  31.9922323  31.7674129
 115.6924286  31.9012260  30.9990417 116.1411816  31.1722228  32.2476622
 120.8792388  31.2921699  41.7363444 120.8681029  30.8974497  40.8643947
 121.0413028  30.5587771  42.3297215 113.8023853  33.4873515  34.6058350
 114.5945145  33.1464340  34.1904649 114.0420503  33.5968490  35.5260503
 115.7614607  32.7482428  27.4775728 116.5345483  32.2011415  27.3388604
 116.1140006  33.6126678  27.6890190 117.5999650  34.0758811  40.6842628
 117.3089515  34.9804441  40.5689294 118.2356634  34.1175338  41.3986697
 118.5255856  31.4535659  37.2743987 119.1219429  31.2291682  36.5600950
 118.5830828  30.7120405  37.8769435 117.8177174  30.8103200  27.3118553
 117.7013432  30.1348104  27.9799638 117.9279433  30.3235574  26.4950706
 120.1608714  30.2713348  31.0165243 119.7966922  29.7443968  31.7278164
 121.0175830  29.8811817  30.8431728 116.0102016  30.2134023  33.7129126
 115.0852513  30.0810237  33.9206818 116.2586429  30.9928242  34.2099068
 113.3710827  29.8567296  34.5472915 113.5003208  30.1101775  35.4612327
 112.6908278  30.4495004  34.2277570 117.5410314  40.5264546  30.6463389
 117.4634344  41.4772372  30.7251870 116.9371958  40.1810419  31.3038315
 120.0327544  27.6992412  43.3024756 119.2560878  28.2586332  43.2927621
 120.6718107  28.1849195  43.8239626 118.2873916  30.5077865  42.8642723
 119.0288601  31.0462909  42.5877547 117.5810902  31.1344154  43.0214275
 120.1160326  27.5879612  38.8348442 120.9621521  28.0119026  38.9783091
 120.0558964  26.9313237  39.5287005 119.6386033  32.9482604  32.4817259
 120.1024378  33.2270307  31.6921881 119.3742831  32.0466049  32.2990349
 116.5310114  32.4954086  35.4197022 117.1011471  32.9241354  34.7814506
 117.1218226  32.2136671  36.1181207 118.5754919  29.0705757  29.2906824
 119.2778962  29.5226800  29.7580750 118.2435547  28.4289576  29.9186717
 117.0235280  27.6617513  43.6658033 116.3933941  28.3433794  43.8993430
 116.9171368  27.5500595  42.7211171 112.3180253  27.3289309  34.5923957
 111.5279307  27.5846838  34.1164068 112.8091500  28.1437647  34.6975998
 114.2694998  27.6933889  31.5507434 113.4726161  27.8052583  32.0690930
 114.0420590  28.0320541  30.6848324 120.1000666  34.2178592  39.4989949
 120.1645098  34.6798999  40.3348120 119.3911590  33.5875957  39.6272258
 110.6017956  27.5819800  37.0238948 110.8525994  28.4666810  37.2896524
 111.1377504  27.4024401  36.2514040 119.8148683  35.8846699  29.3668929
 119.6794358  36.7298235  29.7953777 120.3558496  36.0865977  28.6034863
 116.3016023  21.9638279  46.0283284 115.9082969  21.4104478  46.7030928
 117.1182163  22.2748858  46.4189802 113.2678081  33.4022137  29.9396854
 113.7802601  34.1965388  30.0902419 113.9200794  32.7048428  29.8730455
 115.0772965  36.5187894  32.0219607 115.2539594  37.4405858  31.8340591
 115.8729799  36.2046313  32.4513987 119.2183984  23.3796158  43.6203541
 119.9593697  23.9803311  43.5408003 119.4501907  22.6373796  43.0621583
 114.3625322  28.5652526  41.8981770 114.2478837  27.6637783  42.1988869
 113.5069840  28.8116222  41.5466587 116.2004281  38.0366068  38.0229950
 116.7511706  37.9083131  37.2506943 115.3615757  38.3360957  37.6724842
 119.9971452  34.3017195  42.3674181 120.5299789  33.5405484  42.1373489
 119.4685533  34.0090847  43.1098335 111.2326997  31.7310792  30.7156425
 112.0702219  32.1407800  30.4990132 111.4105265  30.7910234  30.6856618
 118.4880573  21.8620646  34.8683237 119.3533570  21.6663455  34.5089127
 118.5558082  21.6330998  35.7952594 121.3624165  33.4303188  29.8792993
 120.8345526  32.6955947  29.5666230 120.8611667  34.2077864  29.6332961
 116.0942892  24.0922854  32.2399604 116.6686644  23.8698036  31.5072797
 116.6813875  24.1611549  32.9928205 111.2553169  29.0701507  31.3867158
 111.0577568  28.4770868  30.6618225 110.6999833  28.7653717  32.1043097
 119.2349892  28.9624614  33.5061751 119.2898502  28.0098450  33.4304228
 118.4241094  29.1184053  33.9903050 117.1742252  27.5801673  31.2652130
 116.3610118  27.8795844  31.6717322 117.6701246  27.1857362  31.9826612
 119.3250830  37.5759430  33.1986395 119.2827009  37.8020277  32.2694927
 120.2413529  37.3422805  33.3472196 116.6656327  25.1520029  36.8813365
 117.3055706  25.0108788  36.1836328 115.8333857  24.8654542  36.5051967
 117.4416631  34.4522459  32.9948357 118.2357229  33.9572779  32.7930932
 116.7308323  33.9240322  32.6316063 113.7499394  28.5965541  29.0708110
 112.8196982  28.5349996  29.2878072 113.8456866  28.0741494  28.2744751
 113.6684943  25.1220354  31.6586352 113.9291761  26.0365687  31.5495512
 114.4902116  24.6544796  31.8082965 115.1409869  26.5358111  38.8285176
 115.8132922  26.3275473  38.1797825 114.3139655  26.3380197  38.3890409
 120.0187907  35.0251481  36.6746194 119.8798993  34.6570266  37.5472133
 119.2302503  35.5399121  36.5030152 120.6136059  40.1260578  28.0171731
 120.7887815  39.6548621  28.8317354 119.9268847  40.7526344  28.2452992
 121.5693122  34.4033084  34.0635032 121.2342955  34.3633854  34.9592682
 121.0697068  33.7377800  33.5905443 115.5437366  29.8100714  39.5887613
 115.4057164  29.0780953  40.1899152 116.4542289  29.7209614  39.3071801
 118.1719667  29.5220673  39.0771293 118.8819285  28.8813865  39.0357912
 118.1288975  29.7733568  39.9997474 116.8848601  26.5085891  40.8966933
 116.3485958  26.0576630  41.5488529 116.2965309  26.6431800  40.1537397
 115.1797144  43.2749940  34.7911591 115.4193742  43.9068465  35.4690610
 114.3366341  42.9237980  35.0776950 107.8153000  30.7551702  33.5534903
 108.5024040  30.4413432  32.9655919 107.6601128  31.6593067  33.2802155
 112.6187722  25.6441899  37.9819927 112.5345911  25.0367568  37.2470337
 111.7970428  26.1350917  37.9829423 119.6925006  39.0829063  37.1953095
 119.6195177  39.8884034  37.7072400 119.2502399  39.2821029  36.3701117
 119.4814786  38.3200833  30.7055917 118.6982307  38.8622513  30.7994141
 120.1807531  38.8374813  31.1050158 119.3746404  26.2712845  33.0761807
 119.0044192  25.7183886  33.7642712 119.8705497  25.6670979  32.5236807
 117.2035603  36.7310340  40.1716825 117.9045063  37.3646823  40.3246219
 116.7330718  37.0725072  39.4112464 112.8003321  36.2646695  37.1047927
 113.3856758  35.5190383  37.2375832 112.6028160  36.5750652  37.9884591
 115.6541976  39.2997943  32.1210370 114.9852352  39.7844070  31.6374410
 115.5154846  39.5467163  33.0353748 107.3920976  28.8352296  35.8252370
 107.4305075  28.3015886  36.6189489 106.8861269  28.3087501  35.2063348
 119.7947245  41.3341686  38.7193028 120.3465553  41.4973308  39.4842113
 120.1353438  41.9246124  38.0473053 114.7711738  23.6816836  39.3214913
 114.8353065  24.5431667  38.9092310 114.7078858  23.0690838  38.5887271
 114.2464011  25.7539969  42.9687947 114.8736049  25.3717046  43.5825471
 113.3891930  25.5354171  43.3343640 111.0229553  27.5616398  28.9006302
 111.3182994  26.6527076  28.8473356 110.1217589  27.5404137  28.5787304
 114.5523800  25.6372394  34.8833850 113.8310386  26.2508362  34.7441324
 115.3417056  26.1730159  34.8050496 117.3550114  22.9726821  41.1574502
 117.8784516  23.2189117  41.9200812 117.1362447  23.8046856  40.7377640
 112.7517395  25.2430495  29.0245627 112.4230101  24.3627874  28.8420733
 113.1056766  25.1878164  29.9122016 115.8659218  25.5303465  29.3921105
 116.2055291  26.0589387  28.6699713 116.3131339  25.8683871  30.1679671
 118.5602659  23.9140516  38.8424173 118.2199479  23.1148329  39.2444853
 117.8541665  24.2142227  38.2701006 119.2119131  20.9989828  37.2951496
 120.0345200  20.5250307  37.1730386 119.4557194  21.7780312  37.7950182
 116.7357710  27.6908949  35.1043474 116.5902290  28.0049252  35.9967756
 116.2582913  28.3093849  34.5514373 118.5954092  24.6811497  35.1524364
 118.5815661  23.7852590  34.8156662 119.3126521  24.6882161  35.7862650
 120.4480223  25.1148837  37.1977491 120.1898001  26.0365908  37.1961822
 119.9165264  24.7179272  37.8877956 111.2103372  30.2314293  38.0431136
 110.6656840  31.0074101  38.1751410 112.0882722  30.5785098  37.8850257
 111.9969394  29.3584190  40.9361292 111.2551130  29.5066825  41.5225923
 111.6762138  29.6192455  40.0728042 119.9413056  38.9000168  40.7341682
 120.2500183  38.6549315  41.6064382 120.7388538  39.1046806  40.2460553
 119.9633668  41.0538078  32.9647059 119.5238659  40.5614456  33.6579916
 120.7141785  40.5111045  32.7239134 112.4426007  37.2449618  32.9671687
 113.2684027  36.9453390  32.5870331 112.0920059  36.4757241  33.4161476
 117.4107540  36.5976087  35.0369361 116.7887550  35.9346792  34.7371589
 118.0812407  36.6237219  34.3543008 110.6434612  35.1635945  33.9260621
 109.8066521  34.7358119  33.7444622 110.6158258  35.3568388  34.8631412
 117.4832068  25.0757875  44.6301867 117.5320223  25.9519997  44.2479636
 118.0254582  24.5335268  44.0573510 116.9721047  35.1480010  28.5127821
 117.1209168  35.8315474  27.8594494 117.7787491  35.1285100  29.0277277
 119.7131356  25.8289247  41.3848225 118.8434666  26.1222813  41.1130814
 119.9490837  26.4129692  42.1055489 114.7273680  31.1745188  29.5188890
 114.4819722  30.2707518  29.7169100 114.8969595  31.1762338  28.5768368
 113.9969328  26.9073545  27.0175052 113.3038573  26.9817900  26.3615088
 113.7521080  26.1433889  27.5396569 120.4716453  37.6428140  25.9839569
 119.8990420  38.2618328  25.5310040 121.0449247  38.1927502  26.5179491
 109.9584109  28.2245293  33.7109553 109.6386893  27.3710601  33.4183927
 109.4117537  28.4393871  34.4667520 113.7364016  30.9407734  37.4279059
 113.9550026  31.8724842  37.4467093 114.1489790  30.5815708  38.2133863
 118.6091882  26.5140940  46.8181808 118.5088609  27.4635297  46.7493899
 118.3913424  26.1859179  45.9457878 109.8272369  31.8448204  35.6802674
 109.1335840  31.4302157  35.1672629 110.5745360  31.8868741  35.0836093
 118.4723152  29.9438079  45.6346870 117.9890234  30.7438439  45.8410759
 118.5584091  29.9546023  44.6814314 111.7409111  31.7766458  33.5568689
 111.7179800  31.8754146  32.6050572 112.0509748  32.6231609  33.8785855
 114.3996489  33.8342613  37.6715304 115.3539743  33.8026556  37.6045235
 114.2009013  33.3733237  38.4865530 114.9895871  32.4043729  40.2386101
 115.8088760  32.8987808  40.2620939 115.2632679  31.4875697  40.2103669
 112.7546718  39.3762233  34.6885502 112.6201186  38.6162634  34.1223500
 112.3378780  40.1003133  34.2214290 115.9115844  40.2731550  34.9003944
 115.7948228  41.2176982  34.7982634 115.0908290  39.9705111  35.2889743
 110.2430786  26.7381863  40.9378298 110.8889649  26.2280817  41.4265524
 110.0347937  27.4750545  41.5121724 116.9370358  40.9259812  38.1159873
 117.8397605  40.9583422  38.4326368 116.7107728  39.9960263  38.1306208
 118.6923960  39.6790798  34.7769951 117.7419591  39.6792660  34.6634323
 118.9956446  38.9323533  34.2605986 114.5828277  23.8849480  45.0353313
 115.4459738  23.5286285  45.2456637 114.0093687  23.5463375  45.7228717
 118.6546754  46.0843620  33.5534903 119.3417794  45.7705350  32.9655919
 118.4994883  46.9884985  33.2802155 118.2314730  44.1644213  35.8252370
 118.2698830  43.6307804  36.6189489 117.7255023  43.6379419  35.2063348
 121.4828367  50.4927863  33.9260621 120.6460275  50.0650037  33.7444622
 121.4552012  50.6860306  34.8631412 120.7977863  43.5537211  33.7109553
 120.4780648  42.7002519  33.4183927 120.2511292  43.7685789  34.4667520
 120.6666123  47.1740122  35.6802674 119.9729595  46.7594075  35.1672629
 121.4139114  47.2160659  35.0836093   3.1813537  55.2872828 105.4552809
   2.5075236  55.5904525 106.0637767   3.5679359  56.0901909 105.1058266
   7.1470277  52.8658312 106.7292632   7.8421182  53.4865004 106.9479947
   7.4893428  52.0153663 107.0045010   1.2385146  52.9720063 105.6367726
   0.6659113  53.5910251 105.1838198   1.8117940  53.5219425 106.1707648
   4.4582406  53.2557214 106.7676308   5.3913079  53.1902775 106.9709184
   4.3705619  54.0913480 106.3090841   7.0870422  52.5723084 103.7280256
   7.0084054  52.2382948 104.6216013   7.9080089  53.0644852 103.7271728
   4.6574374  49.8891079 103.3490234   5.3610224  50.0941082 103.9647889
   3.9337023  50.4567841 103.6139317   6.5661072  50.3273609 105.3988694
   7.4006675  49.8954807 105.2166169   6.4045414  50.1555622 106.3265588
  15.1945347  60.8443260 115.4943871  15.8323757  60.7250007 114.7907211
  15.0766190  61.7924104 115.5531823   7.8621869  62.6506164 111.4202286
   7.2986734  62.5596101 110.6518574   7.7474264  61.8306069 111.9004779
  13.4421427  66.3177132 106.7316751  12.7909407  66.9031212 106.3450765
  14.2365790  66.8483327 106.7911789   7.3677054  63.4066269 107.1303886
   8.1407930  62.8595256 106.9916761   7.7202453  64.2710518 107.3418347
   9.7043332  59.5658935 104.7622335   9.9568853  59.0440456 104.0005798
   8.7667891  59.4025081 104.8649019  14.7486615  58.5694713 112.5697079
  15.5349704  58.1514137 112.2187496  15.0125319  59.4740806 112.7378727
  14.9196692  64.0067564 107.2685736  14.2842525  64.0802190 107.9806640
  14.5894099  64.5961163 106.5904815  20.1495042  58.5069947 113.4730057
  20.8820214  57.9369164 113.7067887  19.3934398  58.1191547 113.9136563
   9.4239621  61.4687041 106.9646710   9.3075879  60.7931944 107.6327795
   9.5341881  60.9819415 106.1478864  11.7671162  60.9297188 110.6693400
  11.4029369  60.4027809 111.3806321  12.6238278  60.5395657 110.4959885
  11.4076649  55.9587088 105.6654748  11.5751051  56.8267324 106.0325219
  11.2173818  56.1214370 104.7416037  11.3865870  58.4144745 106.6501415
  11.2665495  58.8601796 107.4886895  10.6918458  58.7630063 106.0914953
   9.1472762  71.1848387 110.2991546   9.0696792  72.1356212 110.3780027
   8.5434406  70.8394260 110.9566473  17.0850936  58.8866219 107.4781749
  17.9968792  59.1193605 107.3029447  16.5760583  59.4703263 106.9156828
  15.6920518  63.8692037 114.8695331  15.0629381  64.0337751 114.1671398
  15.3046180  64.2833647 115.6406295  19.5709750  64.8046475 112.2239694
  18.8860788  65.1845376 111.6736728  19.6553600  65.4141802 112.9571642
  11.2448480  63.6066445 112.1345416  11.7086826  63.8854148 111.3450038
  10.9805278  62.7049890 111.9518506  10.1817366  59.7289597 108.9434981
  10.8841410  60.1810641 109.4108907   9.8497995  59.0873416 109.5714874
  17.9406510  65.3278389 116.9957395  18.7623953  64.9258577 116.7140077
  17.9368913  65.2246623 117.9473511  26.0312503  61.6717138 113.3442367
  25.2776211  61.1024536 113.1886371  26.1660044  61.6379802 114.2913001
  11.4211131  66.5430540 109.0197086  11.2856806  67.3882076 109.4481934
  11.9620943  66.7449818 108.2563020   4.8740528  64.0605978 109.5925011
   5.3865049  64.8549228 109.7430576   5.5263241  63.3632269 109.5258613
   6.6835413  67.1771734 111.6747764   6.8602041  68.0989699 111.4868748
   7.4792246  66.8630154 112.1042144   2.8389445  62.3894632 110.3684582
   3.6764667  62.7991641 110.1518289   3.0167713  61.4494075 110.3384775
  14.7353877  60.0569713 106.0568415  14.2200501  60.8274318 106.2956802
  14.4631186  59.3834849 106.6801476  12.3200988  54.9019414 111.1153653
  11.4642585  54.5126264 110.9359292  12.7327940  54.9811375 110.2553438
  19.7088151  62.8102068 107.9921588  18.9317594  62.4713227 107.5476750
  20.3879632  62.8154691 107.3176553  14.5240180  57.9296805 107.8828196
  14.2190316  58.2442954 108.7338339  15.4770622  58.0078225 107.9255529
  12.9686612  64.0887029 109.5321150  12.4407974  63.3539788 109.2194387
  12.4674115  64.8661705 109.2861118  17.9479458  62.2836049 114.6488196
  17.2903133  62.9735310 114.7368325  18.7519857  62.6732481 114.9922182
  16.7584917  60.6380422 112.6992138  17.2716799  61.2710414 113.2013848
  17.4086141  60.0381617 112.3335498   8.0274927  56.7811156 105.9123647
   7.1912239  57.1185842 106.2332921   7.8879697  56.6460136 104.9750783
  11.1139212  61.9067239 102.5356123  10.2066274  61.6756492 102.7347272
  11.6110244  61.1104858 102.7230104  14.0207291  70.6164746 105.4552809
  13.3468990  70.9196443 106.0637767  14.4073113  71.4193826 105.1058266
  14.0200796  59.5121293 110.0753159  14.7672615  60.0242690 109.7660281
  14.2892385  59.1905346 110.9357552  12.2927446  62.0079834 107.0580113
  11.3838665  61.7238866 107.1552583  12.3222530  62.4278912 106.1983420
  17.5246713  65.6186423 110.8271280  17.0709040  64.7777333 110.8836471
  16.8940680  66.2547822 111.1646061  16.4679633  56.5478409 112.0571948
  15.7302390  56.0355795 112.3882190  16.7206406  56.1078791 111.2455225
  15.9679652  67.4562920 111.7621099  16.2602627  68.0167977 111.0433464
  16.4778273  67.7491481 112.5174258  10.8412340  59.6208454 113.1589908
  10.8960950  58.6682291 113.0832385  10.0303542  59.7767893 113.6431207
  11.9903534  63.5488577 104.3968191  11.5522964  62.8324436 103.9373829
  12.7313974  63.7764692 103.8353283   8.7804700  58.2385514 110.9180287
   7.9672565  58.5379685 111.3245479   9.2763694  57.8441203 111.6354769
  10.9313278  68.2343271 112.8514552  10.8889456  68.4604117 111.9223084
  11.8475976  68.0006645 113.0000353  20.1076648  61.8245774 110.4544510
  19.9694547  62.0147370 109.5265699  19.7512867  62.5865157 110.9112561
  20.1346028  63.8922301 115.4655782  20.5682535  63.7997590 116.3138836
  20.8477609  63.8679802 114.8275798   9.0479078  65.1106300 112.6476514
   9.8419677  64.6156620 112.4459089   8.3370771  64.5824163 112.2844220
   5.3561842  59.2549382 108.7236267   4.4259430  59.1933837 108.9406229
   5.4519314  58.7325334 107.9272908  20.9961578  63.9346002 117.9988667
  21.1897468  64.8391813 118.2447942  20.8962196  63.4753421 118.8327252
  12.2198506  70.7844418 107.6699888  12.3950262  70.3132462 108.4845511
  11.5331294  71.4110185 107.8981149  13.1755570  65.0616925 113.7163189
  12.8405402  65.0217695 114.6120839  12.6759515  64.3961641 113.2433600
  16.1114761  62.4072959 103.9900249  15.4943932  61.6819787 103.8933302
  15.6431250  63.1682319 103.6467323   7.9013307  56.6258383 103.1121553
   7.0242773  56.5047184 102.7483800   8.3771060  55.8344462 102.8600442
  11.0877233  68.9784674 110.3584074  10.3044755  69.5206354 110.4522298
  11.7869978  69.4958653 110.7578315  22.2503641  60.4919669 114.6436571
  22.2393517  61.3744384 114.2730504  21.3821020  60.1391219 114.4491108
  15.4803664  63.5450990 110.5756703  14.5459943  63.6652453 110.4061407
  15.6580332  62.6423457 110.3116712  18.8676215  59.3868310 111.1106737
  19.3336668  60.2196301 111.0367039  19.3183716  58.9213291 111.8151995
  16.9352446  65.7312131 108.1092889  17.2112290  65.6168725 109.0186763
  16.0656945  65.3329616 108.0705062  13.5706510  69.9798482 111.7525702
  13.7528905  69.1620138 112.2153455  14.3939496  70.1966174 111.3150592
  13.9048676  68.9066667 109.0140751  14.4336442  68.3959121 108.4010913
  14.1676896  68.5909197 109.8786284   2.6292001  58.2200238 108.5534459
   2.9245442  57.3110917 108.5001513   1.7280037  58.1987978 108.2315461
  14.5378080  69.9407503 115.3584867  14.4129219  69.1397242 114.8495813
  15.1957171  70.4353696 114.8698837  16.6012988  67.7416523 116.9864417
  15.6543324  67.6221874 116.9142744  16.9495761  66.8539021 117.0690679
  13.6059421  67.5369239 113.1868770  13.4584384  66.6085946 113.3676340
  14.4312915  67.5589330 112.7025845   7.4721666  56.1887306 109.0449262
   7.8117738  56.7173227 108.3227870   7.9193786  56.5267712 109.8207828
  17.2093543  68.3597798 114.2733642  18.1340091  68.1540659 114.1358094
  17.0408847  68.1114199 115.1822984   9.4589813  54.6861928 107.2442555
  10.1798175  55.0643180 106.7406271   8.8355117  55.4050804 107.3477533
  13.6020936  55.3907077 108.1800887  13.8184550  56.2731714 107.8789715
  13.1215003  54.9993290 107.4506529  16.9988859  68.8783465 109.6295734
  17.1725737  68.3129888 108.8769586  17.4917751  69.6784360 109.4475224
  22.8528251  61.6419888 111.2486034  23.2959397  60.8927213 110.8505157
  21.9754761  61.6330024 110.8659766  17.9864032  68.1950229 106.7292632
  18.6814937  68.8156922 106.9479947  18.3287182  67.3445581 107.0045010
  19.8855455  65.6449935 108.2579963  20.4106779  65.9837208 107.5329283
  19.7977808  64.7096950 108.0743098   8.5783495  65.8063851 108.1655978
   8.7271615  66.4899315 107.5122651   9.3849938  65.7868941 108.6805434
  22.3961115  63.1125126 113.6408481  23.2308007  63.5514930 113.8046042
  22.5320244  62.6363780 112.8216727   6.3336128  61.8329028 109.1717047
   6.0882170  60.9291358 109.3697257   6.5032042  61.8346179 108.2296525
   5.6031775  57.5657386 106.6703209   4.9101020  57.6401741 106.0143245
   5.3583527  56.8017730 107.1924726  12.0778900  68.3011981 105.6367726
  11.5052867  68.9202168 105.1838198  12.6511694  68.8511343 106.1707648
  15.2976160  68.5849131 106.7676308  16.2306833  68.5194693 106.9709184
  15.2099373  69.4205398 106.3090841  17.9264177  67.9015002 103.7280256
  17.8477808  67.5674865 104.6216013  18.7473844  68.3936770 103.7271728
  20.6242368  60.7676741 116.9356574  20.5918688  59.8292742 117.1216258
  21.2342992  60.8460778 116.2022399  12.4625699  59.6372794 102.9783778
  13.4084804  59.5079002 103.0472196  12.0839944  58.8987456 103.4553206
  26.4418918  61.8292748 116.0762611  27.1722306  61.5678036 116.6370314
  25.8325863  61.0921470 116.1164679  24.5234215  59.9700610 116.6737062
  23.7967379  59.8356575 116.0653554  24.1081502  60.2777439 117.4793780
  10.6468616  57.5622770 102.9138663   9.7400071  57.2655883 102.9901377
  10.9244597  57.2652588 102.0472950  12.2630682  52.1059660 109.0682905
  11.4531410  51.7606745 109.4438151  12.9515099  51.7967204 109.6570516
   9.4167401  54.4209705 103.0550643  10.2786565  54.7464604 103.3146460
   9.6017745  53.6341201 102.5423708  17.5700037  53.2938232 110.1985866
  16.9898706  53.9523036 109.8163918  17.3035970  52.4715577 109.7873283
  16.3524915  55.4538322 109.2542214  15.4650770  55.7387973 109.0362409
  16.7678904  55.2932086 108.4069491  19.7039451  55.4784843 112.9696553
  20.4799841  55.9681296 113.2421170  18.9787585  55.9042898 113.4268423
  22.1412010  56.1912463 114.0270494  22.7356501  55.9508198 113.3163802
  22.2138594  55.4719593 114.6544030  15.4968129  65.2182997 103.3490234
  16.2003979  65.4233000 103.9647889  14.7730777  65.7859759 103.6139317
  16.3265939  60.9692858 109.4692504  16.2701140  61.4261410 108.6300136
  16.8794281  60.2083543 109.2915347  20.1370745  56.7582590 110.2942624
  19.8807679  56.3579226 111.1250831  19.5123613  57.4726384 110.1692763
  24.4483083  59.4978663 112.8013915  23.8882641  59.5671853 113.5745477
  23.8426586  59.3219648 112.0813411  17.4054826  65.6565526 105.3988694
  18.2400430  65.2246725 105.2166169  17.2439169  65.4847540 106.3265588
  17.0600718  62.1597640 106.7645033  17.0049522  61.9941911 105.8233477
  16.4346773  62.8673672 106.9207223  10.3696844  51.6605749 106.3430352
  10.3575514  52.6047588 106.4998622  11.2620266  51.4775894 106.0489813
  26.0339101  76.1735177 115.4943871  26.6717511  76.0541925 114.7907211
  25.9159944  77.1216021 115.5531823  22.8428807  76.1262605 115.4305395
  22.5047319  76.0103670 114.5425930  23.7118576  75.7253771 115.4106402
  18.7015623  77.9798082 111.4202286  18.1380488  77.8888019 110.6518574
  18.5868018  77.1597986 111.9004779  24.2815182  81.6469050 106.7316751
  23.6303162  82.2323130 106.3450765  25.0759545  82.1775244 106.7911789
  18.2070809  78.7358187 107.1303886  18.9801685  78.1887174 106.9916761
  18.5596208  79.6002436 107.3418347  20.9712058  77.4411417 116.9272145
  21.5675631  77.2167440 116.2129107  21.0287030  76.6996163 117.5297592
  20.5437087  74.8950853 104.7622335  20.7962607  74.3732374 104.0005798
  19.6061646  74.7316998 104.8649019  25.5880370  73.8986631 112.5697079
  26.3743459  73.4806054 112.2187496  25.8519074  74.8032723 112.7378727
  25.7590447  79.3359481 107.2685736  25.1236280  79.4094108 107.9806640
  25.4287853  79.9253080 106.5904815  30.9888797  73.8361864 113.4730057
  31.7213969  73.2661081 113.7067887  30.2328152  73.4483465 113.9136563
  20.2633376  76.7978959 106.9646710  20.1469634  76.1223862 107.6327795
  20.3735635  76.3111333 106.1478864  22.6064916  76.2589106 110.6693400
  22.2423124  75.7319727 111.3806321  23.4632032  75.8687575 110.4959885
  28.5114217  67.5483438 117.9324666  28.1797542  68.4178849 117.7085881
  27.9159830  67.2319722 118.6118696  22.2470403  71.2879006 105.6654748
  22.4144806  72.1559242 106.0325219  22.0567573  71.4506287 104.7416037
  25.0045737  79.7495984 117.3320579  24.7046460  80.6521023 117.2236386
  24.6596796  79.4828168 118.1841731  18.4558218  76.2009781 113.3657283
  17.5308715  76.0685995 113.5734975  18.7042631  76.9804001 113.8627225
  28.4042880  72.2678525 115.0118016  27.4959758  72.1993933 114.7176777
  28.3530476  72.7450470 115.8399841  22.2259624  73.7436663 106.6501415
  22.1059250  74.1893714 107.4886895  21.5312213  74.0921981 106.0914953
  19.9866516  86.5140305 110.2991546  19.9090546  87.4648130 110.3780027
  19.3828160  86.1686177 110.9566473  30.2704527  70.4694963 116.7895890
  29.6278907  70.7627496 116.1435684  29.7659455  70.3547883 117.5949086
  27.9244690  74.2158136 107.4781749  28.8362547  74.4485523 107.3029447
  27.4154338  74.7995180 106.9156828  22.5616528  73.5755371 118.4876599
  23.4077723  73.9994784 118.6311248  22.5015166  72.9188995 119.1815162
  26.5314273  79.1983955 114.8695331  25.9023135  79.3629669 114.1671398
  26.1439935  79.6125564 115.6406295  30.4103505  80.1338393 112.2239694
  29.7254543  80.5137294 111.6736728  30.4947354  80.7433719 112.9571642
  25.7115974  71.2359739 120.1457772  25.4676905  71.9901800 119.6092048
  25.9875904  71.6145087 120.9805019  27.6654436  77.7798352 118.8235038
  27.8771332  78.4230111 118.1469419  27.6184185  76.9460668 118.3556968
  25.2680665  70.3916172 115.7271610  24.4065144  70.6897426 116.0188348
  25.2943100  70.6086571 114.7952643  22.0842235  78.9358363 112.1345416
  22.5480580  79.2146066 111.3450038  21.8199033  78.0341807 111.9518506
  18.9766316  78.4829844 115.0725179  19.5467673  78.9117113 114.4342663
  19.5674428  78.2012429 115.7709365  21.0211121  75.0581515 108.9434981
  21.7235164  75.5102559 109.4108907  20.6891749  74.4165334 109.5714874
  14.7636455  73.3165068 114.2452114  13.9735509  73.5722596 113.7692225
  15.2547702  74.1313406 114.3504155  28.7800264  80.6570307 116.9957395
  29.6017708  80.2550494 116.7140077  28.7762667  80.5538541 117.9473511
  16.7151200  73.6809647 111.2035591  15.9182363  73.7928341 111.7219087
  16.4876792  74.0196299 110.3376482  36.8706257  77.0009055 113.3442367
  36.1169966  76.4316454 113.1886371  37.0053799  76.9671720 114.2913001
  22.2604885  81.8722458 109.0197086  22.1250560  82.7173994 109.4481934
  22.8014698  82.0741735 108.2563020  15.7134283  79.3897896 109.5925011
  16.2258803  80.1841146 109.7430576  16.3656996  78.6924186 109.5258613
  17.5229167  82.5063652 111.6747764  17.6995796  83.4281617 111.4868748
  18.3186001  82.1922071 112.1042144  25.6097349  65.3953020 117.5495979
  25.2661618  66.2854661 117.4735090  25.9776312  65.2054677 116.6865564
  13.6783200  77.7186550 110.3684582  14.5158422  78.1283558 110.1518289
  13.8561467  76.7785992 110.3384775  25.5747632  75.3861631 106.0568415
  25.0594255  76.1566235 106.2956802  25.3024940  74.7126767 106.6801476
  23.1594743  70.2311332 111.1153653  22.3036339  69.8418182 110.9359292
  23.5721694  70.3103292 110.2553438  24.6893889  67.7657675 115.5145213
  24.1858685  67.7287810 114.7013018  24.9824496  68.6750418 115.5741869
  20.9336775  67.8496405 114.5211394  21.7989772  67.6539213 114.1617284
  21.0014284  67.6206756 115.4480751  30.5481906  78.1393985 107.9921588
  29.7711349  77.8005145 107.5476750  31.2273387  78.1446609 107.3176553
  25.3633935  73.2588723 107.8828196  25.0584070  73.5734872 108.7338339
  26.3164377  73.3370143 107.9255529  23.8080367  79.4178946 109.5321150
  23.2801728  78.6831706 109.2194387  23.3067869  80.1953623 109.2861118
  28.7873213  77.6127967 114.6488196  28.1296887  78.3027228 114.7368325
  29.5913612  78.0024399 114.9922182  18.5399094  70.0798612 111.8927761
  19.1142846  69.8573794 111.1600954  19.1270077  70.1487307 112.6456363
  27.5978671  75.9672339 112.6992138  28.1110553  76.6002331 113.2013848
  28.2479895  75.3673535 112.3335498  18.8668681  72.1103073 105.9123647
  18.0305994  72.4477760 106.2332921  18.7273451  71.9752053 104.9750783
  20.8421762  66.9539861 110.6202831  20.1886174  66.6388879 109.9959445
  20.8002236  66.3315602 111.3462654  21.9532967  77.2359156 102.5356123
  21.0460029  77.0048410 102.7347272  22.4503999  76.4396776 102.7230104
  24.8601046  85.9456664 105.4552809  24.1862744  86.2488360 106.0637767
  25.2466868  86.7485744 105.1058266  24.0759502  73.4421795 114.9450478
  23.1582064  73.6636742 114.7872166  24.4919646  73.5168105 114.0862186
  24.8594550  74.8413211 110.0753159  25.6066369  75.3534608 109.7660281
  25.1286140  74.5197263 110.9357552  23.1321200  77.3371751 107.0580113
  22.2232420  77.0530784 107.1552583  23.1616284  77.7570830 106.1983420
  28.3640468  80.9478341 110.8271280  27.9102795  80.1069251 110.8836471
  27.7334434  81.5839739 111.1646061  27.3073387  71.8770327 112.0571948
  26.5696144  71.3647713 112.3882190  27.5600161  71.4370708 111.2455225
  26.8073407  82.7854838 111.7621099  27.0996381  83.3459895 111.0433464
  27.3172028  83.0783398 112.5174258  27.4085015  64.6546579 112.6513717
  27.7143891  63.7943942 112.3639632  28.1337619  65.2464199 112.4512711
  13.7009371  75.0577265 111.0395315  13.5033770  74.4646626 110.3146382
  13.1456035  74.7529476 111.7571254  21.6806094  74.9500372 113.1589908
  21.7354704  73.9974208 113.0832385  20.8697296  75.1059811 113.6431207
  22.8297288  78.8780495 104.3968191  22.3916718  78.1616354 103.9373829
  23.5707729  79.1056610 103.8353283  19.6198454  73.5677432 110.9180287
  18.8066320  73.8671602 111.3245479  20.1157448  73.1733120 111.6354769
  21.7707032  83.5635189 112.8514552  21.7283211  83.7896035 111.9223084
  22.6869731  83.3298563 113.0000353  25.2172666  74.0319256 119.7495181
  25.5722054  74.2590729 120.6089647  25.8644797  74.3637633 119.1272436
  30.9470403  77.1537692 110.4544510  30.8088301  77.3439288 109.5265699
  30.5906622  77.9157075 110.9112561  19.1112529  71.1395787 116.5341522
  19.7511908  70.9984546 115.8364485  18.2790060  70.8530301 116.1580124
  30.9739782  79.2214219 115.4655782  31.4076289  79.1289508 116.3138836
  31.6871363  79.1971719 114.8275798  19.8872833  80.4398218 112.6476514
  20.6813431  79.9448538 112.4459089  19.1764525  79.9116081 112.2844220
  16.1955596  74.5841299 108.7236267  15.2653184  74.5225755 108.9406229
  16.2913068  74.0617252 107.9272908  16.1141145  71.1096112 111.3114509
  16.3747963  72.0241445 111.2023669  16.9358318  70.6420555 111.4611122
  31.8355332  79.2637920 117.9988667  32.0291222  80.1683730 118.2447942
  31.7355950  78.8045339 118.8327252  23.4891643  69.1495810 120.4978994
  22.8419558  69.8485760 120.4043471  24.2592658  69.5831954 120.8655242
  23.6655777  76.9876575 118.5575814  24.5947837  77.1387735 118.3844781
  23.2446807  77.0760596 117.7024460  23.0592261  86.1136336 107.6699888
  23.2344017  85.6424379 108.4845511  22.3725049  86.7402102 107.8981149
  24.0149324  80.3908842 113.7163189  23.6799157  80.3509612 114.6120839
  23.5153270  79.7253558 113.2433600  26.9508516  77.7364877 103.9900249
  26.3337686  77.0111705 103.8933302  26.4825004  78.4974237 103.6467323
  18.7407062  71.9550301 103.1121553  17.8636528  71.8339102 102.7483800
  19.2164815  71.1636379 102.8600442  28.6080055  80.4103369 119.8820009
  27.7206833  80.0729291 120.0046408  29.1778606  79.6786400 120.1188774
  21.9270988  84.3076591 110.3584074  21.1438510  84.8498271 110.4522298
  22.6263733  84.8250571 110.7578315  25.2367638  70.1171221 113.0018279
  25.7336337  69.3641183 112.6819349  24.4654619  70.1535537 112.4361489
  33.0897395  75.8211586 114.6436571  33.0787271  76.7036302 114.2730504
  32.2214775  75.4683137 114.4491108  26.3197418  78.8742908 110.5756703
  25.3853697  78.9944370 110.4061407  26.4974087  77.9715375 110.3116712
  21.8202607  72.2588604 112.7289964  21.4500394  71.7059644 113.4170869
  22.3161699  71.6546737 112.1764964  29.7069970  74.7160227 111.1106737
  30.1730422  75.5488219 111.0367039  30.1577470  74.2505209 111.8151995
  27.7746201  81.0604049 108.1092889  28.0506045  80.9460643 109.0186763
  26.9050700  80.6621533 108.0705062  27.6786633  67.0840814 115.1497638
  26.7649712  67.3145041 115.3179845  28.1079734  67.1679258 116.0011670
  27.4493091  75.2730706 117.6497532  26.7964541  75.5206614 116.9949985
  27.8273471  74.4594844 117.3160009  24.4100265  85.3090399 111.7525702
  24.5922659  84.4912055 112.2153455  25.2333251  85.5258092 111.3150592
  24.7442430  84.2358585 109.0140751  25.2730197  83.7251039 108.4010913
  25.0070650  83.9201115 109.8786284  17.2167940  69.6692595 118.9743070
  17.2809267  70.5307425 118.5620468  17.1535060  69.0566596 118.2415428
  13.4685755  73.5492156 108.5534459  13.7639197  72.6402835 108.5001513
  12.5673791  73.5279896 108.2315461  25.3771834  85.2699420 115.3584867
  25.2522974  84.4689160 114.8495813  26.0350925  85.7645614 114.8698837
  16.9980002  71.6248153 114.5362008  16.2766588  72.2384120 114.3969481
  17.7873258  72.1605918 114.4578654  27.4406743  83.0708440 116.9864417
  26.4937078  82.9513792 116.9142744  27.7889516  82.1830938 117.0690679
  19.8006316  68.9602579 120.8102659  20.3240718  69.2064876 121.5728969
  19.5818649  69.7922614 120.3905797  15.1973597  71.2306254 108.6773784
  14.8686303  70.3503633 108.4948890  15.5512968  71.1753923 109.5650173
  24.4453176  82.8661157 113.1868770  24.2978138  81.9377864 113.3676340
  25.2706669  82.8881247 112.7025845  18.3115420  71.5179224 109.0449262
  18.6511493  72.0465145 108.3227870  18.7587541  71.8559630 109.8207828
  28.0487298  83.6889715 114.2733642  28.9733845  83.4832577 114.1358094
  27.8802601  83.4406116 115.1822984  21.0058861  69.9016274 118.4952330
  20.6655681  69.1024087 118.8973010  20.2997867  70.2017985 117.9229163
  21.6575333  66.9865587 116.9479653  22.4801402  66.5126065 116.8258543
  21.9013396  67.7656071 117.4478339  20.2983567  70.0153845 107.2442555
  21.0191930  70.3935098 106.7406271  19.6748871  70.7342722 107.3477533
  24.4414690  70.7198994 108.1800887  24.6578305  71.6023632 107.8789715
  23.9608757  70.3285208 107.4506529  19.1813912  73.6784707 114.7571631
  19.0358492  73.9925010 115.6495913  18.7039115  74.2969608 114.2042530
  21.0410294  70.6687255 114.8052521  21.0271863  69.7728349 114.4684819
  21.7582723  70.6757919 115.4390807  22.8936425  71.1024596 116.8505648
  22.6354203  72.0241666 116.8489979  22.3621466  70.7055030 117.5406113
  27.8382614  84.2075383 109.6295734  28.0119491  83.6421805 108.8769586
  28.3311505  85.0076278 109.4475224  20.4447190  69.5501636 110.0740091
  20.5663102  68.6218282 110.2730979  20.1549233  69.5640322 109.1618407
  23.3138381  67.2356546 113.2106811  23.3360078  67.2995879 112.2558791
  23.7306440  66.3961055 113.4047317  33.6922005  76.9711806 111.2486034
  34.1353151  76.2219131 110.8505157  32.8148515  76.9621942 110.8659766
  28.8257786  83.5242147 106.7292632  29.5208691  84.1448840 106.9479947
  29.1680937  82.6737498 107.0045010  30.7249210  80.9741853 108.2579963
  31.2500534  81.3129125 107.5329283  30.6371562  80.0388868 108.0743098
  30.5340991  78.4567223 120.8763889  30.5838996  78.2917230 121.8179412
  30.4254914  77.5894482 120.4861770  19.4177249  81.1355768 108.1655978
  19.5665370  81.8191233 107.5122651  20.2243693  81.1160858 108.6805434
  27.8244753  74.4398151 122.1923196  28.7254616  74.3004616 121.9007194
  27.8992728  74.6052606 123.1321374  22.1587558  71.8165005 121.0376382
  21.2890868  72.1098572 120.7658971  22.3947039  72.4005450 121.7583646
  32.0359188  80.8764164 121.1205911  31.7443996  81.2394145 121.9569372
  31.4231319  80.1631172 120.9419243  33.2354870  78.4417044 113.6408481
  34.0701761  78.8806848 113.8046042  33.3713999  77.9655697 112.8216727
  30.2846376  75.9996779 119.5885969  30.7600497  76.1924425 118.7804820
  29.3611941  76.0555965 119.3429353  17.1729882  77.1620946 109.1717047
  16.9275924  76.2583276 109.3697257  17.3425797  77.1638096 108.2296525
  24.8626592  68.0344622 118.5541803  25.3808536  68.7705649 118.2288291
  24.5081725  68.3408616 119.3888562  16.4425530  72.8949304 106.6703209
  15.7494775  72.9693659 106.0143245  16.1977282  72.1309647 107.1924726
  25.1139186  64.4544905 114.0742699  25.3940940  63.7868094 114.7003126
  25.8989793  64.6474001 113.5617363  22.9172655  83.6303899 105.6367726
  22.3446622  84.2494086 105.1838198  23.4905449  84.1803261 106.1707648
  28.9848045  72.8762539 117.8214275  29.9365468  72.9760637 117.8426499
  28.8151495  72.0840807 118.3312359  27.0062424  69.9618122 118.0073675
  26.4112356  70.2423135 117.3120164  26.7212121  70.4512023 118.7790417
  26.1369915  83.9141049 106.7676308  27.0700588  83.8486611 106.9709184
  26.0493128  84.7497316 106.3090841  28.7657931  83.2306919 103.7280256
  28.6871563  82.8966783 104.6216013  29.5867598  83.7228687 103.7271728
  31.4636123  76.0968659 116.9356574  31.4312443  75.1584659 117.1216258
  32.0736746  76.1752695 116.2022399  23.3019453  74.9664712 102.9783778
  24.2478558  74.8370920 103.0472196  22.9233698  74.2279373 103.4553206
  31.6130611  72.8879702 116.9814857  31.0969660  72.1038159 116.7944786
  32.4970560  72.5598419 117.1461377  29.2741338  66.6320718 112.9410670
  29.0766159  66.3235806 113.8254002  29.8841044  67.3582357 113.0708600
  37.2812672  77.1584665 116.0762611  38.0116061  76.8969954 116.6370314
  36.6719618  76.4213387 116.1164679  35.3627970  75.2992528 116.6737062
  34.6361133  75.1648493 116.0653554  34.9475256  75.6069357 117.4793780
  21.4862371  72.8914688 102.9138663  20.5793826  72.5947801 102.9901377
  21.7638352  72.5944506 102.0472950  23.1024436  67.4351578 109.0682905
  22.2925165  67.0898663 109.4438151  23.7908853  67.1259121 109.6570516
  25.0314985  66.5129624 110.6907201  25.5846023  66.9325078 111.3497224
  25.2685071  65.5865373 110.7330157  20.2561155  69.7501623 103.0550643
  21.1180319  70.0756521 103.3146460  20.4411499  68.9633119 102.5423708
  28.4093792  68.6230150 110.1985866  27.8292461  69.2814954 109.8163918
  28.1429724  67.8007494 109.7873283  26.8597358  68.0235207 112.4007186
  27.3597136  68.1351742 111.5921505  27.5032966  67.7196260 113.0407994
  27.1918670  70.7830240 109.2542214  26.3044525  71.0679891 109.0362409
  27.6072659  70.6224003 108.4069491  30.5433206  70.8076761 112.9696553
  31.3193596  71.2973213 113.2421170  29.8181340  71.2334815 113.4268423
  32.9805764  71.5204380 114.0270494  33.5750255  71.2800116 113.3163802
  33.0532348  70.8011511 114.6544030  26.3361883  80.5474915 103.3490234
  27.0397733  80.7524917 103.9647889  25.6124532  81.1151677 103.6139317
  27.1659693  76.2984776 109.4692504  27.1094895  76.7553327 108.6300136
  27.7188036  75.5375461 109.2915347  30.9764499  72.0874508 110.2942624
  30.7201434  71.6871143 111.1250831  30.3517367  72.8018302 110.1692763
  35.2876837  74.8270581 112.8013915  34.7276395  74.8963770 113.5745477
  34.6820341  74.6511566 112.0813411  28.2448581  80.9857444 105.3988694
  29.0794184  80.5538642 105.2166169  28.0832923  80.8139458 106.3265588
  27.8994473  77.4889557 106.7645033  27.8443277  77.3233829 105.8233477
  27.2740528  78.1965590 106.9207223  21.2090598  66.9897666 106.3430352
  21.1969268  67.9339506 106.4998622  22.1014020  66.8067812 106.0489813
  25.0242718  63.5840443 110.5976288  24.2575113  63.0298930 110.7432971
  25.4353423  63.6562312 111.4590440  36.8732856  91.5027095 115.4943871
  37.5111266  91.3833842 114.7907211  36.7553699  92.4507939 115.5531823
  33.6822562  91.4554523 115.4305395  33.3441073  91.3395588 114.5425930
  34.5512330  91.0545688 115.4106402  29.5409378  93.3090000 111.4202286
  28.9774243  93.2179936 110.6518574  29.4261773  92.4889904 111.9004779
  35.1208936  96.9760967 106.7316751  34.4696916  97.5615048 106.3450765
  35.9153299  97.5067162 106.7911789  29.0464563  94.0650104 107.1303886
  29.8195439  93.5179091 106.9916761  29.3989962  94.9294354 107.3418347
  31.8105813  92.7703335 116.9272145  32.4069385  92.5459358 116.2129107
  31.8680784  92.0288081 117.5297592  31.3830841  90.2242770 104.7622335
  31.6356362  89.7024292 104.0005798  30.4455400  90.0608916 104.8649019
  36.4274124  89.2278549 112.5697079  37.2137213  88.8097972 112.2187496
  36.6912828  90.1324641 112.7378727  36.5984201  94.6651399 107.2685736
  35.9630034  94.7386026 107.9806640  36.2681608  95.2544998 106.5904815
  41.8282551  89.1653782 113.4730057  42.5607723  88.5952999 113.7067887
  41.0721907  88.7775382 113.9136563  31.1027130  92.1270876 106.9646710
  30.9863388  91.4515780 107.6327795  31.2129390  91.6403250 106.1478864
  33.4458671  91.5881024 110.6693400  33.0816878  91.0611645 111.3806321
  34.3025787  91.1979493 110.4959885  39.3507972  82.8775356 117.9324666
  39.0191296  83.7470767 117.7085881  38.7553585  82.5611640 118.6118696
  33.0864158  86.6170923 105.6654748  33.2538560  87.4851160 106.0325219
  32.8961327  86.7798205 104.7416037  35.8439491  95.0787902 117.3320579
  35.5440214  95.9812941 117.2236386  35.4990551  94.8120085 118.1841731
  29.2951973  91.5301699 113.3657283  28.3702469  91.3977913 113.5734975
  29.5436386  92.3095918 113.8627225  39.2436635  87.5970442 115.0118016
  38.3353512  87.5285851 114.7176777  39.1924231  88.0742387 115.8399841
  33.0653379  89.0728581 106.6501415  32.9453004  89.5185632 107.4886895
  32.3705967  89.4213898 106.0914953  30.8260271 101.8432222 110.2991546
  30.7484301 102.7940048 110.3780027  30.2221915 101.4978095 110.9566473
  41.1098281  85.7986881 116.7895890  40.4672662  86.0919414 116.1435684
  40.6053210  85.6839801 117.5949086  38.7638445  89.5450054 107.4781749
  39.6756301  89.7777441 107.3029447  38.2548092  90.1287098 106.9156828
  33.4010283  88.9047289 118.4876599  34.2471478  89.3286702 118.6311248
  33.3408920  88.2480913 119.1815162  37.3708027  94.5275872 114.8695331
  36.7416890  94.6921587 114.1671398  36.9833689  94.9417482 115.6406295
  41.2497259  95.4630310 112.2239694  40.5648297  95.8429212 111.6736728
  41.3341108  96.0725637 112.9571642  36.5509728  86.5651657 120.1457772
  36.3070660  87.3193717 119.6092048  36.8269659  86.9437004 120.9805019
  38.5048191  93.1090269 118.8235038  38.7165086  93.7522029 118.1469419
  38.4577939  92.2752586 118.3556968  36.1074420  85.7208090 115.7271610
  35.2458899  86.0189343 116.0188348  36.1336854  85.9378489 114.7952643
  32.9235989  94.2650280 112.1345416  33.3874335  94.5437983 111.3450038
  32.6592787  93.3633725 111.9518506  29.8160070  93.8121762 115.0725179
  30.3861427  94.2409030 114.4342663  30.4068182  93.5304347 115.7709365
  31.8604875  90.3873433 108.9434981  32.5628919  90.8394476 109.4108907
  31.5285504  89.7457252 109.5714874  25.6030209  88.6456985 114.2452114
  24.8129263  88.9014514 113.7692225  26.0941457  89.4605323 114.3504155
  39.6194019  95.9862225 116.9957395  40.4411462  95.5842412 116.7140077
  39.6156422  95.8830459 117.9473511  27.5544955  89.0101565 111.2035591
  26.7576118  89.1220259 111.7219087  27.3270547  89.3488217 110.3376482
  47.7100012  92.3300973 113.3442367  46.9563720  91.7608371 113.1886371
  47.8447553  92.2963638 114.2913001  33.0998640  97.2014375 109.0197086
  32.9644315  98.0465911 109.4481934  33.6408452  97.4033653 108.2563020
  26.5528037  94.7189813 109.5925011  27.0652558  95.5133064 109.7430576
  27.2050750  94.0216104 109.5258613  28.3622922  97.8355570 111.6747764
  28.5389550  98.7573534 111.4868748  29.1579755  97.5213989 112.1042144
  36.4491103  80.7244937 117.5495979  36.1055373  81.6146579 117.4735090
  36.8170066  80.5346595 116.6865564  24.5176954  93.0478468 110.3684582
  25.3552176  93.4575476 110.1518289  24.6955222  92.1077910 110.3384775
  36.4141386  90.7153548 106.0568415  35.8988010  91.4858153 106.2956802
  36.1418695  90.0418685 106.6801476  33.9988497  85.5603249 111.1153653
  33.1430094  85.1710100 110.9359292  34.4115449  85.6395210 110.2553438
  35.5287644  83.0949592 115.5145213  35.0252439  83.0579728 114.7013018
  35.8218251  84.0042335 115.5741869  31.7730530  83.1788322 114.5211394
  32.6383526  82.9831131 114.1617284  31.8408039  82.9498674 115.4480751
  41.3875660  93.4685903 107.9921588  40.6105103  93.1297063 107.5476750
  42.0667141  93.4738526 107.3176553  36.2027689  88.5880641 107.8828196
  35.8977825  88.9026790 108.7338339  37.1558131  88.6662060 107.9255529
  34.6474121  94.7470864 109.5321150  34.1195483  94.0123623 109.2194387
  34.1461624  95.5245540 109.2861118  39.6266967  92.9419884 114.6488196
  38.9690642  93.6319146 114.7368325  40.4307366  93.3316316 114.9922182
  29.3792849  85.4090530 111.8927761  29.9536601  85.1865712 111.1600954
  29.9663831  85.4779225 112.6456363  38.4372426  91.2964257 112.6992138
  38.9504308  91.9294249 113.2013848  39.0873650  90.6965453 112.3335498
  29.7062436  87.4394991 105.9123647  28.8699748  87.7769678 106.2332921
  29.5667206  87.3043971 104.9750783  31.6815516  82.2831779 110.6202831
  31.0279929  81.9680796 109.9959445  31.6395991  81.6607520 111.3462654
  32.7926721  92.5651074 102.5356123  31.8853783  92.3340328 102.7347272
  33.2897753  91.7688693 102.7230104  35.6994800 101.2748581 105.4552809
  35.0256499 101.5780278 106.0637767  36.0860622 102.0777662 105.1058266
  34.9153257  88.7713713 114.9450478  33.9975818  88.9928660 114.7872166
  35.3313400  88.8460023 114.0862186  35.6988305  90.1705128 110.0753159
  36.4460124  90.6826525 109.7660281  35.9679894  89.8489181 110.9357552
  33.9714955  92.6663669 107.0580113  33.0626174  92.3822702 107.1552583
  34.0010039  93.0862748 106.1983420  39.2034222  96.2770258 110.8271280
  38.7496549  95.4361168 110.8836471  38.5728189  96.9131657 111.1646061
  38.1467142  87.2062245 112.0571948  37.4089899  86.6939631 112.3882190
  38.3993915  86.7662626 111.2455225  37.6467161  98.1146755 111.7621099
  37.9390136  98.6751812 111.0433464  38.1565782  98.4075316 112.5174258
  38.2478769  79.9838497 112.6513717  38.5537646  79.1235860 112.3639632
  38.9731374  80.5756117 112.4512711  24.5403125  90.3869183 111.0395315
  24.3427525  89.7938544 110.3146382  23.9849789  90.0821393 111.7571254
  32.5199849  90.2792290 113.1589908  32.5748459  89.3266126 113.0832385
  31.7091051  90.4351729 113.6431207  33.6691043  94.2072413 104.3968191
  33.2310472  93.4908272 103.9373829  34.4101483  94.4348527 103.8353283
  30.4592209  88.8969349 110.9180287  29.6460074  89.1963520 111.3245479
  30.9551203  88.5025038 111.6354769  32.6100787  98.8927106 112.8514552
  32.5676965  99.1187953 111.9223084  33.5263485  98.6590481 113.0000353
  36.0566420  89.3611174 119.7495181  36.4115808  89.5882647 120.6089647
  36.7038552  89.6929551 119.1272436  41.7864157  92.4829610 110.4544510
  41.6482056  92.6731206 109.5265699  41.4300376  93.2448993 110.9112561
  29.9506283  86.4687705 116.5341522  30.5905663  86.3276464 115.8364485
  29.1183814  86.1822218 116.1580124  41.8133537  94.5506137 115.4655782
  42.2470044  94.4581426 116.3138836  42.5265118  94.5263637 114.8275798
  30.7266587  95.7690135 112.6476514  31.5207186  95.2740455 112.4459089
  30.0158280  95.2407998 112.2844220  27.0349351  89.9133217 108.7236267
  26.1046939  89.8517673 108.9406229  27.1306823  89.3909170 107.9272908
  26.9534900  86.4388030 111.3114509  27.2141717  87.3533363 111.2023669
  27.7752072  85.9712472 111.4611122  42.6749087  94.5929837 117.9988667
  42.8684977  95.4975648 118.2447942  42.5749705  94.1337256 118.8327252
  34.3285397  84.4787728 120.4978994  33.6813312  85.1777678 120.4043471
  35.0986413  84.9123872 120.8655242  34.5049532  92.3168493 118.5575814
  35.4341592  92.4679652 118.3844781  34.0840562  92.4052514 117.7024460
  33.8986015 101.4428254 107.6699888  34.0737771 100.9716297 108.4845511
  33.2118803 102.0694020 107.8981149  34.8543079  95.7200760 113.7163189
  34.5192911  95.6801530 114.6120839  34.3547024  95.0545476 113.2433600
  37.7902270  93.0656794 103.9900249  37.1731441  92.3403622 103.8933302
  37.3218759  93.8266155 103.6467323  29.5800816  87.2842219 103.1121553
  28.7030282  87.1631019 102.7483800  30.0558569  86.4928297 102.8600442
  39.4473809  95.7395287 119.8820009  38.5600588  95.4021208 120.0046408
  40.0172360  95.0078318 120.1188774  32.7664742  99.6368509 110.3584074
  31.9832264 100.1790189 110.4522298  33.4657487 100.1542489 110.7578315
  36.0761392  85.4463138 113.0018279  36.5730092  84.6933101 112.6819349
  35.3048374  85.4827455 112.4361489  43.9291150  91.1503504 114.6436571
  43.9181026  92.0328219 114.2730504  43.0608529  90.7975055 114.4491108
  37.1591173  94.2034826 110.5756703  36.2247452  94.3236288 110.4061407
  37.3367841  93.3007292 110.3116712  32.6596361  87.5880521 112.7289964
  32.2894149  87.0351562 113.4170869  33.1555453  86.9838655 112.1764964
  40.5463724  90.0452145 111.1106737  41.0124176  90.8780137 111.0367039
  40.9971225  89.5797127 111.8151995  38.6139955  96.3895966 108.1092889
  38.8899799  96.2752561 109.0186763  37.7444454  95.9913451 108.0705062
  38.5180387  82.4132732 115.1497638  37.6043467  82.6436959 115.3179845
  38.9473488  82.4971176 116.0011670  38.2886846  90.6022624 117.6497532
  37.6358296  90.8498531 116.9949985  38.6667225  89.7886762 117.3160009
  35.2494019 100.6382317 111.7525702  35.4316414  99.8203973 112.2153455
  36.0727005 100.8550009 111.3150592  35.5836185  99.5650502 109.0140751
  36.1123951  99.0542957 108.4010913  35.8464404  99.2493032 109.8786284
  28.0561695  84.9984512 118.9743070  28.1203021  85.8599343 118.5620468
  27.9928815  84.3858514 118.2415428  24.3079510  88.8784074 108.5534459
  24.6032951  87.9694752 108.5001513  23.4067546  88.8571813 108.2315461
  36.2165589 100.5991338 115.3584867  36.0916728  99.7981078 114.8495813
  36.8744680 101.0937531 114.8698837  27.8373757  86.9540070 114.5362008
  27.1160343  87.5676038 114.3969481  28.6267013  87.4897835 114.4578654
  38.2800497  98.4000358 116.9864417  37.3330833  98.2805709 116.9142744
  38.6283270  97.5122856 117.0690679  30.6400070  84.2894497 120.8102659
  31.1634472  84.5356793 121.5728969  30.4212404  85.1214532 120.3905797
  26.0367352  86.5598172 108.6773784  25.7080058  85.6795550 108.4948890
  26.3906722  86.5045840 109.5650173  35.2846930  98.1953074 113.1868770
  35.1371893  97.2669782 113.3676340  36.1100424  98.2173165 112.7025845
  29.1509175  86.8471141 109.0449262  29.4905247  87.3757063 108.3227870
  29.5981295  87.1851547 109.8207828  38.8881052  99.0181633 114.2733642
  39.8127600  98.8124494 114.1358094  38.7196356  98.7698034 115.1822984
  31.8452616  85.2308192 118.4952330  31.5049436  84.4316005 118.8973010
  31.1391622  85.5309903 117.9229163  32.4969087  82.3157504 116.9479653
  33.3195157  81.8417983 116.8258543  32.7407151  83.0947988 117.4478339
  31.1377322  85.3445763 107.2442555  31.8585684  85.7227016 106.7406271
  30.5142626  86.0634640 107.3477533  35.2808445  86.0490912 108.1800887
  35.4972059  86.9315550 107.8789715  34.8002512  85.6577125 107.4506529
  30.0207666  89.0076625 114.7571631  29.8752247  89.3216928 115.6495913
  29.5432870  89.6261525 114.2042530  31.8804049  85.9979173 114.8052521
  31.8665618  85.1020266 114.4684819  32.5976477  86.0049837 115.4390807
  33.7330180  86.4316513 116.8505648  33.4747958  87.3533584 116.8489979
  33.2015220  86.0346948 117.5406113  38.6776368  99.5367300 109.6295734
  38.8513246  98.9713723 108.8769586  39.1705260 100.3368195 109.4475224
  31.2840945  84.8793553 110.0740091  31.4056856  83.9510200 110.2730979
  30.9942987  84.8932239 109.1618407  34.1532135  82.5648464 113.2106811
  34.1753832  82.6287797 112.2558791  34.5700194  81.7252972 113.4047317
  44.5315760  92.3003723 111.2486034  44.9746906  91.5511049 110.8505157
  43.6542270  92.2913860 110.8659766  39.6651541  98.8534065 106.7292632
  40.3602446  99.4740757 106.9479947  40.0074691  98.0029416 107.0045010
  41.5642964  96.3033770 108.2579963  42.0894288  96.6421043 107.5329283
  41.4765317  95.3680786 108.0743098  41.3734745  93.7859140 120.8763889
  41.4232750  93.6209148 121.8179412  41.2648669  92.9186399 120.4861770
  30.2571004  96.4647686 108.1655978  30.4059124  97.1483150 107.5122651
  31.0637447  96.4452776 108.6805434  38.6638508  89.7690068 122.1923196
  39.5648370  89.6296533 121.9007194  38.7386482  89.9344523 123.1321374
  32.9981313  87.1456923 121.0376382  32.1284622  87.4390489 120.7658971
  33.2340793  87.7297368 121.7583646  42.8752942  96.2056082 121.1205911
  42.5837750  96.5686062 121.9569372  42.2625073  95.4923090 120.9419243
  44.0748624  93.7708962 113.6408481  44.9095516  94.2098766 113.8046042
  44.2107753  93.2947615 112.8216727  41.1240130  91.3288696 119.5885969
  41.5994252  91.5216343 118.7804820  40.2005696  91.3847882 119.3429353
  28.0123637  92.4912864 109.1717047  27.7669679  91.5875194 109.3697257
  28.1819551  92.4930014 108.2296525  35.7020347  83.3636540 118.5541803
  36.2202291  84.0997567 118.2288291  35.3475479  83.6700533 119.3888562
  27.2819284  88.2241221 106.6703209  26.5888529  88.2985576 106.0143245
  27.0371036  87.4601565 107.1924726  35.9532941  79.7836823 114.0742699
  36.2334695  79.1160012 114.7003126  36.7383548  79.9765918 113.5617363
  33.7566409  98.9595816 105.6367726  33.1840376  99.5786004 105.1838198
  34.3299203  99.5095178 106.1707648  39.8241799  88.2054457 117.8214275
  40.7759222  88.3052554 117.8426499  39.6545250  87.4132725 118.3312359
  37.8456179  85.2910040 118.0073675  37.2506111  85.5715053 117.3120164
  37.5605875  85.7803941 118.7790417  36.9763669  99.2432967 106.7676308
  37.9094342  99.1778528 106.9709184  36.8886882 100.0789233 106.3090841
  39.6051686  98.5598837 103.7280256  39.5265317  98.2258701 104.6216013
  40.4261353  99.0520605 103.7271728  42.3029877  91.4260576 116.9356574
  42.2706197  90.4876577 117.1216258  42.9130501  91.5044613 116.2022399
  34.1413208  90.2956629 102.9783778  35.0872313  90.1662837 103.0472196
  33.7627453  89.5571291 103.4553206  42.4524366  88.2171620 116.9814857
  41.9363414  87.4330076 116.7944786  43.3364314  87.8890336 117.1461377
  40.1135092  81.9612635 112.9410670  39.9159914  81.6527723 113.8254002
  40.7234798  82.6874274 113.0708600  48.1206427  92.4876583 116.0762611
  48.8509815  92.2261871 116.6370314  47.5113372  91.7505305 116.1164679
  46.2021724  90.6284446 116.6737062  45.4754888  90.4940411 116.0653554
  45.7869011  90.9361274 117.4793780  32.3256125  88.2206606 102.9138663
  31.4187580  87.9239718 102.9901377  32.6032106  87.9236424 102.0472950
  33.9418191  82.7643495 109.0682905  33.1318919  82.4190580 109.4438151
  34.6302608  82.4551039 109.6570516  35.8708739  81.8421542 110.6907201
  36.4239778  82.2616996 111.3497224  36.1078825  80.9157290 110.7330157
  31.0954910  85.0793541 103.0550643  31.9574074  85.4048439 103.3146460
  31.2805254  84.2925037 102.5423708  39.2487546  83.9522067 110.1985866
  38.6686215  84.6106871 109.8163918  38.9823479  83.1299412 109.7873283
  37.6991113  83.3527125 112.4007186  38.1990891  83.4643660 111.5921505
  38.3426720  83.0488178 113.0407994  38.0312424  86.1122158 109.2542214
  37.1438279  86.3971808 109.0362409  38.4466413  85.9515921 108.4069491
  41.3826960  86.1368679 112.9696553  42.1587350  86.6265131 113.2421170
  40.6575094  86.5626733 113.4268423  43.8199519  86.8496298 114.0270494
  44.4144010  86.6092034 113.3163802  43.8926103  86.1303428 114.6544030
  37.1755638  95.8766832 103.3490234  37.8791488  96.0816835 103.9647889
  36.4518286  96.4443594 103.6139317  38.0053448  91.6276694 109.4692504
  37.9488649  92.0845245 108.6300136  38.5581790  90.8667378 109.2915347
  41.8158254  87.4166425 110.2942624  41.5595188  87.0163061 111.1250831
  41.1911122  88.1310219 110.1692763  46.1270592  90.1562499 112.8013915
  45.5670150  90.2255688 113.5745477  45.5214095  89.9803483 112.0813411
  39.0842335  96.3149362 105.3988694  39.9187939  95.8830560 105.2166169
  38.9226678  96.1431375 106.3265588  38.7388227  92.8181475 106.7645033
  38.6837031  92.6525746 105.8233477  38.1134282  93.5257508 106.9207223
  32.0484353  82.3189584 106.3430352  32.0363022  83.2631424 106.4998622
  32.9407775  82.1359729 106.0489813  35.8636472  78.9132361 110.5976288
  35.0968868  78.3590847 110.7432971  36.2747177  78.9854229 111.4590440
  40.3803132 108.6381917 111.4202286  39.8167997 108.5471854 110.6518574
  40.2655527 107.8181822 111.9004779  45.9602691 112.3052885 106.7316751
  45.3090671 112.8906965 106.3450765  46.7547054 112.8359080 106.7911789
  39.8858318 109.3942022 107.1303886  40.6589194 108.8471009 106.9916761
  40.2383717 110.2586271 107.3418347  42.2224596 105.5534688 104.7622335
  42.4750116 105.0316209 104.0005798  41.2849155 105.3900834 104.8649019
  47.2667879 104.5570467 112.5697079  48.0530968 104.1389890 112.2187496
  47.5306583 105.4616559 112.7378727  47.4377956 109.9943317 107.2685736
  46.8023789 110.0677943 107.9806640  47.1075362 110.5836916 106.5904815
  41.9420885 107.4562794 106.9646710  41.8257143 106.7807698 107.6327795
  42.0523144 106.9695168 106.1478864  44.2852425 106.9172941 110.6693400
  43.9210633 106.3903562 111.3806321  45.1419541 106.5271410 110.4959885
  43.9257912 101.9462841 105.6654748  44.0932315 102.8143077 106.0325219
  43.7355082 102.1090123 104.7416037  40.1345727 106.8593617 113.3657283
  39.2096224 106.7269831 113.5734975  40.3830140 107.6387836 113.8627225
  43.9047133 104.4020498 106.6501415  43.7846759 104.8477549 107.4886895
  43.2099722 104.7505816 106.0914953  49.6032199 104.8741972 107.4781749
  50.5150056 105.1069358 107.3029447  49.0941847 105.4579016 106.9156828
  46.9468174 101.0500008 115.7271610  46.0852653 101.3481261 116.0188348
  46.9730609 101.2670406 114.7952643  43.7629744 109.5942198 112.1345416
  44.2268089 109.8729901 111.3450038  43.4986542 108.6925643 111.9518506
  42.6998630 105.7165351 108.9434981  43.4022673 106.1686394 109.4108907
  42.3679258 105.0749169 109.5714874  36.4423964 103.9748903 114.2452114
  35.6523018 104.2306432 113.7692225  36.9335211 104.7897241 114.3504155
  38.3938709 104.3393482 111.2035591  37.5969872 104.4512177 111.7219087
  38.1664301 104.6780135 110.3376482  43.9392394 112.5306293 109.0197086
  43.8038069 113.3757829 109.4481934  44.4802207 112.7325571 108.2563020
  37.3921792 110.0481731 109.5925011  37.9046312 110.8424981 109.7430576
  38.0444505 109.3508022 109.5258613  39.2016676 113.1647487 111.6747764
  39.3783305 114.0865452 111.4868748  39.9973510 112.8505907 112.1042144
  47.2884858  96.0536855 117.5495979  46.9449127  96.9438497 117.4735090
  47.6563821  95.8638513 116.6865564  35.3570709 108.3770385 110.3684582
  36.1945931 108.7867394 110.1518289  35.5348976 107.4369828 110.3384775
  47.2535141 106.0445466 106.0568415  46.7381764 106.8150071 106.2956802
  46.9812449 105.3710602 106.6801476  44.8382252 100.8895167 111.1153653
  43.9823848 100.5002017 110.9359292  45.2509203 100.9687128 110.2553438
  46.3681398  98.4241510 115.5145213  45.8646194  98.3871645 114.7013018
  46.6612005  99.3334253 115.5741869  42.6124284  98.5080240 114.5211394
  43.4777281  98.3123049 114.1617284  42.6801793  98.2790592 115.4480751
  52.2269415 108.7977821 107.9921588  51.4498858 108.4588980 107.5476750
  52.9060896 108.8030444 107.3176553  47.0421444 103.9172558 107.8828196
  46.7371579 104.2318707 108.7338339  47.9951886 103.9953978 107.9255529
  45.4867876 110.0762782 109.5321150  44.9589237 109.3415541 109.2194387
  44.9855378 110.8537458 109.2861118  40.2186603 100.7382448 111.8927761
  40.7930355 100.5157629 111.1600954  40.8057586 100.8071142 112.6456363
  40.5456190 102.7686909 105.9123647  39.7093503 103.1061595 106.2332921
  40.4060960 102.6335889 104.9750783  42.5209271  97.6123697 110.6202831
  41.8673683  97.2972714 109.9959445  42.4789745  96.9899437 111.3462654
  43.6320476 107.8942992 102.5356123  42.7247538 107.6632245 102.7347272
  44.1291508 107.0980611 102.7230104  46.5388555 116.6040499 105.4552809
  45.8650253 116.9072196 106.0637767  46.9254377 117.4069579 105.1058266
  45.7547011 104.1005630 114.9450478  44.8369573 104.3220577 114.7872166
  46.1707155 104.1751941 114.0862186  46.5382059 105.4997046 110.0753159
  47.2853878 106.0118443 109.7660281  46.8073649 105.1781099 110.9357552
  44.8108709 107.9955587 107.0580113  43.9019929 107.7114619 107.1552583
  44.8403793 108.4154665 106.1983420  48.9860896 102.5354162 112.0571948
  48.2483653 102.0231548 112.3882190  49.2387670 102.0954544 111.2455225
  49.0872524  95.3130414 112.6513717  49.3931400  94.4527778 112.3639632
  49.8125128  95.9048034 112.4512711  35.3796880 105.7161101 111.0395315
  35.1821279 105.1230461 110.3146382  34.8243544 105.4113311 111.7571254
  43.3593603 105.6084207 113.1589908  43.4142213 104.6558044 113.0832385
  42.5484805 105.7643646 113.6431207  44.5084797 109.5364330 104.3968191
  44.0704227 108.8200189 103.9373829  45.2495238 109.7640445 103.8353283
  41.2985963 104.2261267 110.9180287  40.4853829 104.5255438 111.3245479
  41.7944957 103.8316956 111.6354769  52.6257912 107.8121527 110.4544510
  52.4875810 108.0023123 109.5265699  52.2694131 108.5740910 110.9112561
  40.7900038 101.7979623 116.5341522  41.4299417 101.6568382 115.8364485
  39.9577569 101.5114136 116.1580124  41.5660342 111.0982053 112.6476514
  42.3600940 110.6032373 112.4459089  40.8552034 110.5699916 112.2844220
  37.8743105 105.2425135 108.7236267  36.9440693 105.1809590 108.9406229
  37.9700577 104.7201087 107.9272908  37.7928654 101.7679948 111.3114509
  38.0535472 102.6825281 111.2023669  38.6145827 101.3004390 111.4611122
  44.7379770 116.7720171 107.6699888  44.9131526 116.3008215 108.4845511
  44.0512558 117.3985938 107.8981149  48.6296025 108.3948712 103.9900249
  48.0125195 107.6695540 103.8933302  48.1612513 109.1558072 103.6467323
  40.4194571 102.6134136 103.1121553  39.5424037 102.4922937 102.7483800
  40.8952324 101.8220215 102.8600442  46.9155147 100.7755056 113.0018279
  47.4123846 100.0225018 112.6819349  46.1442128 100.8119373 112.4361489
  47.9984927 109.5326743 110.5756703  47.0641206 109.6528206 110.4061407
  48.1761596 108.6299210 110.3116712  43.4990115 102.9172439 112.7289964
  43.1287903 102.3643479 113.4170869  43.9949208 102.3130573 112.1764964
  51.3857479 105.3744063 111.1106737  51.8517931 106.2072054 111.0367039
  51.8364979 104.9089044 111.8151995  49.4533710 111.7187884 108.1092889
  49.7293554 111.6044478 109.0186763  48.5838209 111.3205369 108.0705062
  49.3574142  97.7424650 115.1497638  48.4437221  97.9728876 115.3179845
  49.7867243  97.8263094 116.0011670  46.4229939 114.8942420 109.0140751
  46.9517706 114.3834874 108.4010913  46.6858159 114.5784950 109.8786284
  38.8955449 100.3276430 118.9743070  38.9596776 101.1891261 118.5620468
  38.8322569  99.7150432 118.2415428  35.1473264 104.2075992 108.5534459
  35.4426706 103.2986670 108.5001513  34.2461300 104.1863731 108.2315461
  38.6767511 102.2831988 114.5362008  37.9554097 102.8967956 114.3969481
  39.4660767 102.8189753 114.4578654  36.8761106 101.8890089 108.6773784
  36.5473812 101.0087468 108.4948890  37.2300477 101.8337758 109.5650173
  39.9902929 102.1763059 109.0449262  40.3299002 102.7048980 108.3227870
  40.4375050 102.5143465 109.8207828  42.6846370 100.5600110 118.4952330
  42.3443190  99.7607923 118.8973010  41.9785376 100.8601821 117.9229163
  43.3362842  97.6449422 116.9479653  44.1588911  97.1709900 116.8258543
  43.5800905  98.4239906 117.4478339  41.9771076 100.6737681 107.2442555
  42.6979439 101.0518933 106.7406271  41.3536380 101.3926557 107.3477533
  46.1202199 101.3782830 108.1800887  46.3365814 102.2607467 107.8789715
  45.6396266 100.9869043 107.4506529  40.8601421 104.3368543 114.7571631
  40.7146001 104.6508846 115.6495913  40.3826624 104.9553443 114.2042530
  42.7197803 101.3271091 114.8052521  42.7059372 100.4312184 114.4684819
  43.4370232 101.3341754 115.4390807  44.5723934 101.7608431 116.8505648
  44.3141712 102.6825502 116.8489979  44.0408975 101.3638865 117.5406113
  42.1234699 100.2085471 110.0740091  42.2450611  99.2802117 110.2730979
  41.8336742 100.2224157 109.1618407  44.9925890  97.8940381 113.2106811
  45.0147587  97.9579715 112.2558791  45.4093949  97.0544890 113.4047317
  50.5045295 114.1825982 106.7292632  51.1996200 114.8032675 106.9479947
  50.8468446 113.3321334 107.0045010  52.4036719 111.6325688 108.2579963
  52.9288043 111.9712961 107.5329283  52.3159071 110.6972703 108.0743098
  41.0964758 111.7939604 108.1655978  41.2452879 112.4775068 107.5122651
  41.9031202 111.7744694 108.6805434  38.8517391 107.8204781 109.1717047
  38.6063433 106.9167111 109.3697257  39.0213306 107.8221932 108.2296525
  38.1213039 103.5533139 106.6703209  37.4282284 103.6277494 106.0143245
  37.8764791 102.7893483 107.1924726  46.7926695  95.1128740 114.0742699
  47.0728449  94.4451929 114.7003126  47.5777302  95.3057836 113.5617363
  44.5960164 114.2887734 105.6367726  44.0234131 114.9077921 105.1838198
  45.1692958 114.8387096 106.1707648  47.8157424 114.5724884 106.7676308
  48.7488097 114.5070446 106.9709184  47.7280636 115.4081151 106.3090841
  50.4445440 113.8890755 103.7280256  50.3659072 113.5550618 104.6216013
  51.2655107 114.3812523 103.7271728  44.9806962 105.6248547 102.9783778
  45.9266067 105.4954755 103.0472196  44.6021207 104.8863209 103.4553206
  50.9528847  97.2904553 112.9410670  50.7553668  96.9819641 113.8254002
  51.5628552  98.0166192 113.0708600  43.1649880 103.5498523 102.9138663
  42.2581335 103.2531636 102.9901377  43.4425861 103.2528341 102.0472950
  44.7811945  98.0935413 109.0682905  43.9712674  97.7482498 109.4438151
  45.4696362  97.7842957 109.6570516  46.7102494  97.1713460 110.6907201
  47.2633532  97.5908913 111.3497224  46.9472580  96.2449208 110.7330157
  41.9348664 100.4085459 103.0550643  42.7967828 100.7340357 103.3146460
  42.1199008  99.6216954 102.5423708  50.0881301  99.2813985 110.1985866
  49.5079970  99.9398789 109.8163918  49.8217233  98.4591330 109.7873283
  48.5384867  98.6819043 112.4007186  49.0384645  98.7935577 111.5921505
  49.1820475  98.3780096 113.0407994  48.8706179 101.4414075 109.2542214
  47.9832034 101.7263726 109.0362409  49.2860168 101.2807839 108.4069491
  52.2220715 101.4660596 112.9696553  52.9981105 101.9557049 113.2421170
  51.4968849 101.8918651 113.4268423  48.0149392 111.2058750 103.3490234
  48.7185242 111.4108753 103.9647889  47.2912041 111.7735512 103.6139317
  48.8447202 106.9568611 109.4692504  48.7882404 107.4137163 108.6300136
  49.3975545 106.1959296 109.2915347  52.6552008 102.7458343 110.2942624
  52.3988943 102.3454979 111.1250831  52.0304876 103.4602137 110.1692763
  49.9236090 111.6441279 105.3988694  50.7581693 111.2122478 105.2166169
  49.7620432 111.4723293 106.3265588  49.5781982 108.1473393 106.7645033
  49.5230785 107.9817664 105.8233477  48.9528037 108.8549425 106.9207223
  42.8878107  97.6481502 106.3430352  42.8756777  98.5923341 106.4998622
  43.7801529  97.4651647 106.0489813  46.7030227  94.2424278 110.5976288
  45.9362622  93.6882765 110.7432971  47.1140932  94.3146147 111.4590440
  51.3849945 118.0978827 105.9123647  50.5487257 118.4353513 106.2332921
  51.2454714 117.9627806 104.9750783  51.2588325 117.9426054 103.1121553
  50.3817791 117.8214855 102.7483800  51.7346078 117.1512132 102.8600442
  48.9606793 118.8825057 106.6703209  48.2676038 118.9569412 106.0143245
  48.7158545 118.1185400 107.1924726  54.0043634 118.8790441 102.9138663
  53.0975089 118.5823554 102.9901377  54.2819615 118.5820259 102.0472950
  52.7742419 115.7377376 103.0550643  53.6361583 116.0632275 103.3146460
  52.9592763 114.9508872 102.5423708  53.7271862 112.9773419 106.3430352
  53.7150531 113.9215259 106.4998622  54.6195284 112.7943565 106.0489813
   3.1813538  32.2934951  92.1798116   2.5075237  32.5966648  92.7883073
   3.5679360  33.0964031  91.8303573   7.1470279  29.8720434  93.4537939
   7.8421183  30.4927127  93.6725253   7.4893429  29.0215786  93.7290317
   1.2385147  29.9782186  92.3613032   0.6659114  30.5972373  91.9083504
   1.8117941  30.5281548  92.8952954   4.4582407  30.2619336  93.4921615
   5.3913080  30.1964898  93.6954490   4.3705620  31.0975603  93.0336147
   7.0870424  29.5785207  90.4525562   7.0084055  29.2445070  91.3461320
   7.9080090  30.0706974  90.4517035   4.6574375  26.8953202  90.0735541
   5.3610226  27.1003204  90.6893196   3.9337024  27.4629964  90.3384624
   6.5661073  27.3335731  92.1234001   7.4006677  26.9016930  91.9411475
   6.4045416  27.1617745  93.0510895  15.1945348  37.8505382 102.2189177
  15.8323758  37.7312130 101.5152517  15.0766191  38.7986226 102.2777129
   7.8621870  39.6568287  98.1447593   7.2986735  39.5658224  97.3763881
   7.7474265  38.8368191  98.6250085  13.4421429  43.3239254  93.4562058
  12.7909408  43.9093335  93.0696072  14.2365791  43.8545449  93.5157095
   7.3677056  40.4128392  93.8549192   8.1407932  39.8657379  93.7162068
   7.7202455  41.2772641  94.0663654   9.7043334  36.5721058  91.4867642
   9.9568854  36.0502579  90.7251105   8.7667893  36.4087203  91.5894326
  14.7486616  35.5756836  99.2942385  15.5349706  35.1576259  98.9432802
  15.0125321  36.4802928  99.4624034  14.9196694  41.0129686  93.9931042
  14.2842527  41.0864313  94.7051947  14.5894100  41.6023285  93.3150121
  20.1495044  35.5132069 100.1975364  20.8820215  34.9431286 100.4313193
  19.3934399  35.1253670 100.6381869   9.4239622  38.4749164  93.6892017
   9.3075880  37.7994067  94.3573101   9.5341882  37.9881538  92.8724170
  11.7671163  37.9359311  97.3938706  11.4029370  37.4089932  98.1051628
  12.6238279  37.5457780  97.2205192  11.4076650  32.9649210  92.3900055
  11.5751053  33.8329447  92.7570526  11.2173819  33.1276492  91.4661344
  11.3865871  35.4206868  93.3746722  11.2665496  35.8663919  94.2132202
  10.6918459  35.7692186  92.8160260   9.1472763  48.1910510  97.0236853
   9.0696793  49.1418335  97.1025333   8.5434407  47.8456382  97.6811779
  17.0850937  35.8928341  94.2027056  17.9968793  36.1255728  94.0274753
  16.5760584  36.4765385  93.6402134  15.6920520  40.8754160 101.5940637
  15.0629382  41.0399874 100.8916705  15.3046182  41.2895769 102.3651601
  19.5709751  41.8108597  98.9485001  18.8860790  42.1907499  98.3982034
  19.6553601  42.4203924  99.6816949  11.2448481  40.6128568  98.8590722
  11.7086827  40.8916271  98.0695345  10.9805280  39.7112012  98.6763813
  10.1817368  36.7351720  95.6680287  10.8841411  37.1872764  96.1354214
   9.8497996  36.0935539  96.2960181  17.9406511  42.3340512 103.7202702
  18.7623955  41.9320699 103.4385383  17.9368914  42.2308746 104.6718818
  26.0312504  38.6779260 100.0687673  25.2776212  38.1086658  99.9131678
  26.1660045  38.6441925 101.0158308  11.4211132  43.5492663  95.7442393
  11.2856807  44.3944198  96.1727240  11.9620945  43.7511940  94.9808326
   4.8740530  41.0668101  96.3170318   5.3865050  41.8611351  96.4675882
   5.5263242  40.3694391  96.2503919   6.6835414  44.1833857  98.3993071
   6.8602043  45.1051822  98.2114055   7.4792248  43.8692276  98.8287451
   7.8066730  45.7012031 104.4003413   8.3574155  45.5729094 103.6280407
   6.9678206  46.0006920 104.0498306   2.8389446  39.3956755  97.0929888
   3.6764668  39.8053763  96.8763596   3.0167714  38.4556197  97.0630082
  14.7353878  37.0631836  92.7813721  14.2200502  37.8336440  93.0202109
  14.4631187  36.3896972  93.4046783  12.3200989  31.9081536  97.8398960
  11.4642586  31.5188387  97.6604598  12.7327941  31.9873497  96.9798745
  19.7088153  39.8164190  94.7166895  18.9317595  39.4775350  94.2722057
  20.3879634  39.8216813  94.0421860  14.5240182  34.9358928  94.6073502
  14.2190317  35.2505077  95.4583646  15.4770624  35.0140348  94.6500835
  12.9686613  41.0949151  96.2566456  12.4407975  40.3601911  95.9439694
  12.4674116  41.8723827  96.0106425  17.9479459  39.2898172 101.3733503
  17.2903134  39.9797433 101.4613631  18.7519859  39.6794604 101.7167489
  16.7584918  37.6442544  99.4237444  17.2716800  38.2772536  99.9259154
  17.4086142  37.0443740  99.0580804   8.0274928  33.7873278  92.6368953
   7.1912240  34.1247965  92.9578228   7.8879698  33.6522258  91.6996090
  11.1139214  38.9129361  89.2601429  10.2066275  38.6818615  89.4592578
  11.6110246  38.1166981  89.4475411  14.0207292  47.6226869  92.1798116
  13.3468991  47.9258565  92.7883073  14.4073114  48.4255949  91.8303573
  14.0200797  36.5183416  96.7998465  14.7672616  37.0304813  96.4905587
  14.2892386  36.1967468  97.6602859  12.2927447  39.0141956  93.7825419
  11.3838666  38.7300989  93.8797889  12.3222531  39.4341035  92.9228726
  17.5246714  42.6248546  97.5516587  17.0709042  41.7839456  97.6081778
  16.8940681  43.2609944  97.8891367  16.4679634  33.5540532  98.7817255
  15.7302391  33.0417918  99.1127497  16.7206408  33.1140913  97.9700531
  15.9679654  44.4625042  98.4866405  16.2602628  45.0230100  97.7678771
  16.4778274  44.7553603  99.2419564  10.8412341  36.6270577  99.8835215
  10.8960951  35.6744413  99.8077691  10.0303543  36.7830016 100.3676513
  11.9903535  40.5550700  91.1213498  11.5522965  39.8386559  90.6619135
  12.7313976  40.7826815  90.5598589   8.7804701  35.2447637  97.6425594
   7.9672567  35.5441807  98.0490786   9.2763695  34.8503325  98.3600076
  10.9313279  45.2405394  99.5759858  10.8889458  45.4666240  98.6468390
  11.8475978  45.0068768  99.7245660  20.1076650  38.8307897  97.1789817
  19.9694548  39.0209493  96.2511006  19.7512868  39.5927280  97.6357868
  20.1346029  40.8984424 102.1901088  20.5682536  40.8059713 103.0384142
  20.8477610  40.8741924 101.5521104   9.0479080  42.1168423  99.3721821
   9.8419678  41.6218743  99.1704396   8.3370772  41.5886286  99.0089527
  13.8673924  44.4986518 103.7234189  13.9210946  45.0677454 104.4911905
  12.9988706  44.6688403 103.3588226   5.3561843  36.2611504  95.4481574
   4.4259431  36.1995960  95.6651536   5.4519315  35.7387457  94.6518215
  20.9961579  40.9408125 104.7233974  21.1897469  41.8453935 104.9693248
  20.8962197  40.4815544 105.5572559  11.6250356  42.6897445 103.0519658
  11.4861441  42.3216229 103.9245596  10.8364952  43.2045084 102.8803616
  12.2198508  47.7906541  94.3945195  12.3950263  47.3194584  95.2090817
  11.5331296  48.4172307  94.6226455  13.1755571  42.0679047 100.4408496
  12.8405403  42.0279817 101.3366146  12.6759516  41.4023763  99.9678906
  16.1114762  39.4135082  90.7145556  15.4943933  38.6881910  90.6178608
  15.6431251  40.1744442  90.3712630   6.7859593  50.9395904 101.1685055
   7.0256191  51.5714428 101.8464073   5.9428789  50.5883944 101.4550414
   7.9013308  33.6320506  89.8366860   7.0242775  33.5109307  89.4729107
   8.3771061  32.8406584  89.5845749  11.2987455  46.7475026 103.5726559
  11.2257626  47.5529998 104.0845863  10.8564848  46.9466992 102.7474580
  11.0877234  45.9846796  97.0829380  10.3044756  46.5268476  97.1767605
  11.7869980  46.5020776  97.4823622  22.2503642  37.4981791 101.3681877
  22.2393518  38.3806507 100.9975810  21.3821021  37.1453342 101.1736414
  13.7586138  46.6461860 105.7284718  14.4714111  47.2809325 105.6560619
  13.2676167  46.7425726 104.9124719  15.4803665  40.5513113  97.3002009
  14.5459944  40.6714575  97.1306714  15.6580334  39.6485580  97.0362019
  18.8676217  36.3930432  97.8352043  19.3336669  37.2258424  97.7612346
  19.3183717  35.9275414  98.5397302  16.9352448  42.7374253  94.8338195
  17.2112292  42.6230848  95.7432069  16.0656946  42.3391738  94.7950368
  13.5706512  46.9860604  98.4771009  13.7528906  46.1682260  98.9398761
  14.3939498  47.2028297  98.0395899  13.9048677  45.9128789  95.7386058
  14.4336444  45.4021244  95.1256220  14.1676897  45.5971320  96.6031591
   7.2604425  46.9643906  98.4983833   6.5914800  47.4490034  98.0147873
   7.1217295  47.2113127  99.4127212  11.4009694  48.9987650 105.0966492
  11.9528002  49.1619271 105.8615577  11.7415887  49.5892087 104.4246517
   2.6292002  35.2262361  95.2779766   2.9245443  34.3173040  95.2246819
   1.7280038  35.2050101  94.9560768  14.5378081  46.9469625 102.0830174
  14.4129220  46.1459365 101.5741119  15.1957172  47.4415819 101.5944144
  16.6012989  44.7478645 103.7109724  15.6543325  44.6283996 103.6388051
  16.9495762  43.8601143 103.7935985  13.6059423  44.5431361  99.9114076
  13.4584385  43.6148069 100.0921646  14.4312916  44.5651452  99.4271152
   7.4721667  33.1949429  95.7694568   7.8117739  33.7235350  95.0473177
   7.9193787  33.5329835  96.5453135  17.2093545  45.3659920 100.9978949
  18.1340092  45.1602782 100.8603400  17.0408848  45.1176321 101.9068291
   9.4589814  31.6924050  93.9687861  10.1798177  32.0705303  93.4651578
   8.8355118  32.4112927  94.0722839  13.6020937  32.3969199  94.9046194
  13.8184551  33.2793837  94.6035022  13.1215004  32.0055413  94.1751836
  16.9988861  45.8845588  96.3541040  17.1725738  45.3192010  95.6014893
  17.4917752  46.6846483  96.1720530  22.8528252  38.6482011  97.9731340
  23.2959398  37.8989336  97.5750463  21.9754762  38.6392147  97.5905072
  17.9864033  45.2012352  93.4537939  18.6814938  45.8219045  93.6725253
  18.3287183  44.3507703  93.7290317  19.8855456  42.6512058  94.9825270
  20.4106780  42.9899330  94.2574590  19.7977809  41.7159073  94.7988404
  11.5696117  48.7184041  99.3420523  11.1301107  48.2260420 100.0353379
  12.3204234  48.1757009  99.1012598   4.0488456  44.9095582  99.3445151
   4.8746476  44.6099354  98.9643794   3.6982508  44.1403204  99.7934939
   9.0169989  44.2622050 101.4142824   8.3949999  43.5992755 101.1145052
   9.6874856  44.2883182 100.7316472   8.5783496  42.8125973  94.8901285
   8.7271617  43.4961438  94.2367958   9.3849940  42.7931063  95.4050741
  22.3961117  40.1187249 100.3653788  23.2308008  40.5577053 100.5291348
  22.5320245  39.6425902  99.5462034   6.3336129  38.8391151  95.8962354
   6.0882171  37.9353481  96.0942564   6.5032044  38.8408301  94.9541832
   5.6031777  34.5719509  93.3948515   4.9101022  34.6463863  92.7388551
   5.3583529  33.8079852  93.9170032  12.0778902  45.3074104  92.3613032
  11.5052869  45.9264291  91.9083504  12.6511695  45.8573465  92.8952954
  15.2976161  45.5911254  93.4921615  16.2306835  45.5256816  93.6954490
  15.2099374  46.4267521  93.0336147  17.9264178  44.9077124  90.4525562
  17.8477810  44.5736988  91.3461320  18.7473845  45.3998892  90.4517035
  20.6242369  37.7738864 103.6601881  20.5918689  36.8354864 103.8461565
  21.2342993  37.8522900 102.9267706  12.4625700  36.6434916  89.7029085
  13.4084805  36.5141125  89.7717503  12.0839945  35.9049578  90.1798513
  26.4418919  38.8354870 102.8007918  27.1722308  38.5740158 103.3615621
  25.8325865  38.0983592 102.8409986  24.5234216  36.9762733 103.3982369
  23.7967380  36.8418698 102.7898860  24.1081503  37.2839562 104.2039087
  10.6468617  34.5684893  89.6383970   9.7400073  34.2718006  89.7146684
  10.9244598  34.2714711  88.7718256  12.2630683  29.1121783  95.7928211
  11.4531411  28.7668868  96.1683457  12.9515100  28.8029326  96.3815823
   9.4167402  31.4271828  89.7795949  10.2786566  31.7526726  90.0391767
   9.6017746  30.6403324  89.2669015  17.5700038  30.3000355  96.9231172
  16.9898707  30.9585159  96.5409225  17.3035971  29.4777699  96.5118590
  16.3524916  32.4600445  95.9787521  15.4650771  32.7450096  95.7607715
  16.7678906  32.2994208  95.1314797  19.7039453  32.4846966  99.6941860
  20.4799843  32.9743418  99.9666477  18.9787587  32.9105020 100.1513729
  22.1412011  33.1974585 100.7515800  22.7356502  32.9570321 100.0409109
  22.2138595  32.4781716 101.3789337   4.3609167  47.0408196 101.0658965
   4.2263635  46.2808597 100.4996963   3.9441229  47.7649096 100.5987754
  15.4968130  42.2245120  90.0735541  16.2003980  42.4295122  90.6893196
  14.7730779  42.7921882  90.3384624  16.3265940  37.9754981  96.1937811
  16.2701142  38.4323532  95.3545443  16.8794283  37.2145665  96.0160653
  20.1370746  33.7644713  97.0187930  19.8807680  33.3641348  97.8496138
  19.5123614  34.4788507  96.8938069  24.4483084  36.5040786  99.5259222
  23.8882642  36.5733975 100.2990784  23.8426587  36.3281771  98.8058718
   7.5178293  47.9377513 101.2777408   7.4010677  48.8822946 101.1756098
   6.6970739  47.6351075 101.6663207  17.4054827  42.6627649  92.1234001
  18.2400431  42.2308847  91.9411475  17.2439170  42.4909662  93.0510895
  17.0600719  39.1659762  93.4890340  17.0049523  39.0004034  92.5478784
  16.4346775  39.8735795  93.6452530  10.3696845  28.6667871  93.0675658
  10.3575515  29.6109711  93.2243929  11.2620267  28.4838017  92.7735119
   8.5432807  48.5905775 104.4933336   9.4460054  48.6229385 104.8099831
   8.3170177  47.6606226 104.5079672  10.2986409  47.3436762 101.1543415
   9.3482040  47.3438623 101.0407787  10.6018895  46.5969496 100.6379450
  26.0339102  53.1797300 102.2189177  26.6717512  53.0604047 101.5152517
  25.9159945  54.1278144 102.2777129  22.8428809  53.1324728 102.1550702
  22.5047320  53.0165793 101.2671237  23.7118577  52.7315893 102.1351708
  18.7015624  54.9860204  98.1447593  18.1380490  54.8950141  97.3763881
  18.5868019  54.1660109  98.6250085  23.3248592  54.2859580 108.1136908
  23.3137232  53.8912378 107.2417411  23.4869231  53.5525652 108.7070679
  16.2480056  56.4811396 100.9831813  17.0401348  56.1402221 100.5678113
  16.4876706  56.5906371 101.9033967  24.2815183  58.6531172  93.4562058
  23.6303163  59.2385253  93.0696072  25.0759546  59.1837367  93.5157095
  18.2070810  55.7420309  93.8549192  18.9801686  55.1949296  93.7162068
  18.5596209  56.6064559  94.0663654  20.0455853  57.0696692 107.0616092
  19.7545719  57.9742322 106.9462758  20.6812837  57.1113219 107.7760161
  20.9712060  54.4473540 103.6517451  21.5675632  54.2229562 102.9374414
  21.0287031  53.7058286 104.2542899  20.5437088  51.9012975  91.4867642
  20.7962609  51.3794497  90.7251105  19.6061647  51.7379121  91.5894326
  25.5880371  50.9048754  99.2942385  26.3743460  50.4868177  98.9432802
  25.8519075  51.8094846  99.4624034  25.7590448  56.3421604  93.9931042
  25.1236281  56.4156231  94.7051947  25.4287855  56.9315203  93.3150121
  20.2633377  53.8041081  93.6892017  20.1469635  53.1285985  94.3573101
  20.3735637  53.3173455  92.8724170  22.6064918  53.2651228  97.3938706
  22.2423125  52.7381849  98.1051628  23.4632034  52.8749698  97.2205192
  28.5114218  44.5545561 104.6569972  28.1797543  45.4240972 104.4331187
  27.9159832  44.2381845 105.3364003  22.2470405  48.2941128  92.3900055
  22.4144807  49.1621365  92.7570526  22.0567574  48.4568410  91.4661344
  25.0045738  56.7558107 104.0565885  24.7046461  57.6583146 103.9481692
  24.6596797  56.4890290 104.9087038  18.4558219  53.2071904 100.0902590
  17.5308716  53.0748118 100.2980281  18.7042633  53.9866123 100.5872532
  28.4042882  49.2740647 101.7363323  27.4959759  49.2056056 101.4422084
  28.3530477  49.7512592 102.5645148  22.2259626  50.7498786  93.3746722
  22.1059251  51.1955836  94.2132202  21.5312214  51.0984103  92.8160260
  15.8167030  52.8505177 100.9246379  15.9459412  53.1039656 101.8385790
  15.1364482  53.4432885 100.6051034  19.9866518  63.5202427  97.0236853
  19.9090547  64.4710252  97.1025333  19.3828161  63.1748300  97.6811779
  22.4783747  50.6930293 109.6798220  21.7017082  51.2524213 109.6701084
  23.1174311  51.1787076 110.2013090  30.2704528  47.4757086 103.5141196
  29.6278908  47.7689619 102.8680991  29.7659457  47.3610006 104.3194393
  27.9244692  51.2220259  94.2027056  28.8362548  51.4547646  94.0274753
  27.4154339  51.8057303  93.6402134  20.7330120  53.5015746 109.2416187
  21.4744804  54.0400790 108.9651010  20.0267105  54.1282035 109.3987739
  26.2085459  55.6444887 107.8388348  26.6168815  55.2027297 107.0942981
  25.4862721  55.0697514 108.0922541  22.5616529  50.5817493 105.2121905
  23.4077725  51.0056907 105.3556554  22.5015167  49.9251118 105.9060468
  26.5314274  56.2046077 101.5940637  25.9023136  56.3691791 100.8916705
  26.1439936  56.6187687 102.3651601  30.4103506  57.1400515  98.9485001
  29.7254544  57.5199417  98.3982034  30.4947355  57.7495842  99.6816949
  25.7115975  48.2421862 106.8703079  25.4676907  48.9963922 106.3337355
  25.9875905  48.6207209 107.7050326  27.6654438  54.7860474 105.5480344
  27.8771333  55.4292234 104.8714726  27.6184186  53.9522791 105.0802275
  25.2680667  47.3978295 102.4516917  24.4065146  47.6959548 102.7433654
  25.2943101  47.6148694 101.5197949  22.0842236  55.9420485  98.8590722
  22.5480581  56.2208188  98.0695345  21.8199034  55.0403930  98.6763813
  18.9766317  55.4891967 101.7970486  19.5467674  55.9179235 101.1587970
  19.5674429  55.2074552 102.4954671  21.0211122  52.0643638  95.6680287
  21.7235165  52.5164681  96.1354214  20.6891750  51.4227457  96.2960181
  19.4691484  50.6555394 110.0431497  18.8390144  51.3371675 110.2766894
  19.3627571  50.5438476 109.0984635  14.7636456  50.3227190 100.9697421
  13.9735510  50.5784719 100.4937532  15.2547703  51.1375528 101.0749462
  28.7800266  57.6632430 103.7202702  29.6017709  57.2612617 103.4385383
  28.7762668  57.5600664 104.6718818  16.7151201  50.6871770  97.9280898
  15.9182365  50.7990464  98.4464393  16.4876794  51.0258422  97.0621788
  22.5456869  57.2116473 105.8763412  22.6101301  57.6736880 106.7121584
  21.8367793  56.5813838 106.0045722  13.0474159  50.5757681 103.4012412
  13.2982197  51.4604691 103.6669988  13.5833707  50.3962282 102.6287504
  22.2604887  58.8784580  95.7442393  22.1250561  59.7236116  96.1727240
  22.8014699  59.0803858  94.9808326  15.7134284  56.3960018  96.3170318
  16.2258805  57.1903269  96.4675882  16.3656997  55.6986309  96.2503919
  17.5229169  59.5125775  98.3993071  17.6995797  60.4343739  98.2114055
  18.3186002  59.1984194  98.8287451  21.6640187  46.3734039 109.9977004
  22.4049901  46.9741192 109.9181467  21.8958110  45.6311677 109.4395047
  16.8081525  51.5590407 108.2755234  16.6935040  50.6575664 108.5762333
  15.9526043  51.8054103 107.9240051  23.8873363  59.5008147 109.8742735
  23.4437217  58.7144525 109.5563639  24.5490577  59.6887297 109.2086626
  18.6460484  61.0303948 104.4003413  19.1967909  60.9021012 103.6280407
  17.8071960  61.3298837 104.0498306  25.9854601  59.7810947 107.9024136
  25.9673076  60.6019828 107.4104405  26.9074521  59.6565022 108.1274277
  22.4427655  57.2955076 108.7447644  22.9755992  56.5343364 108.5146952
  21.9141736  57.0028728 109.4871799  25.6097350  42.4015142 104.2741286
  25.2661620  43.2916784 104.1980397  25.9776313  42.2116800 103.4110871
  13.6783201  54.7248673  97.0929888  14.5158423  55.1345681  96.8763596
  13.8561468  53.7848115  97.0630082  25.5747633  52.3923753  92.7813721
  25.0594256  53.1628358  93.0202109  25.3024941  51.7188890  93.4046783
  23.1594744  47.2373454  97.8398960  22.3036340  46.8480305  97.6604598
  23.5721696  47.3165415  96.9798745  24.6893891  44.7719797 102.2390519
  24.1858686  44.7349933 101.4258325  24.9824497  45.6812540 102.2987176
  20.9336776  44.8558527 101.2456701  21.7989773  44.6601336 100.8862591
  21.0014285  44.6268879 102.1726058  25.3633936  50.2650845  94.6073502
  25.0584072  50.5796995  95.4583646  26.3164378  50.3432265  94.6500835
  23.8080368  56.4241069  96.2566456  23.2801729  55.6893828  95.9439694
  23.3067871  57.2015745  96.0106425  28.7873214  54.6190089 101.3733503
  28.1296888  55.3089351 101.4613631  29.5913613  55.0086521 101.7167489
  18.5399096  47.0860735  98.6173068  19.1142847  46.8635917  97.8846261
  19.1270078  47.1549430  99.3701669  27.5978673  52.9734462  99.4237444
  28.1110554  53.6064454  99.9259154  28.2479897  52.3735657  99.0580804
  18.8668683  49.1165196  92.6368953  18.0305995  49.4539883  92.9578228
  18.7273452  48.9814176  91.6996090  20.8421763  43.9601984  97.3448137
  20.1886176  43.6451001  96.7204752  20.8002237  43.3377724  98.0707960
  21.9532968  54.2421279  89.2601429  21.0460030  54.0110532  89.4592578
  22.4504000  53.4458898  89.4475411  24.8601047  62.9518786  92.1798116
  24.1862746  63.2550483  92.7883073  25.2466869  63.7547867  91.8303573
  24.0759504  50.4483917 101.6695785  23.1582065  50.6698865 101.5117473
  24.4919647  50.5230228 100.8107492  24.8594551  51.8475333  96.7998465
  25.6066370  52.3596730  96.4905587  25.1286141  51.5259386  97.6602859
  23.1321202  54.3433874  93.7825419  22.2232421  54.0592907  93.8797889
  23.1616285  54.7632952  92.9228726  28.3640469  57.9540463  97.5516587
  27.9102796  57.1131373  97.6081778  27.7334436  58.5901862  97.8891367
  27.3073389  48.8832449  98.7817255  26.5696145  48.3709836  99.1127497
  27.5600162  48.4432831  97.9700531  26.8073408  59.7916960  98.4866405
  27.0996383  60.3522017  97.7678771  27.3172029  60.0845521  99.2419564
  27.4085016  41.6608701  99.3759024  27.7143893  40.8006065  99.0884939
  28.1337621  42.2526322  99.1758018  13.7009372  52.0639388  97.7640622
  13.5033772  51.4708749  97.0391688  13.1456036  51.7591598  98.4816560
  21.6806096  51.9562495  99.8835215  21.7354705  51.0036331  99.8077691
  20.8697298  52.1121934 100.3676513  22.8297289  55.8842618  91.1213498
  22.3916719  55.1678477  90.6619135  23.5707730  56.1118732  90.5598589
  19.6198455  50.5739554  97.6425594  18.8066321  50.8733725  98.0490786
  20.1157450  50.1795243  98.3600076  21.7707033  60.5697311  99.5759858
  21.7283212  60.7958157  98.6468390  22.6869732  60.3360686  99.7245660
  25.2172667  51.0381379 106.4740488  25.5722055  51.2652852 107.3334953
  25.8644798  51.3699756 105.8517743  19.1112530  48.1457910 103.2586829
  19.7511910  48.0046669 102.5609792  18.2790061  47.8592423 102.8825431
  30.9739784  56.2276342 102.1901088  31.4076290  56.1351631 103.0384142
  31.6871364  56.2033842 101.5521104  19.8872834  57.4460340  99.3721821
  20.6813433  56.9510660  99.1704396  19.1764527  56.9178203  99.0089527
  24.7067679  59.8278436 103.7234189  24.7604701  60.3969372 104.4911905
  23.8382460  59.9980321 103.3588226  16.1955598  51.5903422  95.4481574
  15.2653186  51.5287877  95.6651536  16.2913070  51.0679375  94.6518215
  16.1141147  48.1158235  98.0359815  16.3747964  49.0303568  97.9268976
  16.9358319  47.6482677  98.1856428  17.5866072  49.5295992 105.2058640
  18.2589125  49.3213354 104.5571289  16.7595859  49.3318078 104.7663872
  31.8355333  56.2700042 104.7233974  32.0291223  57.1745853 104.9693248
  31.7355951  55.8107461 105.5572559  23.4891644  46.1557933 107.2224301
  22.8419559  46.8547883 107.1288777  24.2592659  46.5894077 107.5900549
  26.8970442  56.4206785 110.2974854  26.7455948  56.1917337 109.3804938
  26.8875121  57.3777386 110.3106199  23.6655778  53.9938698 105.2821121
  24.5947838  54.1449857 105.1090088  23.2446808  54.0822719 104.4269767
  22.4644110  58.0189362 103.0519658  22.3255196  57.6508147 103.9245596
  21.6758706  58.5337002 102.8803616  23.0592262  63.1198459  94.3945195
  23.2344018  62.6486502  95.2090817  22.3725050  63.7464225  94.6226455
  24.0149325  57.3970965 100.4408496  23.6799158  57.3571735 101.3366146
  23.5153271  56.7315681  99.9678906  17.9893569  52.8038595 105.9661077
  17.8513367  52.0718834 106.5672616  18.8998493  52.7147495 105.6845265
  20.6175870  52.5158554 105.4544757  21.3275488  51.8751746 105.4131375
  20.5745178  52.7671449 106.3770938  28.6062649  59.4525908 108.3751336
  28.5475195  58.7685128 107.7081919  29.0082167  60.1944898 107.9231962
  19.3304804  49.5023772 107.2740396  18.7942161  49.0514511 107.9261993
  18.7421512  49.6369681 106.5310861  17.6253347  66.2687821 101.1685055
  17.8649946  66.9006346 101.8464073  16.7822544  65.9175861 101.4550414
  18.7407063  48.9612424  89.8366860  17.8636529  48.8401224  89.4729107
  19.2164816  48.1698502  89.5845749  28.6080056  57.4165492 106.6065316
  27.7206835  57.0791413 106.7291715  29.1778607  56.6848523 106.8434081
  10.2609203  53.7489583  99.9308367  10.9480243  53.4351313  99.3429382
  10.1057332  54.6530948  99.6575619  15.0643925  48.6379780 104.3593391
  14.9802114  48.0305449 103.6243801  14.2426632  49.1288798 104.3602887
  22.1381209  62.0766944 103.5726559  22.0651381  62.8821915 104.0845863
  21.6958602  62.2758910 102.7474580  21.9270989  61.3138714  97.0829380
  21.1438511  61.8560394  97.1767605  22.6263734  61.8312694  97.4823622
  25.2367639  47.1233343  99.7263586  25.7336339  46.3703306  99.4064656
  24.4654621  47.1597660  99.1606795  24.5979893  61.9753778 105.7284718
  25.3107865  62.6101243 105.6560619  24.1069921  62.0717644 104.9124719
  26.3197420  55.8805031  97.3002009  25.3853698  56.0006493  97.1306714
  26.4974088  54.9777497  97.0362019  21.8202608  49.2650726  99.4535270
  21.4500395  48.7121767 100.1416176  22.3161700  48.6608860  98.9010270
  19.6491806  59.7248221 106.5490288  20.3501266  60.3584704 106.7019683
  19.1786921  60.0662953 105.7885928  27.6786634  44.0902937 101.8742945
  26.7649714  44.3207164 102.0425152  28.1079735  44.1741381 102.7256977
  27.4493092  52.2792829 104.3742839  26.7964543  52.5268736 103.7195291
  27.8273472  51.4656967 104.0405316  24.4100266  62.3152522  98.4771009
  24.5922661  61.4974178  98.9398761  25.2333252  62.5320214  98.0395899
  24.7442432  61.2420707  95.7386058  25.2730198  60.7313162  95.1256220
  25.0070651  60.9263237  96.6031591  23.4980665  53.0212640 110.8608876
  22.8221302  52.9206769 111.5311251  24.3208299  52.8651854 111.3244873
  15.2459524  59.2584576 103.4821391  15.8312961  58.5128264 103.6149295
  15.0484363  59.5688533 104.3658055  18.0998180  62.2935824  98.4983833
  17.4308555  62.7781951  98.0147873  17.9611049  62.5405044  99.4127212
   9.8377179  51.8290177 102.2025834   9.8761279  51.2953767 102.9962952
   9.3317472  51.3025382 101.5836811  22.2403448  64.3279567 105.0966492
  22.7921756  64.4911189 105.8615577  22.5809642  64.9184005 104.4246517
  17.2167941  46.6754717 105.6988377  17.2809268  47.5369548 105.2865774
  17.1535062  46.0628719 104.9660735  27.0914323  59.1540825 110.9515146
  27.6354226  59.7670783 110.4570101  26.5101167  59.7120403 111.4682159
  13.4685757  50.5554279  95.2779766  13.7639198  49.6464957  95.2246819
  12.5673792  50.5342018  94.9560768  25.3771835  62.2761543 102.0830174
  25.2522975  61.4751283 101.5741119  26.0350927  62.7707736 101.5944144
  16.9980004  48.6310275 101.2607314  16.2766589  49.2446243 101.1214788
  17.7873259  49.1668040 101.1823960  19.8006317  45.9664702 107.5347966
  20.3240719  46.2126998 108.2974275  19.5818650  46.7984737 107.1151103
  15.1973598  48.2368376  95.4019091  14.8686304  47.3565755  95.2194197
  15.5512969  48.1816045  96.2895480  24.4453177  59.8723279  99.9114076
  24.2978140  58.9439987 100.0921646  25.2706671  59.8943370  99.4271152
  18.3115421  48.5241346  95.7694568  18.6511494  49.0527267  95.0473177
  18.7587542  48.8621752  96.5453135  28.0487299  60.6951838 100.9978949
  28.9733846  60.4894699 100.8603400  27.8802602  60.4468239 101.9068291
  21.0058862  46.9078397 105.2197636  20.6655683  46.1086210 105.6218316
  20.2997869  47.2080108 104.6474470  21.6575334  43.9927709 103.6724959
  22.4801403  43.5188188 103.5503850  21.9013398  44.7718193 104.1723646
  20.2983569  47.0215968  93.9687861  21.0191931  47.3997221  93.4651578
  19.6748873  47.7404845  94.0722839  24.4414691  47.7261117  94.9046194
  24.6578306  48.6085755  94.6035022  23.9608759  47.3347330  94.1751836
  19.1813913  50.6846830 101.4816938  19.0358494  50.9987133 102.3741220
  18.7039116  51.3031730 100.9287837  21.0410296  47.6749378 101.5297828
  21.0271864  46.7790471 101.1930126  21.7582724  47.6820042 102.1636114
  22.8936426  48.1086718 103.5750955  22.6354204  49.0303789 103.5735286
  22.3621467  47.7117153 104.2651419  27.8382615  61.2137505  96.3541040
  28.0119493  60.6483928  95.6014893  28.3311506  62.0138400  96.1720530
  13.6559575  53.2252174 104.4204599  13.1113043  54.0011982 104.5524874
  14.5338925  53.5722979 104.2623721  20.4447192  46.5563758  96.7985398
  20.5663103  45.6280404  96.9976285  20.1549234  46.5702444  95.8863713
  23.3138382  44.2418669  99.9352118  23.3360079  44.3058002  98.9804097
  23.7306441  43.4023177 100.1292624  14.4425597  52.3522071 107.3134756
  13.7007333  52.5004706 107.8999387  14.1218341  52.6130336 106.4501506
  22.3869260  61.8938049 107.1115146  22.6956386  61.6487196 107.9837846
  23.1844742  62.0984687 106.6234016  22.4089872  64.0475959  99.3420523
  21.9694862  63.5552337 100.0353379  23.1597989  63.5048926  99.1012598
  14.8882211  60.2387499  99.3445151  15.7140230  59.9391271  98.9643794
  14.5376263  59.4695122  99.7934939  19.8563744  59.5913968 101.4142824
  19.2343753  58.9284673 101.1145052  20.5268611  59.6175100 100.7316472
  13.0890816  58.1573826 100.3034084  12.2522724  57.7296000 100.1218086
  13.0614461  58.3506269 101.2404876  30.4143117  58.6136879 110.2876468
  29.6238661  58.5961018 109.7480967  30.1776471  59.1525173 111.0425504
  30.5340992  55.4629345 107.6009196  30.5838997  55.2979353 108.5424719
  30.4254915  54.5956604 107.2107077  19.4177251  58.1417891  94.8901285
  19.5665371  58.8253355  94.2367958  20.2243694  58.1222981  95.4050741
  27.8244754  51.4460273 108.9168503  28.7254617  51.3066738 108.6252501
  27.8992729  51.6114728 109.8566680  22.1587560  48.8227128 107.7621689
  21.2890869  49.1160694 107.4904278  22.3947040  49.4067573 108.4828953
  32.0359189  57.8826287 107.8451218  31.7443997  58.2456267 108.6814679
  31.4231320  57.1693295 107.6664550  30.2846377  53.0058901 106.3131276
  30.7600499  53.1986548 105.5050127  29.3611942  53.0618087 106.0674659
  17.1729884  54.1683069  95.8962354  16.9275926  53.2645399  96.0942564
  17.3425798  54.1700219  94.9541832  24.8626593  45.0406745 105.2787109
  25.3808537  45.7767772 104.9533598  24.5081726  45.3470738 106.1133869
  16.4425531  49.9011426  93.3948515  15.7494776  49.9755781  92.7388551
  16.1977283  49.1371770  93.9170032  25.1139188  41.4607028 100.7988006
  25.3940941  40.7930217 101.4248433  25.8989795  41.6536123 100.2862670
  22.9172656  60.6366021  92.3613032  22.3446623  61.2556209  91.9083504
  23.4905450  61.1865383  92.8952954  28.9848046  49.8824661 104.5459581
  29.9365469  49.9822759 104.5671805  28.8151496  49.0902930 105.0557666
  27.0062425  46.9680245 104.7318982  26.4112358  47.2485257 104.0365471
  26.7212122  47.4574146 105.5035723  26.1369916  60.9203172  93.4921615
  27.0700589  60.8548733  93.6954490  26.0493129  61.7559438  93.0336147
  28.7657933  60.2369042  90.4525562  28.6871564  59.9028905  91.3461320
  29.5867599  60.7290810  90.4517035  31.4636124  53.1030781 103.6601881
  31.4312444  52.1646782 103.8461565  32.0736747  53.1814818 102.9267706
  23.3019455  51.9726834  89.7029085  24.2478559  51.8433042  89.7717503
  22.9233700  51.2341496  90.1798513  31.6130612  49.8941825 103.7060164
  31.0969661  49.1100281 103.5190093  32.4970561  49.5660541 103.8706683
  29.2741339  43.6382840  99.6655977  29.0766160  43.3297928 100.5499309
  29.8841045  44.3644479  99.7953907  35.3627971  52.3054651 103.3982369
  34.6361134  52.1710616 102.7898860  34.9475258  52.6131479 104.2039087
  23.1858147  56.0244580 111.1629742  24.1061157  56.2023179 111.3569788
  23.1507730  55.0800626 111.0109441  21.4862372  49.8976811  89.6383970
  20.5793827  49.6009923  89.7146684  21.7638353  49.6006629  88.7718256
  12.4040312  51.2183174 100.0883016  12.0843097  50.3648482  99.7957390
  11.8573740  51.4331752 100.8440984  16.1820220  53.9345615 103.8052523
  16.4006230  54.8662723 103.8240557  16.5945994  53.5753589 104.5907327
  23.1024438  44.4413700  95.7928211  22.2925166  44.0960785  96.1683457
  23.7908854  44.1321244  96.3815823  25.0314986  43.5191747  97.4152508
  25.5846024  43.9387200  98.0742531  25.2685072  42.5927495  97.4575464
  20.2561156  46.7563746  89.7795949  21.1180320  47.0818644  90.0391767
  20.4411501  45.9695242  89.2669015  12.2728572  54.8386085 102.0576138
  11.5792044  54.4240038 101.5446092  13.0201563  54.8806622 101.4609557
  28.4093793  45.6292272  96.9231172  27.8292462  46.2877076  96.5409225
  28.1429726  44.8069617  96.5118590  26.8597359  45.0297330  99.1252493
  27.3597138  45.1413864  98.3166811  27.5032967  44.7258383  99.7653301
  20.9179355  52.9375960 112.0120334  20.4346437  53.7376320 112.2184223
  21.0040294  52.9483904 111.0587778  14.1865315  54.7704339  99.9342153
  14.1636003  54.8692027  98.9824036  14.4965951  55.6169490 100.2559319
  16.8452693  56.8280494 104.0488767  17.7995946  56.7964437 103.9818699
  16.6465216  56.3671118 104.8638993  17.4352075  55.3981610 106.6159565
  18.2544964  55.8925689 106.6394402  17.7088882  54.4813578 106.5877133
  27.1918671  47.7892363  95.9787521  26.3044526  48.0742013  95.7607715
  27.6072660  47.6286126  95.1314797  15.2002921  62.3700114 101.0658965
  15.0657389  61.6100515 100.4996963  14.7834984  63.0941014 100.5987754
  27.1659695  53.3046899  96.1937811  27.1094896  53.7615450  95.3545443
  27.7188037  52.5437583  96.0160653  18.3572047  63.2669431 101.2777408
  18.2404431  64.2114863 101.1756098  17.5364494  62.9642992 101.6663207
  27.8994474  54.4951680  93.4890340  27.8443278  54.3295951  92.5478784
  27.2740529  55.2027713  93.6452530  12.6886989  49.7319744 107.3151762
  13.3345853  49.2218698 107.8038987  12.4804140  50.4688426 107.8895187
  25.2140381  56.8000592 112.8143903  26.0831541  56.9741244 112.4530538
  24.7347133  57.6195008 112.6919632  21.2090599  43.9959789  93.0675658
  21.1969269  44.9401629  93.2243929  22.1014021  43.8129934  92.7735119
  19.3826561  63.9197693 104.4933336  20.2853808  63.9521303 104.8099831
  19.1563931  62.9898144 104.5079672  21.1380163  62.6728679 101.1543415
  20.1875794  62.6730541 101.0407787  21.4412650  61.9261414 100.6379450
  25.0242719  40.5902565  97.3221595  24.2575115  40.0361052  97.4678277
  25.4353424  40.6624434  98.1835747  27.0873811  71.8103314 100.9831813
  27.8795103  71.4694138 100.5678113  27.3270461  71.9198289 101.9033967
  26.6560785  68.1797095 100.9246379  26.7853166  68.4331574 101.8385790
  25.9758236  68.7724803 100.6051034  33.3177502  66.0222211 109.6798220
  32.5410836  66.5816131 109.6701084  33.9568065  66.5078993 110.2013090
  31.5723874  68.8307664 109.2416187  32.3138559  69.3692708 108.9651010
  30.8660860  69.4573953 109.3987739  36.5509729  63.5713779 106.8703079
  36.3070661  64.3255840 106.3337355  36.8269660  63.9499127 107.7050326
  30.3085238  65.9847312 110.0431497  29.6783899  66.6663593 110.2766894
  30.2021326  65.8730394 109.0984635  25.6030210  65.6519108 100.9697421
  24.8129264  65.9076637 100.4937532  26.0941458  66.4667446 101.0749462
  23.8867913  65.9049599 103.4012412  24.1375952  66.7896608 103.6669988
  24.4227462  65.7254200 102.6287504  29.5865981  60.2868078 112.4056748
  29.1932926  59.7334276 113.0804392  30.4032121  60.5978656 112.7963265
  28.3622923  74.8417692  98.3993071  28.5389552  75.7635657  98.2114055
  29.1579757  74.5276112  98.8287451  32.5033942  61.7025957 109.9977004
  33.2443655  62.3033110 109.9181467  32.7351865  60.9603595 109.4395047
  27.6475280  66.8882324 108.2755234  27.5328795  65.9867581 108.5762333
  26.7919797  67.1346021 107.9240051  33.2821410  72.6246994 108.7447644
  33.8149746  71.8635282 108.5146952  32.7535491  72.3320646 109.4871799
  24.5176955  70.0540590  97.0929888  25.3552177  70.4637599  96.8763596
  24.6955223  69.1140033  97.0630082  24.5403126  67.3931306  97.7640622
  24.3427526  66.8000666  97.0391688  23.9849790  67.0883516  98.4816560
  27.0349352  66.9195340  95.4481574  26.1046940  66.8579795  95.6651536
  27.1306824  66.3971292  94.6518215  26.9534901  63.4450152  98.0359815
  27.2141718  64.3595486  97.9268976  27.7752073  62.9774595  98.1856428
  28.4259826  64.8587910 105.2058640  29.0982880  64.6505272 104.5571289
  27.5989613  64.6609996 104.7663872  34.3285399  61.4849851 107.2224301
  33.6813314  62.1839800 107.1288777  35.0986414  61.9185994 107.5900549
  28.8287324  68.1330513 105.9661077  28.6907122  67.4010751 106.5672616
  29.7392247  68.0439413 105.6845265  30.1698558  64.8315690 107.2740396
  29.6335915  64.3806428 107.9261993  29.5815267  64.9661599 106.5310861
  28.4647102  81.5979739 101.1685055  28.7043700  82.2298263 101.8464073
  27.6216298  81.2467779 101.4550414  29.5800817  64.2904341  89.8366860
  28.7030284  64.1693142  89.4729107  30.0558570  63.4990420  89.5845749
  21.1002957  69.0781501  99.9308367  21.7873997  68.7643231  99.3429382
  20.9451086  69.9822866  99.6575619  25.9037680  63.9671697 104.3593391
  25.8195868  63.3597367 103.6243801  25.0820386  64.4580716 104.3602887
  34.3374420  68.3504558 110.8608876  33.6615057  68.2498687 111.5311251
  35.1602054  68.1943771 111.3244873  26.0853279  74.5876494 103.4821391
  26.6706716  73.8420182 103.6149295  25.8878117  74.8980451 104.3658055
  20.6770934  67.1582094 102.2025834  20.7155033  66.6245685 102.9962952
  20.1711226  66.6317300 101.5836811  27.5313968  64.0769767 109.3461411
  28.1586007  63.6946845 109.9598935  26.6741887  63.8583969 109.7117103
  24.3079511  65.8846196  95.2779766  24.6032952  64.9756875  95.2246819
  23.4067547  65.8633936  94.9560768  30.6400072  61.2956620 107.5347966
  31.1634474  61.5418916 108.2974275  30.4212405  62.1276654 107.1151103
  26.0367353  63.5660294  95.4019091  25.7080059  62.6857673  95.2194197
  26.3906723  63.5107963  96.2895480  24.4953329  68.5544092 104.4204599
  23.9506798  69.3303900 104.5524874  25.3732679  68.9014897 104.2623721
  25.2819351  67.6813988 107.3134756  24.5401087  67.8296624 107.8999387
  24.9612096  67.9422254 106.4501506  25.7275965  75.5679417  99.3445151
  26.5533985  75.2683189  98.9643794  25.3770017  74.7987040  99.7934939
  23.9284570  73.4865744 100.3034084  23.0916478  73.0587918 100.1218086
  23.9008216  73.6798187 101.2404876  30.7682026  63.3987673 111.0075330
  30.8170181  64.2749796 110.6253100  31.3104540  62.8565066 110.4346974
  32.9981314  64.1519046 107.7621689  32.1284624  64.4452612 107.4904278
  33.2340795  64.7359491 108.4828953  35.7020348  60.3698663 105.2787109
  36.2202292  61.1059690 104.9533598  35.3475481  60.6762656 106.1133869
  27.2819286  65.2303344  93.3948515  26.5888531  65.3047699  92.7388551
  27.0371038  64.4663687  93.9170032  34.0251902  71.3536498 111.1629742
  34.9454911  71.5315097 111.3569788  33.9901485  70.4092543 111.0109441
  23.2434067  66.5475092 100.0883016  22.9236851  65.6940400  99.7957390
  22.6967495  66.7623670 100.8440984  27.0213974  69.2637533 103.8052523
  27.2399984  70.1954640 103.8240557  27.4339748  68.9045507 104.5907327
  31.8941840  64.8370738 113.1955272  31.7938566  65.7865095 113.1267363
  31.6763382  64.5088977 112.3231342  31.0954911  62.0855663  89.7795949
  31.9574075  62.4110562  90.0391767  31.2805255  61.2987159  89.2669015
  23.1122327  70.1678003 102.0576138  22.4185798  69.7531956 101.5446092
  23.8595318  70.2098540 101.4609557  31.7573110  68.2667877 112.0120334
  31.2740191  69.0668237 112.2184223  31.8434049  68.2775822 111.0587778
  25.0259069  70.0996257  99.9342153  25.0029757  70.1983944  98.9824036
  25.3359706  70.9461408 100.2559319  27.6846447  72.1572412 104.0488767
  28.6389701  72.1256354 103.9818699  27.4858971  71.6963036 104.8638993
  28.2745829  70.7273528 106.6159565  29.0938718  71.2217607 106.6394402
  28.5482637  69.8105496 106.5877133  26.0396676  77.6992031 101.0658965
  25.9051144  76.9392432 100.4996963  25.6228738  78.4232931 100.5987754
  29.1965802  78.5961348 101.2777408  29.0798186  79.5406781 101.1756098
  28.3758248  78.2934910 101.6663207  23.5280743  65.0611662 107.3151762
  24.1739607  64.5510616 107.8038987  23.3197895  65.7980343 107.8895187
  36.0534136  72.1292509 112.8143903  36.9225295  72.3033162 112.4530538
  35.5740887  72.9486926 112.6919632  30.2220316  79.2489610 104.4933336
  31.1247563  79.2813221 104.8099831  29.9957686  78.3190061 104.5079672
  27.8678234  62.2079279 111.4126776  28.7309696  61.8516084 111.6230101
  27.2943645  61.8693174 112.1002181  47.7126611  83.8381135 102.2189177
  48.3505021  83.7187883 101.5152517  47.5947454  84.7861979 102.2777129
  44.5216318  83.7908563 102.1550702  44.1834829  83.6749628 101.2671237
  45.3906086  83.3899728 102.1351708  40.3803133  85.6444040  98.1447593
  39.8167998  85.5533977  97.3763881  40.2655528  84.8243944  98.6250085
  45.0036101  84.9443415 108.1136908  44.9924741  84.5496213 107.2417411
  45.1656740  84.2109488 108.7070679  37.9267565  87.1395231 100.9831813
  38.7188857  86.7986056 100.5678113  38.1664215  87.2490206 101.9033967
  45.9602692  89.3115007  93.4562058  45.3090672  89.8969088  93.0696072
  46.7547055  89.8421202  93.5157095  39.8858319  86.4004145  93.8549192
  40.6589195  85.8533132  93.7162068  40.2383718  87.2648394  94.0663654
  41.7243362  87.7280527 107.0616092  41.4333228  88.6326158 106.9462758
  42.3600346  87.7697055 107.7760161  42.6499569  85.1057375 103.6517451
  43.2463141  84.8813398 102.9374414  42.7074540  84.3642121 104.2542899
  42.2224597  82.5596811  91.4867642  42.4750118  82.0378332  90.7251105
  41.2849156  82.3962956  91.5894326  47.2667880  81.5632589  99.2942385
  48.0530969  81.1452012  98.9432802  47.5306584  82.4678681  99.4624034
  47.4377957  87.0005439  93.9931042  46.8023790  87.0740066  94.7051947
  47.1075364  87.5899038  93.3150121  52.6676307  81.5007822 100.1975364
  53.4001479  80.9307039 100.4313193  51.9115663  81.1129423 100.6381869
  41.9420886  84.4624917  93.6892017  41.8257144  83.7869820  94.3573101
  42.0523146  83.9757291  92.8724170  44.2852427  83.9235064  97.3938706
  43.9210634  83.3965685  98.1051628  45.1419543  83.5333533  97.2205192
  50.1901727  75.2129396 104.6569972  49.8585052  76.0824807 104.4331187
  49.5947341  74.8965680 105.3364003  43.9257914  78.9524964  92.3900055
  44.0932316  79.8205200  92.7570526  43.7355083  79.1152245  91.4661344
  46.6833247  87.4141942 104.0565885  46.3833970  88.3166981 103.9481692
  46.3384306  87.1474126 104.9087038  40.1345728  83.8655739 100.0902590
  39.2096225  83.7331953 100.2980281  40.3830142  84.6449959 100.5872532
  50.0830391  79.9324483 101.7363323  49.1747268  79.8639891 101.4422084
  50.0317986  80.4096428 102.5645148  43.9047135  81.4082621  93.3746722
  43.7846760  81.8539672  94.2132202  43.2099723  81.7567939  92.8160260
  37.4954539  83.5089013 100.9246379  37.6246921  83.7623492 101.8385790
  36.8151991  84.1016721 100.6051034  41.6654027  94.1786263  97.0236853
  41.5878056  95.1294088  97.1025333  41.0615670  93.8332135  97.6811779
  44.1571256  81.3514128 109.6798220  43.3804591  81.9108048 109.6701084
  44.7961819  81.8370911 110.2013090  51.9492037  78.1340921 103.5141196
  51.3066417  78.4273454 102.8680991  51.4446966  78.0193841 104.3194393
  49.6032201  81.8804094  94.2027056  50.5150057  82.1131481  94.0274753
  49.0941848  82.4641138  93.6402134  42.4117629  84.1599582 109.2416187
  43.1532313  84.6984626 108.9651010  41.7054614  84.7865870 109.3987739
  47.8872968  86.3028722 107.8388348  48.2956324  85.8611133 107.0942981
  47.1650230  85.7281350 108.0922541  44.2404038  81.2401329 105.2121905
  45.0865234  81.6640742 105.3556554  44.1802676  80.5834953 105.9060468
  48.2101783  86.8629913 101.5940637  47.5810645  87.0275627 100.8916705
  47.8227445  87.2771522 102.3651601  52.0891015  87.7984350  98.9485001
  51.4042053  88.1783252  98.3982034  52.1734864  88.4079677  99.6816949
  47.3903484  78.9005697 106.8703079  47.1464416  79.6547758 106.3337355
  47.6663414  79.2791045 107.7050326  49.3441947  85.4444310 105.5480344
  49.5558842  86.0876069 104.8714726  49.2971695  84.6106626 105.0802275
  43.7629745  86.6004321  98.8590722  44.2268090  86.8792024  98.0695345
  43.4986543  85.6987765  98.6763813  40.6553826  86.1475802 101.7970486
  41.2255183  86.5763071 101.1587970  41.2461938  85.8658387 102.4954671
  42.6998631  82.7227473  95.6680287  43.4022674  83.1748517  96.1354214
  42.3679259  82.0811292  96.2960181  41.1478992  81.3139230 110.0431497
  40.5177653  81.9955511 110.2766894  41.0415080  81.2022311 109.0984635
  50.4587774  88.3216265 103.7202702  51.2805218  87.9196452 103.4385383
  50.4550177  88.2184499 104.6718818  38.3938710  81.3455605  97.9280898
  37.5969874  81.4574299  98.4464393  38.1664303  81.6842257  97.0621788
  44.2244378  87.8700308 105.8763412  44.2888810  88.3320715 106.7121584
  43.5155302  87.2397673 106.0045722  58.5493768  84.6655013 100.0687673
  57.7957476  84.0962411  99.9131678  58.6841309  84.6317678 101.0158308
  43.9392396  89.5368416  95.7442393  43.8038070  90.3819951  96.1727240
  44.4802208  89.7387693  94.9808326  37.3921793  87.0543854  96.3170318
  37.9046314  87.8487104  96.4675882  38.0444506  86.3570144  96.2503919
  39.2016678  90.1709610  98.3993071  39.3783306  91.0927575  98.2114055
  39.9973511  89.8568029  98.8287451  43.3427696  77.0317875 109.9977004
  44.0837410  77.6325028 109.9181467  43.5745619  76.2895512 109.4395047
  38.4869034  82.2174242 108.2755234  38.3722549  81.3159499 108.5762333
  37.6313552  82.4637939 107.9240051  45.5660872  90.1591982 109.8742735
  45.1224726  89.3728361 109.5563639  46.2278086  90.3471133 109.2086626
  40.3247993  91.6887784 104.4003413  40.8755418  91.5604847 103.6280407
  39.4859469  91.9882673 104.0498306  47.6642110  90.4394782 107.9024136
  47.6460585  91.2603663 107.4104405  48.5862030  90.3148857 108.1274277
  44.1215164  87.9538912 108.7447644  44.6543501  87.1927200 108.5146952
  43.5929245  87.6612563 109.4871799  35.3570710  85.3832508  97.0929888
  36.1945932  85.7929516  96.8763596  35.5348977  84.4431950  97.0630082
  47.2535142  83.0507589  92.7813721  46.7381765  83.8212193  93.0202109
  46.9812450  82.3772725  93.4046783  52.2269416  85.8039943  94.7166895
  51.4498859  85.4651103  94.2722057  52.9060897  85.8092567  94.0421860
  47.0421445  80.9234681  94.6073502  46.7371581  81.2380830  95.4583646
  47.9951887  81.0016101  94.6500835  45.4867877  87.0824904  96.2566456
  44.9589238  86.3477664  95.9439694  44.9855380  87.8599580  96.0106425
  50.4660723  85.2773925 101.3733503  49.8084397  85.9673186 101.4613631
  51.2701122  85.6670357 101.7167489  49.2766182  83.6318297  99.4237444
  49.7898063  84.2648289  99.9259154  49.9267406  83.0319493  99.0580804
  40.5456192  79.7749031  92.6368953  39.7093504  80.1123718  92.9578228
  40.4060961  79.6398011  91.6996090  43.6320477  84.9005114  89.2601429
  42.7247539  84.6694368  89.4592578  44.1291509  84.1042734  89.4475411
  46.5388556  93.6102622  92.1798116  45.8650255  93.9134318  92.7883073
  46.9254378  94.4131702  91.8303573  46.5382060  82.5059169  96.7998465
  47.2853879  83.0180566  96.4905587  46.8073650  82.1843221  97.6602859
  44.8108711  85.0017709  93.7825419  43.9019930  84.7176742  93.8797889
  44.8403794  85.4216788  92.9228726  50.0427978  88.6124299  97.5516587
  49.5890305  87.7715209  97.6081778  49.4121945  89.2485697  97.8891367
  48.9860897  79.5416285  98.7817255  48.2483654  79.0293671  99.1127497
  49.2387671  79.1016666  97.9700531  48.4860917  90.4500795  98.4866405
  48.7783892  91.0105853  97.7678771  48.9959538  90.7429356  99.2419564
  44.5084798  86.5426453  91.1213498  44.0704228  85.8262312  90.6619135
  45.2495239  86.7702568  90.5598589  41.2985964  81.2323390  97.6425594
  40.4853830  81.5317560  98.0490786  41.7944959  80.8379078  98.3600076
  43.4494542  91.2281147  99.5759858  43.4070721  91.4541993  98.6468390
  44.3657241  90.9944521  99.7245660  46.8960176  81.6965214 106.4740488
  47.2509564  81.9236687 107.3334953  47.5432307  82.0283591 105.8517743
  52.6257913  84.8183650  97.1789817  52.4875812  85.0085246  96.2511006
  52.2694132  85.5803033  97.6357868  52.6527293  86.8860177 102.1901088
  53.0863799  86.7935466 103.0384142  53.3658873  86.8617677 101.5521104
  41.5660343  88.1044176  99.3721821  42.3600942  87.6094496  99.1704396
  40.8552036  87.5762039  99.0089527  46.3855188  90.4862271 103.7234189
  46.4392210  91.0553207 104.4911905  45.5169969  90.6564156 103.3588226
  37.8743107  82.2487257  95.4481574  36.9440695  82.1871713  95.6651536
  37.9700579  81.7263210  94.6518215  53.5142842  86.9283878 104.7233974
  53.7078732  87.8329688 104.9693248  53.4143460  86.4691297 105.5572559
  48.5757951  87.0790620 110.2974854  48.4243457  86.8501172 109.3804938
  48.5662630  88.0361222 110.3106199  45.3443287  84.6522533 105.2821121
  46.2735347  84.8033693 105.1090088  44.9234317  84.7406554 104.4269767
  44.1431619  88.6773198 103.0519658  44.0042705  88.3091982 103.9245596
  43.3546215  89.1920837 102.8803616  44.7379771  93.7782294  94.3945195
  44.9131527  93.3070337  95.2090817  44.0512559  94.4048060  94.6226455
  45.6936834  88.0554800 100.4408496  45.3586667  88.0155570 101.3366146
  45.1940780  87.3899516  99.9678906  39.6681078  83.4622430 105.9661077
  39.5300876  82.7302669 106.5672616  40.5786002  83.3731330 105.6845265
  48.6296026  85.4010835  90.7145556  48.0125197  84.6757663  90.6178608
  48.1612514  86.1620195  90.3712630  42.2963379  83.1742390 105.4544757
  43.0062997  82.5335582 105.4131375  42.2532687  83.4255284 106.3770938
  50.2850158  90.1109743 108.3751336  50.2262704  89.4268963 107.7081919
  50.6869676  90.8528733 107.9231962  41.0092313  80.1607607 107.2740396
  40.4729670  79.7098346 107.9261993  40.4209021  80.2953516 106.5310861
  39.3040856  96.9271657 101.1685055  39.5437455  97.5590181 101.8464073
  38.4610053  96.5759697 101.4550414  40.4194572  79.6196259  89.8366860
  39.5424038  79.4985060  89.4729107  40.8952325  78.8282337  89.5845749
  50.2867565  88.0749327 106.6065316  49.3994344  87.7375249 106.7291715
  50.8566116  87.3432358 106.8434081  31.9396712  84.4073419  99.9308367
  32.6267752  84.0935149  99.3429382  31.7844841  85.3114783  99.6575619
  43.8168718  92.7350779 103.5726559  43.7438890  93.5405751 104.0845863
  43.3746111  92.9342745 102.7474580  43.6058498  91.9722549  97.0829380
  42.8226020  92.5144229  97.1767605  44.3051243  92.4896529  97.4823622
  54.7684905  83.4857544 101.3681877  54.7574782  84.3682260 100.9975810
  53.9002285  83.1329095 101.1736414  46.2767402  92.6337613 105.7284718
  46.9895374  93.2685078 105.6560619  45.7857430  92.7301479 104.9124719
  47.9984929  86.5388866  97.3002009  47.0641207  86.6590328  97.1306714
  48.1761597  85.6361333  97.0362019  51.3857480  82.3806185  97.8352043
  51.8517932  83.2134177  97.7612346  51.8364981  81.9151167  98.5397302
  41.3279315  90.3832057 106.5490288  42.0288775  91.0168540 106.7019683
  40.8574430  90.7246788 105.7885928  49.4533711  88.7250006  94.8338195
  49.7293555  88.6106601  95.7432069  48.5838210  88.3267491  94.7950368
  49.1280601  82.9376664 104.3742839  48.4752052  83.1852572 103.7195291
  49.5060981  82.1240802 104.0405316  46.0887775  92.9736357  98.4771009
  46.2710170  92.1558013  98.9398761  46.9120761  93.1904050  98.0395899
  46.4229941  91.9004542  95.7386058  46.9517707  91.3896997  95.1256220
  46.6858160  91.5847073  96.6031591  45.1768174  83.6796475 110.8608876
  44.5008811  83.5790605 111.5311251  45.9995808  83.5235689 111.3244873
  36.9247033  89.9168412 103.4821391  37.5100470  89.1712100 103.6149295
  36.7271872  90.2272368 104.3658055  39.7785689  92.9519659  98.4983833
  39.1096064  93.4365787  98.0147873  39.6398558  93.1988880  99.4127212
  31.5164688  82.4874012 102.2025834  31.5548788  81.9537603 102.9962952
  31.0104981  81.9609217 101.5836811  43.9190957  94.9863403 105.0966492
  44.4709265  95.1495024 105.8615577  44.2597151  95.5767840 104.4246517
  38.3707723  79.4061685 109.3461411  38.9979762  79.0238762 109.9598935
  37.5135642  79.1875887 109.7117103  48.7701831  89.8124660 110.9515146
  49.3141735  90.4254618 110.4570101  48.1888676  90.3704239 111.4682159
  47.0559344  92.9345378 102.0830174  46.9310484  92.1335118 101.5741119
  47.7138436  93.4291572 101.5944144  49.1194253  90.7354398 103.7109724
  48.1724588  90.6159749 103.6388051  49.4677026  89.8476896 103.7935985
  46.1240686  90.5307114  99.9114076  45.9765649  89.6023822 100.0921646
  46.9494180  90.5527205  99.4271152  39.9902930  79.1825182  95.7694568
  40.3299003  79.7111103  95.0473177  40.4375051  79.5205588  96.5453135
  49.7274808  91.3535673 100.9978949  50.6521355  91.1478535 100.8603400
  49.5590111  91.1052074 101.9068291  46.1202200  78.3844952  94.9046194
  46.3365815  79.2669590  94.6035022  45.6396268  77.9931166  94.1751836
  49.5170124  91.8721341  96.3541040  49.6907002  91.3067763  95.6014893
  50.0099015  92.6722236  96.1720530  35.3347084  83.8836010 104.4204599
  34.7900552  84.6595818 104.5524874  36.2126434  84.2306814 104.2623721
  55.3709515  84.6357764  97.9731340  55.8140661  83.8865089  97.5750463
  54.4936026  84.6267900  97.5905072  50.5045297  91.1888105  93.4537939
  51.1996201  91.8094798  93.6725253  50.8468447  90.3383456  93.7290317
  36.1213106  83.0105906 107.3134756  35.3794842  83.1588541 107.8999387
  35.8005850  83.2714172 106.4501506  52.4036720  88.6387811  94.9825270
  52.9288044  88.9775083  94.2574590  52.3159072  87.7034826  94.7988404
  44.0656768  92.5521884 107.1115146  44.3743895  92.3071031 107.9837846
  44.8632251  92.7568523 106.6234016  44.0877381  94.7059794  99.3420523
  43.6482371  94.2136173 100.0353379  44.8385497  94.1632762  99.1012598
  36.5669720  90.8971335  99.3445151  37.3927739  90.5975107  98.9643794
  36.2163772  90.1278957  99.7934939  41.5351253  90.2497803 101.4142824
  40.9131262  89.5868508 101.1145052  42.2056120  90.2758935 100.7316472
  34.7678325  88.8157661 100.3034084  33.9310233  88.3879836 100.1218086
  34.7401970  89.0090105 101.2404876  41.6075780  78.7279591 111.0075330
  41.6563936  79.6041714 110.6253100  42.1498294  78.1856984 110.4346974
  52.0930626  89.2720714 110.2876468  51.3026170  89.2544853 109.7480967
  51.8563980  89.8109008 111.0425504  52.2128501  86.1213181 107.6009196
  52.2626506  85.9563188 108.5424719  52.1042424  85.2540440 107.2107077
  41.0964760  88.8001726  94.8901285  41.2452880  89.4837191  94.2367958
  41.9031203  88.7806816  95.4050741  49.5032263  82.1044109 108.9168503
  50.4042126  81.9650574 108.6252501  49.5780238  82.2698563 109.8566680
  43.8375069  79.4810963 107.7621689  42.9678378  79.7744529 107.4904278
  44.0734549  80.0651408 108.4828953  53.7146698  88.5410122 107.8451218
  53.4231506  88.9040103 108.6814679  53.1018829  87.8277130 107.6664550
  54.9142380  86.1063002 100.3653788  55.7489271  86.5452806 100.5291348
  55.0501509  85.6301655  99.5462034  51.9633886  83.6642737 106.3131276
  52.4388008  83.8570383 105.5050127  51.0399451  83.7201923 106.0674659
  38.8517393  84.8266904  95.8962354  38.6063435  83.9229234  96.0942564
  39.0213307  84.8284054  94.9541832  44.5960165  91.2949857  92.3613032
  44.0234132  91.9140044  91.9083504  45.1692959  91.8449218  92.8952954
  50.6635555  80.5408497 104.5459581  51.6152978  80.6406595 104.5671805
  50.4939005  79.7486765 105.0557666  48.6849934  77.6264080 104.7318982
  48.0899867  77.9069093 104.0365471  48.3999631  78.1157981 105.5035723
  47.8157425  91.5787007  93.4921615  48.7488098  91.5132569  93.6954490
  47.7280638  92.4143274  93.0336147  50.4445442  90.8952877  90.4525562
  50.3659073  90.5612741  91.3461320  51.2655108  91.3874645  90.4517035
  53.1423633  83.7614617 103.6601881  53.1099953  82.8230617 103.8461565
  53.7524256  83.8398653 102.9267706  44.9806964  82.6310670  89.7029085
  45.9266068  82.5016878  89.7717503  44.6021209  81.8925331  90.1798513
  53.2918121  80.5525660 103.7060164  52.7757170  79.7684117 103.5190093
  54.1758070  80.2244377 103.8706683  58.9600183  84.8230623 102.8007918
  59.6903571  84.5615912 103.3615621  58.3507128  84.0859345 102.8409986
  57.0415480  82.9638486 103.3982369  56.3148643  82.8294451 102.7898860
  56.6262767  83.2715315 104.2039087  44.8645656  86.6828416 111.1629742
  45.7848666  86.8607015 111.3569788  44.8295239  85.7384461 111.0109441
  43.1649881  80.5560646  89.6383970  42.2581336  80.2593759  89.7146684
  43.4425862  80.2590464  88.7718256  37.8607729  84.5929450 103.8052523
  38.0793738  85.5246558 103.8240557  38.2733503  84.2337425 104.5907327
  42.7335594  80.1662656 113.1955272  42.6332321  81.1157013 113.1267363
  42.5157136  79.8380895 112.3231342  41.9348665  77.4147581  89.7795949
  42.7967829  77.7402479  90.0391767  42.1199010  76.6279077  89.2669015
  33.9516081  85.4969921 102.0576138  33.2579553  85.0823874 101.5446092
  34.6989072  85.5390457 101.4609557  42.5966864  83.5959795 112.0120334
  42.1133946  84.3960155 112.2184223  42.6827803  83.6067740 111.0587778
  35.8652824  85.4288175  99.9342153  35.8423512  85.5275862  98.9824036
  36.1753460  86.2753325 100.2559319  38.5240202  87.4864330 104.0488767
  39.4783455  87.4548272 103.9818699  38.3252725  87.0254953 104.8638993
  39.1139584  86.0565446 106.6159565  39.9332473  86.5509524 106.6394402
  39.3876391  85.1397414 106.5877133  52.2220716  78.4722719  99.6941860
  52.9981106  78.9619171  99.9666477  51.4968850  78.8980773 100.1513729
  54.6593275  79.1850338 100.7515800  55.2537765  78.9446074 100.0409109
  54.7319858  78.4657469 101.3789337  36.8790430  93.0283949 101.0658965
  36.7444898  92.2684350 100.4996963  36.4622493  93.7524849 100.5987754
  48.0149393  88.2120873  90.0735541  48.7185243  88.4170875  90.6893196
  47.2912042  88.7797635  90.3384624  48.8447204  83.9630734  96.1937811
  48.7882405  84.4199285  95.3545443  49.3975546  83.2021418  96.0160653
  52.6552010  79.7520466  97.0187930  52.3988944  79.3517101  97.8496138
  52.0304878  80.4664260  96.8938069  56.9664347  82.4916539  99.5259222
  56.4063905  82.5609728 100.2990784  56.3607851  82.3157524  98.8058718
  40.0359556  93.9253266 101.2777408  39.9191940  94.8698699 101.1756098
  39.2152003  93.6226828 101.6663207  49.9236091  88.6503402  92.1234001
  50.7581695  88.2184600  91.9411475  49.7620434  88.4785416  93.0510895
  49.5781983  85.1535515  93.4890340  49.5230787  84.9879787  92.5478784
  48.9528038  85.8611548  93.6452530  34.3674498  80.3903580 107.3151762
  35.0133362  79.8802534 107.8038987  34.1591649  81.1272261 107.8895187
  46.8927890  87.4584427 112.8143903  47.7619050  87.6325079 112.4530538
  46.4134642  88.2778844 112.6919632  41.0614070  94.5781528 104.4933336
  41.9641317  94.6105138 104.8099831  40.8351440  93.6481979 104.5079672
  42.8167672  93.3312515 101.1543415  41.8663303  93.3314376 101.0407787
  43.1200159  92.5845249 100.6379450  58.5520366  99.1673053 102.2189177
  59.1898776  99.0479800 101.5152517  58.4341209 100.1153897 102.2777129
  55.3610072  99.1200481 102.1550702  55.0228584  99.0041546 101.2671237
  56.2299840  98.7191646 102.1351708  51.2196888 100.9735957  98.1447593
  50.6561753 100.8825894  97.3763881  51.1049283 100.1535862  98.6250085
  55.8429855 100.2735333 108.1136908  55.8318496  99.8788131 107.2417411
  56.0050495  99.5401405 108.7070679  48.7661320 102.4687149 100.9831813
  49.5582612 102.1277974 100.5678113  49.0057970 102.5782124 101.9033967
  56.7996447 104.6406925  93.4562058  56.1484426 105.2261006  93.0696072
  57.5940809 105.1713120  93.5157095  50.7252074 101.7296062  93.8549192
  51.4982950 101.1825049  93.7162068  51.0777473 102.5940312  94.0663654
  52.5637116 103.0572445 107.0616092  52.2726982 103.9618075 106.9462758
  53.1994101 103.0988972 107.7760161  53.4893323 100.4349293 103.6517451
  54.0856895 100.2105316 102.9374414  53.5468295  99.6934039 104.2542899
  53.0618352  97.8888728  91.4867642  53.3143872  97.3670250  90.7251105
  52.1242911  97.7254874  91.5894326  58.1061634  96.8924507  99.2942385
  58.8924724  96.4743930  98.9432802  58.3700339  97.7970599  99.4624034
  58.2771712 102.3297357  93.9931042  57.6417545 102.4031984  94.7051947
  57.9469118 102.9190956  93.3150121  63.5070061  96.8299740 100.1975364
  64.2395233  96.2598957 100.4313193  62.7509417  96.4421340 100.6381869
  52.7814640  99.7916834  93.6892017  52.6650898  99.1161738  94.3573101
  52.8916900  99.3049208  92.8724170  55.1246181  99.2526981  97.3938706
  54.7604388  98.7257602  98.1051628  55.9813297  98.8625451  97.2205192
  61.0295482  90.5421314 104.6569972  60.6978807  91.4116725 104.4331187
  60.4341095  90.2257598 105.3364003  54.7651668  94.2816881  92.3900055
  54.9326071  95.1497118  92.7570526  54.5748837  94.4444163  91.4661344
  57.5227001 102.7433860 104.0565885  57.2227724 103.6458899 103.9481692
  57.1778061 102.4766043 104.9087038  50.9739483  99.1947657 100.0902590
  50.0489979  99.0623871 100.2980281  51.2223896  99.9741876 100.5872532
  60.9224145  95.2616400 101.7363323  60.0141022  95.1931809 101.4422084
  60.8711741  95.7388345 102.5645148  54.7440889  96.7374539  93.3746722
  54.6240514  97.1831589  94.2132202  54.0493477  97.0859856  92.8160260
  48.3348294  98.8380930 100.9246379  48.4640675  99.0915409 101.8385790
  47.6545745  99.4308638 100.6051034  52.5047781 109.5078180  97.0236853
  52.4271811 110.4586006  97.1025333  51.9009425 109.1624053  97.6811779
  54.9965011  96.6806046 109.6798220  54.2198345  97.2399966 109.6701084
  55.6355574  97.1662829 110.2013090  62.7885792  93.4632839 103.5141196
  62.1460172  93.7565372 102.8680991  62.2840720  93.3485759 104.3194393
  60.4425955  97.2096012  94.2027056  61.3543811  97.4423399  94.0274753
  59.9335602  97.7933056  93.6402134  53.2511383  99.4891499 109.2416187
  53.9926068 100.0276543 108.9651010  52.5448369 100.1157788 109.3987739
  58.7266723 101.6320640 107.8388348  59.1350079 101.1903050 107.0942981
  58.0043984 101.0573267 108.0922541  55.0797793  96.5693246 105.2121905
  55.9258988  96.9932660 105.3556554  55.0196431  95.9126871 105.9060468
  59.0495538 102.1921830 101.5940637  58.4204400 102.3567544 100.8916705
  58.6621200 102.6063440 102.3651601  62.9284769 103.1276268  98.9485001
  62.2435808 103.5075170  98.3982034  63.0128619 103.7371595  99.6816949
  58.2297238  94.2297615 106.8703079  57.9858170  94.9839675 106.3337355
  58.5057169  94.6082962 107.7050326  60.1835701 100.7736227 105.5480344
  60.3952596 101.4167987 104.8714726  60.1365449  99.9398544 105.0802275
  57.7861930  93.3854048 102.4516917  56.9246409  93.6835301 102.7433654
  57.8124365  93.6024447 101.5197949  54.6023499 101.9296238  98.8590722
  55.0661845 102.2083941  98.0695345  54.3380298 101.0279683  98.6763813
  51.4947580 101.4767720 101.7970486  52.0648938 101.9054988 101.1587970
  52.0855692 101.1950305 102.4954671  53.5392385  98.0519391  95.6680287
  54.2416429  98.5040434  96.1354214  53.2073014  97.4103210  96.2960181
  51.9872747  96.6431147 110.0431497  51.3571408  97.3247428 110.2766894
  51.8808835  96.5314229 109.0984635  47.2817719  96.3102943 100.9697421
  46.4916773  96.5660472 100.4937532  47.7728967  97.1251281 101.0749462
  61.2981529 103.6508183 103.7202702  62.1198973 103.2488370 103.4385383
  61.2943932 103.5476417 104.6718818  49.2332465  96.6747523  97.9280898
  48.4363628  96.7866217  98.4464393  49.0058057  97.0134175  97.0621788
  55.0638132 103.1992226 105.8763412  55.1282565 103.6612633 106.7121584
  54.3549056 102.5689591 106.0045722  45.5655422  96.5633434 103.4012412
  45.8163461  97.4480444 103.6669988  46.1014971  96.3838035 102.6287504
  69.3887522  99.9946931 100.0687673  68.6351230  99.4254329  99.9131678
  69.5235063  99.9609596 101.0158308  54.7786150 104.8660333  95.7442393
  54.6431825 105.7111869  96.1727240  55.3195963 105.0679611  94.9808326
  51.2653490  90.9451913 112.4056748  50.8720435  90.3918112 113.0804392
  52.0819630  91.2562492 112.7963265  48.2315547 102.3835771  96.3170318
  48.7440068 103.1779022  96.4675882  48.8838260 101.6862062  96.2503919
  50.0410432 105.5001528  98.3993071  50.2177061 106.4219492  98.2114055
  50.8367266 105.1859947  98.8287451  54.1821451  92.3609792 109.9977004
  54.9231164  92.9616945 109.9181467  54.4139374  91.6187430 109.4395047
  49.3262789  97.5466160 108.2755234  49.2116304  96.6451417 108.5762333
  48.4707306  97.7929856 107.9240051  56.4054626 105.4883900 109.8742735
  55.9618481 104.7020278 109.5563639  57.0671840 105.6763050 109.2086626
  51.1641748 107.0179702 104.4003413  51.7149173 106.8896765 103.6280407
  50.3253224 107.3174591 104.0498306  58.5035865 105.7686700 107.9024136
  58.4854340 106.5895581 107.4104405  59.4255785 105.6440775 108.1274277
  54.9608919 103.2830829 108.7447644  55.4937255 102.5219118 108.5146952
  54.4323000 102.9904481 109.4871799  58.1278614  88.3890895 104.2741286
  57.7842883  89.2792537 104.1980397  58.4957576  88.1992553 103.4110871
  46.1964464 100.7124426  97.0929888  47.0339686 101.1221434  96.8763596
  46.3742732  99.7723868  97.0630082  58.0928896  98.3799506  92.7813721
  57.5775520  99.1504111  93.0202109  57.8206205  97.7064643  93.4046783
  55.6776007  93.2249207  97.8398960  54.8217604  92.8356058  97.6604598
  56.0902959  93.3041168  96.9798745  57.2075154  90.7595550 102.2390519
  56.7039950  90.7225686 101.4258325  57.5005761  91.6688293 102.2987176
  53.4518040  90.8434280 101.2456701  54.3171037  90.6477089 100.8862591
  53.5195549  90.6144632 102.1726058  63.0663170 101.1331861  94.7166895
  62.2892613 100.7943021  94.2722057  63.7454651 101.1384484  94.0421860
  57.8815200  96.2526598  94.6073502  57.5765335  96.5672748  95.4583646
  58.8345642  96.3308018  94.6500835  56.3261631 102.4116822  96.2566456
  55.7982993 101.6769581  95.9439694  55.8249134 103.1891498  96.0106425
  61.3054477 100.6065842 101.3733503  60.6478152 101.2965104 101.4613631
  62.1094877 100.9962274 101.7167489  51.0580359  93.0736488  98.6173068
  51.6324111  92.8511670  97.8846261  51.6451341  93.1425183  99.3701669
  60.1159936  98.9610215  99.4237444  60.6291818  99.5940207  99.9259154
  60.7661160  98.3611410  99.0580804  51.3849946  95.1040949  92.6368953
  50.5487258  95.4415636  92.9578228  51.2454716  94.9689929  91.6996090
  53.3603027  89.9477737  97.3448137  52.7067439  89.6326754  96.7204752
  53.3183501  89.3253477  98.0707960  54.4714232 100.2297032  89.2601429
  53.5641293  99.9986286  89.4592578  54.9685264  99.4334651  89.4475411
  57.3782310 108.9394539  92.1798116  56.7044009 109.2426236  92.7883073
  57.7648132 109.7423620  91.8303573  56.5940767  96.4359671 101.6695785
  55.6763328  96.6574618 101.5117473  57.0100911  96.5105981 100.8107492
  57.3775815  97.8351086  96.7998465  58.1247634  98.3472483  96.4905587
  57.6467404  97.5135139  97.6602859  55.6502465 100.3309627  93.7825419
  54.7413684 100.0468660  93.8797889  55.6797549 100.7508705  92.9228726
  60.8821732 103.9416216  97.5516587  60.4284060 103.1007126  97.6081778
  60.2515699 104.5777615  97.8891367  59.8254652  94.8708202  98.7817255
  59.0877409  94.3585589  99.1127497  60.0781426  94.4308584  97.9700531
  59.3254672 105.7792713  98.4866405  59.6177646 106.3397770  97.7678771
  59.8353292 106.0721274  99.2419564  59.9266279  87.6484454  99.3759024
  60.2325156  86.7881818  99.0884939  60.6518884  88.2402075  99.1758018
  46.2190635  98.0515141  97.7640622  46.0215035  97.4584502  97.0391688
  45.6637299  97.7467351  98.4816560  54.1987359  97.9438248  99.8835215
  54.2535969  96.9912084  99.8077691  53.3878561  98.0997687 100.3676513
  55.3478553 101.8718371  91.1213498  54.9097983 101.1554230  90.6619135
  56.0888994 102.0994485  90.5598589  52.1379719  96.5615307  97.6425594
  51.3247585  96.8609478  98.0490786  52.6338713  96.1670996  98.3600076
  54.2888297 106.5573064  99.5759858  54.2464476 106.7833911  98.6468390
  55.2050996 106.3236439  99.7245660  57.7353931  97.0257132 106.4740488
  58.0903318  97.2528605 107.3334953  58.3826062  97.3575509 105.8517743
  63.4651668 100.1475568  97.1789817  63.3269566 100.3377164  96.2511006
  63.1087886 100.9094950  97.6357868  51.6293794  94.1333663 103.2586829
  52.2693173  93.9922422 102.5609792  50.7971324  93.8468176 102.8825431
  63.4921047 102.2152095 102.1901088  63.9257554 102.1227384 103.0384142
  64.2052628 102.1909595 101.5521104  52.4054098 103.4336093  99.3721821
  53.1994696 102.9386413  99.1704396  51.6945790 102.9053956  99.0089527
  57.2248942 105.8154189 103.7234189  57.2785964 106.3845125 104.4911905
  56.3563723 105.9856074 103.3588226  48.7136861  97.5779175  95.4481574
  47.7834449  97.5163630  95.6651536  48.8094333  97.0555128  94.6518215
  48.6322410  94.1033988  98.0359815  48.8929227  95.0179321  97.9268976
  49.4539582  93.6358430  98.1856428  50.1047335  95.5171745 105.2058640
  50.7770389  95.3089107 104.5571289  49.2777122  95.3193831 104.7663872
  64.3536597 102.2575795 104.7233974  64.5472487 103.1621606 104.9693248
  64.2537215 101.7983214 105.5572559  56.0072907  92.1433686 107.2224301
  55.3600823  92.8423636 107.1288777  56.7773923  92.5769830 107.5900549
  59.4151705 102.4082538 110.2974854  59.2637212 102.1793090 109.3804938
  59.4056385 103.3653139 110.3106199  56.1837042  99.9814451 105.2821121
  57.1129102 100.1325610 105.1090088  55.7628072 100.0698472 104.4269767
  54.9825374 104.0065115 103.0519658  54.8436459 103.6383900 103.9245596
  54.1939970 104.5212755 102.8803616  55.5773526 109.1074212  94.3945195
  55.7525281 108.6362255  95.2090817  54.8906314 109.7339978  94.6226455
  56.5330589 103.3846718 100.4408496  56.1980421 103.3447488 101.3366146
  56.0334534 102.7191434  99.9678906  50.5074833  98.7914348 105.9661077
  50.3694631  98.0594587 106.5672616  51.4179756  98.7023248 105.6845265
  59.4689780 100.7302752  90.7145556  58.8518951 100.0049580  90.6178608
  59.0006269 101.4912113  90.3712630  53.1357133  98.5034307 105.4544757
  53.8456752  97.8627499 105.4131375  53.0926442  98.7547202 106.3770938
  61.1243912 105.4401661 108.3751336  61.0656458 104.7560881 107.7081919
  61.5263430 106.1820651 107.9231962  51.8486067  95.4899525 107.2740396
  51.3123424  95.0390264 107.9261993  51.2602776  95.6245434 106.5310861
  50.1434611 112.2563574 101.1685055  50.3831209 112.8882099 101.8464073
  49.3003807 111.9051614 101.4550414  51.2588326  94.9488177  89.8366860
  50.3817793  94.8276977  89.4729107  51.7346079  94.1574255  89.5845749
  61.1261319 103.4041245 106.6065316  60.2388098 103.0667166 106.7291715
  61.6959870 102.6724276 106.8434081  42.7790466  99.7365336  99.9308367
  43.4661506  99.4227066  99.3429382  42.6238595 100.6406701  99.6575619
  47.5825189  94.6255533 104.3593391  47.4983377  94.0181202 103.6243801
  46.7607895  95.1164551 104.3602887  54.6562473 108.0642697 103.5726559
  54.5832644 108.8697668 104.0845863  54.2139866 108.2634663 102.7474580
  54.4452252 107.3014467  97.0829380  53.6619774 107.8436147  97.1767605
  55.1444998 107.8188447  97.4823622  57.7548902  93.1109096  99.7263586
  58.2517602  92.3579059  99.4064656  56.9835884  93.1473413  99.1606795
  65.6078660  98.8149462 101.3681877  65.5968536  99.6974177 100.9975810
  64.7396039  98.4621013 101.1736414  57.1161156 107.9629531 105.7284718
  57.8289128 108.5976996 105.6560619  56.6251185 108.0593397 104.9124719
  58.8378683 101.8680784  97.3002009  57.9034962 101.9882246  97.1306714
  59.0155352 100.9653250  97.0362019  54.3383871  95.2526479  99.4535270
  53.9681659  94.6997520 100.1416176  54.8342964  94.6484613  98.9010270
  62.2251235  97.7098103  97.8352043  62.6911687  98.5426094  97.7612346
  62.6758735  97.2443084  98.5397302  52.1673070 105.7123974 106.5490288
  52.8682529 106.3460457 106.7019683  51.6968185 106.0538706 105.7885928
  60.2927466 104.0541924  94.8338195  60.5687310 103.9398519  95.7432069
  59.4231964 103.6559409  94.7950368  60.1967897  90.0778690 101.8742945
  59.2830977  90.3082917 102.0425152  60.6260999  90.1617134 102.7256977
  59.9674356  98.2668582 104.3742839  59.3145806  98.5144489 103.7195291
  60.3454736  97.4532720 104.0405316  56.9281530 108.3028275  98.4771009
  57.1103924 107.4849931  98.9398761  57.7514516 108.5195967  98.0395899
  57.2623695 107.2296460  95.7386058  57.7911462 106.7188915  95.1256220
  57.5251915 106.9138990  96.6031591  56.0161929  99.0088393 110.8608876
  55.3402566  98.9082522 111.5311251  56.8389563  98.8527607 111.3244873
  47.7640788 105.2460329 103.4821391  48.3494225 104.5004017 103.6149295
  47.5665626 105.5564286 104.3658055  50.6179443 108.2811577  98.4983833
  49.9489818 108.7657704  98.0147873  50.4792313 108.5280797  99.4127212
  42.3558443  97.8165930 102.2025834  42.3942542  97.2829520 102.9962952
  41.8498735  97.2901135 101.5836811  54.7584712 110.3155320 105.0966492
  55.3103020 110.4786942 105.8615577  55.0990905 110.9059758 104.4246517
  49.7349205  92.6630470 105.6988377  49.7990531  93.5245301 105.2865774
  49.6716325  92.0504472 104.9660735  49.2101477  94.7353603 109.3461411
  49.8373516  94.3530680 109.9598935  48.3529396  94.5167805 109.7117103
  45.9867020  96.5430032  95.2779766  46.2820461  95.6340710  95.2246819
  45.0855056  96.5217771  94.9560768  57.8953099 108.2637296 102.0830174
  57.7704238 107.4627036 101.5741119  58.5532190 108.7583489 101.5944144
  49.5161267  94.6186028 101.2607314  48.7947853  95.2321996 101.1214788
  50.3054523  95.1543793 101.1823960  59.9588007 106.0646316 103.7109724
  59.0118343 105.9451667 103.6388051  60.3070780 105.1768814 103.7935985
  52.3187581  91.9540455 107.5347966  52.8421983  92.2002751 108.2974275
  52.0999914  92.7860490 107.1151103  47.7154862  94.2244129  95.4019091
  47.3867568  93.3441508  95.2194197  48.0694232  94.1691798  96.2895480
  56.9634441 105.8599032  99.9114076  56.8159403 104.9315740 100.0921646
  57.7887934 105.8819123  99.4271152  50.8296685  94.5117099  95.7694568
  51.1692757  95.0403021  95.0473177  51.2768805  94.8497505  96.5453135
  60.5668562 106.6827591 100.9978949  61.4915110 106.4770452 100.8603400
  60.3983866 106.4343992 101.9068291  53.5240126  92.8954150 105.2197636
  53.1836946  92.0961963 105.6218316  52.8179132  93.1955861 104.6474470
  54.1756598  89.9803462 103.6724959  54.9982667  89.5063941 103.5503850
  54.4194661  90.7593946 104.1723646  52.8164832  93.0091721  93.9687861
  53.5373195  93.3872974  93.4651578  52.1930136  93.7280598  94.0722839
  56.9595955  93.7136870  94.9046194  57.1759569  94.5961508  94.6035022
  56.4790022  93.3223083  94.1751836  51.6995176  96.6722583 101.4816938
  51.5539757  96.9862886 102.3741220  51.2220380  97.2907483 100.9287837
  53.5591559  93.6625131 101.5297828  53.5453128  92.7666224 101.1930126
  54.2763987  93.6695795 102.1636114  55.4117690  94.0962471 103.5750955
  55.1535468  95.0179542 103.5735286  54.8802730  93.6992906 104.2651419
  60.3563879 107.2013258  96.3541040  60.5300756 106.6359681  95.6014893
  60.8492770 108.0014153  96.1720530  46.1740838  99.2127927 104.4204599
  45.6294307  99.9887735 104.5524874  47.0520188  99.5598732 104.2623721
  52.9628455  92.5439511  96.7985398  53.0844366  91.6156157  96.9976285
  52.6730498  92.5578197  95.8863713  55.8319646  90.2294422  99.9352118
  55.8541342  90.2933755  98.9804097  56.2487705  89.3898930 100.1292624
  66.2103270  99.9649681  97.9731340  66.6534416  99.2157006  97.5750463
  65.3329780  99.9559818  97.5905072  61.3439051 106.5180023  93.4537939
  62.0389956 107.1386715  93.6725253  61.6862201 105.6675374  93.7290317
  46.9606860  98.3397824 107.3134756  46.2188596  98.4880459 107.8999387
  46.6399605  98.6006089 106.4501506  63.2430474 103.9679728  94.9825270
  63.7681798 104.3067001  94.2574590  63.1552827 103.0326744  94.7988404
  54.9050523 107.8813802 107.1115146  55.2137649 107.6362949 107.9837846
  55.7026005 108.0860440 106.6234016  54.9271135 110.0351712  99.3420523
  54.4876125 109.5428090 100.0353379  55.6779252 109.4924679  99.1012598
  47.4063474 106.2263252  99.3445151  48.2321494 105.9267024  98.9643794
  47.0557526 105.4570875  99.7934939  52.3745007 105.5789721 101.4142824
  51.7525016 104.9160426 101.1145052  53.0449874 105.6050853 100.7316472
  45.6072079 104.1449579 100.3034084  44.7703987 103.7171753 100.1218086
  45.5795724 104.3382022 101.2404876  52.4469535  94.0571509 111.0075330
  52.4957690  94.9333631 110.6253100  52.9892049  93.5148902 110.4346974
  63.0522255 101.4505098 107.6009196  63.1020260 101.2855106 108.5424719
  62.9436179 100.5832357 107.2107077  51.9358514 104.1293644  94.8901285
  52.0846634 104.8129108  94.2367958  52.7424958 104.1098734  95.4050741
  60.3426018  97.4336026 108.9168503  61.2435881  97.2942491 108.6252501
  60.4173992  97.5990481 109.8566680  54.6768823  94.8102881 107.7621689
  53.8072133  95.1036447 107.4904278  54.9128303  95.3943326 108.4828953
  64.5540452 103.8702040 107.8451218  64.2625261 104.2332020 108.6814679
  63.9412584 103.1569048 107.6664550  65.7536135 101.4354920 100.3653788
  66.5883026 101.8744724 100.5291348  65.8895263 100.9593573  99.5462034
  62.8027640  98.9934654 106.3131276  63.2781762  99.1862301 105.5050127
  61.8793206  99.0493840 106.0674659  49.6911147 100.1558822  95.8962354
  49.4457189  99.2521152  96.0942564  49.8607062 100.1575972  94.9541832
  57.3807857  91.0282498 105.2787109  57.8989801  91.7643525 104.9533598
  57.0262990  91.3346491 106.1133869  48.9606795  95.8887179  93.3948515
  48.2676040  95.9631534  92.7388551  48.7158547  95.1247523  93.9170032
  57.6320451  87.4482781 100.7988006  57.9122205  86.7805970 101.4248433
  58.4171058  87.6411876 100.2862670  55.4353920 106.6241774  92.3613032
  54.8627887 107.2431962  91.9083504  56.0086713 107.1741136  92.8952954
  61.5029309  95.8700415 104.5459581  62.4546732  95.9698512 104.5671805
  61.3332760  95.0778683 105.0557666  59.5243689  92.9555998 104.7318982
  58.9293621  93.2361010 104.0365471  59.2393386  93.4449899 105.5035723
  58.6551179 106.9078925  93.4921615  59.5881853 106.8424486  93.6954490
  58.5674392 107.7435191  93.0336147  61.2839196 106.2244795  90.4525562
  61.2052828 105.8904659  91.3461320  62.1048863 106.7166563  90.4517035
  63.9817387  99.0906534 103.6601881  63.9493707  98.1522535 103.8461565
  64.5918011  99.1690571 102.9267706  55.8200718  97.9602587  89.7029085
  56.7659823  97.8308795  89.7717503  55.4414963  97.2217249  90.1798513
  64.1311876  95.8817578 103.7060164  63.6150924  95.0976034 103.5190093
  65.0151824  95.5536294 103.8706683  61.7922603  89.6258593  99.6655977
  61.5947424  89.3173681 100.5499309  62.4022308  90.3520232  99.7953907
  69.7993937 100.1522541 102.8007918  70.5297326  99.8907829 103.3615621
  69.1900883  99.4151263 102.8409986  67.8809234  98.2930404 103.3982369
  67.1542398  98.1586369 102.7898860  67.4656521  98.6007232 104.2039087
  55.7039411 102.0120333 111.1629742  56.6242420 102.1898932 111.3569788
  55.6688994 101.0676379 111.0109441  54.0043635  95.8852564  89.6383970
  53.0975091  95.5885676  89.7146684  54.2819616  95.5882382  88.7718256
  44.9221576  97.2058927 100.0883016  44.6024360  96.3524235  99.7957390
  44.3755004  97.4207505 100.8440984  48.7001483  99.9221368 103.8052523
  48.9187493 100.8538476 103.8240557  49.1127257  99.5629342 104.5907327
  55.6205701  90.4289453  95.7928211  54.8106429  90.0836538  96.1683457
  56.3090118  90.1196997  96.3815823  57.5496249  89.5067500  97.4152508
  58.1027288  89.9262954  98.0742531  57.7866336  88.5803248  97.4575464
  53.5729349  95.4954574 113.1955272  53.4726075  96.4448931 113.1267363
  53.3550891  95.1672813 112.3231342  52.7742420  92.7439499  89.7795949
  53.6361584  93.0694397  90.0391767  52.9592764  91.9570995  89.2669015
  44.7909836 100.8261838 102.0576138  44.0973307 100.4115791 101.5446092
  45.5382827 100.8682375 101.4609557  60.9275056  91.6168025  96.9231172
  60.3473725  92.2752829  96.5409225  60.6610989  90.7945370  96.5118590
  59.3778623  91.0173083  99.1252493  59.8778401  91.1289617  98.3166811
  60.0214231  90.7134136  99.7653301  53.4360619  98.9251713 112.0120334
  52.9527700  99.7252073 112.2184223  53.5221558  98.9359657 111.0587778
  46.7046578 100.7580092  99.9342153  46.6817266 100.8567780  98.9824036
  47.0147215 101.6045243 100.2559319  49.3633956 102.8156247 104.0488767
  50.3177210 102.7840190 103.9818699  49.1646480 102.3546871 104.8638993
  49.9533338 101.3857363 106.6159565  50.7726227 101.8801442 106.6394402
  50.2270146 100.4689331 106.5877133  59.7099934  93.7768116  95.9787521
  58.8225789  94.0617766  95.7607715  60.1253923  93.6161879  95.1314797
  63.0614471  93.8014637  99.6941860  63.8374861  94.2911089  99.9666477
  62.3362605  94.2272691 100.1513729  65.4987029  94.5142256 100.7515800
  66.0931520  94.2737992 100.0409109  65.5713613  93.7949386 101.3789337
  47.7184185 108.3575867 101.0658965  47.5838653 107.5976268 100.4996963
  47.3016247 109.0816767 100.5987754  58.8543148 103.5412790  90.0735541
  59.5578998 103.7462793  90.6893196  58.1305797 104.1089552  90.3384624
  59.6840958  99.2922652  96.1937811  59.6276160  99.7491203  95.3545443
  60.2369301  98.5313336  96.0160653  63.4945764  95.0812383  97.0187930
  63.2382698  94.6809019  97.8496138  62.8698632  95.7956177  96.8938069
  67.8058102  97.8208457  99.5259222  67.2457660  97.8901646 100.2990784
  67.2001605  97.6449441  98.8058718  50.8753311 109.2545184 101.2777408
  50.7585695 110.1990616 101.1756098  50.0545757 108.9518745 101.6663207
  60.7629845 103.9795320  92.1234001  61.5975449 103.5476518  91.9411475
  60.6014188 103.8077333  93.0510895  60.4175737 100.4827433  93.4890340
  60.3624541 100.3171704  92.5478784  59.7921793 101.1903466  93.6452530
  45.2068252  95.7195497 107.3151762  45.8527116  95.2094451 107.8038987
  44.9985404  96.4564179 107.8895187  53.7271863  89.9835542  93.0675658
  53.7150533  90.9277382  93.2243929  54.6195285  89.8005687  92.7735119
  51.9007825 109.9073446 104.4933336  52.8035072 109.9397056 104.8099831
  51.6745195 108.9773897 104.5079672  53.6561427 108.6604432 101.1543415
  52.7057058 108.6606294 101.0407787  53.9593913 107.9137167 100.6379450
  57.5423982  86.5778318  97.3221595  56.7756378  86.0236805  97.4678277
  57.9534687  86.6500187  98.1835747  49.5465743  92.8663114 111.4126776
  50.4097205  92.5099919 111.6230101  48.9731154  92.5277009 112.1002181
  62.0590642 116.3027875  98.1447593  61.4955507 116.2117812  97.3763881
  61.9443037 115.4827780  98.6250085  59.6055074 117.7979067 100.9831813
  60.3976366 117.4569891 100.5678113  59.8451724 117.9074042 101.9033967
  67.6390201 119.9698843  93.4562058  66.9878181 120.5552923  93.0696072
  68.4334564 120.5005038  93.5157095  61.5645828 117.0587980  93.8549192
  62.3376704 116.5116967  93.7162068  61.9171227 117.9232229  94.0663654
  63.9012106 113.2180646  91.4867642  64.1537627 112.6962167  90.7251105
  62.9636665 113.0546792  91.5894326  68.9455389 112.2216424  99.2942385
  69.7318478 111.8035848  98.9432802  69.2094093 113.1262517  99.4624034
  69.1165466 117.6589275  93.9931042  68.4811299 117.7323901  94.7051947
  68.7862873 118.2482874  93.3150121  63.6208395 115.1208752  93.6892017
  63.5044653 114.4453655  94.3573101  63.7310655 114.6341126  92.8724170
  65.9639936 114.5818899  97.3938706  65.5998143 114.0549520  98.1051628
  66.8207052 114.1917368  97.2205192  65.6045423 109.6108799  92.3900055
  65.7719825 110.4789035  92.7570526  65.4142592 109.7736081  91.4661344
  61.8133237 114.5239575 100.0902590  60.8883734 114.3915789 100.2980281
  62.0617651 115.3033794 100.5872532  65.5834644 112.0666456  93.3746722
  65.4634269 112.5123507  94.2132202  64.8887232 112.4151774  92.8160260
  59.1742048 114.1672848 100.9246379  59.3034430 114.4207327 101.8385790
  58.4939500 114.7600556 100.6051034  71.2819710 112.5387930  94.2027056
  72.1937566 112.7715316  94.0274753  70.7729357 113.1224974  93.6402134
  68.6255684 108.7145966 102.4516917  67.7640164 109.0127219 102.7433654
  68.6518119 108.9316364 101.5197949  65.4417254 117.2588156  98.8590722
  65.9055599 117.5375859  98.0695345  65.1774052 116.3571601  98.6763813
  64.3786140 113.3811308  95.6680287  65.0810183 113.8332352  96.1354214
  64.0466768 112.7395127  96.2960181  58.1211474 111.6394861 100.9697421
  57.3310528 111.8952390 100.4937532  58.6122721 112.4543199 101.0749462
  60.0726219 112.0039440  97.9280898  59.2757383 112.1158135  98.4464393
  59.8451811 112.3426093  97.0621788  56.4049177 111.8925352 103.4012412
  56.6557215 112.7772361 103.6669988  56.9408725 111.7129953 102.6287504
  65.6179905 120.1952251  95.7442393  65.4825579 121.0403787  96.1727240
  66.1589717 120.3971529  94.9808326  59.0709302 117.7127689  96.3170318
  59.5833823 118.5070939  96.4675882  59.7232015 117.0153980  96.2503919
  60.8804187 120.8293445  98.3993071  61.0570815 121.7511410  98.2114055
  61.6761020 120.5151865  98.8287451  68.9672368 103.7182813 104.2741286
  68.6236638 104.6084455 104.1980397  69.3351331 103.5284471 103.4110871
  57.0358219 116.0416343  97.0929888  57.8733441 116.4513352  96.8763596
  57.2136486 115.1015786  97.0630082  68.9322651 113.7091424  92.7813721
  68.4169274 114.4796029  93.0202109  68.6599959 113.0356560  93.4046783
  66.5169762 108.5541125  97.8398960  65.6611358 108.1647975  97.6604598
  66.9296714 108.6333086  96.9798745  68.0468909 106.0887468 102.2390519
  67.5433704 106.0517603 101.4258325  68.3399515 106.9980211 102.2987176
  64.2911794 106.1726198 101.2456701  65.1564791 105.9769007 100.8862591
  64.3589303 105.9436550 102.1726058  73.9056925 116.4623779  94.7166895
  73.1286368 116.1234938  94.2722057  74.5848406 116.4676402  94.0421860
  68.7208954 111.5818516  94.6073502  68.4159090 111.8964665  95.4583646
  69.6739396 111.6599936  94.6500835  67.1655386 117.7408739  96.2566456
  66.6376747 117.0061499  95.9439694  66.6642889 118.5183416  96.0106425
  61.8974113 108.4028406  98.6173068  62.4717865 108.1803587  97.8846261
  62.4845096 108.4717100  99.3701669  62.2243701 110.4332867  92.6368953
  61.3881013 110.7707553  92.9578228  62.0848470 110.2981847  91.6996090
  64.1996781 105.2769655  97.3448137  63.5461194 104.9618672  96.7204752
  64.1577255 104.6545395  98.0707960  65.3107986 115.5588950  89.2601429
  64.4035048 115.3278203  89.4592578  65.8079018 114.7626569  89.4475411
  68.2176065 124.2686457  92.1798116  67.5437764 124.5718154  92.7883073
  68.6041887 125.0715537  91.8303573  67.4334522 111.7651588 101.6695785
  66.5157083 111.9866535 101.5117473  67.8494665 111.8397899 100.8107492
  68.2169569 113.1643004  96.7998465  68.9641388 113.6764401  96.4905587
  68.4861159 112.8427057  97.6602859  66.4896219 115.6601545  93.7825419
  65.5807439 115.3760577  93.8797889  66.5191303 116.0800623  92.9228726
  70.6648406 110.2000120  98.7817255  69.9271163 109.6877506  99.1127497
  70.9175180 109.7600502  97.9700531  70.7660034 102.9776372  99.3759024
  71.0718911 102.1173736  99.0884939  71.4912639 103.5693992  99.1758018
  57.0584390 113.3807059  97.7640622  56.8608790 112.7876419  97.0391688
  56.5031054 113.0759269  98.4816560  65.0381114 113.2730165  99.8835215
  65.0929723 112.3204002  99.8077691  64.2272316 113.4289604 100.3676513
  66.1872307 117.2010288  91.1213498  65.7491737 116.4846147  90.6619135
  66.9282748 117.4286403  90.5598589  62.9773473 111.8907225  97.6425594
  62.1641339 112.1901396  98.0490786  63.4732468 111.4962914  98.3600076
  74.3045422 115.4767485  97.1789817  74.1663321 115.6669081  96.2511006
  73.9481641 116.2386868  97.6357868  62.4687548 109.4625580 103.2586829
  63.1086928 109.3214340 102.5609792  61.6365079 109.1760094 102.8825431
  63.2447852 118.7628011  99.3721821  64.0388451 118.2678331  99.1704396
  62.5339545 118.2345874  99.0089527  59.5530616 112.9071093  95.4481574
  58.6228204 112.8455548  95.6651536  59.6488088 112.3847045  94.6518215
  59.4716165 109.4325905  98.0359815  59.7322982 110.3471239  97.9268976
  60.2933337 108.9650348  98.1856428  60.9441090 110.8463663 105.2058640
  61.6164143 110.6381025 104.5571289  60.1170876 110.6485749 104.7663872
  66.4167280 124.4366129  94.3945195  66.5919036 123.9654173  95.2090817
  65.7300068 125.0631896  94.6226455  70.3083535 116.0594670  90.7145556
  69.6912706 115.3341498  90.6178608  69.8400023 116.8204030  90.3712630
  62.0982081 110.2780094  89.8366860  61.2211547 110.1568895  89.4729107
  62.5739834 109.4866173  89.5845749  53.6184221 115.0657254  99.9308367
  54.3055261 114.7518984  99.3429382  53.4632350 115.9698619  99.6575619
  58.4218943 109.9547451 104.3593391  58.3377132 109.3473120 103.6243801
  57.6001650 110.4456469 104.3602887  68.5942657 108.4401014  99.7263586
  69.0911357 107.6870976  99.4064656  67.8229638 108.4765331  99.1606795
  69.6772438 117.1972701  97.3002009  68.7428716 117.3174164  97.1306714
  69.8549106 116.2945168  97.0362019  65.1777626 110.5818397  99.4535270
  64.8075413 110.0289437 100.1416176  65.6736718 109.9776531  98.9010270
  73.0644989 113.0390021  97.8352043  73.5305441 113.8718012  97.7612346
  73.5152490 112.5735002  98.5397302  71.1321220 119.3833842  94.8338195
  71.4081064 119.2690436  95.7432069  70.2625719 118.9851327  94.7950368
  71.0361652 105.4070608 101.8742945  70.1224732 105.6374834 102.0425152
  71.4654753 105.4909052 102.7256977  68.1017450 122.5588378  95.7386058
  68.6305216 122.0480832  95.1256220  68.3645669 122.2430908  96.6031591
  53.1952197 113.1457847 102.2025834  53.2336297 112.6121438 102.9962952
  52.6892490 112.6193053 101.5836811  60.5742959 107.9922388 105.6988377
  60.6384286 108.8537219 105.2865774  60.5110080 107.3796389 104.9660735
  56.8260775 111.8721949  95.2779766  57.1214216 110.9632628  95.2246819
  55.9248810 111.8509689  94.9560768  60.3555022 109.9477946 101.2607314
  59.6341607 110.5613914 101.1214788  61.1448277 110.4835711 101.1823960
  58.5548616 109.5536047  95.4019091  58.2261322 108.6733426  95.2194197
  58.9087987 109.4983716  96.2895480  61.6690439 109.8409017  95.7694568
  62.0086512 110.3694938  95.0473177  62.1162560 110.1789423  96.5453135
  64.3633880 108.2246068 105.2197636  64.0230701 107.4253881 105.6218316
  63.6572886 108.5247778 104.6474470  65.0150352 105.3095380 103.6724959
  65.8376421 104.8355858 103.5503850  65.2588416 106.0885864 104.1723646
  63.6558587 108.3383639  93.9687861  64.3766949 108.7164891  93.4651578
  63.0323891 109.0572515  94.0722839  67.7989709 109.0428787  94.9046194
  68.0153324 109.9253425  94.6035022  67.3183777 108.6515001  94.1751836
  62.5388931 112.0014501 101.4816938  62.3933512 112.3154804 102.3741220
  62.0614134 112.6199401 100.9287837  64.3985314 108.9917049 101.5297828
  64.3846882 108.0958142 101.1930126  65.1157742 108.9987712 102.1636114
  66.2511444 109.4254389 103.5750955  65.9929222 110.3471460 103.5735286
  65.7196485 109.0284823 104.2651419  57.0134593 114.5419845 104.4204599
  56.4688061 115.3179653 104.5524874  57.8913943 114.8890650 104.2623721
  63.8022210 107.8731429  96.7985398  63.9238121 106.9448075  96.9976285
  63.5124252 107.8870115  95.8863713  66.6713400 105.5586339  99.9352118
  66.6935097 105.6225673  98.9804097  67.0881459 104.7190848 100.1292624
  72.1832806 121.8471940  93.4537939  72.8783710 122.4678633  93.6725253
  72.5255956 120.9967292  93.7290317  74.0824229 119.2971646  94.9825270
  74.6075553 119.6358919  94.2574590  73.9946581 118.3618661  94.7988404
  58.2457229 121.5555170  99.3445151  59.0715248 121.2558942  98.9643794
  57.8951280 120.7862793  99.7934939  56.4465834 119.4741497 100.3034084
  55.6097742 119.0463671 100.1218086  56.4189479 119.6673940 101.2404876
  62.7752269 119.4585562  94.8901285  62.9240389 120.1421026  94.2367958
  63.5818712 119.4390652  95.4050741  60.5304902 115.4850739  95.8962354
  60.2850944 114.5813069  96.0942564  60.7000816 115.4867890  94.9541832
  59.8000549 111.2179097  93.3948515  59.1069794 111.2923452  92.7388551
  59.5552301 110.4539441  93.9170032  68.4714206 102.7774698 100.7988006
  68.7515959 102.1097887 101.4248433  69.2564813 102.9703794 100.2862670
  66.2747674 121.9533692  92.3613032  65.7021641 122.5723879  91.9083504
  66.8480468 122.5033054  92.8952954  69.4944934 122.2370842  93.4921615
  70.4275607 122.1716404  93.6954490  69.4068147 123.0727109  93.0336147
  72.1232951 121.5536713  90.4525562  72.0446582 121.2196576  91.3461320
  72.9442617 122.0458480  90.4517035  66.6594473 113.2894505  89.7029085
  67.6053577 113.1600713  89.7717503  66.2808718 112.5509167  90.1798513
  72.6316357 104.9550511  99.6655977  72.4341178 104.6465599 100.5499309
  73.2416063 105.6812150  99.7953907  64.8437390 111.2144481  89.6383970
  63.9368845 110.9177594  89.7146684  65.1213371 110.9174299  88.7718256
  55.7615330 112.5350845 100.0883016  55.4418114 111.6816153  99.7957390
  55.2148758 112.7499423 100.8440984  66.4599455 105.7581371  95.7928211
  65.6500184 105.4128456  96.1683457  67.1483872 105.4488915  96.3815823
  68.3890004 104.8359418  97.4152508  68.9421042 105.2554871  98.0742531
  68.6260090 103.9095166  97.4575464  63.6136174 108.0731416  89.7795949
  64.4755338 108.3986315  90.0391767  63.7986519 107.2862912  89.2669015
  55.6303590 116.1553756 102.0576138  54.9367062 115.7407709 101.5446092
  56.3776581 116.1974293 101.4609557  71.7668811 106.9459943  96.9231172
  71.1867480 107.6044747  96.5409225  71.5004744 106.1237288  96.5118590
  70.2172377 106.3465001  99.1252493  70.7172156 106.4581535  98.3166811
  70.8607985 106.0426053  99.7653301  57.5440333 116.0872010  99.9342153
  57.5211021 116.1859697  98.9824036  57.8540969 116.9337161 100.2559319
  70.5493689 109.1060033  95.9787521  69.6619544 109.3909684  95.7607715
  70.9647678 108.9453797  95.1314797  73.9008225 109.1306554  99.6941860
  74.6768615 109.6203007  99.9666477  73.1756359 109.5564608 100.1513729
  69.6936902 118.8704708  90.0735541  70.3972752 119.0754710  90.6893196
  68.9699551 119.4381470  90.3384624  70.5234713 114.6214569  96.1937811
  70.4669914 115.0783121  95.3545443  71.0763055 113.8605254  96.0160653
  74.3339519 110.4104301  97.0187930  74.0776453 110.0100937  97.8496138
  73.7092387 111.1248095  96.8938069  71.6023600 119.3087237  92.1234001
  72.4369204 118.8768436  91.9411475  71.4407943 119.1369251  93.0510895
  71.2569492 115.8119351  93.4890340  71.2018296 115.6463622  92.5478784
  70.6315547 116.5195383  93.6452530  56.0462007 111.0487415 107.3151762
  56.6920871 110.5386369 107.8038987  55.8379158 111.7856097 107.8895187
  64.5665617 105.3127460  93.0675658  64.5544287 106.2569299  93.2243929
  65.4589039 105.1297605  92.7735119  68.3817737 101.9070236  97.3221595
  67.6150133 101.3528723  97.4678277  68.7928442 101.9792105  98.1835747
  73.0637455 125.7624784  92.6368953  72.2274767 126.0999471  92.9578228
  72.9242225 125.6273764  91.6996090  72.9375835 125.6072012  89.8366860
  72.0605302 125.4860813  89.4729107  73.4133588 124.8158090  89.5845749
  70.6394304 126.5471015  93.3948515  69.9463549 126.6215370  92.7388551
  70.3946055 125.7831358  93.9170032  75.6831144 126.5436399  89.6383970
  74.7762600 126.2469512  89.7146684  75.9607125 126.2466217  88.7718256
  74.4529929 123.4023334  89.7795949  75.3149093 123.7278232  90.0391767
  74.6380273 122.6154830  89.2669015  75.4059372 120.6419377  93.0675658
  75.3938042 121.5861217  93.2243929  76.2982794 120.4589523  92.7735119
  15.1945349  14.8567505  88.9434484  15.8323759  14.7374252  88.2397824
  15.0766192  15.8048349  89.0022436   7.8621871  16.6630409  84.8692900
   7.2986736  16.5720346  84.1009187   7.7474266  15.8430314  85.3495392
  13.4421430  20.3301377  80.1807365  12.7909410  20.9155457  79.7941378
  14.2365793  20.8607572  80.2402402   7.3677057  17.4190514  80.5794499
   8.1407933  16.8719501  80.4407375   7.7202456  18.2834764  80.7908960
   9.7043335  13.5783180  78.2112949   9.9568856  13.0564702  77.4496412
   8.7667894  13.4149326  78.3139632  14.7486618  12.5818959  86.0187692
  15.5349707  12.1638382  85.6678109  15.0125322  13.4865051  86.1869340
  14.9196695  18.0191809  80.7176349  14.2842528  18.0926436  81.4297253
  14.5894101  18.6085408  80.0395428  20.1495045  12.5194192  86.9220671
  20.8820217  11.9493409  87.1558500  19.3934400  12.1315792  87.3627176
   9.4239624  15.4811286  80.4137324   9.3075882  14.8056190  81.0818408
   9.5341883  14.9943660  79.5969477  11.7671165  14.9421433  84.1184013
  11.4029372  14.4152054  84.8296934  12.6238280  14.5519902  83.9450498
  11.3865872  12.4268991  80.0992028  11.2665498  12.8726041  80.9377509
  10.6918461  12.7754308  79.5405566   9.1472764  25.1972632  83.7482160
   9.0696794  26.1480457  83.8270640   8.5434408  24.8518505  84.4057086
  17.0850939  12.8990464  80.9272362  17.9968795  13.1317851  80.7520060
  16.5760586  13.4827508  80.3647441  15.6920521  17.8816282  88.3185944
  15.0629383  18.0461996  87.6162012  15.3046183  18.2957892  89.0896908
  19.5709753  18.8170720  85.6730308  18.8860791  19.1969621  85.1227341
  19.6553602  19.4266047  86.4062255  11.2448483  17.6190690  85.5836029
  11.7086828  17.8978393  84.7940651  10.9805281  16.7174135  85.4009120
  10.1817369  13.7413843  82.3925594  10.8841412  14.1934886  82.8599520
   9.8497997  13.0997662  83.0205487  17.9406512  19.3402635  90.4448008
  18.7623956  18.9382822  90.1630690  17.9368915  19.2370869  91.3964124
  26.0312505  15.6841383  86.7932980  25.2776214  15.1148781  86.6376984
  26.1660047  15.6504047  87.7403615  11.4211133  20.5554785  82.4687699
  11.2856808  21.4006321  82.8972547  11.9620946  20.7574063  81.7053633
   4.8740531  18.0730223  83.0415624   5.3865051  18.8673474  83.1921189
   5.5263244  17.3756514  82.9749226   6.6835415  21.1895980  85.1238378
   6.8602044  22.1113944  84.9359361   7.4792249  20.8754399  85.5532757
   7.8066731  22.7074153  91.1248720   8.3574156  22.5791217  90.3525714
   6.9678207  23.0069042  90.7743613  14.7353880  14.0693958  79.5059028
  14.2200503  14.8398563  79.7447415  14.4631188  13.3959094  80.1292089
  19.7088154  16.8226313  81.4412201  18.9317597  16.4837472  80.9967363
  20.3879635  16.8278936  80.7667166  14.5240183  11.9421050  81.3318809
  14.2190318  12.2567200  82.1828952  15.4770625  12.0202470  81.3746142
  12.9686615  18.1011274  82.9811763  12.4407976  17.3664033  82.6685000
  12.4674117  18.8785950  82.7351731  17.9479461  16.2960294  88.0978809
  17.2903135  16.9859556  88.1858938  18.7519860  16.6856726  88.4412796
  16.7584920  14.6504667  86.1482751  17.2716801  15.2834659  86.6504461
  17.4086143  14.0505862  85.7826111  11.1139215  15.9191484  75.9846736
  10.2066277  15.6880737  76.1837885  11.6110247  15.1229103  76.1720718
  14.0207294  24.6288991  78.9043422  13.3468993  24.9320688  79.5128380
  14.4073116  25.4318071  78.5548879  14.0200798  13.5245538  83.5243772
  14.7672617  14.0366935  83.2150894  14.2892388  13.2029591  84.3848165
  12.2927448  16.0204079  80.5070726  11.3838668  15.7363112  80.6043196
  12.3222532  16.4403157  79.6474033  17.5246716  19.6310668  84.2761894
  17.0709043  18.7901578  84.3327084  16.8940682  20.2672067  84.6136674
  16.4679635  10.5602654  85.5062561  15.7302392  10.0480041  85.8372804
  16.7206409  10.1203036  84.6945838  15.9679655  21.4687165  85.2111712
  16.2602629  22.0292222  84.4924077  16.4778276  21.7615726  85.9664871
  10.8412342  13.6332699  86.6080521  10.8960952  12.6806536  86.5322998
  10.0303544  13.7892139  87.0921820  11.9903536  17.5612822  77.8458805
  11.5522966  16.8448681  77.3864442  12.7313977  17.7888937  77.2843896
  10.9313280  22.2467516  86.3005165  10.8889459  22.4728362  85.3713697
  11.8475979  22.0130891  86.4490966  20.1076651  15.8370020  83.9035123
  19.9694549  16.0271616  82.9756312  19.7512870  16.5989402  84.3603174
  20.1346030  17.9046547  88.9146395  20.5682537  17.8121836  89.7629449
  20.8477611  17.8804047  88.2766411   9.0479081  19.1230545  86.0967128
   9.8419679  18.6280865  85.8949703   8.3370773  18.5948408  85.7334833
  13.8673925  21.5048641  90.4479495  13.9210948  22.0739577  91.2157211
  12.9988707  21.6750526  90.0833533  20.9961580  17.9470247  91.4479280
  21.1897470  18.8516058  91.6938555  20.8962198  17.4877666  92.2817865
  11.6250357  19.6959567  89.7764965  11.4861443  19.3278352  90.6490903
  10.8364953  20.2107207  89.6048923  12.2198509  24.7968664  81.1190501
  12.3950265  24.3256707  81.9336124  11.5331297  25.4234430  81.3471762
  13.1755572  19.0741170  87.1653803  12.8405405  19.0341940  88.0611453
  12.6759518  18.4085886  86.6924213  16.1114764  16.4197204  77.4390862
  15.4943934  15.6944032  77.3423915  15.6431252  17.1806564  77.0957937
   6.7859594  27.9458026  87.8930362   7.0256192  28.5776550  88.5709380
   5.9428791  27.5946066  88.1795721  11.2987456  23.7537149  90.2971866
  11.2257628  24.5592120  90.8091170  10.8564849  23.9529115  89.4719887
  11.0877236  22.9908919  83.8074687  10.3044758  23.5330599  83.9012912
  11.7869981  23.5082898  84.2068928  22.2503643  14.5043914  88.0927184
  22.2393519  15.3868629  87.7221117  21.3821023  14.1515465  87.8981721
  13.7586140  23.6523983  92.4530024  14.4714112  24.2871448  92.3805926
  13.2676168  23.7487849  91.6370026  15.4803666  17.5575235  84.0247316
  14.5459945  17.6776698  83.8552020  15.6580335  16.6547702  83.7607326
  18.8676218  13.3992555  84.5597350  19.3336670  14.2320546  84.4857653
  19.3183718  12.9337536  85.2642609  16.9352449  19.7436376  81.5583502
  17.2112293  19.6292971  82.4677376  16.0656948  19.3453861  81.5195675
  13.5706513  23.9922727  85.2016316  13.7528907  23.1744383  85.6644068
  14.3939499  24.2090419  84.7641206  13.9048678  22.9190912  82.4631364
  14.4336445  22.4083367  81.8501526  14.1676898  22.6033442  83.3276897
   7.2604426  23.9706029  85.2229140   6.5914802  24.4552156  84.7393180
   7.1217296  24.2175249  86.1372519  11.4009695  26.0049772  91.8211798
  11.9528003  26.1681394  92.5860884  11.7415888  26.5954210  91.1491823
  14.5378082  23.9531748  88.8075481  14.4129222  23.1521488  88.2986426
  15.1957173  24.4477941  88.3189451  16.6012991  21.7540768  90.4355031
  15.6543326  21.6346119  90.3633357  16.9495764  20.8663266  90.5181292
  13.6059424  21.5493484  86.6359383  13.4584386  20.6210191  86.8166953
  14.4312917  21.5713575  86.1516458  17.2093546  22.3722043  87.7224256
  18.1340093  22.1664904  87.5848707  17.0408849  22.1238444  88.6313597
  16.9988862  22.8907710  83.0786347  17.1725740  22.3254133  82.3260200
  17.4917753  23.6908605  82.8965837  22.8528253  15.6544133  84.6976647
  23.2959399  14.9051458  84.2995770  21.9754763  15.6454270  84.3150379
  17.9864034  22.2074475  80.1783245  18.6814939  22.8281167  80.3970560
  18.3287185  21.3569826  80.4535623  19.8855458  19.6574180  81.7070576
  20.4106782  19.9961453  80.9819896  19.7977810  18.7221196  81.5233711
  11.5696118  25.7246163  86.0665829  11.1301109  25.2322542  86.7598686
  12.3204235  25.1819131  85.8257905   4.0488457  21.9157704  86.0690457
   4.8746477  21.6161476  85.6889101   3.6982509  21.1465327  86.5180246
   9.0169990  21.2684173  88.1388131   8.3950000  20.6054878  87.8390359
   9.6874857  21.2945304  87.4561779   8.5783497  19.8188096  81.6146592
   8.7271618  20.5023560  80.9613264   9.3849941  19.7993186  82.1296047
  22.3961118  17.1249371  87.0899094  23.2308009  17.5639176  87.2536655
  22.5320247  16.6488025  86.2707340   6.3336130  15.8453274  82.6207660
   6.0882172  14.9415604  82.8187871   6.5032045  15.8470424  81.6787138
  12.0778903  22.3136226  79.0858339  11.5052870  22.9326413  78.6328811
  12.6511697  22.8635588  79.6198261  15.2976163  22.5973376  80.2166921
  16.2306836  22.5318938  80.4199797  15.2099376  23.4329643  79.7581454
  17.9264179  21.9139247  77.1770869  17.8477811  21.5799110  78.0706627
  18.7473846  22.4061015  77.1762341  20.6242371  14.7800986  90.3847187
  20.5918691  13.8416987  90.5706871  21.2342994  14.8585023  89.6513012
  12.4625701  13.6497039  76.4274391  13.4084806  13.5203247  76.4962810
  12.0839946  12.9111701  76.9043820  26.4418920  15.8416993  89.5253224
  27.1722309  15.5802281  90.0860928  25.8325866  15.1045715  89.5655292
  24.5234218  13.9824856  90.1227675  23.7967381  13.8480820  89.5144167
  24.1081504  14.2901684  90.9284393  17.5700040   7.3062477  83.6476479
  16.9898709   7.9647281  83.2654531  17.3035972   6.4839822  83.2363896
  16.3524918   9.4662568  82.7032827  15.4650773   9.7512218  82.4853022
  16.7678907   9.3056331  81.8560104  19.7039454   9.4909089  86.4187166
  20.4799844   9.9805541  86.6911783  18.9787588   9.9167143  86.8759036
  22.1412012  10.2036708  87.4761107  22.7356503   9.9632444  86.7654415
  22.2138596   9.4843838  88.1034643   4.3609168  24.0470319  87.7904272
   4.2263636  23.2870720  87.2242270   3.9441230  24.7711219  87.3233061
  15.4968131  19.2307242  76.7980847  16.2003981  19.4357245  77.4138503
  14.7730780  19.7984004  77.0629931  16.3265941  14.9817103  82.9183117
  16.2701143  15.4385655  82.0790750  16.8794284  14.2207788  82.7405960
  20.1370747  10.7706835  83.7433237  19.8807682  10.3703471  84.5741445
  19.5123615  11.4850629  83.6183376  24.4483085  13.5102909  86.2504528
  23.8882643  13.5796098  87.0236090  23.8426589  13.3343893  85.5304024
   7.5178294  24.9439636  88.0022715   7.4010678  25.8885068  87.9001405
   6.6970740  24.6413197  88.3908514  17.4054829  19.6689771  78.8479307
  18.2400432  19.2370970  78.6656782  17.2439171  19.4971785  79.7756202
  17.0600721  16.1721885  80.2135647  17.0049525  16.0066156  79.2724091
  16.4346776  16.8797918  80.3697836   8.5432808  25.5967898  91.2178643
   9.4460055  25.6291508  91.5345138   8.3170178  24.6668349  91.2324979
  10.2986410  24.3498884  87.8788722   9.3482041  24.3500746  87.7653094
  10.6018896  23.6031619  87.3624756  26.0339104  30.1859423  88.9434484
  26.6717514  30.0666170  88.2397824  25.9159947  31.1340266  89.0022436
  22.8428810  30.1386851  88.8796009  22.5047321  30.0227915  87.9916544
  23.7118578  29.7378016  88.8597015  18.7015626  31.9922327  84.8692900
  18.1380491  31.9012264  84.1009187  18.5868021  31.1722231  85.3495392
  23.3248593  31.2921702  94.8382214  23.3137234  30.8974501  93.9662718
  23.4869232  30.5587775  95.4315986  16.2480058  33.4873519  87.7077120
  17.0401349  33.1464343  87.2923419  16.4876708  33.5968494  88.6279273
  24.2815184  35.6593295  80.1807365  23.6303164  36.2447375  79.7941378
  25.0759547  36.1899490  80.2402402  18.2070811  32.7482432  80.5794499
  18.9801687  32.2011419  80.4407375  18.5596210  33.6126681  80.7908960
  20.0455854  34.0758814  93.7861398  19.7545720  34.9804445  93.6708064
  20.6812838  34.1175342  94.5005468  20.9712061  31.4535663  90.3762758
  21.5675633  31.2291685  89.6619721  21.0287032  30.7120408  90.9788206
  20.5437089  28.9075098  78.2112949  20.7962610  28.3856619  77.4496412
  19.6061648  28.7441243  78.3139632  25.5880372  27.9110876  86.0187692
  26.3743461  27.4930300  85.6678109  25.8519076  28.8156969  86.1869340
  25.7590449  33.3483727  80.7176349  25.1236282  33.4218353  81.4297253
  25.4287856  33.9377326  80.0395428  30.9888799  27.8486110  86.9220671
  31.7213971  27.2785326  87.1558500  30.2328155  27.4607710  87.3627176
  20.2633378  30.8103204  80.4137324  20.1469636  30.1348107  81.0818408
  20.3735638  30.3235578  79.5969477  22.6064919  30.2713351  84.1184013
  22.2423126  29.7443972  84.8296934  23.4632035  29.8811820  83.9450498
  28.5114220  21.5607684  91.3815279  28.1797544  22.4303095  91.1576494
  27.9159833  21.2443968  92.0609310  22.2470406  25.3003251  79.1145361
  22.4144808  26.1683487  79.4815833  22.0567575  25.4630532  78.1906651
  25.0045739  33.7620230  90.7811192  24.7046462  34.6645268  90.6726999
  24.6596799  33.4952413  91.6332345  18.4558221  30.2134027  86.8147896
  17.5308717  30.0810241  87.0225588  18.7042634  30.9928246  87.3117839
  28.4042883  26.2802770  88.4608629  27.4959760  26.2118178  88.1667390
  28.3530479  26.7574715  89.2890455  22.2259627  27.7560908  80.0992028
  22.1059252  28.2017959  80.9377509  21.5312215  28.1046226  79.5405566
  15.8167032  29.8567300  87.6491685  15.9459413  30.1101779  88.5631097
  15.1364483  30.4495008  87.3296340  19.9866519  40.5264550  83.7482160
  19.9090549  41.4772375  83.8270640  19.3828163  40.1810423  84.4057086
  22.4783749  27.6992415  96.4043526  21.7017083  28.2586336  96.3946391
  23.1174312  28.1849198  96.9258397  30.2704529  24.4819208  90.2386503
  29.6278910  24.7751741  89.5926298  29.7659458  24.3672129  91.0439700
  27.9244693  28.2282381  80.9272362  28.8362549  28.4609768  80.7520060
  27.4154340  28.8119426  80.3647441  20.7330121  30.5077869  95.9661493
  21.4744805  31.0462913  95.6896317  20.0267106  31.1344158  96.1233045
  26.2085461  32.6507009  94.5633655  26.6168817  32.2089420  93.8188287
  25.4862722  32.0759637  94.8167848  22.5616531  27.5879616  91.9367212
  23.4077726  28.0119030  92.0801861  22.5015168  26.9313240  92.6305775
  26.5314275  33.2108200  88.3185944  25.9023138  33.3753914  87.6162012
  26.1439937  33.6249809  89.0896908  30.4103507  34.1462638  85.6730308
  29.7254545  34.5261539  85.1227341  30.4947357  34.7557964  86.4062255
  25.7115976  25.2483984  93.5948386  25.4676908  26.0026045  93.0582661
  25.9875907  25.6269332  94.4295633  27.6654439  31.7922597  92.2725651
  27.8771334  32.4354357  91.5960032  27.6184187  30.9584913  91.8047581
  25.2680668  24.4040417  89.1762223  24.4065147  24.7021671  89.4678961
  25.2943102  24.6210816  88.2443256  22.0842237  32.9482608  85.5836029
  22.5480583  33.2270311  84.7940651  21.8199035  32.0466053  85.4009120
  18.9766318  32.4954090  88.5215792  19.5467675  32.9241358  87.8833277
  19.5674430  32.2136674  89.2199978  21.0211123  29.0705760  82.3925594
  21.7235167  29.5226804  82.8599520  20.6891752  28.4289579  83.0205487
  19.4691485  27.6617517  96.7676803  18.8390145  28.3433798  97.0012200
  19.3627573  27.5500599  95.8229942  14.7636457  27.3289313  87.6942728
  13.9735511  27.5846842  87.2182838  15.2547705  28.1437651  87.7994768
  28.7800267  34.6694552  90.4448008  29.6017710  34.2674739  90.1630690
  28.7762670  34.5662786  91.3964124  16.7151203  27.6933892  84.6526204
  15.9182366  27.8052587  85.1709700  16.4876795  28.0320544  83.7867095
  22.5456870  34.2178595  92.6008719  22.6101303  34.6799003  93.4366891
  21.8367794  33.5875960  92.7291029  13.0474160  27.5819803  90.1257718
  13.2982199  28.4666813  90.3915294  13.5833709  27.4024405  89.3532810
  36.8706260  31.0133301  86.7932980  36.1169968  30.4440699  86.6376984
  37.0053801  30.9795965  87.7403615  22.2604888  35.8846703  82.4687699
  22.1250563  36.7298239  82.8972547  22.8014700  36.0865981  81.7053633
  15.7134285  33.4022141  83.0415624  16.2258806  34.1965391  83.1921189
  16.3656998  32.7048431  82.9749226  17.5229170  36.5187897  85.1238378
  17.6995798  37.4405862  84.9359361  18.3186003  36.2046316  85.5532757
  21.6640188  23.3796162  96.7222311  22.4049902  23.9803315  96.6426774
  21.8958111  22.6373800  96.1640354  16.8081527  28.5652529  95.0000541
  16.6935042  27.6637786  95.3007640  15.9526044  28.8116226  94.6485357
  23.8873364  36.5070269  96.5988041  23.4437218  35.7206648  96.2808946
  24.5490578  36.6949420  95.9331932  18.6460485  38.0366071  91.1248720
  19.1967911  37.9083134  90.3525714  17.8071961  38.3360960  90.7743613
  25.9854602  36.7873069  94.6269443  25.9673078  37.6081950  94.1349712
  26.9074522  36.6627145  94.8519584  22.4427656  34.3017199  95.4692951
  22.9755993  33.5405487  95.2392259  21.9141738  34.0090851  96.2117105
  25.6097351  19.4077265  90.9986593  25.2661621  20.2978907  90.9225703
  25.9776314  19.2178922  90.1356178  13.6783202  31.7310795  83.8175195
  14.5158424  32.1407804  83.6008903  13.8561470  30.7910237  83.7875389
  25.5747634  29.3985876  79.5059028  25.0594258  30.1690481  79.7447415
  25.3024943  28.7251012  80.1292089  23.1594745  24.2435577  84.5644266
  22.3036342  23.8542427  84.3849905  23.5721697  24.3227538  83.7044052
  24.6893892  21.7781920  88.9635826  24.1858687  21.7412055  88.1503631
  24.9824499  22.6874663  89.0232483  20.9336778  21.8620650  87.9702008
  21.7989774  21.6663458  87.6107897  21.0014287  21.6331001  88.8971364
  30.5481908  32.1518231  81.4412201  29.7711351  31.8129390  80.9967363
  31.2273389  32.1570854  80.7667166  25.3633937  27.2712968  81.3318809
  25.0584073  27.5859117  82.1828952  26.3164379  27.3494388  81.3746142
  23.8080369  33.4303191  82.9811763  23.2801731  32.6955951  82.6685000
  23.3067872  34.2077868  82.7351731  28.7873215  31.6252212  88.0978809
  28.1296890  32.3151473  88.1858938  29.5913614  32.0148644  88.4412796
  18.5399097  24.0922858  85.3418375  19.1142849  23.8698039  84.6091567
  19.1270079  24.1611552  86.0946976  27.5978674  29.9796585  86.1482751
  28.1110556  30.6126576  86.6504461  28.2479898  29.3797780  85.7826111
  18.8668684  26.1227319  79.3614260  18.0305996  26.4602005  79.6823535
  18.7273454  25.9876298  78.4241397  20.8421764  20.9664107  84.0693444
  20.1886177  20.6513124  83.4450059  20.8002239  20.3439847  84.7953267
  21.9532969  31.2483402  75.9846736  21.0460031  31.0172655  76.1837885
  22.4504001  30.4521021  76.1720718  24.8601048  39.9580909  78.9043422
  24.1862747  40.2612606  79.5128380  25.2466870  40.7609989  78.5548879
  24.0759505  27.4546040  88.3941092  23.1582066  27.6760987  88.2362780
  24.4919648  27.5292351  87.5352799  24.8594553  28.8537456  83.5243772
  25.6066372  29.3658853  83.2150894  25.1286142  28.5321509  84.3848165
  23.1321203  31.3495997  80.5070726  22.2232422  31.0655029  80.6043196
  23.1616287  31.7695075  79.6474033  28.3640470  34.9602586  84.2761894
  27.9102797  34.1193496  84.3327084  27.7334437  35.5963984  84.6136674
  27.3073390  25.8894572  85.5062561  26.5696147  25.3771958  85.8372804
  27.5600163  25.4494954  84.6945838  26.8073409  36.7979083  85.2111712
  27.0996384  37.3584140  84.4924077  27.3172030  37.0907644  85.9664871
  27.4085017  18.6670824  86.1004330  27.7143894  17.8068187  85.8130245
  28.1337622  19.2588444  85.9003324  13.7009373  29.0701511  84.4885928
  13.5033773  28.4770871  83.7636995  13.1456037  28.7653721  85.2061867
  21.6806097  28.9624617  86.6080521  21.7354707  28.0098454  86.5322998
  20.8697299  29.1184056  87.0921820  22.8297291  32.8904740  77.8458805
  22.3916721  32.1740599  77.3864442  23.5707731  33.1180855  77.2843896
  19.6198457  27.5801677  84.3670900  18.8066322  27.8795847  84.7736092
  20.1157451  27.1857366  85.0845383  21.7707035  37.5759434  86.3005165
  21.7283213  37.8020280  85.3713697  22.6869733  37.3422808  86.4490966
  25.2172668  28.0443501  93.1985794  25.5722056  28.2714974  94.0580260
  25.8644800  28.3761878  92.5763050  30.9470405  31.1661937  83.9035123
  30.8088304  31.3563533  82.9756312  30.5906624  31.9281320  84.3603174
  19.1112532  25.1520032  89.9832135  19.7511911  25.0108791  89.2855099
  18.2790062  24.8654546  89.6070737  30.9739785  33.2338464  88.9146395
  31.4076292  33.1413753  89.7629449  31.6871366  33.2095965  88.2766411
  19.8872835  34.4522463  86.0967128  20.6813434  33.9572783  85.8949703
  19.1764528  33.9240326  85.7334833  24.7067680  36.8340558  90.4479495
  24.7604702  37.4031495  91.2157211  23.8382461  37.0042443  90.0833533
  16.1955599  28.5965545  82.1726880  15.2653187  28.5350000  82.3896843
  16.2913071  28.0741497  81.3763522  16.1141148  25.1220357  84.7605122
  16.3747965  26.0365691  84.6514283  16.9358320  24.6544800  84.9101735
  17.5866073  26.5358115  91.9303947  18.2589127  26.3275477  91.2816596
  16.7595860  26.3380201  91.4909179  31.8355335  33.2762165  91.4479280
  32.0291225  34.1807975  91.6938555  31.7355953  32.8169584  92.2817865
  23.4891645  23.1620055  93.9469608  22.8419560  23.8610005  93.8534084
  24.2592661  23.5956199  94.3145856  26.8970443  33.4268908  97.0220161
  26.7455950  33.1979459  96.1050244  26.8875123  34.3839509  97.0351506
  23.6655780  31.0000820  92.0066427  24.5947840  31.1511980  91.8335395
  23.2446810  31.0884841  91.1515074  22.4644111  35.0251485  89.7764965
  22.3255197  34.6570269  90.6490903  21.6758708  35.5399124  89.6048923
  23.0592263  40.1260581  81.1190501  23.2344019  39.6548624  81.9336124
  22.3725051  40.7526347  81.3471762  24.0149327  34.4033087  87.1653803
  23.6799159  34.3633857  88.0611453  23.5153272  33.7377803  86.6924213
  17.9893571  29.8100718  92.6906384  17.8513368  29.0780956  93.2917923
  18.8998494  29.7209618  92.4090572  26.9508518  31.7489122  77.4390862
  26.3337689  31.0235950  77.3423915  26.4825007  32.5098482  77.0957937
  20.6175871  29.5220677  92.1790063  21.3275490  28.8813869  92.1376682
  20.5745179  29.7733572  93.1016244  28.6062650  36.4588030  95.0996643
  28.5475196  35.7747250  94.4327226  29.0082168  37.2007020  94.6477269
  19.3304805  26.5085895  93.9985703  18.7942162  26.0576633  94.6507299
  18.7421514  26.6431804  93.2556167  17.6253349  43.2749944  87.8930362
  17.8649947  43.9068468  88.5709380  16.7822545  42.9237984  88.1795721
  18.7407064  25.9674546  76.5612167  17.8636530  25.8463347  76.1974413
  19.2164817  25.1760624  76.3091055  28.6080057  34.4227614  93.3310622
  27.7206836  34.0853536  93.4537021  29.1778608  33.6910645  93.5679388
  10.2609204  30.7551706  86.6553674  10.9480244  30.4413436  86.0674689
  10.1057333  31.6593070  86.3820925  15.0643926  25.6441902  91.0838697
  14.9802115  25.0367572  90.3489107  14.2426633  26.1350921  91.0848194
  22.1381211  39.0829066  90.2971866  22.0651382  39.8884038  90.8091170
  21.6958604  39.2821032  89.4719887  21.9270990  38.3200836  83.8074687
  21.1438512  38.8622517  83.9012912  22.6263735  38.8374816  84.2068928
  25.2367640  24.1295466  86.4508892  25.7336340  23.3765428  86.1309963
  24.4654622  24.1659783  85.8852102  33.0897398  29.8335831  88.0927184
  33.0787274  30.7160547  87.7221117  32.2214777  29.4807382  87.8981721
  24.5979894  38.9815900  92.4530024  25.3107866  39.6163365  92.3805926
  24.1069923  39.0779766  91.6370026  26.3197421  32.8867153  84.0247316
  25.3853700  33.0068616  83.8552020  26.4974089  31.9839620  83.7607326
  21.8202609  26.2712849  86.1780577  21.4500397  25.7183889  86.8661483
  22.3161701  25.6670982  85.6255577  29.7069972  28.7284472  84.5597350
  30.1730425  29.5612464  84.4857653  30.1577473  28.2629454  85.2642609
  19.6491808  36.7310344  93.2735595  20.3501267  37.3646827  93.4264989
  19.1786923  37.0725075  92.5131234  27.7746203  35.0728294  81.5583502
  28.0506047  34.9584888  82.4677376  26.9050702  34.6745779  81.5195675
  27.6786635  21.0965059  88.5988251  26.7649715  21.3269286  88.7670458
  28.1079737  21.1803504  89.4502284  27.4493094  29.2854951  91.0988145
  26.7964544  29.5330859  90.4440598  27.8273473  28.4719090  90.7650623
  24.4100267  39.3214645  85.2016316  24.5922662  38.5036301  85.6644068
  25.2333253  39.5382337  84.7641206  24.7442433  38.2482830  82.4631364
  25.2730199  37.7375284  81.8501526  25.0070653  37.9325360  83.3276897
  23.4980667  30.0274762  97.5854182  22.8221304  29.9268892  98.2556558
  24.3208300  29.8713976  98.0490180  15.2459526  36.2646699  90.2066698
  15.8312962  35.5190387  90.3394602  15.0484364  36.5750656  91.0903362
  18.0998181  39.2997946  85.2229140  17.4308556  39.7844074  84.7393180
  17.9611051  39.5467167  86.1372519   9.8377180  28.8352299  88.9271141
   9.8761280  28.3015890  89.7208259   9.3317473  28.3087505  88.3082118
  22.2403449  41.3341690  91.8211798  22.7921757  41.4973311  92.5860884
  22.5809643  41.9246128  91.1491823  17.2167943  23.6816840  92.4233683
  17.2809269  24.5431671  92.0111081  17.1535063  23.0690841  91.6906042
  27.0914324  36.1602947  97.6760453  27.6354228  36.7732906  97.1815408
  26.5101169  36.7182526  98.1927466  13.4685758  27.5616401  82.0025072
  13.7639199  26.6527080  81.9492126  12.5673794  27.5404141  81.6806075
  25.3771837  39.2823665  88.8075481  25.2522976  38.4813405  88.2986426
  26.0350928  39.7769859  88.3189451  16.9980005  25.6372398  87.9852621
  16.2766591  26.2508366  87.8460094  17.7873261  26.1730163  87.9069267
  27.4406745  37.0832686  90.4355031  26.4937081  36.9638037  90.3633357
  27.7889518  36.1955184  90.5181292  19.8006318  22.9726824  94.2593273
  20.3240720  23.2189121  95.0219582  19.5818652  23.8046859  93.8396410
  15.1973600  25.2430499  82.1264397  14.8686306  24.3627878  81.9439503
  15.5512970  25.1878168  83.0140787  24.4453178  36.8785402  86.6359383
  24.2978141  35.9502109  86.8166953  25.2706672  36.9005492  86.1516458
  18.3115423  25.5303469  82.4939875  18.6511495  26.0589390  81.7718483
  18.7587543  25.8683875  83.2698442  28.0487300  37.7013960  87.7224256
  28.9733848  37.4956822  87.5848707  27.8802604  37.4530362  88.6313597
  21.0058864  23.9140520  91.9442943  20.6655684  23.1148333  92.3463623
  20.2997870  24.2142230  91.3719776  21.6575335  20.9989832  90.3970266
  22.4801405  20.5250310  90.2749156  21.9013399  21.7780316  90.8968952
  20.2983570  24.0278090  80.6933168  21.0191932  24.4059343  80.1896885
  19.6748874  24.7466967  80.7968146  24.4414693  24.7323239  81.6291500
  24.6578307  25.6147877  81.3280328  23.9608760  24.3409453  80.8997142
  19.1813914  27.6908953  88.2062245  19.0358495  28.0049256  89.0986526
  18.7039118  28.3093853  87.6533143  21.0410297  24.6811501  88.2543134
  21.0271866  23.7852594  87.9175432  21.7582725  24.6882164  88.8881420
  22.8936428  25.1148841  90.2996262  22.6354206  26.0365911  90.2980592
  22.3621468  24.7179275  90.9896726  27.8382616  38.2199628  83.0786347
  28.0119494  37.6546050  82.3260200  28.3311508  39.0200523  82.8965837
  13.6559576  30.2314297  91.1449906  13.1113044  31.0074105  91.2770180
  14.5338926  30.5785101  90.9869027  20.4447193  23.5625881  83.5230704
  20.5663104  22.6342527  83.7221592  20.1549235  23.5764567  82.6109020
  23.3138383  21.2480791  86.6597424  23.3360080  21.3120124  85.7049404
  23.7306442  20.4085300  86.8537930  33.6922008  30.9836051  84.6976647
  34.1353154  30.2343376  84.2995770  32.8148518  30.9746187  84.3150379
  28.8257789  37.5366392  80.1783245  29.5208694  38.1573085  80.3970560
  29.1680939  36.6861744  80.4535623  14.4425598  29.3584193  94.0380063
  13.7007334  29.5066829  94.6244693  14.1218342  29.6192459  93.1746812
  30.7249212  34.9866098  81.7070576  31.2500536  35.3253371  80.9819896
  30.6371565  34.0513113  81.5233711  22.3869261  38.9000171  93.8360453
  22.6956387  38.6549318  94.7083152  23.1844743  39.1046810  93.3479323
  22.4089873  41.0538081  86.0665829  21.9694863  40.5614460  86.7598686
  23.1597990  40.5111049  85.8257905  14.8882212  37.2449622  86.0690457
  15.7140232  36.9453394  85.6889101  14.5376264  36.4757244  86.5180246
  19.8563745  36.5976090  88.1388131  19.2343754  35.9346795  87.8390359
  20.5268612  36.6237222  87.4561779  13.0890817  35.1635948  87.0279391
  12.2522725  34.7358123  86.8463392  13.0614462  35.3568392  87.9650182
  30.4143118  35.6199001  97.0121774  29.6238662  35.6023140  96.4726274
  30.1776473  36.1587295  97.7670811  30.5340993  32.4691468  94.3254503
  30.5838998  32.3041475  95.2670025  30.4254917  31.6018727  93.9352383
  19.4177252  35.1480014  81.6146592  19.5665372  35.8315478  80.9613264
  20.2243695  35.1285104  82.1296047  27.8244756  28.4522396  95.6413809
  28.7254618  28.3128861  95.3497807  27.8992730  28.6176851  96.5811987
  22.1587561  25.8289251  94.4866996  21.2890870  26.1222817  94.2149584
  22.3947041  26.4129696  95.2074259  32.0359190  34.8888409  94.5696524
  31.7443998  35.2518390  95.4059985  31.4231321  34.1755418  94.3909856
  33.2354872  32.4541289  87.0899094  34.0701764  32.8931093  87.2536655
  33.3714001  31.9779942  86.2707340  30.2846378  30.0121024  93.0376582
  30.7600500  30.2048670  92.2295434  29.3611944  30.0680210  92.7919966
  17.1729885  31.1745191  82.6207660  16.9275927  30.2707521  82.8187871
  17.3425799  31.1762342  81.6787138  24.8626595  22.0468868  92.0032416
  25.3808539  22.7829894  91.6778905  24.5081728  22.3532861  92.8379175
  16.4425532  26.9073549  80.1193822  15.7494777  26.9817904  79.4633858
  16.1977284  26.1433892  80.6415339  25.1139189  18.4669150  87.5233313
  25.3940943  17.7992339  88.1493739  25.8989796  18.6598246  87.0107977
  22.9172657  37.6428144  79.0858339  22.3446624  38.2618331  78.6328811
  23.4905451  38.1927506  79.6198261  28.9848047  26.8886784  91.2704888
  29.9365470  26.9884882  91.2917112  28.8151498  26.0965053  91.7802972
  27.0062427  23.9742367  91.4564289  26.4112359  24.2547380  90.7610777
  26.7212123  24.4636268  92.2281030  26.1369917  37.9265294  80.2166921
  27.0700590  37.8610856  80.4199797  26.0493130  38.7621561  79.7581454
  28.7657934  37.2431164  77.1770869  28.6871565  36.9091028  78.0706627
  29.5867601  37.7352932  77.1762341  31.4636125  30.1092904  90.3847187
  31.4312445  29.1708905  90.5706871  32.0736749  30.1876941  89.6513012
  23.3019456  28.9788957  76.4274391  24.2478561  28.8495165  76.4962810
  22.9233701  28.2403619  76.9043820  31.6130614  26.9003947  90.4305471
  31.0969662  26.1162404  90.2435399  32.4970562  26.5722664  90.5951990
  29.2741340  20.6444963  86.3901283  29.0766162  20.3360051  87.2744615
  29.8841046  21.3706602  86.5199213  37.2812675  31.1708911  89.5253224
  38.0116063  30.9094199  90.0860928  36.6719620  30.4337633  89.5655292
  35.3627972  29.3116773  90.1227675  34.6361136  29.1772738  89.5144167
  34.9475259  29.6193602  90.9284393  23.1858148  33.0306703  97.8875048
  24.1061158  33.2085302  98.0815095  23.1507731  32.0862748  97.7354748
  21.4862373  26.9038933  76.3629277  20.5793828  26.6072046  76.4391990
  21.7638354  26.6068751  75.4963563  12.4040313  28.2245297  86.8128323
  12.0843098  27.3710605  86.5202697  11.8573742  28.4393875  87.5686290
  16.1820221  30.9407738  90.5297830  16.4006231  31.8724845  90.5485863
  16.5945995  30.5815712  91.3152633  23.1024439  21.4475823  82.5173518
  22.2925167  21.1022908  82.8928764  23.7908856  21.1383367  83.1061130
  25.0314987  20.5253870  84.1397815  25.5846026  20.9449323  84.7987838
  25.2685073  19.5989618  84.1820771  20.2561158  23.7625868  76.5041256
  21.1180322  24.0880767  76.7637073  20.4411502  22.9757364  75.9914322
  12.2728573  31.8448208  88.7821445  11.5792045  31.4302161  88.2691399
  13.0201564  31.8868745  88.1854864  28.4093794  22.6354395  83.6476479
  27.8292463  23.2939199  83.2654531  28.1429727  21.8131739  83.2363896
  26.8597361  22.0359453  85.8497799  27.3597139  22.1475987  85.0412118
  27.5032968  21.7320505  86.4898608  20.9179356  29.9438082  98.7365640
  20.4346438  30.7438442  98.9429529  21.0040295  29.9546027  97.7833084
  14.1865316  31.7766462  86.6587460  14.1636004  31.8754149  85.7069343
  14.4965952  32.6231613  86.9804626  16.8452694  33.8342617  90.7734074
  17.7995947  33.8026559  90.7064006  16.6465217  33.3733241  91.5884300
  17.4352076  32.4043733  93.3404872  18.2544965  32.8987812  93.3639709
  17.7088884  31.4875701  93.3122439  27.1918672  24.7954485  82.7032827
  26.3044527  25.0804136  82.4853022  27.6072661  24.6348249  81.8560104
  30.5433208  24.8201006  86.4187166  31.3193598  25.3097459  86.6911783
  29.8181342  25.2459060  86.8759036  32.9805767  25.5328625  87.4761107
  33.5750258  25.2924361  86.7654415  33.0532351  24.8135756  88.1034643
  15.2002923  39.3762236  87.7904272  15.0657391  38.6162637  87.2242270
  14.7834985  40.1003136  87.3233061  26.3361886  34.5599160  76.7980847
  27.0397736  34.7649162  77.4138503  25.6124534  35.1275922  77.0629931
  27.1659696  30.3109021  82.9183117  27.1094897  30.7677573  82.0790750
  27.7188038  29.5499706  82.7405960  30.9764502  26.0998753  83.7433237
  30.7201436  25.6995389  84.5741445  30.3517370  26.8142547  83.6183376
  35.2876840  28.8394826  86.2504528  34.7276398  28.9088016  87.0236090
  34.6820343  28.6635811  85.5304024  18.3572049  40.2731553  88.0022715
  18.2404433  41.2176986  87.9001405  17.5364495  39.9705115  88.3908514
  28.2448583  34.9981689  78.8479307  29.0794187  34.5662888  78.6656782
  28.0832926  34.8263703  79.7756202  27.8994475  31.5013802  80.2135647
  27.8443279  31.3358074  79.2724091  27.2740531  32.2089835  80.3697836
  12.6886990  26.7381867  94.0397069  13.3345854  26.2280821  94.5284294
  12.4804141  27.4750548  94.6140494  25.2140382  33.8062714  99.5389209
  26.0831542  33.9803367  99.1775844  24.7347134  34.6257131  99.4164939
  21.2090601  21.0021911  79.7920965  21.1969271  21.9463751  79.9489236
  22.1014023  20.8192057  79.4980426  19.3826563  40.9259815  91.2178643
  20.2853809  40.9583426  91.5345138  19.1563933  39.9960266  91.2324979
  21.1380165  39.6790802  87.8788722  20.1875796  39.6792663  87.7653094
  21.4412651  38.9323536  87.3624756  25.0242720  17.5964688  84.0466902
  24.2575116  17.0423175  84.1923584  25.4353425  17.6686557  84.9081053
  36.8732858  45.5151340  88.9434484  37.5111268  45.3958088  88.2397824
  36.7553701  46.4632184  89.0022436  33.6822564  45.4678768  88.8796009
  33.3441076  45.3519833  87.9916544  34.5512333  45.0669933  88.8597015
  29.5409380  47.3214245  84.8692900  28.9774245  47.2304182  84.1009187
  29.4261775  46.5014149  85.3495392  34.1642347  46.6213620  94.8382214
  34.1530988  46.2266418  93.9662718  34.3262987  45.8879693  95.4315986
  27.0873812  48.8165436  87.7077120  27.8795104  48.4756261  87.2923419
  27.3270462  48.9260411  88.6279273  35.1208939  50.9885212  80.1807365
  34.4696919  51.5739293  79.7941378  35.9153302  51.5191407  80.2402402
  29.0464566  48.0774350  80.5794499  29.8195442  47.5303337  80.4407375
  29.3989965  48.9418599  80.7908960  31.8105815  46.7827580  90.3762758
  32.4069388  46.5583603  89.6619721  31.8680787  46.0412326  90.9788206
  31.3830844  44.2367016  78.2112949  31.6356364  43.7148537  77.4496412
  30.4455403  44.0733161  78.3139632  36.4274127  43.2402794  86.0187692
  37.2137216  42.8222217  85.6678109  36.6912831  44.1448886  86.1869340
  36.5984204  48.6775644  80.7176349  35.9630037  48.7510271  81.4297253
  36.2681610  49.2669243  80.0395428  41.8282554  43.1778027  86.9220671
  42.5607726  42.6077244  87.1558500  41.0721909  42.7899628  87.3627176
  31.1027133  46.1395122  80.4137324  30.9863391  45.4640025  81.0818408
  31.2129392  45.6527496  79.5969477  33.4458673  45.6005269  84.1184013
  33.0816881  45.0735890  84.8296934  34.3025789  45.2103738  83.9450498
  39.3507974  36.8899601  91.3815279  39.0191299  37.7595012  91.1576494
  38.7553587  36.5735885  92.0609310  33.0864160  40.6295168  79.1145361
  33.2538563  41.4975405  79.4815833  32.8961330  40.7922450  78.1906651
  29.2951975  45.5425944  86.8147896  28.3702472  45.4102158  87.0225588
  29.5436388  46.3220163  87.3117839  39.2436637  41.6094688  88.4608629
  38.3353515  41.5410096  88.1667390  39.1924233  42.0866632  89.2890455
  33.0653381  43.0852826  80.0992028  32.9453007  43.5309877  80.9377509
  32.3705970  43.4338144  79.5405566  26.6560786  45.1859218  87.6491685
  26.7853167  45.4393697  88.5631097  25.9758237  45.7786926  87.3296340
  30.8260273  55.8556468  83.7482160  30.7484303  56.8064293  83.8270640
  30.2221917  55.5102340  84.4057086  33.3177503  43.0284333  96.4043526
  32.5410837  43.5878253  96.3946391  33.9568066  43.5141116  96.9258397
  41.1098284  39.8111126  90.2386503  40.4672664  40.1043659  89.5926298
  40.6053212  39.6964046  91.0439700  38.7638447  43.5574299  80.9272362
  39.6756304  43.7901686  80.7520060  38.2548095  44.1411343  80.3647441
  31.5723876  45.8369786  95.9661493  32.3138560  46.3754830  95.6896317
  30.8660861  46.4636075  96.1233045  33.4010285  42.9171534  91.9367212
  34.2471480  43.3410947  92.0801861  33.3408923  42.2605158  92.6305775
  41.2497262  49.4754555  85.6730308  40.5648300  49.8553457  85.1227341
  41.3341111  50.0849882  86.4062255  36.5509731  40.5775902  93.5948386
  36.3070662  41.3317963  93.0582661  36.8269661  40.9561250  94.4295633
  36.1074422  39.7332335  89.1762223  35.2458901  40.0313589  89.4678961
  36.1336857  39.9502734  88.2443256  32.9235992  48.2774526  85.5836029
  33.3874337  48.5562229  84.7940651  32.6592790  47.3757970  85.4009120
  29.8160073  47.8246007  88.5215792  30.3861430  48.2533276  87.8833277
  30.4068185  47.5428592  89.2199978  31.8604878  44.3997678  82.3925594
  32.5628921  44.8518722  82.8599520  31.5285506  43.7581497  83.0205487
  30.3085239  42.9909435  96.7676803  29.6783900  43.6725716  97.0012200
  30.2021327  42.8792516  95.8229942  25.6030212  42.6581231  87.6942728
  24.8129266  42.9138759  87.2182838  26.0941459  43.4729569  87.7994768
  27.5544957  43.0225810  84.6526204  26.7576120  43.1344504  85.1709700
  27.3270549  43.3612462  83.7867095  23.8867915  42.9111721  90.1257718
  24.1375953  43.7958731  90.3915294  24.4227463  42.7316323  89.3532810
  33.0998642  51.2138621  82.4687699  32.9644317  52.0590156  82.8972547
  33.6408455  51.4157898  81.7053633  29.5865982  37.2930200  99.1302054
  29.1932928  36.7396399  99.8049699  30.4032122  37.6040779  99.5208572
  26.5528040  48.7314059  83.0415624  27.0652560  49.5257309  83.1921189
  27.2050753  48.0340349  82.9749226  28.3622924  51.8479815  85.1238378
  28.5389553  52.7697780  84.9359361  29.1579758  51.5338234  85.5532757
  32.5033943  38.7088080  96.7222311  33.2443656  39.3095233  96.6426774
  32.7351866  37.9665717  96.1640354  27.6475281  43.8944447  95.0000541
  27.5328796  42.9929704  95.3007640  26.7919799  44.1408144  94.6485357
  36.4491106  34.7369183  90.9986593  36.1055375  35.6270824  90.9225703
  36.8170069  34.5470840  90.1356178  24.5176957  47.0602713  83.8175195
  25.3552179  47.4699721  83.6008903  24.6955224  46.1202155  83.7875389
  36.4141389  44.7277794  79.5059028  35.8988012  45.4982398  79.7447415
  36.1418697  44.0542930  80.1292089  33.9988500  39.5727494  84.5644266
  33.1430096  39.1834345  84.3849905  34.4115451  39.6519455  83.7044052
  35.5287646  37.1073838  88.9635826  35.0252442  37.0703973  88.1503631
  35.8218253  38.0166580  89.0232483  31.7730532  37.1912567  87.9702008
  32.6383529  36.9955376  87.6107897  31.8408041  36.9622919  88.8971364
  36.2027692  42.6004886  81.3318809  35.8977827  42.9151035  82.1828952
  37.1558134  42.6786306  81.3746142  34.6474124  48.7595109  82.9811763
  34.1195485  48.0247869  82.6685000  34.1461626  49.5369785  82.7351731
  29.3792851  39.4214775  85.3418375  29.9536603  39.1989957  84.6091567
  29.9663834  39.4903470  86.0946976  38.4372428  45.3088502  86.1482751
  38.9504310  45.9418494  86.6504461  39.0873652  44.7089698  85.7826111
  29.7062438  41.4519236  79.3614260  28.8699751  41.7893923  79.6823535
  29.5667208  41.3168216  78.4241397  31.6815519  36.2956024  84.0693444
  31.0279931  35.9805041  83.4450059  31.6395993  35.6731765  84.7953267
  32.7926724  46.5775319  75.9846736  31.8853786  46.3464573  76.1837885
  33.2897756  45.7812939  76.1720718  34.9153259  42.7837958  88.3941092
  33.9975821  43.0052905  88.2362780  35.3313403  42.8584268  87.5352799
  35.6988307  44.1829373  83.5243772  36.4460126  44.6950771  83.2150894
  35.9679897  43.8613426  84.3848165  33.9714957  46.6787914  80.5070726
  33.0626177  46.3946947  80.6043196  34.0010041  47.0986993  79.6474033
  39.2034225  50.2894504  84.2761894  38.7496552  49.4485414  84.3327084
  38.5728191  50.9255902  84.6136674  38.1467144  41.2186490  85.5062561
  37.4089901  40.7063876  85.8372804  38.3993918  40.7786871  84.6945838
  37.6467164  52.1271000  85.2111712  37.9390138  52.6876057  84.4924077
  38.1565785  52.4199561  85.9664871  38.2478772  33.9962742  86.1004330
  38.5537648  33.1360105  85.8130245  38.9731376  34.5880362  85.9003324
  24.5403128  44.3993428  84.4885928  24.3427527  43.8062789  83.7636995
  23.9849792  44.0945638  85.2061867  32.5199851  44.2916535  86.6080521
  32.5748461  43.3390371  86.5322998  31.7091053  44.4475974  87.0921820
  33.6691045  48.2196658  77.8458805  33.2310475  47.5032517  77.3864442
  34.4101486  48.4472773  77.2843896  30.4592211  42.9093595  84.3670900
  29.6460077  43.2087765  84.7736092  30.9551205  42.5149283  85.0845383
  36.0566423  43.3735419  93.1985794  36.4115811  43.6006892  94.0580260
  36.7038554  43.7053796  92.5763050  41.7864160  46.4953855  83.9035123
  41.6482058  46.6855451  82.9756312  41.4300379  47.2573238  84.3603174
  29.9506286  40.4811950  89.9832135  30.5905665  40.3400709  89.2855099
  29.1183817  40.1946463  89.6070737  30.7266590  49.7814380  86.0967128
  31.5207188  49.2864701  85.8949703  30.0158282  49.2532244  85.7334833
  27.0349353  43.9257462  82.1726880  26.1046941  43.8641918  82.3896843
  27.1306825  43.4033415  81.3763522  26.9534902  40.4512275  84.7605122
  27.2141720  41.3657608  84.6514283  27.7752075  39.9836718  84.9101735
  28.4259828  41.8650032  91.9303947  29.0982881  41.6567394  91.2816596
  27.5989614  41.6672118  91.4909179  34.3285400  38.4911973  93.9469608
  33.6813315  39.1901923  93.8534084  35.0986415  38.9248117  94.3145856
  37.7364198  48.7560825  97.0220161  37.5849704  48.5271377  96.1050244
  37.7268877  49.7131427  97.0351506  34.5049534  46.3292738  92.0066427
  35.4341594  46.4803898  91.8335395  34.0840564  46.4176759  91.1515074
  28.8287325  45.1392635  92.6906384  28.6907123  44.4072874  93.2917923
  29.7392248  45.0501535  92.4090572  37.7902273  47.0781039  77.4390862
  37.1731443  46.3527868  77.3423915  37.3218761  47.8390400  77.0957937
  31.4569626  44.8512595  92.1790063  32.1669244  44.2105787  92.1376682
  31.4138934  45.1025489  93.1016244  30.1698560  41.8377812  93.9985703
  29.6335917  41.3868551  94.6507299  29.5815268  41.9723721  93.2556167
  28.4647103  58.6041862  87.8930362  28.7043701  59.2360386  88.5709380
  27.6216300  58.2529902  88.1795721  29.5800819  41.2966464  76.5612167
  28.7030285  41.1755265  76.1974413  30.0558572  40.5052542  76.3091055
  21.1002959  46.0843624  86.6553674  21.7873999  45.7705354  86.0674689
  20.9451087  46.9884988  86.3820925  25.9037681  40.9733820  91.0838697
  25.8195870  40.3659490  90.3489107  25.0820387  41.4642838  91.0848194
  32.7664745  53.6492754  83.8074687  31.9832267  54.1914434  83.9012912
  33.4657490  54.1666734  84.2068928  36.0761395  39.4587384  86.4508892
  36.5730094  38.7057346  86.1309963  35.3048376  39.4951700  85.8852102
  37.1591175  48.2159071  84.0247316  36.2247454  48.3360533  83.8552020
  37.3367844  47.3131538  83.7607326  32.6596364  41.6004767  86.1780577
  32.2894151  41.0475807  86.8661483  33.1555456  40.9962900  85.6255577
  40.5463727  44.0576390  84.5597350  41.0124179  44.8904382  84.4857653
  40.9971227  43.5921372  85.2642609  38.5180390  36.4256977  88.5988251
  37.6043469  36.6561204  88.7670458  38.9473491  36.5095421  89.4502284
  38.2886848  44.6146869  91.0988145  37.6358298  44.8622777  90.4440598
  38.6667228  43.8011007  90.7650623  34.3374421  45.3566680  97.5854182
  33.6615058  45.2560809  98.2556558  35.1602055  45.2005894  98.0490180
  26.0853280  51.5938617  90.2066698  26.6706717  50.8482305  90.3394602
  25.8878119  51.9042573  91.0903362  28.9391935  54.6289864  85.2229140
  28.2702311  55.1135992  84.7393180  28.8004805  54.8759085  86.1372519
  20.6770935  44.1644217  88.9271141  20.7155034  43.6307808  89.7208259
  20.1711228  43.6379422  88.3082118  28.0561697  39.0108757  92.4233683
  28.1203024  39.8723588  92.0111081  27.9928817  38.3982759  91.6906042
  27.5313970  41.0831890  96.0706717  28.1586009  40.7008967  96.6844242
  26.6741889  40.8646092  96.4362410  24.3079512  42.8908319  82.0025072
  24.6032954  41.9818997  81.9492126  23.4067548  42.8696058  81.6806075
  27.8373759  40.9664316  87.9852621  27.1160345  41.5800283  87.8460094
  28.6267015  41.5022080  87.9069267  30.6400073  38.3018742  94.2593273
  31.1634475  38.5481039  95.0219582  30.4212406  39.1338777  93.8396410
  26.0367354  40.5722417  82.1264397  25.7080060  39.6919796  81.9439503
  26.3906725  40.5170085  83.0140787  29.1509177  40.8595386  82.4939875
  29.4905250  41.3881308  81.7718483  29.5981298  41.1975793  83.2698442
  31.8452618  39.2432437  91.9442943  31.5049438  38.4440250  92.3463623
  31.1391624  39.5434148  91.3719776  32.4969090  36.3281750  90.3970266
  33.3195159  35.8542228  90.2749156  32.7407153  37.1072233  90.8968952
  31.1377324  39.3570008  80.6933168  31.8585687  39.7351261  80.1896885
  30.5142628  40.0758885  80.7968146  35.2808447  40.0615157  81.6291500
  35.4972062  40.9439795  81.3280328  34.8002514  39.6701370  80.8997142
  30.0207669  43.0200870  88.2062245  29.8752249  43.3341173  89.0986526
  29.5432872  43.6385771  87.6533143  31.8804051  40.0103418  88.2543134
  31.8665620  39.1144512  87.9175432  32.5976480  40.0174082  88.8881420
  33.7330182  40.4440758  90.2996262  33.4747960  41.3657829  90.2980592
  33.2015223  40.0471193  90.9896726  24.4953331  45.5606215  91.1449906
  23.9506799  46.3366023  91.2770180  25.3732681  45.9077019  90.9869027
  31.2840947  38.8917799  83.5230704  31.4056859  37.9634445  83.7221592
  30.9942990  38.9056485  82.6109020  34.1532138  36.5772709  86.6597424
  34.1753835  36.6412042  85.7049404  34.5700197  35.7377218  86.8537930
  44.5315762  46.3127969  84.6976647  44.9746908  45.5635294  84.2995770
  43.6542272  46.3038105  84.3150379  25.2819353  44.6876111  94.0380063
  24.5401089  44.8358746  94.6244693  24.9612097  44.9484377  93.1746812
  25.7275966  52.5741540  86.0690457  26.5533986  52.2745312  85.6889101
  25.3770018  51.8049162  86.5180246  23.9284571  50.4927866  87.0279391
  23.0916480  50.0650040  86.8463392  23.9008217  50.6860309  87.9650182
  30.7682027  40.4049796  97.7320637  30.8170182  41.2811919  97.3498407
  31.3104541  39.8627189  97.1592280  30.2571006  50.4771931  81.6146592
  30.4059127  51.1607396  80.9613264  31.0637450  50.4577021  82.1296047
  38.6638510  43.7814314  95.6413809  39.5648373  43.6420778  95.3497807
  38.7386485  43.9468768  96.5811987  32.9981315  41.1581168  94.4866996
  32.1284625  41.4514734  94.2149584  33.2340796  41.7421613  95.2074259
  28.0123639  46.5037109  82.6207660  27.7669681  45.5999439  82.8187871
  28.1819554  46.5054259  81.6787138  35.7020349  37.3760785  92.0032416
  36.2202293  38.1121812  91.6778905  35.3475482  37.6824779  92.8379175
  27.2819287  42.2365466  80.1193822  26.5888532  42.3109821  79.4633858
  27.0371039  41.4725810  80.6415339  35.9532943  33.7961068  87.5233313
  36.2334697  33.1284257  88.1493739  36.7383550  33.9890163  87.0107977
  33.7566412  52.9720062  79.0858339  33.1840379  53.5910249  78.6328811
  34.3299206  53.5219423  79.6198261  39.8241802  42.2178702  91.2704888
  40.7759225  42.3176799  91.2917112  39.6545252  41.4256970  91.7802972
  37.8456181  39.3034285  91.4564289  37.2506113  39.5839298  90.7610777
  37.5605878  39.7928186  92.2281030  34.1413210  44.3080874  76.4274391
  35.0872315  44.1787083  76.4962810  33.7627455  43.5695536  76.9043820
  42.4524368  42.2295865  90.4305471  41.9363417  41.4454322  90.2435399
  43.3364317  41.9014582  90.5951990  40.1135095  35.9736880  86.3901283
  39.9159916  35.6651969  87.2744615  40.7234801  36.6998519  86.5199213
  32.3256128  42.2330851  76.3629277  31.4187583  41.9363964  76.4391990
  32.6032109  41.9360669  75.4963563  23.2434068  43.5537214  86.8128323
  22.9236852  42.7002522  86.5202697  22.6967496  43.7685792  87.5686290
  27.0213975  46.2699655  90.5297830  27.2399985  47.2016763  90.5485863
  27.4339749  45.9107630  91.3152633  33.9418193  36.7767741  82.5173518
  33.1318922  36.4314826  82.8928764  34.6302610  36.4675284  83.1061130
  35.8708742  35.8545787  84.1397815  36.4239780  36.2741241  84.7987838
  36.1078828  34.9281535  84.1820771  31.8941841  41.8432861  99.9200579
  31.7938568  42.7927218  99.8512670  31.6763383  41.5151100  99.0476649
  31.0954912  39.0917786  76.5041256  31.9574076  39.4172684  76.7637073
  31.2805256  38.3049282  75.9914322  23.1122328  47.1740126  88.7821445
  22.4185799  46.7594079  88.2691399  23.8595319  47.2160662  88.1854864
  39.2487549  37.9646313  83.6476479  38.6686218  38.6231117  83.2654531
  38.9823481  37.1423657  83.2363896  37.6991115  37.3651370  85.8497799
  38.1990893  37.4767905  85.0412118  38.3426723  37.0612423  86.4898608
  31.7573111  45.2730000  98.7365640  31.2740193  46.0730360  98.9429529
  31.8434050  45.2837945  97.7833084  25.0259070  47.1058380  86.6587460
  25.0029759  47.2046067  85.7069343  25.3359707  47.9523530  86.9804626
  27.6846448  49.1634535  90.7734074  28.6389702  49.1318477  90.7064006
  27.4858972  48.7025158  91.5884300  28.2745830  47.7335651  93.3404872
  29.0938719  48.2279729  93.3639709  28.5482638  46.8167619  93.3122439
  38.0312427  40.1246403  82.7032827  37.1438282  40.4096054  82.4853022
  38.4466416  39.9640166  81.8560104  41.3826963  40.1492924  86.4187166
  42.1587353  40.6389376  86.6911783  40.6575097  40.5750978  86.8759036
  43.8199521  40.8620543  87.4761107  44.4144012  40.6216279  86.7654415
  43.8926105  40.1427674  88.1034643  26.0396677  54.7054154  87.7904272
  25.9051145  53.9454555  87.2242270  25.6228739  55.4295054  87.3233061
  37.1755640  49.8891078  76.7980847  37.8791490  50.0941080  77.4138503
  36.4518289  50.4567839  77.0629931  38.0053450  45.6400939  82.9183117
  37.9488652  46.0969490  82.0790750  38.5581793  44.8791623  82.7405960
  41.8158256  41.4290671  83.7433237  41.5595191  41.0287306  84.5741445
  41.1911124  42.1434465  83.6183376  46.1270594  44.1686744  86.2504528
  45.5670152  44.2379933  87.0236090  45.5214098  43.9927729  85.5304024
  38.7388230  46.8305720  80.2135647  38.6837034  46.6649991  79.2724091
  38.1134285  47.5381753  80.3697836  23.5280745  42.0673784  94.0397069
  24.1739608  41.5572738  94.5284294  23.3197896  42.8042466  94.6140494
  32.0484355  36.3313829  79.7920965  32.0363025  37.2755669  79.9489236
  32.9407777  36.1483974  79.4980426  35.8636475  32.9256606  84.0466902
  35.0968870  32.3715092  84.1923584  36.2747180  32.9978474  84.9081053
  27.8678236  39.2141402  98.1372083  28.7309697  38.8578206  98.3475408
  27.2943646  38.8755296  98.8247487  50.1901729  52.2191519  91.3815279
  49.8585053  53.0886930  91.1576494  49.5947342  51.9027803  92.0609310
  50.0830392  56.9386605  88.4608629  49.1747269  56.8702014  88.1667390
  50.0317988  57.4158550  89.2890455  51.9492038  55.1403044  90.2386503
  51.3066419  55.4335577  89.5926298  51.4446967  55.0255964  91.0439700
  58.5493769  61.6717136  86.7932980  57.7957477  61.1024534  86.6376984
  58.6841310  61.6379801  87.7403615  42.6124287  52.5204485  87.9702008
  43.4777283  52.3247294  87.6107897  42.6801796  52.2914837  88.8971364
  49.0872526  49.3254659  86.1004330  49.3931403  48.4652023  85.8130245
  49.8125131  49.9172280  85.9003324  46.8960177  58.7027337  93.1985794
  47.2509565  58.9298810  94.0580260  47.5432309  59.0345713  92.5763050
  53.5142844  63.9346000  91.4479280  53.7078734  64.8391811  91.6938555
  53.4143462  63.4753419  92.2817865  48.5757952  64.0852743  97.0220161
  48.4243459  63.8563295  96.1050244  48.5662632  65.0423344  97.0351506
  50.2850159  67.1171866  95.0996643  50.2262705  66.4331086  94.4327226
  50.6869677  67.8590856  94.6477269  31.9396713  61.4135541  86.6553674
  32.6267753  61.0997271  86.0674689  31.7844842  62.3176906  86.3820925
  49.3574144  51.7548895  88.5988251  48.4437224  51.9853122  88.7670458
  49.7867245  51.8387339  89.4502284  48.7701833  66.8186783  97.6760453
  49.3141737  67.4316741  97.1815408  48.1888678  67.3766361  98.1927466
  44.9925892  51.9064627  86.6597424  45.0147589  51.9703960  85.7049404
  45.4093951  51.0669135  86.8537930  52.0930627  66.2782837  97.0121774
  51.3026171  66.2606976  96.4726274  51.8563982  66.8171131  97.7670811
  52.2128502  63.1275303  94.3254503  52.2626507  62.9625311  95.2670025
  52.1042426  62.2602562  93.9352383  49.5032265  59.1106231  95.6413809
  50.4042127  58.9712696  95.3497807  49.5780239  59.2760686  96.5811987
  53.7146699  65.5472245  94.5696524  53.4231507  65.9102225  95.4059985
  53.1018830  64.8339253  94.3909856  51.9633887  60.6704859  93.0376582
  52.4388009  60.8632506  92.2295434  51.0399453  60.7264045  92.7919966
  50.6635556  57.5470619  91.2704888  51.6152979  57.6468717  91.2917112
  50.4939007  56.7548888  91.7802972  58.9600184  61.8292746  89.5253224
  59.6903572  61.5678034  90.0860928  58.3507129  61.0921468  89.5655292
  57.0415481  59.9700609  90.1227675  56.3148645  59.8356574  89.5144167
  56.6262768  60.2777437  90.9284393  46.7102496  51.1837705  84.1397815
  47.2633535  51.6033158  84.7987838  46.9472582  50.2573453  84.1820771
  33.9516082  62.5032043  88.7821445  33.2579554  62.0885996  88.2691399
  34.6989073  62.5452580  88.1854864  46.7030229  48.2548523  84.0466902
  45.9362625  47.7007010  84.1923584  47.1140934  48.3270392  84.9081053
  55.8429856  77.2797455  94.8382214  55.8318497  76.8850254  93.9662718
  56.0050496  76.5463528  95.4315986  52.5637118  80.0634567  93.7861398
  52.2726984  80.9680198  93.6708064  53.1994102  80.1051095  94.5005468
  61.0295483  67.5483437  91.3815279  60.6978808  68.4178848  91.1576494
  60.4341096  67.2319721  92.0609310  57.5227003  79.7495983  90.7811192
  57.2227726  80.6521022  90.6726999  57.1778062  79.4828166  91.6332345
  60.9224146  72.2678523  88.4608629  60.0141024  72.1993931  88.1667390
  60.8711742  72.7450468  89.2890455  52.5047782  86.5140303  83.7482160
  52.4271812  87.4648128  83.8270640  51.9009426  86.1686176  84.4057086
  54.9965012  73.6868168  96.4043526  54.2198346  74.2462089  96.3946391
  55.6355575  74.1724951  96.9258397  62.7885793  70.4694961  90.2386503
  62.1460173  70.7627494  89.5926298  62.2840721  70.3547882  91.0439700
  58.7266724  78.6382762  94.5633655  59.1350080  78.1965173  93.8188287
  58.0043986  78.0635390  94.8167848  59.0495539  79.1983953  88.3185944
  58.4204401  79.3629667  87.6162012  58.6621201  79.6125562  89.0896908
  58.2297240  71.2359737  93.5948386  57.9858171  71.9901798  93.0582661
  58.5057170  71.6145085  94.4295633  60.1835702  77.7798350  92.2725651
  60.3952598  78.4230110  91.5960032  60.1365451  76.9460666  91.8047581
  61.2981530  80.6570305  90.4448008  62.1198974  80.2550492  90.1630690
  61.2943933  80.5538539  91.3964124  55.0638134  80.2054349  92.6008719
  55.1282566  80.6674756  93.4366891  54.3549058  79.5751713  92.7291029
  54.7786151  81.8722456  82.4687699  54.6431826  82.7173992  82.8972547
  55.3195964  82.0741734  81.7053633  51.2653491  67.9514036  99.1302054
  50.8720437  67.3980234  99.8049699  52.0819631  68.2624614  99.5208572
  50.0410433  82.5063650  85.1238378  50.2177062  83.4281615  84.9359361
  50.8367267  82.1922070  85.5532757  54.1821452  69.3671915  96.7222311
  54.9231165  69.9679068  96.6426774  54.4139375  68.6249553  96.1640354
  56.4054628  82.4946023  96.5988041  55.9618482  81.7082401  96.2808946
  57.0671841  82.6825173  95.9331932  51.1641749  84.0241824  91.1248720
  51.7149174  83.8958887  90.3525714  50.3253225  84.3236713  90.7743613
  58.5035866  82.7748822  94.6269443  58.4854341  83.5957703  94.1349712
  59.4255786  82.6502898  94.8519584  54.9608920  80.2892952  95.4692951
  55.4937257  79.5281240  95.2392259  54.4323001  79.9966604  96.2117105
  58.1278615  65.3953018  90.9986593  57.7842884  66.2854660  90.9225703
  58.4957578  65.2054676  90.1356178  59.9266281  64.6546577  86.1004330
  60.2325157  63.7943940  85.8130245  60.6518885  65.2464197  85.9003324
  54.2888298  83.5635187  86.3005165  54.2464477  83.7896033  85.3713697
  55.2050997  83.3298561  86.4490966  57.7353932  74.0319254  93.1985794
  58.0903320  74.2590727  94.0580260  58.3826063  74.3637631  92.5763050
  63.4921048  79.2214217  88.9146395  63.9257555  79.1289506  89.7629449
  64.2052629  79.1971718  88.2766411  57.2248943  82.8216311  90.4479495
  57.2785966  83.3907248  91.2157211  56.3563725  82.9918196  90.0833533
  64.3536598  79.2637918  91.4479280  64.5472488  80.1683728  91.6938555
  64.2537216  78.8045337  92.2817865  56.0072909  69.1495808  93.9469608
  55.3600824  69.8485758  93.8534084  56.7773924  69.5831952  94.3145856
  59.4151707  79.4144661  97.0220161  59.2637213  79.1855212  96.1050244
  59.4056386  80.3715262  97.0351506  54.9825375  81.0127238  89.7764965
  54.8436461  80.6446022  90.6490903  54.1939971  81.5274877  89.6048923
  55.5773527  86.1136334  81.1190501  55.7525283  85.6424377  81.9336124
  54.8906315  86.7402100  81.3471762  56.5330590  80.3908840  87.1653803
  56.1980423  80.3509610  88.0611453  56.0334536  79.7253556  86.6924213
  61.1243913  82.4463783  95.0996643  61.0656459  81.7623003  94.4327226
  61.5263432  83.1882773  94.6477269  50.1434612  89.2625697  87.8930362
  50.3831210  89.8944221  88.5709380  49.3003809  88.9113737  88.1795721
  61.1261321  80.4103367  93.3310622  60.2388099  80.0729289  93.4537021
  61.6959872  79.6786398  93.5679388  54.6562474  85.0704819  90.2971866
  54.5832645  85.8759791  90.8091170  54.2139867  85.2696785  89.4719887
  54.4452254  84.3076590  83.8074687  53.6619776  84.8498270  83.9012912
  55.1444999  84.8250569  84.2068928  57.1161158  84.9691654  92.4530024
  57.8289130  85.6039118  92.3805926  56.6251186  85.0655520  91.6370026
  52.1673071  82.7186097  93.2735595  52.8682531  83.3522580  93.4264989
  51.6968186  83.0600829  92.5131234  60.1967899  67.0840812  88.5988251
  59.2830978  67.3145039  88.7670458  60.6261000  67.1679257  89.4502284
  59.9674357  75.2730704  91.0988145  59.3145807  75.5206612  90.4440598
  60.3454737  74.4594843  90.7650623  56.9281531  85.3090398  85.2016316
  57.1103925  84.4912054  85.6644068  57.7514517  85.5258090  84.7641206
  57.2623696  84.2358583  82.4631364  57.7911463  83.7251037  81.8501526
  57.5251916  83.9201113  83.3276897  56.0161930  76.0150515  97.5854182
  55.3402567  75.9144645  98.2556558  56.8389564  75.8589729  98.0490180
  47.7640789  82.2522452  90.2066698  48.3494226  81.5066140  90.3394602
  47.5665628  82.5626409  91.0903362  50.6179444  85.2873699  85.2229140
  49.9489820  85.7719827  84.7393180  50.4792314  85.5342920  86.1372519
  54.7584713  87.3217443  91.8211798  55.3103021  87.4849064  92.5860884
  55.0990906  87.9121881  91.1491823  59.6095587  82.1478700  97.6760453
  60.1535491  82.7608659  97.1815408  59.0282432  82.7058279  98.1927466
  57.8953100  85.2699418  88.8075481  57.7704240  84.4689158  88.2986426
  58.5532191  85.7645612  88.3189451  59.9588009  83.0708439  90.4355031
  59.0118344  82.9513790  90.3633357  60.3070782  82.1830937  90.5181292
  52.3187582  68.9602577  94.2593273  52.8421984  69.2064874  95.0219582
  52.0999915  69.7922612  93.8396410  56.9634442  82.8661155  86.6359383
  56.8159404  81.9377862  86.8166953  57.7887935  82.8881245  86.1516458
  53.5240127  69.9016273  91.9442943  53.1836947  69.1024086  92.3463623
  52.8179133  70.2017983  91.3719776  54.1756599  66.9865585  90.3970266
  54.9982668  66.5126063  90.2749156  54.4194662  67.7656069  90.8968952
  54.9050524  84.8875925  93.8360453  55.2137651  84.6425071  94.7083152
  55.7026006  85.0922563  93.3479323  54.9271136  87.0413834  86.0665829
  54.4876127  86.5490213  86.7598686  55.6779253  86.4986802  85.8257905
  47.4063475  83.2325375  86.0690457  48.2321495  82.9329147  85.6889101
  47.0557527  82.4632997  86.5180246  52.3745008  82.5851843  88.1388131
  51.7525018  81.9222548  87.8390359  53.0449875  82.6112975  87.4561779
  45.6072080  81.1511701  87.0279391  44.7703989  80.7233876  86.8463392
  45.5795726  81.3444145  87.9650182  52.4469536  71.0633631  97.7320637
  52.4957691  71.9395754  97.3498407  52.9892050  70.5211024  97.1592280
  62.9324382  81.6074755  97.0121774  62.1419925  81.5898893  96.4726274
  62.6957736  82.1463048  97.7670811  63.0522257  78.4567221  94.3254503
  63.1020262  78.2917228  95.2670025  62.9436180  77.5894480  93.9352383
  51.9358515  81.1355767  81.6146592  52.0846636  81.8191231  80.9613264
  52.7424959  81.1160857  82.1296047  60.3426019  74.4398149  95.6413809
  61.2435882  74.3004614  95.3497807  60.4173994  74.6052604  96.5811987
  54.6768824  71.8165004  94.4866996  53.8072134  72.1098570  94.2149584
  54.9128305  72.4005449  95.2074259  64.5540453  80.8764162  94.5696524
  64.2625262  81.2394143  95.4059985  63.9412585  80.1631171  94.3909856
  62.8027642  75.9996777  93.0376582  63.2781763  76.1924423  92.2295434
  61.8793207  76.0555963  92.7919966  57.3807858  68.0344621  92.0032416
  57.8989802  68.7705648  91.6778905  57.0262991  68.3408614  92.8379175
  61.5029311  72.8762537  91.2704888  62.4546734  72.9760635  91.2917112
  61.3332761  72.0840806  91.7802972  59.5243690  69.9618120  91.4564289
  58.9293622  70.2423133  90.7610777  59.2393387  70.4512021  92.2281030
  63.9817389  76.0968657  90.3847187  63.9493709  75.1584658  90.5706871
  64.5918012  76.1752694  89.6513012  64.1311877  72.8879700  90.4305471
  63.6150926  72.1038157  90.2435399  65.0151826  72.5598417  90.5951990
  61.7922604  66.6320716  86.3901283  61.5947425  66.3235804  87.2744615
  62.4022309  67.3582355  86.5199213  69.7993938  77.1584664  89.5253224
  70.5297327  76.8969952  90.0860928  69.1900884  76.4213386  89.5655292
  55.7039412  79.0182456  97.8875048  56.6242421  79.1961055  98.0815095
  55.6688995  78.0738501  97.7354748  53.5729350  72.5016696  99.9200579
  53.4726077  73.4511053  99.8512670  53.3550892  72.1734935  99.0476649
  60.9275058  68.6230148  83.6476479  60.3473727  69.2814952  83.2654531
  60.6610990  67.8007492  83.2363896  59.3778624  68.0235206  85.8497799
  59.8778402  68.1351740  85.0412118  60.0214232  67.7196258  86.4898608
  53.4360620  75.9313835  98.7365640  52.9527702  76.7314195  98.9429529
  53.5221559  75.9421780  97.7833084  59.7099936  70.7830238  82.7032827
  58.8225791  71.0679889  82.4853022  60.1253925  70.6224002  81.8560104
  63.0614472  70.8076759  86.4187166  63.8374862  71.2973212  86.6911783
  62.3362606  71.2334813  86.8759036  47.7184186  85.3637989  87.7904272
  47.5838654  84.6038390  87.2242270  47.3016248  86.0878889  87.3233061
  50.8753312  86.2607306  88.0022715  50.7585696  87.2052739  87.9001405
  50.0545758  85.9580868  88.3908514  57.7321646  79.7938467  99.5389209
  58.6012806  79.9679120  99.1775844  57.2528397  80.6132884  99.4164939
  51.9007826  86.9135568  91.2178643  52.8035073  86.9459179  91.5345138
  51.6745196  85.9836019  91.2324979  53.6561428  85.6666555  87.8788722
  52.7057059  85.6668416  87.7653094  53.9593914  84.9199289  87.3624756
  69.3914122  91.5027093  88.9434484  70.0292532  91.3833841  88.2397824
  69.2734965  92.4507937  89.0022436  66.2003828  91.4554521  88.8796009
  65.8622339  91.3395586  87.9916544  67.0693596  91.0545686  88.8597015
  62.0590644  93.3089998  84.8692900  61.4955509  93.2179935  84.1009187
  61.9443039  92.4889902  85.3495392  66.6823611  92.6089373  94.8382214
  66.6712252  92.2142171  93.9662718  66.8444250  91.8755446  95.4315986
  59.6055076  94.8041189  87.7077120  60.3976367  94.4632014  87.2923419
  59.8451726  94.9136164  88.6279273  67.6390202  96.9760965  80.1807365
  66.9878182  97.5615046  79.7941378  68.4334565  97.5067160  80.2402402
  61.5645829  94.0650103  80.5794499  62.3376705  93.5179090  80.4407375
  61.9171228  94.9294352  80.7908960  63.4030872  95.3926485  93.7861398
  63.1120738  96.2972116  93.6708064  64.0387856  95.4343012  94.5005468
  64.3287079  92.7703333  90.3762758  64.9250651  92.5459356  89.6619721
  64.3862050  92.0288079  90.9788206  63.9012107  90.2242769  78.2112949
  64.1537628  89.7024290  77.4496412  62.9636666  90.0608914  78.3139632
  68.9455390  89.2278547  86.0187692  69.7318479  88.8097970  85.6678109
  69.2094094  90.1324639  86.1869340  69.1165467  94.6651397  80.7176349
  68.4811300  94.7386024  81.4297253  68.7862874  95.2544996  80.0395428
  74.3463817  89.1653780  86.9220671  75.0788989  88.5952997  87.1558500
  73.5903173  88.7775381  87.3627176  63.6208396  92.1270875  80.4137324
  63.5044654  91.4515778  81.0818408  63.7310656  91.6403249  79.5969477
  65.9639937  91.5881022  84.1184013  65.5998144  91.0611643  84.8296934
  66.8207053  91.1979491  83.9450498  71.8689238  82.8775354  91.3815279
  71.5372562  83.7470765  91.1576494  71.2734851  82.5611638  92.0609310
  68.3620757  95.0787900  90.7811192  68.0621480  95.9812939  90.6726999
  68.0171817  94.8120084  91.6332345  61.8133239  91.5301697  86.8147896
  60.8883735  91.3977911  87.0225588  62.0617652  92.3095916  87.3117839
  71.7617901  87.5970441  88.4608629  70.8534778  87.5285849  88.1667390
  71.7105497  88.0742385  89.2890455  65.5834645  89.0728579  80.0992028
  65.4634270  89.5185630  80.9377509  64.8887233  89.4213897  79.5405566
  59.1742050  91.1734971  87.6491685  59.3034431  91.4269450  88.5631097
  58.4939501  91.7662679  87.3296340  63.3441537 101.8432221  83.7482160
  63.2665567 102.7940046  83.8270640  62.7403180 101.4978093  84.4057086
  65.8358767  89.0160086  96.4043526  65.0592101  89.5754006  96.3946391
  66.4749330  89.5016869  96.9258397  73.6279547  85.7986879  90.2386503
  72.9853928  86.0919412  89.5926298  73.1234476  85.6839799  91.0439700
  71.2819711  89.5450052  80.9272362  72.1937567  89.7777439  80.7520060
  70.7729358  90.1287096  80.3647441  64.0905139  91.8245540  95.9661493
  64.8319823  92.3630583  95.6896317  63.3842124  92.4511828  96.1233045
  69.5660479  93.9674680  94.5633655  69.9743835  93.5257090  93.8188287
  68.8437740  93.3927307  94.8167848  65.9191549  88.9047287  91.9367212
  66.7652744  89.3286700  92.0801861  65.8590186  88.2480911  92.6305775
  69.8889293  94.5275871  88.3185944  69.2598156  94.6921585  87.6162012
  69.5014955  94.9417480  89.0896908  73.7678525  95.4630308  85.6730308
  73.0829563  95.8429210  85.1227341  73.8522374  96.0725635  86.4062255
  69.0690994  86.5651655  93.5948386  68.8251926  87.3193716  93.0582661
  69.3450925  86.9437003  94.4295633  71.0229457  93.1090267  92.2725651
  71.2346352  93.7522027  91.5960032  70.9759205  92.2752584  91.8047581
  68.6255686  85.7208088  89.1762223  67.7640165  86.0189342  89.4678961
  68.6518120  85.9378487  88.2443256  65.4417255  94.2650279  85.5836029
  65.9055601  94.5437982  84.7940651  65.1774053  93.3633723  85.4009120
  62.3341336  93.8121760  88.5215792  62.9042693  94.2409029  87.8833277
  62.9249448  93.5304345  89.2199978  64.3786141  90.3873431  82.3925594
  65.0810185  90.8394475  82.8599520  64.0466770  89.7457250  83.0205487
  62.8266503  88.9785188  96.7676803  62.1965163  89.6601469  97.0012200
  62.7202591  88.8668269  95.8229942  58.1211475  88.6456984  87.6942728
  57.3310529  88.9014512  87.2182838  58.6122723  89.4605322  87.7994768
  72.1375285  95.9862223  90.4448008  72.9592728  95.5842410  90.1630690
  72.1337688  95.8830457  91.3964124  60.0726221  89.0101563  84.6526204
  59.2757384  89.1220257  85.1709700  59.8451813  89.3488215  83.7867095
  65.9031888  95.5346266  92.6008719  65.9676321  95.9966673  93.4366891
  65.1942812  94.9043631  92.7291029  56.4049178  88.8987474  90.1257718
  56.6557217  89.7834484  90.3915294  56.9408727  88.7192076  89.3532810
  80.2281278  92.3300971  86.7932980  79.4744986  91.7608369  86.6376984
  80.3628819  92.2963636  87.7403615  65.6179906  97.2014374  82.4687699
  65.4825581  98.0465909  82.8972547  66.1589718  97.4033651  81.7053633
  62.1047245  83.2805954  99.1302054  61.7114191  82.7272152  99.8049699
  62.9213386  83.5916532  99.5208572  59.0709303  94.7189812  83.0415624
  59.5833824  95.5133062  83.1921189  59.7232016  94.0216102  82.9749226
  60.8804188  97.8355568  85.1238378  61.0570816  98.7573533  84.9359361
  61.6761021  97.5213987  85.5532757  65.0215206  84.6963833  96.7222311
  65.7624920  85.2970986  96.6426774  65.2533129  83.9541470  96.1640354
  60.1656544  89.8820200  95.0000541  60.0510060  88.9805457  95.3007640
  59.3101062  90.1283897  94.6485357  67.2448382  97.8237940  96.5988041
  66.8012236  97.0374319  96.2808946  67.9065596  98.0117091  95.9331932
  62.0035503  99.3533742  91.1248720  62.5542929  99.2250805  90.3525714
  61.1646979  99.6528631  90.7743613  69.3429620  98.1040740  94.6269443
  69.3248096  98.9249621  94.1349712  70.2649540  97.9794815  94.8519584
  65.8002674  95.6184870  95.4692951  66.3331011  94.8573158  95.2392259
  65.2716756  95.3258521  96.2117105  68.9672369  80.7244936  90.9986593
  68.6236639  81.6146577  90.9225703  69.3351332  80.5346593  90.1356178
  57.0358220  93.0478466  83.8175195  57.8733442  93.4575474  83.6008903
  57.2136488  92.1077908  83.7875389  68.9322652  90.7153547  79.5059028
  68.4169276  91.4858151  79.7447415  68.6599961  90.0418683  80.1292089
  66.5169763  85.5603247  84.5644266  65.6611359  85.1710098  84.3849905
  66.9296715  85.6395208  83.7044052  68.0468910  83.0949591  88.9635826
  67.5433705  83.0579726  88.1503631  68.3399517  84.0042333  89.0232483
  64.2911796  83.1788320  87.9702008  65.1564792  82.9831129  87.6107897
  64.3589305  82.9498672  88.8971364  73.9056926  93.4685901  81.4412201
  73.1286369  93.1297061  80.9967363  74.5848407  93.4738524  80.7667166
  68.7208955  88.5880639  81.3318809  68.4159091  88.9026788  82.1828952
  69.6739397  88.6662059  81.3746142  67.1655387  94.7470862  82.9811763
  66.6376749  94.0123622  82.6685000  66.6642890  95.5245538  82.7351731
  72.1448233  92.9419883  88.0978809  71.4871908  93.6319144  88.1858938
  72.9488632  93.3316315  88.4412796  70.9553692  91.2964255  86.1482751
  71.4685574  91.9294247  86.6504461  71.6054916  90.6965451  85.7826111
  65.3107987  92.5651072  75.9846736  64.4035049  92.3340326  76.1837885
  65.8079019  91.7688692  76.1720718  68.2176066 101.2748580  78.9043422
  67.5437765 101.5780276  79.5128380  68.6041888 102.0777660  78.5548879
  67.4334523  88.7713711  88.3941092  66.5157084  88.9928658  88.2362780
  67.8494666  88.8460021  87.5352799  68.2169571  90.1705126  83.5243772
  68.9641390  90.6826524  83.2150894  68.4861160  89.8489179  84.3848165
  66.4896221  92.6663667  80.5070726  65.5807440  92.3822700  80.6043196
  66.5191305  93.0862746  79.6474033  71.7215488  96.2770257  84.2761894
  71.2677815  95.4361167  84.3327084  71.0909455  96.9131655  84.6136674
  70.6648408  87.2062243  85.5062561  69.9271165  86.6939629  85.8372804
  70.9175181  86.7662624  84.6945838  70.1648427  98.1146753  85.2111712
  70.4571402  98.6751811  84.4924077  70.6747048  98.4075314  85.9664871
  70.7660035  79.9838495  86.1004330  71.0718912  79.1235858  85.8130245
  71.4912640  80.5756115  85.9003324  57.0584391  90.3869181  84.4885928
  56.8608791  89.7938542  83.7636995  56.5031055  90.0821392  85.2061867
  65.0381115  90.2792288  86.6080521  65.0929725  89.3266124  86.5322998
  64.2272317  90.4351727  87.0921820  66.1872309  94.2072411  77.8458805
  65.7491738  93.4908270  77.3864442  66.9282749  94.4348526  77.2843896
  62.9773475  88.8969348  84.3670900  62.1641340  89.1963518  84.7736092
  63.4732469  88.5025036  85.0845383  65.1282053  98.8927104  86.3005165
  65.0858231  99.1187951  85.3713697  66.0444751  98.6590479  86.4490966
  68.5747686  89.3611172  93.1985794  68.9297074  89.5882645  94.0580260
  69.2219818  89.6929549  92.5763050  74.3045423  92.4829608  83.9035123
  74.1663322  92.6731204  82.9756312  73.9481642  93.2448991  84.3603174
  62.4687549  86.4687703  89.9832135  63.1086929  86.3276462  89.2855099
  61.6365080  86.1822216  89.6070737  74.3314803  94.5506135  88.9146395
  74.7651310  94.4581424  89.7629449  75.0446384  94.5263635  88.2766411
  63.2447853  95.7690133  86.0967128  64.0388452  95.2740454  85.8949703
  62.5339546  95.2407997  85.7334833  68.0642698  98.1508229  90.4479495
  68.1179720  98.7199165  91.2157211  67.1957479  98.3210114  90.0833533
  59.5530617  89.9133215  82.1726880  58.6228205  89.8517671  82.3896843
  59.6488089  89.3909168  81.3763522  59.4716166  86.4388028  84.7605122
  59.7322983  87.3533361  84.6514283  60.2933338  85.9712471  84.9101735
  60.9441091  87.8525785  91.9303947  61.6164145  87.6443147  91.2816596
  60.1170878  87.6547871  91.4909179  75.1930353  94.5929836  91.4479280
  75.3866243  95.4975646  91.6938555  75.0930971  94.1337255  92.2817865
  66.8466663  84.4787726  93.9469608  66.1994578  85.1777676  93.8534084
  67.6167679  84.9123870  94.3145856  70.2545461  94.7436578  97.0220161
  70.1030968  94.5147130  96.1050244  70.2450141  95.7007180  97.0351506
  67.0230798  92.3168491  92.0066427  67.9522858  92.4679651  91.8335395
  66.6021828  92.4052512  91.1515074  65.8219129  96.3419155  89.7764965
  65.6830215  95.9737940  90.6490903  65.0333726  96.8566795  89.6048923
  66.4167281 101.4428252  81.1190501  66.5919037 100.9716295  81.9336124
  65.7300069 102.0694018  81.3471762  67.3724345  95.7200758  87.1653803
  67.0374177  95.6801528  88.0611453  66.8728290  95.0545474  86.6924213
  61.3468588  91.1268388  92.6906384  61.2088386  90.3948627  93.2917923
  62.2573512  91.0377288  92.4090572  70.3083536  93.0656793  77.4390862
  69.6912707  92.3403621  77.3423915  69.8400025  93.8266153  77.0957937
  63.9750889  90.8388348  92.1790063  64.6850508  90.1981540  92.1376682
  63.9320197  91.0901242  93.1016244  71.9637668  97.7755701  95.0996643
  71.9050214  97.0914921  94.4327226  72.3657186  98.5174691  94.6477269
  62.6879823  87.8253565  93.9985703  62.1517180  87.3744304  94.6507299
  62.0996532  87.9599474  93.2556167  60.9828367 104.5917615  87.8930362
  61.2224965 105.2236139  88.5709380  60.1397563 104.2405655  88.1795721
  71.9655075  95.7395285  93.3310622  71.0781854  95.4021207  93.4537021
  72.5353626  95.0078316  93.5679388  53.6184222  92.0719377  86.6553674
  54.3055262  91.7581107  86.0674689  53.4632351  92.9760741  86.3820925
  58.4218944  86.9609573  91.0838697  58.3377133  86.3535243  90.3489107
  57.6001651  87.4518591  91.0848194  65.4956228 100.3996737  90.2971866
  65.4226400 101.2051709  90.8091170  65.0533622 100.5988703  89.4719887
  65.2846008  99.6368507  83.8074687  64.5013530 100.1790187  83.9012912
  65.9838753 100.1542487  84.2068928  68.5942658  85.4463137  86.4508892
  69.0911358  84.6933099  86.1309963  67.8229640  85.4827453  85.8852102
  76.4472416  91.1503502  88.0927184  76.4362292  92.0328218  87.7221117
  75.5789795  90.7975053  87.8981721  67.9554912 100.2983571  92.4530024
  68.6682884 100.9331036  92.3805926  67.4644941 100.3947437  91.6370026
  69.6772439  94.2034824  84.0247316  68.7428718  94.3236286  83.8552020
  69.8549107  93.3007291  83.7607326  65.1777627  87.5880520  86.1780577
  64.8075415  87.0351560  86.8661483  65.6736719  86.9838653  85.6255577
  73.0644990  90.0452143  84.5597350  73.5305442  90.8780135  84.4857653
  73.5152491  89.5797125  85.2642609  63.0066826  98.0478015  93.2735595
  63.7076285  98.6814498  93.4264989  62.5361941  98.3892746  92.5131234
  71.1321221  96.3895964  81.5583502  71.4081065  96.2752559  82.4677376
  70.2625720  95.9913449  81.5195675  71.0361653  82.4132730  88.5988251
  70.1224733  82.6436957  88.7670458  71.4654754  82.4971174  89.4502284
  70.8068112  90.6022622  91.0988145  70.1539562  90.8498530  90.4440598
  71.1848491  89.7886760  90.7650623  67.7675285 100.6382315  85.2016316
  67.9497680  99.8203971  85.6644068  68.5908271 100.8550008  84.7641206
  68.1017451  99.5650500  82.4631364  68.6305217  99.0542955  81.8501526
  68.3645670  99.2493031  83.3276897  66.8555685  91.3442433  97.5854182
  66.1796322  91.2436562  98.2556558  67.6783318  91.1881647  98.0490180
  58.6034544  97.5814370  90.2066698  59.1887980  96.8358058  90.3394602
  58.4059382  97.8918326  91.0903362  61.4573199 100.6165617  85.2229140
  60.7883574 101.1011745  84.7393180  61.3186069 100.8634838  86.1372519
  53.1952198  90.1519970  88.9271141  53.2336298  89.6183561  89.7208259
  52.6892491  89.6255175  88.3082118  65.5978467 102.6509361  91.8211798
  66.1496775 102.8140982  92.5860884  65.9384661 103.2413798  91.1491823
  60.5742961  84.9984510  92.4233683  60.6384287  85.8599341  92.0111081
  60.5110081  84.3858512  91.6906042  60.0495233  87.0707643  96.0706717
  60.6767272  86.6884720  96.6844242  59.1923152  86.8521845  96.4362410
  70.4489342  97.4770618  97.6760453  70.9929246  98.0900576  97.1815408
  69.8676187  98.0350197  98.1927466  56.8260776  88.8784072  82.0025072
  57.1214217  87.9694750  81.9492126  55.9248812  88.8571812  81.6806075
  68.7346855 100.5991336  88.8075481  68.6097994  99.7981076  88.2986426
  69.3925946 101.0937530  88.3189451  60.3555023  86.9540069  87.9852621
  59.6341609  87.5676036  87.8460094  61.1448279  87.4897833  87.9069267
  70.7981763  98.4000356  90.4355031  69.8512099  98.2805707  90.3633357
  71.1464536  97.5122854  90.5181292  63.1581336  84.2894495  94.2593273
  63.6815738  84.5356792  95.0219582  62.9393670  85.1214530  93.8396410
  58.5548618  86.5598170  82.1264397  58.2261324  85.6795549  81.9439503
  58.9087988  86.5045838  83.0140787  67.8028196  98.1953072  86.6359383
  67.6553159  97.2669780  86.8166953  68.6281690  98.2173163  86.1516458
  61.6690441  86.8471140  82.4939875  62.0086513  87.3757061  81.7718483
  62.1162561  87.1851546  83.2698442  71.4062318  99.0181631  87.7224256
  72.3308866  98.8124493  87.5848707  71.2377622  98.7698032  88.6313597
  64.3633881  85.2308190  91.9442943  64.0230702  84.4316003  92.3463623
  63.6572888  85.5309901  91.3719776  65.0150353  82.3157503  90.3970266
  65.8376423  81.8417981  90.2749156  65.2588417  83.0947986  90.8968952
  62.5388932  89.0076623  88.2062245  62.3933513  89.3216926  89.0986526
  62.0614136  89.6261524  87.6533143  64.3985315  85.9979171  88.2543134
  64.3846884  85.1020265  87.9175432  65.1157743  86.0049835  88.8881420
  66.2511446  86.4316512  90.2996262  65.9929223  87.3533582  90.2980592
  65.7196486  86.0346946  90.9896726  71.1957634  99.5367299  83.0786347
  71.3694512  98.9713721  82.3260200  71.6886526 100.3368194  82.8965837
  57.0134594  91.5481968  91.1449906  56.4688062  92.3241776  91.2770180
  57.8913944  91.8952772  90.9869027  66.6713401  82.5648462  86.6597424
  66.6935098  82.6287795  85.7049404  67.0881460  81.7252971  86.8537930
  77.0497026  92.3003722  84.6976647  77.4928172  91.5511047  84.2995770
  76.1723536  92.2913858  84.3150379  72.1832807  98.8534063  80.1783245
  72.8783712  99.4740756  80.3970560  72.5255957  98.0029414  80.4535623
  57.8000616  90.6751864  94.0380063  57.0582352  90.8234499  94.6244693
  57.4793360  90.9360130  93.1746812  74.0824230  96.3033769  81.7070576
  74.6075554  96.6421041  80.9819896  73.9946583  95.3680784  81.5233711
  65.7444279 100.2167842  93.8360453  66.0531405  99.9716989  94.7083152
  66.5419761 100.4214481  93.3479323  65.7664891 102.3705752  86.0665829
  65.3269881 101.8782131  86.7598686  66.5173008 101.8278720  85.8257905
  58.2457230  98.5617293  86.0690457  59.0715250  98.2621065  85.6889101
  57.8951282  97.7924915  86.5180246  63.2138763  97.9143761  88.1388131
  62.5918772  97.2514466  87.8390359  63.8843630  97.9404893  87.4561779
  56.4465835  96.4803619  87.0279391  55.6097743  96.0525794  86.8463392
  56.4189480  96.6736062  87.9650182  63.2863290  86.3925549  97.7320637
  63.3351446  87.2687672  97.3498407  63.8285805  85.8502942  97.1592280
  73.7718136  96.9366672  97.0121774  72.9813680  96.9190811  96.4726274
  73.5351491  97.4754966  97.7670811  73.8916011  93.7859139  94.3254503
  73.9414016  93.6209146  95.2670025  73.7829934  92.9186398  93.9352383
  62.7752270  96.4647684  81.6146592  62.9240390  97.1483149  80.9613264
  63.5818713  96.4452774  82.1296047  71.1819774  89.7690067  95.6413809
  72.0829636  89.6296531  95.3497807  71.2567748  89.9344521  96.5811987
  65.5162579  87.1456921  94.4866996  64.6465888  87.4390487  94.2149584
  65.7522059  87.7297366  95.2074259  75.3934208  96.2056080  94.5696524
  75.1019016  96.5686061  95.4059985  74.7806339  95.4923088  94.3909856
  76.5929890  93.7708960  87.0899094  77.4276782  94.2098764  87.2536655
  76.7289019  93.2947613  86.2707340  73.6421396  91.3288695  93.0376582
  74.1175518  91.5216341  92.2295434  72.7186962  91.3847881  92.7919966
  60.5304903  92.4912862  82.6207660  60.2850945  91.5875192  82.8187871
  60.7000817  92.4930012  81.6787138  68.2201613  83.3636538  92.0032416
  68.7383557  84.0997565  91.6778905  67.8656745  83.6700532  92.8379175
  59.8000550  88.2241219  80.1193822  59.1069795  88.2985574  79.4633858
  59.5552302  87.4601563  80.6415339  68.4714207  79.7836821  87.5233313
  68.7515961  79.1160010  88.1493739  69.2564814  79.9765916  87.0107977
  66.2747675  98.9595815  79.0858339  65.7021642  99.5786002  78.6328811
  66.8480469  99.5095176  79.6198261  72.3423065  88.2054455  91.2704888
  73.2940488  88.3052552  91.2917112  72.1726516  87.4132723  91.7802972
  70.3637445  85.2910038  91.4564289  69.7687377  85.5715051  90.7610777
  70.0787141  85.7803939  92.2281030  69.4944935  99.2432965  80.2166921
  70.4275608  99.1778527  80.4199797  69.4068148 100.0789232  79.7581454
  72.1232952  98.5598835  77.1770869  72.0446583  98.2258699  78.0706627
  72.9442619  99.0520603  77.1762341  74.8211143  91.4260574  90.3847187
  74.7887463  90.4876575  90.5706871  75.4311767  91.5044611  89.6513012
  66.6594474  90.2956627  76.4274391  67.6053579  90.1662836  76.4962810
  66.2808719  89.5571289  76.9043820  74.9705631  88.2171618  90.4305471
  74.4544680  87.4330075  90.2435399  75.8545580  87.8890335  90.5951990
  72.6316358  81.9612633  86.3901283  72.4341180  81.6527722  87.2744615
  73.2416064  82.6874272  86.5199213  80.6387693  92.4876581  89.5253224
  81.3691081  92.2261869  90.0860928  80.0294638  91.7505303  89.5655292
  78.7202990  90.6284444  90.1227675  77.9936154  90.4940409  89.5144167
  78.3050277  90.9361273  90.9284393  66.5433166  94.3474374  97.8875048
  67.4636176  94.5252973  98.0815095  66.5082749  93.4030419  97.7354748
  55.7615331  89.5412967  86.8128323  55.4418116  88.6878275  86.5202697
  55.2148760  89.7561545  87.5686290  59.5395239  92.2575408  90.5297830
  59.7581249  93.1892516  90.5485863  59.9521013  91.8983383  91.3152633
  64.4123104  87.8308614  99.9200579  64.3119831  88.7802971  99.8512670
  64.1944646  87.5026853  99.0476649  55.6303591  93.1615879  88.7821445
  54.9367063  92.7469832  88.2691399  56.3776582  93.2036415  88.1854864
  71.7668812  83.9522066  83.6476479  71.1867481  84.6106870  83.2654531
  71.5004745  83.1299410  83.2363896  70.2172378  83.3527123  85.8497799
  70.7172157  83.4643658  85.0412118  70.8607986  83.0488176  86.4898608
  64.2754374  91.2605753  98.7365640  63.7921456  92.0606113  98.9429529
  64.3615313  91.2713698  97.7833084  57.5440334  93.0934133  86.6587460
  57.5211022  93.1921820  85.7069343  57.8540970  93.9399283  86.9804626
  60.2027712  95.1510288  90.7734074  61.1570965  95.1194230  90.7064006
  60.0040235  94.6900911  91.5884300  60.7927094  93.7211404  93.3404872
  61.6119983  94.2155482  93.3639709  61.0663902  92.8043372  93.3122439
  70.5493690  86.1122156  82.7032827  69.6619545  86.3971807  82.4853022
  70.9647679  85.9515919  81.8560104  73.9008226  86.1368677  86.4187166
  74.6768616  86.6265129  86.6911783  73.1756360  86.5626731  86.8759036
  76.3380785  86.8496296  87.4761107  76.9325276  86.6092032  86.7654415
  76.4107369  86.1303427  88.1034643  58.5577941 100.6929907  87.7904272
  58.4232409  99.9330308  87.2242270  58.1410003 101.4170807  87.3233061
  69.6936904  95.8766831  76.7980847  70.3972754  96.0816833  77.4138503
  68.9699552  96.4443592  77.0629931  70.5234714  91.6276692  82.9183117
  70.4669915  92.0845243  82.0790750  71.0763056  90.8667376  82.7405960
  74.3339520  87.4166424  83.7433237  74.0776454  87.0163059  84.5741445
  73.7092388  88.1310218  83.6183376  78.6451858  90.1562497  86.2504528
  78.0851416  90.2255686  87.0236090  78.0395361  89.9803482  85.5304024
  61.7147066 101.5899224  88.0022715  61.5979451 102.5344657  87.9001405
  60.8939513 101.2872786  88.3908514  71.6023601  96.3149360  78.8479307
  72.4369205  95.8830558  78.6656782  71.4407944  96.1431373  79.7756202
  71.2569493  92.8181473  80.2135647  71.2018297  92.6525745  79.2724091
  70.6315548  93.5257506  80.3697836  56.0462008  88.0549537  94.0397069
  56.6920872  87.5448491  94.5284294  55.8379159  88.7918219  94.6140494
  68.5715400  95.1230385  99.5389209  69.4406560  95.2971037  99.1775844
  68.0922152  95.9424802  99.4164939  62.7401581 102.2427486  91.2178643
  63.6428827 102.2751096  91.5345138  62.5138951 101.3127937  91.2324979
  64.4955183 100.9958473  87.8788722  63.5450814 100.9960334  87.7653094
  64.7987669 100.2491207  87.3624756  60.3859499  85.2017155  98.1372083
  61.2490961  84.8453959  98.3475408  59.8124910  84.8631049  98.8247487
  80.2307876 106.8319011  88.9434484  80.8686286 106.7125758  88.2397824
  80.1128719 107.7799855  89.0022436  77.0397582 106.7846439  88.8796009
  76.7016094 106.6687504  87.9916544  77.9087351 106.3837604  88.8597015
  72.8984398 108.6381915  84.8692900  72.3349263 108.5471852  84.1009187
  72.7836793 107.8181820  85.3495392  77.5217365 107.9381291  94.8382214
  77.5106006 107.5434089  93.9662718  77.6838005 107.2047363  95.4315986
  70.4448830 110.1333107  87.7077120  71.2370122 109.7923932  87.2923419
  70.6845480 110.2428082  88.6279273  78.4783957 112.3052883  80.1807365
  77.8271937 112.8906964  79.7941378  79.2728320 112.8359078  80.2402402
  72.4039584 109.3942020  80.5794499  73.1770460 108.8471007  80.4407375
  72.7564983 110.2586270  80.7908960  74.2424627 110.7218403  93.7861398
  73.9514492 111.6264033  93.6708064  74.8781611 110.7634930  94.5005468
  75.1680833 108.0995251  90.3762758  75.7644406 107.8751273  89.6619721
  75.2255805 107.3579997  90.9788206  74.7405862 105.5534686  78.2112949
  74.9931382 105.0316208  77.4496412  73.8030421 105.3900832  78.3139632
  79.7849145 104.5570465  86.0187692  80.5712234 104.1389888  85.6678109
  80.0487849 105.4616557  86.1869340  79.9559222 109.9943315  80.7176349
  79.3205055 110.0677942  81.4297253  79.6256628 110.5836914  80.0395428
  85.1857572 104.4945698  86.9220671  85.9182744 103.9244915  87.1558500
  84.4296927 104.1067298  87.3627176  74.4602151 107.4562792  80.4137324
  74.3438409 106.7807696  81.0818408  74.5704410 106.9695166  79.5969477
  76.8033691 106.9172939  84.1184013  76.4391899 106.3903560  84.8296934
  77.6600807 106.5271409  83.9450498  82.7082992  98.2067272  91.3815279
  82.3766317  99.0762683  91.1576494  82.1128605  97.8903556  92.0609310
  76.4439178 101.9462839  79.1145361  76.6113581 102.8143076  79.4815833
  76.2536347 102.1090121  78.1906651  79.2014512 110.4079818  90.7811192
  78.9015235 111.3104857  90.6726999  78.8565571 110.1412001  91.6332345
  72.6526993 106.8593615  86.8147896  71.7277490 106.7269829  87.0225588
  72.9011406 107.6387834  87.3117839  82.6011655 102.9262358  88.4608629
  81.6928533 102.8577767  88.1667390  82.5499251 103.4034303  89.2890455
  76.4228399 104.4020497  80.0992028  76.3028024 104.8477547  80.9377509
  75.7280988 104.7505814  79.5405566  70.0135804 106.5026888  87.6491685
  70.1428185 106.7561367  88.5631097  69.3333255 107.0954596  87.3296340
  74.1835291 117.1724138  83.7482160  74.1059321 118.1231963  83.8270640
  73.5796935 116.8270011  84.4057086  76.6752521 104.3452004  96.4043526
  75.8985855 104.9045924  96.3946391  77.3143084 104.8308787  96.9258397
  84.4673302 101.1278797  90.2386503  83.8247682 101.4211330  89.5926298
  83.9628230 101.0131717  91.0439700  82.1213465 104.8741970  80.9272362
  83.0331322 105.1069357  80.7520060  81.6123113 105.4579014  80.3647441
  74.9298893 107.1537457  95.9661493  75.6713578 107.6922501  95.6896317
  74.2235879 107.7803746  96.1233045  80.4054233 109.2966598  94.5633655
  80.8137589 108.8549008  93.8188287  79.6831495 108.7219225  94.8167848
  76.7585303 104.2339204  91.9367212  77.6046498 104.6578618  92.0801861
  76.6983941 103.5772829  92.6305775  80.7283048 109.8567788  88.3185944
  80.0991910 110.0213502  87.6162012  80.3408710 110.2709398  89.0896908
  84.6072280 110.7922226  85.6730308  83.9223318 111.1721127  85.1227341
  84.6916129 111.4017553  86.4062255  79.9084748 101.8943573  93.5948386
  79.6645680 102.6485633  93.0582661  80.1844679 102.2728920  94.4295633
  81.8623211 108.4382185  92.2725651  82.0740107 109.0813945  91.5960032
  81.8152960 107.6044502  91.8047581  79.4649440 101.0500006  89.1762223
  78.6033919 101.3481259  89.4678961  79.4911875 101.2670405  88.2443256
  76.2811010 109.5942196  85.5836029  76.7449355 109.8729899  84.7940651
  76.0167808 108.6925641  85.4009120  73.1735091 109.1413678  88.5215792
  73.7436448 109.5700946  87.8833277  73.7643203 108.8596263  89.2199978
  75.2179896 105.7165349  82.3925594  75.9203939 106.1686392  82.8599520
  74.8860524 105.0749168  83.0205487  73.6660257 104.3077105  96.7676803
  73.0358918 104.9893386  97.0012200  73.5596345 104.1960187  95.8229942
  68.9605230 103.9748901  87.6942728  68.1704284 104.2306430  87.2182838
  69.4516477 104.7897239  87.7994768  82.9769039 111.3154141  90.4448008
  83.7986483 110.9134328  90.1630690  82.9731442 111.2122375  91.3964124
  70.9119975 104.3393481  84.6526204  70.1151138 104.4512175  85.1709700
  70.6845567 104.6780133  83.7867095  76.7425643 110.8638184  92.6008719
  76.8070075 111.3258591  93.4366891  76.0336567 110.2335549  92.7291029
  67.2442933 104.2279392  90.1257718  67.4950971 105.1126402  90.3915294
  67.7802481 104.0483993  89.3532810  91.0675032 107.6592889  86.7932980
  90.3138741 107.0900287  86.6376984  91.2022573 107.6255554  87.7403615
  76.4573660 112.5306291  82.4687699  76.3219335 113.3757827  82.8972547
  76.9983473 112.7325569  81.7053633  72.9441000  98.6097871  99.1302054
  72.5507946  98.0564070  99.8049699  73.7607140  98.9208450  99.5208572
  69.9103058 110.0481729  83.0415624  70.4227578 110.8424980  83.1921189
  70.5625771 109.3508020  82.9749226  71.7197942 113.1647486  85.1238378
  71.8964571 114.0865450  84.9359361  72.5154776 112.8505905  85.5532757
  75.8608961 100.0255750  96.7222311  76.6018674 100.6262903  96.6426774
  76.0926884  99.2833388  96.1640354  71.0050299 105.2112118  95.0000541
  70.8903814 104.3097375  95.3007640  70.1494817 105.4575814  94.6485357
  78.0842137 113.1529858  96.5988041  77.6405991 112.3666236  96.2808946
  78.7459350 113.3409008  95.9331932  72.8429258 114.6825659  91.1248720
  73.3936683 114.5542723  90.3525714  72.0040734 114.9820548  90.7743613
  80.1823375 113.4332658  94.6269443  80.1641850 114.2541539  94.1349712
  81.1043295 113.3086733  94.8519584  76.6396429 110.9476787  95.4692951
  77.1724766 110.1865075  95.2392259  76.1110510 110.6550439  96.2117105
  79.8066124  96.0536853  90.9986593  79.4630393  96.9438495  90.9225703
  80.1745086  95.8638511  90.1356178  67.8751974 108.3770384  83.8175195
  68.7127196 108.7867392  83.6008903  68.0530242 107.4369826  83.7875389
  79.7716407 106.0445464  79.5059028  79.2563030 106.8150069  79.7447415
  79.4993715 105.3710600  80.1292089  77.3563518 100.8895165  84.5644266
  76.5005114 100.5002016  84.3849905  77.7690469 100.9687126  83.7044052
  78.8862664  98.4241508  88.9635826  78.3827460  98.3871644  88.1503631
  79.1793271  99.3334251  89.0232483  75.1305550  98.5080238  87.9702008
  75.9958547  98.3123047  87.6107897  75.1983059  98.2790590  88.8971364
  84.7450681 108.7977819  81.4412201  83.9680124 108.4588978  80.9967363
  85.4242162 108.8030442  80.7667166  79.5602710 103.9172556  81.3318809
  79.2552845 104.2318706  82.1828952  80.5133152 103.9953976  81.3746142
  78.0049142 110.0762780  82.9811763  77.4770503 109.3415539  82.6685000
  77.5036644 110.8537456  82.7351731  82.9841988 108.2711800  88.0978809
  82.3265662 108.9611062  88.1858938  83.7882387 108.6608232  88.4412796
  72.7367869 100.7382446  85.3418375  73.3111621 100.5157628  84.6091567
  73.3238852 100.8071141  86.0946976  81.7947446 106.6256173  86.1482751
  82.3079328 107.2586165  86.6504461  82.4448670 106.0257368  85.7826111
  73.0637456 102.7686907  79.3614260  72.2274769 103.1061594  79.6823535
  72.9242226 102.6335887  78.4241397  75.0390537  97.6123695  84.0693444
  74.3854949  97.2972712  83.4450059  74.9971011  96.9899435  84.7953267
  76.1501742 107.8942990  75.9846736  75.2428804 107.6632243  76.1837885
  76.6472774 107.0980609  76.1720718  79.0569821 116.6040497  78.9043422
  78.3831519 116.9072194  79.5128380  79.4435643 117.4069578  78.5548879
  78.2728277 104.1005628  88.3941092  77.3550839 104.3220575  88.2362780
  78.6888421 104.1751939  87.5352799  79.0563325 105.4997044  83.5243772
  79.8035144 106.0118441  83.2150894  79.3254915 105.1781097  84.3848165
  77.3289975 107.9955585  80.5070726  76.4201194 107.7114618  80.6043196
  77.3585059 108.4154663  79.6474033  82.5609243 111.6062174  84.2761894
  82.1071570 110.7653084  84.3327084  81.9303209 112.2423573  84.6136674
  81.5042162 102.5354160  85.5062561  80.7664919 102.0231547  85.8372804
  81.7568936 102.0954542  84.6945838  81.0042182 113.4438671  85.2111712
  81.2965156 114.0043728  84.4924077  81.5140802 113.7367232  85.9664871
  81.6053790  95.3130412  86.1004330  81.9112666  94.4527776  85.8130245
  82.3306394  95.9048033  85.9003324  67.8978146 105.7161099  84.4885928
  67.7002545 105.1230460  83.7636995  67.3424810 105.4113309  85.2061867
  75.8774869 105.6084205  86.6080521  75.9323479 104.6558042  86.5322998
  75.0666071 105.7643645  87.0921820  77.0266063 109.5364329  77.8458805
  76.5885493 108.8200187  77.3864442  77.7676504 109.7640443  77.2843896
  73.8167229 104.2261265  84.3670900  73.0035095 104.5255436  84.7736092
  74.3126223 103.8316954  85.0845383  75.9675807 114.2219022  86.3005165
  75.9251986 114.4479868  85.3713697  76.8838506 113.9882397  86.4490966
  79.4141441 104.6903090  93.1985794  79.7690829 104.9174563  94.0580260
  80.0613572 105.0221466  92.5763050  85.1439178 107.8121526  83.9035123
  85.0057076 108.0023122  82.9756312  84.7875397 108.5740908  84.3603174
  73.3081304 101.7979621  89.9832135  73.9480683 101.6568380  89.2855099
  72.4758835 101.5114134  89.6070737  85.1708557 109.8798053  88.9146395
  85.6045064 109.7873342  89.7629449  85.8840138 109.8555553  88.2766411
  74.0841608 111.0982051  86.0967128  74.8782206 110.6032371  85.8949703
  73.3733300 110.5699914  85.7334833  78.9036452 113.4800147  90.4479495
  78.9573475 114.0491083  91.2157211  78.0351234 113.6502032  90.0833533
  70.3924371 105.2425133  82.1726880  69.4621959 105.1809588  82.3896843
  70.4881843 104.7201086  81.3763522  70.3109920 101.7679946  84.7605122
  70.5716738 102.6825279  84.6514283  71.1327093 101.3004388  84.9101735
  71.7834846 103.1817703  91.9303947  72.4557899 102.9735065  91.2816596
  70.9564632 102.9839789  91.4909179  86.0324107 109.9221753  91.4479280
  86.2259997 110.8267564  91.6938555  85.9324725 109.4629172  92.2817865
  77.6860418  99.8079644  93.9469608  77.0388333 100.5069593  93.8534084
  78.4561433 100.2415788  94.3145856  81.0939216 110.0728496  97.0220161
  80.9424722 109.8439048  96.1050244  81.0843895 111.0299097  97.0351506
  77.8624552 107.6460409  92.0066427  78.7916612 107.7971568  91.8335395
  77.4415582 107.7344430  91.1515074  76.6612884 111.6711073  89.7764965
  76.5223970 111.3029858  90.6490903  75.8727480 112.1858713  89.6048923
  77.2561036 116.7720170  81.1190501  77.4312792 116.3008213  81.9336124
  76.5693824 117.3985936  81.3471762  78.2118099 111.0492676  87.1653803
  77.8767932 111.0093446  88.0611453  77.7122045 110.3837392  86.6924213
  72.1862343 106.4560306  92.6906384  72.0482141 105.7240545  93.2917923
  73.0967266 106.3669206  92.4090572  81.1477291 108.3948710  77.4390862
  80.5306461 107.6695538  77.3423915  80.6793779 109.1558070  77.0957937
  74.8144644 106.1680265  92.1790063  75.5244262 105.5273457  92.1376682
  74.7713952 106.4193160  93.1016244  82.8031422 113.1047619  95.0996643
  82.7443968 112.4206839  94.4327226  83.2050941 113.8466609  94.6477269
  73.5273578 103.1545483  93.9985703  72.9910935 102.7036222  94.6507299
  72.9390286 103.2891392  93.2556167  71.8222121 119.9209532  87.8930362
  72.0618719 120.5528057  88.5709380  70.9791318 119.5697572  88.1795721
  72.9375837 102.6134135  76.5612167  72.0605303 102.4922935  76.1974413
  73.4133590 101.8220213  76.3091055  82.8048830 111.0687202  93.3310622
  81.9175608 110.7313124  93.4537021  83.3747381 110.3370234  93.5679388
  64.4577977 107.4011294  86.6553674  65.1449017 107.0873024  86.0674689
  64.3026105 108.3052659  86.3820925  69.2612699 102.2901491  91.0838697
  69.1770888 101.6827160  90.3489107  68.4395405 102.7810509  91.0848194
  76.3349983 115.7288655  90.2971866  76.2620154 116.5343626  90.8091170
  75.8927376 115.9280621  89.4719887  76.1239763 114.9660425  83.8074687
  75.3407284 115.5082105  83.9012912  76.8232508 115.4834405  84.2068928
  79.4336413 100.7755054  86.4508892  79.9305112 100.0225017  86.1309963
  78.6623394 100.8119371  85.8852102  87.2866170 106.4795420  88.0927184
  87.2756046 107.3620135  87.7221117  86.4183550 106.1266971  87.8981721
  78.7948667 115.6275489  92.4530024  79.5076639 116.2622954  92.3805926
  78.3038695 115.7239355  91.6370026  80.5166193 109.5326742  84.0247316
  79.5822472 109.6528204  83.8552020  80.6942862 108.6299208  83.7607326
  76.0171381 102.9172437  86.1780577  75.6469169 102.3643478  86.8661483
  76.5130474 102.3130571  85.6255577  83.9038745 105.3744061  84.5597350
  84.3699197 106.2072052  84.4857653  84.3546245 104.9089042  85.2642609
  73.8460580 113.3769932  93.2735595  74.5470040 114.0106415  93.4264989
  73.3755695 113.7184664  92.5131234  81.9714976 111.7187882  81.5583502
  82.2474820 111.6044477  82.4677376  81.1019475 111.3205367  81.5195675
  81.8755408  97.7424648  88.5988251  80.9618487  97.9728875  88.7670458
  82.3048509  97.8263092  89.4502284  81.6461866 105.9314540  91.0988145
  80.9933316 106.1790447  90.4440598  82.0242246 105.1178678  90.7650623
  78.6069040 115.9674233  85.2016316  78.7891434 115.1495889  85.6644068
  79.4302026 116.1841925  84.7641206  78.9411205 114.8942418  82.4631364
  79.4698972 114.3834873  81.8501526  79.2039425 114.5784948  83.3276897
  77.6949439 106.6734351  97.5854182  77.0190076 106.5728480  98.2556558
  78.5177073 106.5173565  98.0490180  69.4428298 112.9106287  90.2066698
  70.0281735 112.1649975  90.3394602  69.2453137 113.2210244  91.0903362
  72.2966953 115.9457535  85.2229140  71.6277329 116.4303662  84.7393180
  72.1579823 116.1926755  86.1372519  64.0345953 105.4811888  88.9271141
  64.0730052 104.9475478  89.7208259  63.5286246 104.9547093  88.3082118
  76.4372222 117.9801278  91.8211798  76.9890530 118.1432900  92.5860884
  76.7778415 118.5705716  91.1491823  71.4136715 100.3276428  92.4233683
  71.4778042 101.1891259  92.0111081  71.3503835  99.7150430  91.6906042
  70.8888988 102.3999561  96.0706717  71.5161026 102.0176638  96.6844242
  70.0316907 102.1813763  96.4362410  67.6654530 104.2075990  82.0025072
  67.9607971 103.2986668  81.9492126  66.7642566 104.1863729  81.6806075
  79.5740609 115.9283254  88.8075481  79.4491749 115.1272994  88.2986426
  80.2319700 116.4229447  88.3189451  71.1948777 102.2831986  87.9852621
  70.4735363 102.8967954  87.8460094  71.9842033 102.8189751  87.9069267
  81.6375518 113.7292274  90.4355031  80.6905853 113.6097625  90.3633357
  81.9858291 112.8414772  90.5181292  73.9975091  99.6186413  94.2593273
  74.5209493  99.8648709  95.0219582  73.7787424 100.4506448  93.8396410
  69.3942372 101.8890087  82.1264397  69.0655078 101.0087466  81.9439503
  69.7481743 101.8337756  83.0140787  78.6421951 113.5244990  86.6359383
  78.4946913 112.5961698  86.8166953  79.4675444 113.5465081  86.1516458
  72.5084195 102.1763057  82.4939875  72.8480268 102.7048978  81.7718483
  72.9556316 102.5143463  83.2698442  82.2456073 114.3473549  87.7224256
  83.1702620 114.1416410  87.5848707  82.0771376 114.0989950  88.6313597
  75.2027636 100.5600108  91.9442943  74.8624456  99.7607921  92.3463623
  74.4966642 100.8601819  91.3719776  75.8544108  97.6449420  90.3970266
  76.6770177  97.1709899  90.2749156  76.0982171  98.4239904  90.8968952
  74.4952342 100.6737679  80.6933168  75.2160705 101.0518932  80.1896885
  73.8717646 101.3926556  80.7968146  78.6383465 101.3782828  81.6291500
  78.8547080 102.2607466  81.3280328  78.1577532 100.9869041  80.8997142
  73.3782687 104.3368541  88.2062245  73.2327267 104.6508844  89.0986526
  72.9007890 104.9553441  87.6533143  75.2379069 101.3271089  88.2543134
  75.2240638 100.4312182  87.9175432  75.9551498 101.3341753  88.8881420
  77.0905200 101.7608429  90.2996262  76.8322978 102.6825500  90.2980592
  76.5590241 101.3638864  90.9896726  82.0351389 114.8659216  83.0786347
  82.2088266 114.3005639  82.3260200  82.5280280 115.6660111  82.8965837
  67.8528349 106.8773885  91.1449906  67.3081817 107.6533693  91.2770180
  68.7307699 107.2244690  90.9869027  74.6415965 100.2085469  83.5230704
  74.7631877  99.2802115  83.7221592  74.3518008 100.2224155  82.6109020
  77.5107156  97.8940380  86.6597424  77.5328853  97.9579713  85.7049404
  77.9275215  97.0544888  86.8537930  87.8890780 107.6295639  84.6976647
  88.3321926 106.8802964  84.2995770  87.0117290 107.6205776  84.3150379
  83.0226561 114.1825981  80.1783245  83.7177466 114.8032673  80.3970560
  83.3649712 113.3321332  80.4535623  68.6394371 106.0043782  94.0380063
  67.8976107 106.1526417  94.6244693  68.3187115 106.2652047  93.1746812
  84.9217985 111.6325686  81.7070576  85.4469309 111.9712959  80.9819896
  84.8340337 110.6972702  81.5233711  76.5838033 115.5459760  93.8360453
  76.8925160 115.3008907  94.7083152  77.3813515 115.7506398  93.3479323
  76.6058645 117.6997670  86.0665829  76.1663636 117.2074048  86.7598686
  77.3566762 117.1570637  85.8257905  69.0850984 113.8909210  86.0690457
  69.9109004 113.5912982  85.6889101  68.7345036 113.1216833  86.5180246
  74.0532517 113.2435679  88.1388131  73.4312527 112.5806384  87.8390359
  74.7237384 113.2696810  87.4561779  67.2859589 111.8095537  87.0279391
  66.4491498 111.3817711  86.8463392  67.2583235 112.0027980  87.9650182
  74.1257045 101.7217467  97.7320637  74.1745200 102.5979589  97.3498407
  74.6679559 101.1794860  97.1592280  84.7309766 109.1151056  94.3254503
  84.7807771 108.9501064  95.2670025  84.6223689 108.2478315  93.9352383
  73.6146024 111.7939602  81.6146592  73.7634145 112.4775066  80.9613264
  74.4212468 111.7744692  82.1296047  82.0213528 105.0981984  95.6413809
  82.9223391 104.9588449  95.3497807  82.0961503 105.2636439  96.5811987
  76.3556333 102.4748839  94.4866996  75.4859643 102.7682405  94.2149584
  76.5915814 103.0589284  95.2074259  86.2327962 111.5347998  94.5696524
  85.9412771 111.8977978  95.4059985  85.6200094 110.8215006  94.3909856
  87.4323645 109.1000878  87.0899094  88.2670536 109.5390682  87.2536655
  87.5682774 108.6239531  86.2707340  84.4815151 106.6580612  93.0376582
  84.9569272 106.8508259  92.2295434  83.5580716 106.7139798  92.7919966
  71.3698657 107.8204780  82.6207660  71.1244699 106.9167110  82.8187871
  71.5394572 107.8221930  81.6787138  79.0595367  98.6928456  92.0032416
  79.5777311  99.4289483  91.6778905  78.7050500  98.9992449  92.8379175
  70.6394305 103.5533137  80.1193822  69.9463550 103.6277492  79.4633858
  70.3946057 102.7893481  80.6415339  79.3107961  95.1128738  87.5233313
  79.5909715  94.4451928  88.1493739  80.0958568  95.3057834  87.0107977
  77.1141430 114.2887732  79.0858339  76.5415397 114.9077920  78.6328811
  77.6874224 114.8387094  79.6198261  83.1816820 103.5346372  91.2704888
  84.1334243 103.6344470  91.2917112  83.0120270 102.7424641  91.7802972
  81.2031199 100.6201956  91.4564289  80.6081131 100.9006968  90.7610777
  80.9180896 101.1095857  92.2281030  80.3338690 114.5724883  80.2166921
  81.2669363 114.5070444  80.4199797  80.2461902 115.4081149  79.7581454
  82.9626706 113.8890753  77.1770869  82.8840338 113.5550616  78.0706627
  83.7836373 114.3812521  77.1762341  85.6604897 106.7552492  90.3847187
  85.6281218 105.8168493  90.5706871  86.2705521 106.8336529  89.6513012
  77.4988228 105.6248545  76.4274391  78.4447333 105.4954753  76.4962810
  77.1202473 104.8863207  76.9043820  85.8099386 103.5463536  90.4305471
  85.2938435 102.7621992  90.2435399  86.6939335 103.2182252  90.5951990
  83.4710113  97.2904551  86.3901283  83.2734934  96.9819639  87.2744615
  84.0809818  98.0166190  86.5199213  91.4781447 107.8168499  89.5253224
  92.2084836 107.5553787  90.0860928  90.8688393 107.0797221  89.5655292
  89.5596744 105.9576362  90.1227675  88.8329908 105.8232327  89.5144167
  89.1444031 106.2653190  90.9284393  77.3826921 109.6766291  97.8875048
  78.3029930 109.8544890  98.0815095  77.3476504 108.7322337  97.7354748
  75.6831146 103.5498522  76.3629277  74.7762601 103.2531634  76.4391990
  75.9607127 103.2528340  75.4963563  66.6009086 104.8704885  86.8128323
  66.2811870 104.0170193  86.5202697  66.0542514 105.0853463  87.5686290
  70.3788993 107.5867326  90.5297830  70.5975003 108.5184434  90.5485863
  70.7914767 107.2275300  91.3152633  77.2993211  98.0935411  82.5173518
  76.4893940  97.7482496  82.8928764  77.9877628  97.7842955  83.1061130
  79.2283760  97.1713458  84.1397815  79.7814798  97.5908911  84.7987838
  79.4653846  96.2449206  84.1820771  75.2516859 103.1600532  99.9200579
  75.1513586 104.1094889  99.8512670  75.0338401 102.8318771  99.0476649
  74.4529930 100.4085457  76.5041256  75.3149094 100.7340355  76.7637073
  74.6380274  99.6216953  75.9914322  66.4697346 108.4907796  88.7821445
  65.7760817 108.0761749  88.2691399  67.2170337 108.5328333  88.1854864
  82.6062567  99.2813983  83.6476479  82.0261236  99.9398787  83.2654531
  82.3398499  98.4591328  83.2363896  81.0566133  98.6819041  85.8497799
  81.5565911  98.7935575  85.0412118  81.7001741  98.3780094  86.4898608
  75.1148129 106.5897671  98.7365640  74.6315211 107.3898031  98.9429529
  75.2009068 106.6005615  97.7833084  68.3834088 108.4226050  86.6587460
  68.3604777 108.5213737  85.7069343  68.6934725 109.2691201  86.9804626
  71.0421466 110.4802205  90.7734074  71.9964720 110.4486148  90.7064006
  70.8433990 110.0192829  91.5884300  71.6320848 109.0503321  93.3404872
  72.4513737 109.5447400  93.3639709  71.9057656 108.1335289  93.3122439
  81.3887445 101.4414074  82.7032827  80.5013300 101.7263724  82.4853022
  81.8041434 101.2807837  81.8560104  84.7401981 101.4660595  86.4187166
  85.5162371 101.9557047  86.6911783  84.0150115 101.8918649  86.8759036
  87.1774539 102.1788214  87.4761107  87.7719030 101.9383950  86.7654415
  87.2501123 101.4595344  88.1034643  69.3971695 116.0221825  87.7904272
  69.2626163 115.2622226  87.2242270  68.9803757 116.7462725  87.3233061
  80.5330658 111.2058748  76.7980847  81.2366508 111.4108751  77.4138503
  79.8093307 111.7735510  77.0629931  81.3628468 106.9568610  82.9183117
  81.3063670 107.4137161  82.0790750  81.9156811 106.1959294  82.7405960
  85.1733274 102.7458341  83.7433237  84.9170209 102.3454977  84.5741445
  84.5486142 103.4602135  83.6183376  89.4845612 105.4854415  86.2504528
  88.9245170 105.5547604  87.0236090  88.8789116 105.3095399  85.5304024
  72.5540821 116.9191142  88.0022715  72.4373205 117.8636574  87.9001405
  71.7333267 116.6164703  88.3908514  82.4417355 111.6441277  78.8479307
  83.2762959 111.2122476  78.6656782  82.2801698 111.4723291  79.7756202
  82.0963248 108.1473391  80.2135647  82.0412051 107.9817662  79.2724091
  81.4709303 108.8549424  80.3697836  66.8855763 103.3841455  94.0397069
  67.5314626 102.8740409  94.5284294  66.6772914 104.1210137  94.6140494
  75.4059373  97.6481500  79.7920965  75.3938043  98.5923340  79.9489236
  76.2982795  97.4651645  79.4980426  73.5795335 117.5719404  91.2178643
  74.4822582 117.6043014  91.5345138  73.3532705 116.6419855  91.2324979
  75.3348937 116.3250390  87.8788722  74.3844568 116.3252252  87.7653094
  75.6381423 115.5783125  87.3624756  79.2211493  94.2424276  84.0466902
  78.4543888  93.6882763  84.1923584  79.6322198  94.3146145  84.9081053
  71.2253254 100.5309072  98.1372083  72.0884715 100.1745877  98.3475408
  70.6518664 100.1922967  98.8247487  83.7378153 123.9673833  84.8692900
  83.1743018 123.8763770  84.1009187  83.6230548 123.1473738  85.3495392
  81.2842585 125.4625025  87.7077120  82.0763876 125.1215849  87.2923419
  81.5239235 125.5720000  88.6279273  83.2433338 124.7233938  80.5794499
  84.0164214 124.1762925  80.4407375  83.5958737 125.5878187  80.7908960
  85.5799616 120.8826604  78.2112949  85.8325137 120.3608125  77.4496412
  84.6424175 120.7192750  78.3139632  90.6242899 119.8862382  86.0187692
  91.4105988 119.4681806  85.6678109  90.8881603 120.7908475  86.1869340
  85.2995905 122.7854710  80.4137324  85.1832163 122.1099613  81.0818408
  85.4098165 122.2987084  79.5969477  87.6427446 122.2464857  84.1184013
  87.2785653 121.7195478  84.8296934  88.4994562 121.8563326  83.9450498
  87.2832933 117.2754757  79.1145361  87.4507335 118.1434993  79.4815833
  87.0930102 117.4382039  78.1906651  83.4920748 122.1885533  86.8147896
  82.5671244 122.0561747  87.0225588  83.7405161 122.9679752  87.3117839
  87.2622154 119.7312414  80.0992028  87.1421779 120.1769465  80.9377509
  86.5674742 120.0797732  79.5405566  80.8529559 121.8318806  87.6491685
  80.9821940 122.0853285  88.5631097  80.1727010 122.4246514  87.3296340
  92.9607220 120.2033888  80.9272362  93.8725076 120.4361274  80.7520060
  92.4516867 120.7870932  80.3647441  90.3043195 116.3791923  89.1762223
  89.4427674 116.6773177  89.4678961  90.3305629 116.5962322  88.2443256
  87.1204764 124.9234114  85.5836029  87.5843110 125.2021817  84.7940651
  86.8561562 124.0217559  85.4009120  86.0573650 121.0457266  82.3925594
  86.7597694 121.4978310  82.8599520  85.7254279 120.4041085  83.0205487
  79.7998984 119.3040819  87.6942728  79.0098038 119.5598348  87.2182838
  80.2910232 120.1189157  87.7994768  81.7513730 119.6685398  84.6526204
  80.9544893 119.7804093  85.1709700  81.5239322 120.0072051  83.7867095
  78.0836687 119.5571310  90.1257718  78.3344726 120.4418319  90.3915294
  78.6196236 119.3775911  89.3532810  80.7496812 125.3773647  83.0415624
  81.2621333 126.1716897  83.1921189  81.4019525 124.6799938  82.9749226
  82.5591697 128.4939403  85.1238378  82.7358325 129.4157368  84.9359361
  83.3548530 128.1797823  85.5532757  90.6459878 111.3828771  90.9986593
  90.3024148 112.2730413  90.9225703  91.0138841 111.1930429  90.1356178
  78.7145729 123.7062301  83.8175195  79.5520951 124.1159310  83.6008903
  78.8923997 122.7661744  83.7875389  90.6110161 121.3737382  79.5059028
  90.0956785 122.1441987  79.7447415  90.3387470 120.7002518  80.1292089
  88.1957272 116.2187083  84.5644266  87.3398868 115.8293933  84.3849905
  88.6084224 116.2979044  83.7044052  89.7256419 113.7533426  88.9635826
  89.2221214 113.7163561  88.1503631  90.0187026 114.6626169  89.0232483
  85.9699305 113.8372156  87.9702008  86.8352301 113.6414964  87.6107897
  86.0376814 113.6082508  88.8971364  90.3996464 119.2464474  81.3318809
  90.0946600 119.5610623  82.1828952  91.3526906 119.3245894  81.3746142
  88.8442896 125.4054697  82.9811763  88.3164258 124.6707457  82.6685000
  88.3430399 126.1829374  82.7351731  83.5761624 116.0674364  85.3418375
  84.1505376 115.8449545  84.6091567  84.1632606 116.1363058  86.0946976
  83.9031211 118.0978825  79.3614260  83.0668523 118.4353511  79.6823535
  83.7635980 117.9627805  78.4241397  85.8784291 112.9415613  84.0693444
  85.2248704 112.6264630  83.4450059  85.8364766 112.3191353  84.7953267
  86.9895496 123.2234908  75.9846736  86.0822558 122.9924161  76.1837885
  87.4866528 122.4272527  76.1720718  89.1122032 119.4297546  88.3941092
  88.1944593 119.6512493  88.2362780  89.5282175 119.5043857  87.5352799
  89.8957080 120.8288962  83.5243772  90.6428898 121.3410359  83.2150894
  90.1648669 120.5073015  84.3848165  88.1683730 123.3247503  80.5070726
  87.2594949 123.0406535  80.6043196  88.1978814 123.7446581  79.6474033
  92.3435917 117.8646078  85.5062561  91.6058674 117.3523464  85.8372804
  92.5962690 117.4246460  84.6945838  92.4447544 110.6422330  86.1004330
  92.7506421 109.7819694  85.8130245  93.1700149 111.2339950  85.9003324
  78.7371900 121.0453017  84.4885928  78.5396300 120.4522377  83.7636995
  78.1818564 120.7405227  85.2061867  86.7168624 120.9376123  86.6080521
  86.7717234 119.9849960  86.5322998  85.9059826 121.0935562  87.0921820
  87.8659818 124.8656246  77.8458805  87.4279247 124.1492105  77.3864442
  88.6070258 125.0932361  77.2843896  84.6560984 119.5553183  84.3670900
  83.8428849 119.8547353  84.7736092  85.1519978 119.1608872  85.0845383
  84.1475058 117.1271538  89.9832135  84.7874438 116.9860298  89.2855099
  83.3152589 116.8406052  89.6070737  84.9235362 126.4273969  86.0967128
  85.7175961 125.9324289  85.8949703  84.2127055 125.8991832  85.7334833
  81.2318126 120.5717051  82.1726880  80.3015714 120.5101506  82.3896843
  81.3275598 120.0493003  81.3763522  81.1503675 117.0971863  84.7605122
  81.4110492 118.0117197  84.6514283  81.9720847 116.6296306  84.9101735
  82.6228600 118.5109621  91.9303947  83.2951654 118.3026983  91.2816596
  81.7958387 118.3131707  91.4909179  91.9871045 123.7240628  77.4390862
  91.3700216 122.9987456  77.3423915  91.5187534 124.4849988  77.0957937
  83.7769591 117.9426052  76.5612167  82.8999057 117.8214853  76.1974413
  84.2527344 117.1512130  76.3091055  75.2971731 122.7303212  86.6553674
  75.9842771 122.4164942  86.0674689  75.1419860 123.6344577  86.3820925
  80.1006453 117.6193408  91.0838697  80.0164642 117.0119078  90.3489107
  79.2789160 118.1102427  91.0848194  90.2730167 116.1046972  86.4508892
  90.7698867 115.3516934  86.1309963  89.5017149 116.1411289  85.8852102
  91.3559948 124.8618659  84.0247316  90.4216227 124.9820122  83.8552020
  91.5336616 123.9591126  83.7607326  86.8565136 118.2464355  86.1780577
  86.4862923 117.6935395  86.8661483  87.3524228 117.6422488  85.6255577
  94.7432499 120.7035979  84.5597350  95.2092951 121.5363970  84.4857653
  95.1940000 120.2380960  85.2642609  92.7149162 113.0716565  88.5988251
  91.8012242 113.3020792  88.7670458  93.1442263 113.1555010  89.4502284
  74.8739707 120.8103805  88.9271141  74.9123807 120.2767396  89.7208259
  74.3680000 120.2839011  88.3082118  82.2530470 115.6568346  92.4233683
  82.3171796 116.5183177  92.0111081  82.1897590 115.0442347  91.6906042
  78.5048285 119.5367907  82.0025072  78.8001726 118.6278586  81.9492126
  77.6036321 119.5155647  81.6806075  82.0342532 117.6123904  87.9852621
  81.3129118 118.2259872  87.8460094  82.8235788 118.1481669  87.9069267
  80.2336126 117.2182005  82.1264397  79.9048833 116.3379384  81.9439503
  80.5875497 117.1629674  83.0140787  83.3477950 117.5054975  82.4939875
  83.6874022 118.0340896  81.7718483  83.7950070 117.8435381  83.2698442
  86.0421390 115.8892026  91.9442943  85.7018211 115.0899839  92.3463623
  85.3360397 116.1893736  91.3719776  86.6937862 112.9741338  90.3970266
  87.5163932 112.5001816  90.2749156  86.9375926 113.7531822  90.8968952
  85.3346097 116.0029596  80.6933168  86.0554459 116.3810849  80.1896885
  84.7111401 116.7218473  80.7968146  89.4777220 116.7074745  81.6291500
  89.6940834 117.5899383  81.3280328  88.9971287 116.3160959  80.8997142
  84.2176441 119.6660459  88.2062245  84.0721022 119.9800762  89.0986526
  83.7401645 120.2845359  87.6533143  86.0772824 116.6563007  88.2543134
  86.0634393 115.7604100  87.9175432  86.7945252 116.6633670  88.8881420
  87.9298955 117.0900347  90.2996262  87.6716732 118.0117418  90.2980592
  87.3983995 116.6930781  90.9896726  78.6922103 122.2065803  91.1449906
  78.1475571 122.9825611  91.2770180  79.5701453 122.5536608  90.9869027
  85.4809720 115.5377387  83.5230704  85.6025631 114.6094033  83.7221592
  85.1911762 115.5516073  82.6109020  88.3500910 113.2232297  86.6597424
  88.3722607 113.2871630  85.7049404  88.7668969 112.3836806  86.8537930
  79.9244739 129.2201128  86.0690457  80.7502759 128.9204900  85.6889101
  79.5738791 128.4508750  86.5180246  78.1253344 127.1387455  87.0279391
  77.2885252 126.7109629  86.8463392  78.0976989 127.3319898  87.9650182
  84.4539779 127.1231520  81.6146592  84.6027899 127.8066984  80.9613264
  85.2606222 127.1036610  82.1296047  82.2092412 123.1496697  82.6207660
  81.9638454 122.2459027  82.8187871  82.3788326 123.1513848  81.6787138
  81.4788059 118.8825055  80.1193822  80.7857304 118.9569410  79.4633858
  81.2339811 118.1185398  80.6415339  90.1501716 110.4420656  87.5233313
  90.4303470 109.7743845  88.1493739  90.9352323 110.6349752  87.0107977
  88.3381983 120.9540463  76.4274391  89.2841088 120.8246671  76.4962810
  87.9596228 120.2155125  76.9043820  94.3103867 112.6196469  86.3901283
  94.1128689 112.3111557  87.2744615  94.9203573 113.3458108  86.5199213
  86.5224900 118.8790439  76.3629277  85.6156355 118.5823552  76.4391990
  86.8000881 118.5820257  75.4963563  77.4402840 120.1996803  86.8128323
  77.1205625 119.3462111  86.5202697  76.8936269 120.4145381  87.5686290
  88.1386966 113.4227329  82.5173518  87.3287694 113.0774414  82.8928764
  88.8271383 113.1134873  83.1061130  90.0677514 112.5005376  84.1397815
  90.6208553 112.9200829  84.7987838  90.3047600 111.5741124  84.1820771
  85.2923685 115.7377374  76.5041256  86.1542849 116.0632273  76.7637073
  85.4774029 114.9508870  75.9914322  77.3091100 123.8199714  88.7821445
  76.6154572 123.4053667  88.2691399  78.0564091 123.8620251  88.1854864
  93.4456321 114.6105901  83.6476479  92.8654990 115.2690705  83.2654531
  93.1792254 113.7883245  83.2363896  91.8959887 114.0110959  85.8497799
  92.3959666 114.1227493  85.0412118  92.5395495 113.7072011  86.4898608
  79.2227843 123.7517968  86.6587460  79.1998531 123.8505655  85.7069343
  79.5328479 124.5983119  86.9804626  92.2281199 116.7705991  82.7032827
  91.3407054 117.0555642  82.4853022  92.6435188 116.6099755  81.8560104
  95.5795735 116.7952512  86.4187166  96.3556125 117.2848965  86.6911783
  94.8543869 117.2210566  86.8759036  92.2022223 122.2860527  82.9183117
  92.1457424 122.7429079  82.0790750  92.7550565 121.5251212  82.7405960
  96.0127029 118.0750259  83.7433237  95.7563963 117.6746895  84.5741445
  95.3879897 118.7894053  83.6183376  92.9357002 123.4765308  80.2135647
  92.8805806 123.3109580  79.2724091  92.3103057 124.1841341  80.3697836
  77.7249517 118.7133373  94.0397069  78.3708381 118.2032327  94.5284294
  77.5166668 119.4502054  94.6140494  86.2453128 112.9773417  79.7920965
  86.2331797 113.9215257  79.9489236  87.1376550 112.7943563  79.4980426
  90.0605247 109.5716194  84.0466902  89.2937643 109.0174681  84.1923584
  90.4715952 109.6438063  84.9081053  26.0339105   7.1921545  75.6679791
  26.6717515   7.0728292  74.9643131  25.9159948   8.1402389  75.7267743
  22.8428811   7.1448973  75.6041315  22.5047323   7.0290038  74.7161850
  23.7118579   6.7440138  75.5842321  18.7015627   8.9984450  71.5938206
  18.1380492   8.9074387  70.8254494  18.5868022   8.1784354  72.0740699
  23.3248594   8.2983825  81.5627521  23.3137235   7.9036623  80.6908024
  23.4869234   7.5649898  82.1561292  16.2480059  10.4935641  74.4322427
  17.0401351  10.1526466  74.0168726  16.4876709  10.6030616  75.3524580
  24.2815186  12.6655417  66.9052671  23.6303165  13.2509498  66.5186685
  25.0759548  13.1961612  66.9647709  18.2070813   9.7544554  67.3039806
  18.9801689   9.2073542  67.1652681  18.5596212  10.6188804  67.5154267
  20.0455855  11.0820937  80.5106705  19.7545721  11.9866568  80.3953371
  20.6812840  11.1237464  81.2250774  20.9712062   8.4597785  77.1008064
  21.5675634   8.2353808  76.3865027  21.0287034   7.7182531  77.7033512
  20.5437091   5.9137221  64.9358255  20.7962611   5.3918742  64.1741718
  19.6061650   5.7503366  65.0384939  25.5880373   4.9172999  72.7432999
  26.3743463   4.4992422  72.3923416  25.8519078   5.8219091  72.9114647
  25.7590451  10.3545849  67.4421655  25.1236284  10.4280476  68.1542560
  25.4287857  10.9439448  66.7640735  30.9888801   4.8548232  73.6465977
  31.7213972   4.2847449  73.8803807  30.2328156   4.4669833  74.0872483
  20.2633379   7.8165327  67.1382630  20.1469637   7.1410230  67.8063715
  20.3735639   7.3297700  66.3214783  22.6064920   7.2775474  70.8429320
  22.2423127   6.7506095  71.5542241  23.4632036   6.8873943  70.6695805
  25.0045740  10.7682352  77.5056498  24.7046463  11.6707391  77.3972306
  24.6596800  10.5014535  78.3577651  18.4558222   7.2196149  73.5393203
  17.5308718   7.0872363  73.7470895  18.7042635   7.9990368  74.0363145
  28.4042884   3.2864892  75.1853936  27.4959762   3.2180301  74.8912697
  28.3530480   3.7636837  76.0135761  22.2259628   4.7623031  66.8237335
  22.1059253   5.2080082  67.6622815  21.5312216   5.1108349  66.2650873
  19.9866520  17.5326673  70.4727466  19.9090550  18.4834498  70.5515947
  19.3828164  17.1872545  71.1302392  22.4783750   4.7054538  83.1288833
  21.7017084   5.2648458  83.1191698  23.1174313   5.1911321  83.6503703
  30.2704531   1.4881331  76.9631810  29.6278911   1.7813864  76.3171604
  29.7659459   1.3734251  77.7685006  27.9244694   5.2344504  67.6517669
  28.8362550   5.4671891  67.4765367  27.4154341   5.8181548  67.0892748
  20.7330122   7.5139991  82.6906800  21.4744807   8.0525035  82.4141624
  20.0267108   8.1406280  82.8478352  26.2085462   9.6569132  81.2878962
  26.6168818   9.2151542  80.5433594  25.4862723   9.0821759  81.5413154
  22.5616532   4.5941739  78.6612519  23.4077727   5.0181152  78.8047168
  22.5015170   3.9375363  79.3551082  26.5314277  10.2170322  75.0431250
  25.9023139  10.3816037  74.3407318  26.1439939  10.6311932  75.8142214
  30.4103508  11.1524760  72.3975614  29.7254547  11.5323662  71.8472648
  30.4947358  11.7620087  73.1307562  25.7115977   2.2546107  80.3193692
  25.4676909   3.0088168  79.7827968  25.9875908   2.6331455  81.1540939
  27.6654440   8.7984719  78.9970958  27.8771335   9.4416479  78.3205339
  27.6184188   7.9647036  78.5292888  25.2680669   1.4102540  75.9007530
  24.4065148   1.7083794  76.1924267  25.2943104   1.6272939  74.9688563
  22.0842238   9.9544731  72.3081336  22.5480584  10.2332434  71.5185958
  21.8199037   9.0528175  72.1254426  18.9766320   9.5016212  75.2461099
  19.5467677   9.9303480  74.6078583  19.5674431   9.2198797  75.9445284
  21.0211125   6.0767883  69.1170901  21.7235168   6.5288927  69.5844827
  20.6891753   5.4351702  69.7450794  28.7800268  11.6756675  77.1693315
  29.6017712  11.2736862  76.8875997  28.7762671  11.5724909  78.1209431
  22.5456871  11.2240718  79.3254026  22.6101304  11.6861125  80.1612197
  21.8367795  10.5938083  79.4536335  36.8706261   8.0195423  73.5178287
  36.1169969   7.4502821  73.3622291  37.0053802   7.9858088  74.4648921
  22.2604889  12.8908826  69.1933006  22.1250564  13.7360361  69.6217854
  22.8014702  13.0928103  68.4298940  15.7134287  10.4084264  69.7660931
  16.2258807  11.2027514  69.9166496  16.3656999   9.7110554  69.6994532
  17.5229171  13.5250020  71.8483684  17.6995800  14.4467985  71.6604668
  18.3186005  13.2108439  72.2778064  23.8873366  13.5132392  83.3233348
  23.4437220  12.7268771  83.0054252  24.5490579  13.7011543  82.6577239
  18.6460487  15.0428194  77.8494027  19.1967912  14.9145257  77.0771020
  17.8071963  15.3423083  77.4988919  25.9854604  13.7935192  81.3514749
  25.9673079  14.6144073  80.8595018  26.9074524  13.6689267  81.5764890
  22.4427658  11.3079321  82.1938258  22.9755995  10.5467610  81.9637566
  21.9141739  11.0152973  82.9362412  25.5747635   6.4047999  66.2304334
  25.0594259   7.1752603  66.4692722  25.3024944   5.7313135  66.8537396
  30.5481910   9.1580353  68.1657508  29.7711352   8.8191513  67.7212670
  31.2273391   9.1632976  67.4912473  25.3633939   4.2775091  68.0564116
  25.0584074   4.5921240  68.9074259  26.3164381   4.3556511  68.0991449
  23.8080370  10.4365314  69.7057070  23.2801732   9.7018074  69.3930307
  23.3067873  11.2139990  69.4597038  28.7873216   8.6314334  74.8224116
  28.1296891   9.3213596  74.9104245  29.5913616   9.0210766  75.1658102
  27.5978675   6.9858707  72.8728058  28.1110557   7.6188699  73.3749767
  28.2479899   6.3859903  72.5071418  21.9532971   8.2545524  62.7092043
  21.0460032   8.0234778  62.9083192  22.4504003   7.4583143  62.8966024
  24.8601049  16.9643031  65.6288729  24.1862748  17.2674728  66.2373687
  25.2466871  17.7672112  65.2794186  24.0759506   4.4608163  75.1186398
  23.1582067   4.6823110  74.9608086  24.4919650   4.5354473  74.2598106
  24.8594554   5.8599578  70.2489078  25.6066373   6.3720976  69.9396201
  25.1286143   5.5383631  71.1093472  23.1321204   8.3558119  67.2316033
  22.2232423   8.0717152  67.3288503  23.1616288   8.7757198  66.3719340
  28.3640471  11.9664709  71.0007200  27.9102799  11.1255618  71.0572391
  27.7334438  12.6026107  71.3381980  27.3073391   2.8956695  72.2307868
  26.5696148   2.3834081  72.5618110  27.5600165   2.4557076  71.4191145
  26.8073411  13.8041205  71.9357018  27.0996385  14.3646262  71.2169384
  27.3172031  14.0969766  72.6910178  21.6806098   5.9686740  73.3325828
  21.7354708   5.0160576  73.2568305  20.8697300   6.1246179  73.8167127
  22.8297292   9.8966863  64.5704111  22.3916722   9.1802722  64.1109749
  23.5707733  10.1242978  64.0089203  21.7707036  14.5821556  73.0250472
  21.7283215  14.8082403  72.0959004  22.6869735  14.3484931  73.1736273
  25.2172670   5.0505624  79.9231101  25.5722057   5.2777097  80.7825567
  25.8644801   5.3824001  79.3008356  30.9470407   8.1724060  70.6280430
  30.8088305   8.3625656  69.7001619  30.5906625   8.9343443  71.0848481
  30.9739786  10.2400587  75.6391701  31.4076293  10.1475876  76.4874755
  31.6871367  10.2158087  75.0011717  19.8872837  11.4584585  72.8212434
  20.6813435  10.9634906  72.6195009  19.1764529  10.9302449  72.4580140
  24.7067681  13.8402681  77.1724802  24.7604703  14.4093617  77.9402518
  23.8382463  14.0104566  76.8078839  31.8355336  10.2824287  78.1724587
  32.0291226  11.1870098  78.4183862  31.7355954   9.8231707  79.0063172
  26.8970444  10.4331030  83.7465467  26.7455951  10.2041582  82.8295551
  26.8875124  11.3901632  83.7596812  23.6655781   8.0062943  78.7311734
  24.5947841   8.1574103  78.5580701  23.2446811   8.0946964  77.8760380
  22.4644113  12.0313607  76.5010272  22.3255198  11.6632392  77.3736210
  21.6758709  12.5461247  76.3294229  23.0592265  17.1322704  67.8435808
  23.2344020  16.6610747  68.6581431  22.3725053  17.7588470  68.0717069
  24.0149328  11.4095210  73.8899109  23.6799160  11.3695980  74.7856759
  23.5153273  10.7439926  73.4169520  17.9893572   6.8162840  79.4151690
  17.8513370   6.0843079  80.0163229  18.8998495   6.7271740  79.1335878
  26.9508519   8.7551244  64.1636169  26.3337690   8.0298073  64.0669222
  26.4825008   9.5160605  63.8203243  20.6175872   6.5282799  78.9035370
  21.3275491   5.8875992  78.8621989  20.5745181   6.7795694  79.8261551
  28.6062651  13.4650153  81.8241949  28.5475197  12.7809373  81.1572532
  29.0082170  14.2069143  81.3722575  17.6253350  20.2812067  74.6175668
  17.8649948  20.9130591  75.2954687  16.7822546  19.9300107  74.9041027
  28.6080058  11.4289737  80.0555929  27.7206837  11.0915658  80.1782328
  29.1778609  10.6972768  80.2924694  22.1381212  16.0891189  77.0217172
  22.0651383  16.8946161  77.5336477  21.6958605  16.2883155  76.1965194
  21.9270991  15.3262959  70.5319994  21.1438513  15.8684639  70.6258218
  22.6263737  15.8436939  70.9314235  25.2367642   1.1357589  73.1754199
  25.7336341   0.3827551  72.8555269  24.4654623   1.1721905  72.6097408
  33.0897399   6.8397954  74.8172491  33.0787275   7.7222669  74.4466424
  32.2214778   6.4869505  74.6227028  24.5979895  15.9878023  79.1775331
  25.3107868  16.6225488  79.1051232  24.1069924  16.0841889  78.3615333
  26.3197422   9.8929276  70.7492623  25.3853701  10.0130738  70.5797327
  26.4974091   8.9901743  70.4852632  29.7069974   5.7346595  71.2842657
  30.1730426   6.5674587  71.2102959  30.1577474   5.2691577  71.9887915
  19.6491809  13.7372467  79.9980902  20.3501268  14.3708950  80.1510296
  19.1786924  14.0787198  79.2376541  27.7746205  12.0790416  68.2828809
  28.0506049  11.9647011  69.1922683  26.9050703  11.6807901  68.2440982
  27.4493095   6.2917074  77.8233452  26.7964545   6.5392981  77.1685905
  27.8273475   5.4781212  77.4895929  24.4100269  16.3276767  71.9261622
  24.5922663  15.5098423  72.3889375  25.2333255  16.5444459  71.4886512
  24.7442434  15.2544952  69.1876671  25.2730201  14.7437407  68.5746833
  25.0070654  14.9387483  70.0522204  23.4980668   7.0336885  84.3099489
  22.8221305   6.9331014  84.9801864  24.3208302   6.8776099  84.7735486
  15.2459527  13.2708822  76.9312004  15.8312964  12.5252509  77.0639909
  15.0484365  13.5812778  77.8148668  18.0998182  16.3060069  71.9474447
  17.4308557  16.7906197  71.4638487  17.9611052  16.5529289  72.8617825
  22.2403451  18.3403813  78.5457105  22.7921759  18.5035434  79.3106190
  22.5809644  18.9308250  77.8737130  27.0914325  13.1665070  84.4005760
  27.6354229  13.7795028  83.9060714  26.5101170  13.7244648  84.9172773
  25.3771838  16.2885788  75.5320787  25.2522977  15.4875528  75.0231733
  26.0350929  16.7831981  75.0434757  27.4406746  14.0894808  77.1600337
  26.4937082  13.9700159  77.0878664  27.7889519  13.2017306  77.2426599
  24.4453180  13.8847524  73.3604690  24.2978142  12.9564232  73.5412260
  25.2706673  13.9067615  72.8761765  28.0487302  14.7076083  74.4469562
  28.9733849  14.5018944  74.3094013  27.8802605  14.4592484  75.3558904
  27.8382618  15.2261751  69.8031654  28.0119495  14.6608173  69.0505506
  28.3311509  16.0262645  69.6211144  33.6922009   7.9898173  71.4221954
  34.1353155   7.2405499  71.0241077  32.8148519   7.9808310  71.0395685
  28.8257790  14.5428515  66.9028552  29.5208695  15.1635208  67.1215867
  29.1680940  13.6923866  67.1780930  30.7249213  11.9928220  68.4315883
  31.2500537  12.3315493  67.7065203  30.6371566  11.0575236  68.2479017
  22.3869262  15.9062294  80.5605759  22.6956388  15.6611441  81.4328459
  23.1844744  16.1108933  80.0724630  22.4089874  18.0600204  72.7911136
  21.9694864  17.5676582  73.4843993  23.1597991  17.5173171  72.5503211
  14.8882213  14.2511745  72.7935764  15.7140233  13.9515516  72.4134408
  14.5376265  13.4819367  73.2425553  19.8563746  13.6038213  74.8633438
  19.2343756  12.9408918  74.5635666  20.5268613  13.6299345  74.1807085
  13.0890818  12.1698071  73.7524698  12.2522726  11.7420245  73.5708699
  13.0614464  12.3630514  74.6895489  30.4143119  12.6261124  83.7367081
  29.6238663  12.6085263  83.1971580  30.1776474  13.1649418  84.4916117
  30.5340994   9.4753590  81.0499809  30.5838999   9.3103598  81.9915332
  30.4254918   8.6080849  80.6597690  19.4177253  12.1542136  68.3391898
  19.5665374  12.8377601  67.6858571  20.2243697  12.1347226  68.8541354
  27.8244757   5.4584518  82.3659116  28.7254620   5.3190983  82.0743114
  27.8992731   5.6238973  83.3057293  32.0359191  11.8950532  81.2941831
  31.7444000  12.2580513  82.1305292  31.4231323  11.1817540  81.1155163
  33.2354874   9.4603412  73.8144401  34.0701765   9.8993216  73.9781961
  33.3714002   8.9842065  72.9952647  30.2846380   7.0183147  79.7621889
  30.7600501   7.2110793  78.9540740  29.3611945   7.0742332  79.5165273
  17.1729886   8.1807314  69.3452967  16.9275928   7.2769644  69.5433177
  17.3425801   8.1824464  68.4032445  22.9172659  14.6490267  65.8103646
  22.3446626  15.2680454  65.3574118  23.4905452  15.1989628  66.3443568
  28.9848049   3.8948907  77.9950194  29.9365471   3.9947004  78.0162418
  28.8151499   3.1027175  78.5048279  27.0062428   0.9804490  78.1809595
  26.4112360   1.2609503  77.4856084  26.7212125   1.4698391  78.9526336
  26.1369918  14.9327417  66.9412228  27.0700592  14.8672978  67.1445103
  26.0493131  15.7683684  66.4826761  28.7657935  14.2493287  63.9016175
  28.6871567  13.9153151  64.7951933  29.5867602  14.7415055  63.9007648
  31.4636126   7.1155026  77.1092494  31.4312446   6.1771027  77.2952178
  32.0736750   7.1939063  76.3758319  23.3019457   5.9851079  63.1519698
  24.2478562   5.8557287  63.2208116  22.9233702   5.2465741  63.6289126
  31.6130615   3.9066070  77.1550777  31.0969663   3.1224526  76.9680706
  32.4970563   3.5784786  77.3197297  37.2812676   8.1771033  76.2498531
  38.0116065   7.9156321  76.8106234  36.6719622   7.4399755  76.2900599
  35.3627973   6.3178896  76.8472982  34.6361137   6.1834861  76.2389474
  34.9475260   6.6255724  77.6529700  23.1858150  10.0368825  84.6120355
  24.1061159  10.2147424  84.8060402  23.1507733   9.0924871  84.4600054
  16.1820222   7.9469860  77.2543136  16.4006232   8.8786968  77.2731170
  16.5945996   7.5877835  78.0397940  28.4093795  -0.3583483  70.3721786
  27.8292464   0.3001321  69.9899838  28.1429728  -1.1806138  69.9609203
  20.9179358   6.9500205  85.4610947  20.4346439   7.7500565  85.6674836
  21.0040297   6.9608150  84.5078391  14.1865317   8.7828584  73.3832766
  14.1636005   8.8816272  72.4314649  14.4965954   9.6293735  73.7049932
  16.8452695  10.8404739  77.4979381  17.7995949  10.8088682  77.4309312
  16.6465219  10.3795363  78.3129607  17.4352077   9.4105855  80.0650178
  18.2544966   9.9049934  80.0885016  17.7088885   8.4937824  80.0367746
  27.1918673   1.8016608  69.4278134  26.3044528   2.0866258  69.2098329
  27.6072663   1.6410371  68.5805411  30.5433210   1.8263129  73.1432473
  31.3193600   2.3159581  73.4157090  29.8181344   2.2521183  73.6004343
  32.9805768   2.5390748  74.2006414  33.5750259   2.2986484  73.4899722
  33.0532352   1.8197879  74.8279950  15.2002924  16.3824359  74.5149579
  15.0657392  15.6224760  73.9487577  14.7834986  17.1065259  74.0478367
  26.3361887  11.5661282  63.5226154  27.0397737  11.7711285  64.1383809
  25.6124536  12.1338044  63.7875237  27.1659697   7.3171144  69.6428424
  27.1094899   7.7739695  68.8036056  27.7188040   6.5561828  69.4651267
  30.9764503   3.1060876  70.4678543  30.7201437   2.7057511  71.2986751
  30.3517371   3.8204670  70.3428683  35.2876841   5.8456949  72.9749835
  34.7276399   5.9150138  73.7481397  34.6820344   5.6697933  72.2549331
  18.3572050  17.2793676  74.7268021  18.2404434  18.2239108  74.6246711
  17.5364496  16.9767238  75.1153820  28.2448584  12.0043812  65.5724614
  29.0794188  11.5725010  65.3902089  28.0832927  11.8325825  66.5001508
  27.8994476   8.5075925  66.9380953  27.8443280   8.3420196  65.9969397
  27.2740532   9.2151958  67.0943143  25.2140384  10.8124837  86.2634516
  26.0831543  10.9865489  85.9021151  24.7347135  11.6319254  86.1410245
  19.3826564  17.9321938  77.9423950  20.2853811  17.9645548  78.2590445
  19.1563934  17.0022389  77.9570285  21.1380166  16.6852924  74.6034028
  20.1875797  16.6854786  74.4898400  21.4412652  15.9385659  74.0870063
  36.8732859  22.5213463  75.6679791  37.5111269  22.4020210  74.9643131
  36.7553702  23.4694307  75.7267743  33.6822566  22.4740891  75.6041315
  33.3441077  22.3581956  74.7161850  34.5512334  22.0732056  75.5842321
  29.5409381  24.3276367  71.5938206  28.9774247  24.2366304  70.8254494
  29.4261776  23.5076272  72.0740699  34.1642349  23.6275743  81.5627521
  34.1530989  23.2328541  80.6908024  34.3262988  22.8941815  82.1561292
  27.0873813  25.8227559  74.4322427  27.8795105  25.4818384  74.0168726
  27.3270463  25.9322534  75.3524580  35.1208940  27.9947335  66.9052671
  34.4696920  28.5801415  66.5186685  35.9153303  28.5253530  66.9647709
  29.0464567  25.0836472  67.3039806  29.8195443  24.5365459  67.1652681
  29.3989966  25.9480721  67.5154267  30.8849610  26.4112854  80.5106705
  30.5939476  27.3158485  80.3953371  31.5206594  26.4529382  81.2250774
  31.8105817  23.7889703  77.1008064  32.4069389  23.5645725  76.3865027
  31.8680788  23.0474448  77.7033512  31.3830845  21.2429138  64.9358255
  31.6356366  20.7210660  64.1741718  30.4455404  21.0795284  65.0384939
  36.4274128  20.2464917  72.7432999  37.2137217  19.8284340  72.3923416
  36.6912832  21.1511009  72.9114647  36.5984205  25.6837767  67.4421655
  35.9630038  25.7572393  68.1542560  36.2681612  26.2731366  66.7640735
  41.8282555  20.1840150  73.6465977  42.5607727  19.6139367  73.8803807
  41.0721911  19.7961750  74.0872483  31.1027134  23.1457244  67.1382630
  30.9863392  22.4702148  67.8063715  31.2129394  22.6589618  66.3214783
  33.4458675  22.6067391  70.8429320  33.0816882  22.0798012  71.5542241
  34.3025791  22.2165860  70.6695805  39.3507975  13.8961724  78.1060586
  39.0191300  14.7657135  77.8821801  38.7553589  13.5798008  78.7854616
  33.0864162  17.6357291  65.8390668  33.2538564  18.5037527  66.2061139
  32.8961331  17.7984573  64.9151957  35.8439495  26.0974270  77.5056498
  35.5440218  26.9999309  77.3972306  35.4990554  25.8306453  78.3577651
  29.2951976  22.5488067  73.5393203  28.3702473  22.4164281  73.7470895
  29.5436390  23.3282286  74.0363145  39.2436639  18.6156810  75.1853936
  38.3353516  18.5472219  74.8912697  39.1924234  19.0928755  76.0135761
  33.0653383  20.0914949  66.8237335  32.9453008  20.5371999  67.6622815
  32.3705971  20.4400266  66.2650873  26.6560787  22.1921340  74.3736992
  26.7853169  22.4455819  75.2876404  25.9758239  22.7849048  74.0541647
  30.8260275  32.8618590  70.4727466  30.7484304  33.8126415  70.5515947
  30.2221918  32.5164463  71.1302392  33.3177504  20.0346456  83.1288833
  32.5410839  20.5940376  83.1191698  33.9568068  20.5203239  83.6503703
  41.1098285  16.8173249  76.9631810  40.4672665  17.1105782  76.3171604
  40.6053214  16.7026169  77.7685006  38.7638449  20.5636422  67.6517669
  39.6756305  20.7963808  67.4765367  38.2548096  21.1473466  67.0892748
  31.5723877  22.8431909  82.6906800  32.3138561  23.3816953  82.4141624
  30.8660862  23.4698198  82.8478352  37.0479216  24.9861050  81.2878962
  37.4562572  24.5443460  80.5433594  36.3256478  24.4113677  81.5413154
  33.4010286  19.9233656  78.6612519  34.2471482  20.3473070  78.8047168
  33.3408924  19.2667281  79.3551082  37.3708031  25.5462240  75.0431250
  36.7416894  25.7107954  74.3407318  36.9833693  25.9603850  75.8142214
  41.2497263  26.4816678  72.3975614  40.5648301  26.8615579  71.8472648
  41.3341112  27.0912005  73.1307562  36.5509732  17.5838025  80.3193692
  36.3070664  18.3380085  79.7827968  36.8269662  17.9623372  81.1540939
  38.5048195  24.1276637  78.9970958  38.7165090  24.7708397  78.3205339
  38.4577943  23.2938954  78.5292888  36.1074424  16.7394458  75.9007530
  35.2458903  17.0375711  76.1924267  36.1336858  16.9564857  74.9688563
  32.9235993  25.2836648  72.3081336  33.3874338  25.5624351  71.5185958
  32.6592791  24.3820093  72.1254426  29.8160074  24.8308130  75.2461099
  30.3861431  25.2595398  74.6078583  30.4068186  24.5490714  75.9445284
  31.8604879  21.4059801  69.1170901  32.5628922  21.8580844  69.5844827
  31.5285507  20.7643619  69.7450794  30.3085241  19.9971557  83.4922110
  29.6783901  20.6787838  83.7257507  30.2021328  19.8854639  82.5475248
  25.6030213  19.6643353  74.4188034  24.8129267  19.9200882  73.9428145
  26.0941460  20.4791691  74.5240075  39.6194023  27.0048592  77.1693315
  40.4411466  26.6028780  76.8875997  39.6156425  26.9016827  78.1209431
  27.5544958  20.0287933  71.3771511  26.7576122  20.1406627  71.8955007
  27.3270551  20.3674585  70.5112401  33.3850626  26.5532636  79.3254026
  33.4495058  27.0153043  80.1612197  32.6761550  25.9230001  79.4536335
  23.8867916  19.9173844  76.8503025  24.1375954  20.8020854  77.1160601
  24.4227464  19.7378445  76.0778117  47.7100016  23.3487341  73.5178287
  46.9563724  22.7794739  73.3622291  47.8447557  23.3150005  74.4648921
  33.0998644  28.2200743  69.1933006  32.9644318  29.0652279  69.6217854
  33.6408456  28.4220021  68.4298940  29.5865983  14.2992323  85.8547361
  29.1932929  13.7458522  86.5295005  30.4032124  14.6102902  86.2453879
  26.5528041  25.7376181  69.7660931  27.0652562  26.5319432  69.9166496
  27.2050754  25.0402472  69.6994532  28.3622926  28.8541938  71.8483684
  28.5389554  29.7759902  71.6604668  29.1579759  28.5400357  72.2778064
  32.5033944  15.7150202  83.4467618  33.2443658  16.3157355  83.3672080
  32.7351867  14.9727840  82.8885660  27.6475282  20.9006569  81.7245847
  27.5328797  19.9991827  82.0252946  26.7919800  21.1470266  81.3730664
  34.7267120  28.8424310  83.3233348  34.2830974  28.0560688  83.0054252
  35.3884334  29.0303460  82.6577239  29.4854241  30.3720111  77.8494027
  30.0361666  30.2437175  77.0771020  28.6465717  30.6715000  77.4988919
  36.8248358  29.1227110  81.3514749  36.8066833  29.9435991  80.8595018
  37.7468278  28.9981185  81.5764890  33.2821412  26.6371239  82.1938258
  33.8149749  25.8759527  81.9637566  32.7535493  26.3444891  82.9362412
  36.4491107  11.7431305  77.7231899  36.1055377  12.6332947  77.6471010
  36.8170070  11.5532963  76.8601484  24.5176958  24.0664836  70.5420502
  25.3552180  24.4761844  70.3254209  24.6955225  23.1264278  70.5120695
  36.4141390  21.7339916  66.2304334  35.8988013  22.5044521  66.4692722
  36.1418698  21.0605052  66.8537396  33.9988501  16.5789617  71.2889573
  33.1430097  16.1896467  71.1095212  34.4115453  16.6581578  70.4289358
  35.5287648  14.1135960  75.6881133  35.0252443  14.0766095  74.8748938
  35.8218254  15.0228703  75.7477789  31.7730533  14.1974690  74.6947314
  32.6383530  14.0017499  74.3353204  31.8408042  13.9685042  75.6216671
  41.3875664  24.4872271  68.1657508  40.6105107  24.1483430  67.7212670
  42.0667145  24.4924894  67.4912473  36.2027693  19.6067008  68.0564116
  35.8977829  19.9213158  68.9074259  37.1558135  19.6848428  68.0991449
  34.6474125  25.7657232  69.7057070  34.1195486  25.0309991  69.3930307
  34.1461628  26.5431908  69.4597038  39.6266971  23.9606252  74.8224116
  38.9690645  24.6505514  74.9104245  40.4307370  24.3502684  75.1658102
  29.3792853  16.4276898  72.0663681  29.9536604  16.2052079  71.3336874
  29.9663835  16.4965592  72.8192282  38.4372430  22.3150625  72.8728058
  38.9504311  22.9480617  73.3749767  39.0873654  21.7151820  72.5071418
  29.7062440  18.4581359  66.0859566  28.8699752  18.7956045  66.4068841
  29.5667209  18.3230339  65.1486703  31.6815520  13.3018147  70.7938751
  31.0279933  12.9867164  70.1695365  31.6395994  12.6793887  71.5198574
  32.7926725  23.5837442  62.7092043  31.8853787  23.3526695  62.9083192
  33.2897757  22.7875061  62.8966024  35.6994804  32.2934949  65.6288729
  35.0256503  32.5966646  66.2373687  36.0860626  33.0964029  65.2794186
  34.9153261  19.7900080  75.1186398  33.9975822  20.0115027  74.9608086
  35.3313404  19.8646391  74.2598106  35.6988308  21.1891496  70.2489078
  36.4460127  21.7012893  69.9396201  35.9679898  20.8675549  71.1093472
  33.9714959  23.6850037  67.2316033  33.0626178  23.4009070  67.3288503
  34.0010042  24.1049115  66.3719340  39.2034226  27.2956626  71.0007200
  38.7496553  26.4547536  71.0572391  38.5728193  27.9318025  71.3381980
  38.1467146  18.2248612  72.2307868  37.4089902  17.7125999  72.5618110
  38.3993919  17.7848994  71.4191145  37.6467165  29.1333123  71.9357018
  37.9390140  29.6938180  71.2169384  38.1565786  29.4261684  72.6910178
  38.2478773  11.0024864  72.8249637  38.5537650  10.1422228  72.5375552
  38.9731378  11.5942485  72.6248631  24.5403129  21.4055551  71.2131235
  24.3427529  20.8124912  70.4882302  23.9849793  21.1007761  71.9307174
  32.5199853  21.2978657  73.3325828  32.5748462  20.3452494  73.2568305
  31.7091055  21.4538096  73.8167127  33.6691046  25.2258780  64.5704111
  33.2310476  24.5094639  64.1109749  34.4101487  25.4534895  64.0089203
  30.4592212  19.9155717  71.0916207  29.6460078  20.2149888  71.4981399
  30.9551207  19.5211406  71.8090689  32.6100790  29.9113474  73.0250472
  32.5676969  30.1374320  72.0959004  33.5263489  29.6776849  73.1736273
  36.0566424  20.3797542  79.9231101  36.4115812  20.6069015  80.7825567
  36.7038555  20.7115918  79.3008356  41.7864161  23.5015977  70.6280430
  41.6482060  23.6917573  69.7001619  41.4300380  24.2635360  71.0848481
  29.9506287  17.4874073  76.7077442  30.5905667  17.3462832  76.0100405
  29.1183818  17.2008586  76.3316044  41.8133541  25.5692504  75.6391701
  42.2470047  25.4767794  76.4874755  42.5265121  25.5450005  75.0011717
  30.7266591  26.7876503  72.8212434  31.5207190  26.2926823  72.6195009
  30.0158284  26.2594366  72.4580140  35.5461436  29.1694599  77.1724802
  35.5998458  29.7385535  77.9402518  34.6776217  29.3396484  76.8078839
  27.0349355  20.9319585  68.8972187  26.1046943  20.8704040  69.1142149
  27.1306827  20.4095538  68.1008828  26.9534904  17.4574398  71.4850429
  27.2141721  18.3719731  71.3759589  27.7752076  16.9898840  71.6347042
  28.4259829  18.8712155  78.6549253  29.0982882  18.6629517  78.0061902
  27.5989616  18.6734241  78.2154486  42.6749090  25.6116205  78.1724587
  42.8684980  26.5162016  78.4183862  42.5749708  25.1523624  79.0063172
  34.3285401  15.4974096  80.6714914  33.6813316  16.1964045  80.5779391
  35.0986416  15.9310240  81.0391162  37.7364199  25.7622948  83.7465467
  37.5849705  25.5333500  82.8295551  37.7268878  26.7193549  83.7596812
  34.5049535  23.3354861  78.7311734  35.4341595  23.4866020  78.5580701
  34.0840565  23.4238881  77.8760380  33.3037867  27.3605525  76.5010272
  33.1648953  26.9924309  77.3736210  32.5152463  27.8753164  76.3294229
  33.8986019  32.4614622  67.8435808  34.0737775  31.9902665  68.6581431
  33.2118807  33.0880388  68.0717069  34.8543082  26.7387128  73.8899109
  34.5192915  26.6987898  74.7856759  34.3547028  26.0731844  73.4169520
  28.8287326  22.1454758  79.4151690  28.6907124  21.4134997  80.0163229
  29.7392250  22.0563658  79.1335878  37.7902274  24.0843162  64.1636169
  37.1731445  23.3589990  64.0669222  37.3218762  24.8452522  63.8203243
  31.4569627  21.8574717  78.9035370  32.1669245  21.2167909  78.8621989
  31.4138935  22.1087612  79.8261551  39.4456406  28.7942070  81.8241949
  39.3868952  28.1101291  81.1572532  39.8475924  29.5361060  81.3722575
  30.1698561  18.8439935  80.7231010  29.6335918  18.3930673  81.3752606
  29.5815269  18.9785844  79.9801474  28.4647104  35.6103984  74.6175668
  28.7043703  36.2422508  75.2954687  27.6216301  35.2592024  74.9041027
  29.5800820  18.3028586  63.2857473  28.7030286  18.1817387  62.9219720
  30.0558573  17.5114665  63.0336362  39.4473813  26.7581654  80.0555929
  38.5600592  26.4207576  80.1782328  40.0172364  26.0264686  80.2924694
  21.1002960  23.0905746  73.3798980  21.7874000  22.7767476  72.7919996
  20.9451089  23.9947111  73.1066232  25.9037682  17.9795943  77.8084004
  25.8195871  17.3721612  77.0734414  25.0820389  18.4704961  77.8093500
  32.9774966  31.4183107  77.0217172  32.9045138  32.2238078  77.5336477
  32.5352359  31.6175073  76.1965194  32.7664746  30.6554877  70.5319994
  31.9832268  31.1976557  70.6258218  33.4657491  31.1728856  70.9314235
  36.0761396  16.4649506  73.1754199  36.5730096  15.7119469  72.8555269
  35.3048378  16.5013823  72.6097408  43.9291153  22.1689872  74.8172491
  43.9181030  23.0514587  74.4466424  43.0608533  21.8161423  74.6227028
  35.4373650  31.3169941  79.1775331  36.1501622  31.9517406  79.1051232
  34.9463678  31.4133807  78.3615333  37.1591177  25.2221193  70.7492623
  36.2247455  25.3422656  70.5797327  37.3367845  24.3193660  70.4852632
  32.6596365  18.6066889  72.9025884  32.2894152  18.0537930  73.5906789
  33.1555457  18.0025023  72.3500884  40.5463728  21.0638513  71.2842657
  41.0124180  21.8966504  71.2102959  40.9971229  20.5983494  71.9887915
  30.4885563  29.0664384  79.9980902  31.1895023  29.7000867  80.1510296
  30.0180678  29.4079116  79.2376541  38.6139959  27.4082334  68.2828809
  38.8899803  27.2938929  69.1922683  37.7444458  27.0099819  68.2440982
  38.5180391  13.4319100  75.3233558  37.6043471  13.6623327  75.4915765
  38.9473492  13.5157544  76.1747590  38.2886849  21.6208992  77.8233452
  37.6358300  21.8684899  77.1685905  38.6667229  20.8073130  77.4895929
  35.2494023  31.6568685  71.9261622  35.4316418  30.8390341  72.3889375
  36.0727009  31.8736377  71.4886512  35.5836189  30.5836870  69.1876671
  36.1123955  30.0729325  68.5746833  35.8464408  30.2679400  70.0522204
  34.3374422  22.3628803  84.3099489  33.6615059  22.2622932  84.9801864
  35.1602056  22.2068016  84.7735486  26.0853281  28.6000739  76.9312004
  26.6706718  27.8544427  77.0639909  25.8878120  28.9104696  77.8148668
  28.9391937  31.6351987  71.9474447  28.2702312  32.1198114  71.4638487
  28.8004806  31.8821207  72.8617825  20.6770936  21.1706339  75.6516447
  20.7155036  20.6369930  76.4453566  20.1711229  20.6441545  75.0327425
  33.0797205  33.6695730  78.5457105  33.6315513  33.8327352  79.3106190
  33.4203399  34.2600168  77.8737130  28.0561698  16.0170880  79.1478990
  28.1203025  16.8785711  78.7356387  27.9928819  15.4044882  78.4151348
  27.5313971  18.0894013  82.7952024  28.1586010  17.7071090  83.4089548
  26.6741890  17.8708214  83.1607717  37.9308080  28.4956988  84.4005760
  38.4747984  29.1086946  83.9060714  37.3494924  29.0536566  84.9172773
  24.3079514  19.8970442  68.7270379  24.6032955  18.9881120  68.6737433
  23.4067549  19.8758181  68.4051381  36.2165592  31.6177706  75.5320787
  36.0916732  30.8167446  75.0231733  36.8744684  32.1123899  75.0434757
  27.8373761  17.9726438  74.7097927  27.1160346  18.5862406  74.5705401
  28.6267016  18.5084203  74.6314573  38.2800501  29.4186726  77.1600337
  37.3330836  29.2992077  77.0878664  38.6283274  28.5309224  77.2426599
  30.6400074  15.3080865  80.9838579  31.1634476  15.5543161  81.7464889
  30.4212408  16.1400900  80.5641717  26.0367355  17.5784539  68.8509704
  25.7080061  16.6981918  68.6684810  26.3906726  17.5232208  69.7386093
  35.2846934  29.2139442  73.3604690  35.1371897  28.2856149  73.5412260
  36.1100428  29.2359533  72.8761765  29.1509178  17.8657509  69.2185182
  29.4905251  18.3943430  68.4963790  29.5981299  18.2037915  69.9943748
  38.8881056  30.0368001  74.4469562  39.8127603  29.8310862  74.3094013
  38.7196359  29.7884402  75.3558904  31.8452619  16.2494560  78.6688250
  31.5049440  15.4502373  79.0708930  31.1391626  16.5496271  78.0965083
  32.4969091  13.3343872  77.1215573  33.3195160  12.8604350  76.9994463
  32.7407155  14.1134356  77.6214259  31.1377326  16.3632131  67.4178474
  31.8585688  16.7413383  66.9142191  30.5142630  17.0821007  67.5213452
  35.2808448  17.0677280  68.3536807  35.4972063  17.9501918  68.0525635
  34.8002516  16.6763493  67.6242449  30.0207670  20.0262993  74.9307551
  29.8752251  20.3403296  75.8231833  29.5432873  20.6447893  74.3778450
  31.8804053  17.0165541  74.9788441  31.8665621  16.1206634  74.6420739
  32.5976481  17.0236205  75.6126727  33.7330183  17.4502881  77.0241568
  33.4747961  18.3719952  77.0225899  33.2015224  17.0533316  77.7142033
  38.6776372  30.5553668  69.8031654  38.8513250  29.9900091  69.0505506
  39.1705263  31.3554563  69.6211144  24.4953332  22.5668337  77.8695213
  23.9506800  23.3428145  78.0015487  25.3732682  22.9139142  77.7114334
  31.2840949  15.8979921  70.2476011  31.4056860  14.9696567  70.4466899
  30.9942991  15.9118607  69.3354327  34.1532139  13.5834832  73.3842731
  34.1753836  13.6474165  72.4294710  34.5700198  12.7439340  73.5783237
  44.5315763  23.3190091  71.4221954  44.9746909  22.5697416  71.0241077
  43.6542274  23.3100227  71.0395685  39.6651545  29.8720433  66.9028552
  40.3602449  30.4927125  67.1215867  40.0074695  29.0215784  67.1780930
  25.2819354  21.6938234  80.7625369  24.5401090  21.8420869  81.3490000
  24.9612098  21.9546499  79.8992119  41.5642968  27.3220138  68.4315883
  42.0894292  27.6607411  67.7065203  41.4765320  26.3867153  68.2479017
  33.2263017  31.2354212  80.5605759  33.5350143  30.9903359  81.4328459
  34.0238499  31.4400850  80.0724630  33.2483629  33.3892121  72.7911136
  32.8088619  32.8968500  73.4843993  33.9991746  32.8465089  72.5503211
  25.7275968  29.5803662  72.7935764  26.5533987  29.2807434  72.4134408
  25.3770020  28.8111285  73.2425553  30.6957501  28.9330130  74.8633438
  30.0737510  28.2700836  74.5635666  31.3662368  28.9591262  74.1807085
  23.9284573  27.4989989  73.7524698  23.0916481  27.0712163  73.5708699
  23.9008218  27.6922432  74.6895489  30.7682028  17.4111919  84.4565944
  30.8170184  18.2874041  84.0743713  31.3104542  16.8689312  83.8837587
  41.2536874  27.9553042  83.7367081  40.4632418  27.9377181  83.1971580
  41.0170228  28.4941335  84.4916117  41.3734749  24.8045508  81.0499809
  41.4232754  24.6395516  81.9915332  41.2648672  23.9372767  80.6597690
  30.2571008  27.4834054  68.3391898  30.4059128  28.1669518  67.6858571
  31.0637451  27.4639144  68.8541354  38.6638511  20.7876436  82.3659116
  39.5648374  20.6482901  82.0743114  38.7386486  20.9530891  83.3057293
  32.9981317  18.1643291  81.2112302  32.1284626  18.4576857  80.9394891
  33.2340797  18.7483736  81.9319566  42.8752946  27.2242450  81.2941831
  42.5837754  27.5872430  82.1305292  42.2625077  26.5109458  81.1155163
  44.0748628  24.7895329  73.8144401  44.9095519  25.2285134  73.9781961
  44.2107757  24.3133983  72.9952647  41.1240134  22.3475064  79.7621889
  41.5994256  22.5402711  78.9540740  40.2005699  22.4034250  79.5165273
  28.0123641  23.5099231  69.3452967  27.7669683  22.6061561  69.5433177
  28.1819555  23.5116382  68.4032445  35.7020350  14.3822908  78.7277723
  36.2202294  15.1183935  78.4024211  35.3475483  14.6886901  79.5624482
  27.2819288  19.2427589  66.8439129  26.5888533  19.3171944  66.1879165
  27.0371040  18.4787933  67.3660646  35.9532945  10.8023190  74.2478619
  36.2334698  10.1346379  74.8739046  36.7383552  10.9952286  73.7353283
  33.7566413  29.9782184  65.8103646  33.1840380  30.5972371  65.3574118
  34.3299207  30.5281546  66.3443568  39.8241803  19.2240824  77.9950194
  40.7759226  19.3238922  78.0162418  39.6545253  18.4319093  78.5048279
  37.8456182  16.3096408  78.1809595  37.2506115  16.5901420  77.4856084
  37.5605879  16.7990309  78.9526336  36.9763673  30.2619334  66.9412228
  37.9094346  30.1964896  67.1445103  36.8886886  31.0975601  66.4826761
  39.6051690  29.5785205  63.9016175  39.5265321  29.2445068  64.7951933
  40.4261356  30.0706973  63.9007648  42.3029881  22.4446944  77.1092494
  42.2706201  21.5062945  77.2952178  42.9130504  22.5230981  76.3758319
  34.1413212  21.3142997  63.1519698  35.0872316  21.1849205  63.2208116
  33.7627457  20.5757659  63.6289126  42.4524369  19.2357987  77.1550777
  41.9363418  18.4516444  76.9680706  43.3364318  18.9076704  77.3197297
  40.1135096  12.9799003  73.1146590  39.9159917  12.6714091  73.9989922
  40.7234802  13.7060642  73.2444520  48.1206431  23.5062951  76.2498531
  48.8509819  23.2448239  76.8106234  47.5113376  22.7691673  76.2900599
  46.2021728  21.6470813  76.8472982  45.4754891  21.5126778  76.2389474
  45.7869015  21.9547642  77.6529700  34.0251904  25.3660743  84.6120355
  34.9454914  25.5439342  84.8060402  33.9901487  24.4216789  84.4600054
  32.3256129  19.2392973  63.0874583  31.4187584  18.9426086  63.1637297
  32.6032110  18.9422792  62.2208870  23.2434069  20.5599337  73.5373630
  22.9236854  19.7064645  73.2448004  22.6967497  20.7747915  74.2931597
  27.0213977  23.2761778  77.2543136  27.2399987  24.2078886  77.2731170
  27.4339751  22.9169752  78.0397940  33.9418195  13.7829863  69.2418825
  33.1318923  13.4376948  69.6174071  34.6302611  13.4737407  69.8306436
  35.8708743  12.8607910  70.8643121  36.4239781  13.2803363  71.5233144
  36.1078829  11.9343658  70.9066077  31.8941842  18.8494984  86.6445885
  31.7938569  19.7989341  86.5757976  31.6763384  18.5213222  85.7721955
  31.0954913  16.0979909  63.2286563  31.9574077  16.4234807  63.4882380
  31.2805258  15.3111405  62.7159628  23.1122329  24.1802248  75.5066751
  22.4185801  23.7656201  74.9936706  23.8595320  24.2222785  74.9100170
  39.2487550  14.9708435  70.3721786  38.6686219  15.6293239  69.9899838
  38.9823483  14.1485780  69.9609203  37.6991116  14.3713493  72.5743106
  38.1990895  14.4830027  71.7657425  38.3426724  14.0674546  73.2143914
  31.7573112  22.2792122  85.4610947  31.2740194  23.0792483  85.6674836
  31.8434051  22.2900067  84.5078391  25.0259072  24.1120502  73.3832766
  25.0029760  24.2108189  72.4314649  25.3359708  24.9585653  73.7049932
  27.6846450  26.1696657  77.4979381  28.6389703  26.1380599  77.4309312
  27.4858973  25.7087281  78.3129607  28.2745832  24.7397773  80.0650178
  29.0938721  25.2341852  80.0885016  28.5482639  23.8229741  80.0367746
  38.0312428  17.1308525  69.4278134  37.1438283  17.4158176  69.2098329
  38.4466417  16.9702289  68.5805411  41.3826964  17.1555046  73.1432473
  42.1587354  17.6451499  73.4157090  40.6575098  17.5813101  73.6004343
  43.8199523  17.8682666  74.2006414  44.4144013  17.6278402  73.4899722
  43.8926106  17.1489796  74.8279950  26.0396678  31.7116277  74.5149579
  25.9051146  30.9516678  73.9487577  25.6228741  32.4357176  74.0478367
  37.1755641  26.8953200  63.5226154  37.8791492  27.1003203  64.1383809
  36.4518290  27.4629962  63.7875237  38.0053452  22.6463061  69.6428424
  37.9488653  23.1031613  68.8036056  38.5581794  21.8853746  69.4651267
  41.8158258  18.4352793  70.4678543  41.5595192  18.0349429  71.2986751
  41.1911126  19.1496587  70.3428683  46.1270595  21.1748867  72.9749835
  45.5670153  21.2442056  73.7481397  45.5214099  20.9989851  72.2549331
  29.1965804  32.6085594  74.7268021  29.0798188  33.5531026  74.6246711
  28.3758251  32.3059155  75.1153820  39.0842339  27.3335729  65.5724614
  39.9187943  26.9016928  65.3902089  38.9226682  27.1617743  66.5001508
  38.7388231  23.8367843  66.9380953  38.6837035  23.6712114  65.9969397
  38.1134286  24.5443876  67.0943143  23.5280746  19.0735907  80.7642375
  24.1739610  18.5634861  81.2529601  23.3197897  19.8104589  81.3385801
  36.0534138  26.1416755  86.2634516  36.9225298  26.3157407  85.9021151
  35.5740890  26.9611171  86.1410245  32.0484356  13.3375952  66.5166272
  32.0363026  14.2817792  66.6734542  32.9407778  13.1546097  66.2225733
  30.2220318  33.2613856  77.9423950  31.1247565  33.2937466  78.2590445
  29.9957688  32.3314306  77.9570285  31.9773920  32.0144842  74.6034028
  31.0269551  32.0146704  74.4898400  32.2806407  31.2677577  74.0870063
  35.8636476   9.9318728  70.7712208  35.0968872   9.3777215  70.9168891
  36.2747181  10.0040597  71.6326360  27.8678237  16.2203524  84.8617390
  28.7309699  15.8640329  85.0720714  27.2943648  15.8817419  85.5492794
  47.7126614  37.8505380  75.6679791  48.3505024  37.7312128  74.9643131
  47.5947457  38.7986224  75.7267743  44.5216320  37.8032809  75.6041315
  44.1834832  37.6873873  74.7161850  45.3906088  37.4023974  75.5842321
  40.3803136  39.6568285  71.5938206  39.8168001  39.5658222  70.8254494
  40.2655531  38.8368189  72.0740699  45.0036103  38.9567660  81.5627521
  44.9924744  38.5620459  80.6908024  45.1656743  38.2233733  82.1561292
  37.9267568  41.1519477  74.4322427  38.7188860  40.8110301  74.0168726
  38.1664218  41.2614452  75.3524580  39.8858322  40.4128390  67.3039806
  40.6589198  39.8657377  67.1652681  40.2383721  41.2772639  67.5154267
  41.7243364  41.7404772  80.5106705  41.4333230  42.6450403  80.3953371
  42.3600349  41.7821300  81.2250774  42.6499571  39.1181621  77.1008064
  43.2463143  38.8937643  76.3865027  42.7074543  38.3766366  77.7033512
  42.2224600  36.5721056  64.9358255  42.4750120  36.0502577  64.1741718
  41.2849159  36.4087201  65.0384939  47.2667882  35.5756834  72.7432999
  48.0530972  35.1576257  72.3923416  47.5306587  36.4802926  72.9114647
  52.6676310  35.5132068  73.6465977  53.4001481  34.9431284  73.8803807
  51.9115665  35.1253668  74.0872483  41.9420888  38.4749162  67.1382630
  41.8257146  37.7994065  67.8063715  42.0523148  37.9881536  66.3214783
  44.2852429  37.9359309  70.8429320  43.9210636  37.4089930  71.5542241
  45.1419545  37.5457778  70.6695805  50.1901730  29.2253642  78.1060586
  49.8585055  30.0949053  77.8821801  49.5947343  28.9089926  78.7854616
  43.9257916  32.9649209  65.8390668  44.0932319  33.8329445  66.2061139
  43.7355085  33.1276490  64.9151957  46.6833249  41.4266188  77.5056498
  46.3833972  42.3291226  77.3972306  46.3384309  41.1598371  78.3577651
  40.1345731  37.8779984  73.5393203  39.2096227  37.7456199  73.7470895
  40.3830144  38.6574204  74.0363145  50.0830393  33.9448728  75.1853936
  49.1747271  33.8764136  74.8912697  50.0317989  34.4220673  76.0135761
  43.9047137  35.4206866  66.8237335  43.7846762  35.8663917  67.6622815
  43.2099725  35.7692184  66.2650873  37.4954542  37.5213258  74.3736992
  37.6246923  37.7747737  75.2876404  36.8151993  38.1140966  74.0541647
  44.1571259  35.3638373  83.1288833  43.3804593  35.9232294  83.1191698
  44.7961822  35.8495156  83.6503703  51.9492040  32.1465166  76.9631810
  51.3066420  32.4397699  76.3171604  51.4446968  32.0318087  77.7685006
  49.6032203  35.8928339  67.6517669  50.5150059  36.1255726  67.4765367
  49.0941850  36.4765384  67.0892748  42.4117631  38.1723827  82.6906800
  43.1532316  38.7108871  82.4141624  41.7054617  38.7990116  82.8478352
  47.8872971  40.3152967  81.2878962  48.2956327  39.8735378  80.5433594
  47.1650232  39.7405595  81.5413154  44.2404041  35.2525574  78.6612519
  45.0865236  35.6764988  78.8047168  44.1802679  34.5959198  79.3551082
  48.2101786  40.8754158  75.0431250  47.5810648  41.0399872  74.3407318
  47.8227448  41.2895767  75.8142214  52.0891017  41.8108596  72.3975614
  51.4042056  42.1907497  71.8472648  52.1734867  42.4203922  73.1307562
  47.3903486  32.9129942  80.3193692  47.1464418  33.6672003  79.7827968
  47.6663417  33.2915290  81.1540939  49.3441949  39.4568555  78.9970958
  49.5558844  40.1000315  78.3205339  49.2971697  38.6230871  78.5292888
  46.9468178  32.0686375  75.9007530  46.0852657  32.3667629  76.1924267
  46.9730613  32.2856774  74.9688563  43.7629747  40.6128566  72.3081336
  44.2268093  40.8916269  71.5185958  43.4986546  39.7112011  72.1254426
  40.6553828  40.1600047  75.2461099  41.2255186  40.5887316  74.6078583
  41.2461940  39.8782632  75.9445284  42.6998633  36.7351718  69.1170901
  43.4022677  37.1872762  69.5844827  42.3679262  36.0935537  69.7450794
  41.1478995  35.3263475  83.4922110  40.5177656  36.0079756  83.7257507
  41.0415083  35.2146557  82.5475248  36.4423967  34.9935271  74.4188034
  35.6523021  35.2492799  73.9428145  36.9335215  35.8083609  74.5240075
  50.4587777  42.3340510  77.1693315  51.2805221  41.9320697  76.8875997
  50.4550180  42.2308744  78.1209431  38.3938713  35.3579850  71.3771511
  37.5969876  35.4698544  71.8955007  38.1664305  35.6966502  70.5112401
  44.2244380  41.8824553  79.3254026  44.2888813  42.3444961  80.1612197
  43.5155304  41.2521918  79.4536335  34.7261670  35.2465761  76.8503025
  34.9769709  36.1312771  77.1160601  35.2621219  35.0670363  76.0778117
  58.5493770  38.6779259  73.5178287  57.7957478  38.1086657  73.3622291
  58.6841311  38.6441923  74.4648921  40.4259738  29.6284241  85.8547361
  40.0326683  29.0750439  86.5295005  41.2425878  29.9394819  86.2453879
  37.3921795  41.0668099  69.7660931  37.9046316  41.8611349  69.9166496
  38.0444508  40.3694389  69.6994532  39.2016680  44.1833855  71.8483684
  39.3783309  45.1051820  71.6604668  39.9973514  43.8692274  72.2778064
  43.3427699  31.0442120  83.4467618  44.0837412  31.6449273  83.3672080
  43.5745622  30.3019758  82.8885660  38.4869037  36.2298487  81.7245847
  38.3722552  35.3283744  82.0252946  37.6313554  36.4762184  81.3730664
  45.5660874  44.1716227  83.3233348  45.1224729  43.3852606  83.0054252
  46.2278088  44.3595378  82.6577239  40.3247996  45.7012029  77.8494027
  40.8755421  45.5729092  77.0771020  39.4859472  46.0006918  77.4988919
  47.6642113  44.4519027  81.3514749  47.6460588  45.2727908  80.8595018
  48.5862033  44.3273103  81.5764890  44.1215167  41.9663157  82.1938258
  44.6543504  41.2051445  81.9637566  43.5929248  41.6736809  82.9362412
  47.2884862  27.0723223  77.7231899  46.9449131  27.9624864  77.6471010
  47.6563824  26.8824880  76.8601484  35.3570712  39.3956753  70.5420502
  36.1945934  39.8053762  70.3254209  35.5348980  38.4556195  70.5120695
  44.8382255  31.9081535  71.2889573  43.9823852  31.5188385  71.1095212
  45.2509207  31.9873495  70.4289358  46.3681402  29.4427878  75.6881133
  45.8646198  29.4058013  74.8748938  46.6612009  30.3520621  75.7477789
  42.6124288  29.5266608  74.6947314  43.4777285  29.3309416  74.3353204
  42.6801797  29.2976959  75.6216671  47.0421448  34.9358926  68.0564116
  46.7371583  35.2505075  68.9074259  47.9951890  35.0140346  68.0991449
  50.4660725  39.2898170  74.8224116  49.8084400  39.9797431  74.9104245
  51.2701125  39.6794602  75.1658102  40.2186607  31.7568816  72.0663681
  40.7930359  31.5343997  71.3336874  40.8057589  31.8257510  72.8192282
  49.2766184  37.6442542  72.8728058  49.7898066  38.2772534  73.3749767
  49.9267408  37.0443738  72.5071418  40.5456194  33.7873277  66.0859566
  39.7093506  34.1247963  66.4068841  40.4060964  33.6522256  65.1486703
  42.5209275  28.6310065  70.7938751  41.8673687  28.3159082  70.1695365
  42.4789749  28.0085805  71.5198574  45.7547015  35.1191998  75.1186398
  44.8369576  35.3406945  74.9608086  46.1707159  35.1938309  74.2598106
  46.5382063  36.5183414  70.2489078  47.2853882  37.0304811  69.9396201
  46.8073652  36.1967466  71.1093472  50.0427980  42.6248544  71.0007200
  49.5890308  41.7839454  71.0572391  49.4121947  43.2609942  71.3381980
  48.9860900  33.5540530  72.2307868  48.2483657  33.0417916  72.5618110
  49.2387674  33.1140912  71.4191145  48.4860920  44.4625041  71.9357018
  48.7783894  45.0230098  71.2169384  48.9959540  44.7553602  72.6910178
  49.0872527  26.3316782  72.8249637  49.3931404  25.4714145  72.5375552
  49.8125132  26.9234402  72.6248631  35.3796883  36.7347469  71.2131235
  35.1821283  36.1416829  70.4882302  34.8243547  36.4299679  71.9307174
  43.3593607  36.6270575  73.3325828  43.4142217  35.6744411  73.2568305
  42.5484809  36.7830014  73.8167127  41.2985967  35.2447635  71.0916207
  40.4853833  35.5441805  71.4981399  41.7944961  34.8503324  71.8090689
  46.8960179  35.7089459  79.9231101  47.2509566  35.9360932  80.7825567
  47.5432310  36.0407836  79.3008356  52.6257916  38.8307895  70.6280430
  52.4875814  39.0209491  69.7001619  52.2694134  39.5927278  71.0848481
  40.7900042  32.8165990  76.7077442  41.4299421  32.6754749  76.0100405
  39.9577572  32.5300504  76.3316044  52.6527295  40.8984422  75.6391701
  53.0863802  40.8059711  76.4874755  53.3658876  40.8741923  75.0011717
  37.8743109  36.2611502  68.8972187  36.9440697  36.1995958  69.1142149
  37.9700581  35.7387455  68.1008828  37.7928658  32.7866315  71.4850429
  38.0535475  33.7011649  71.3759589  38.6145830  32.3190758  71.6347042
  39.2653584  34.2004072  78.6549253  39.9376637  33.9921435  78.0061902
  38.4383370  34.0026158  78.2154486  53.5142845  40.9408123  78.1724587
  53.7078735  41.8453933  78.4183862  53.4143463  40.4815542  79.0063172
  45.1679156  30.8266013  80.6714914  44.5207071  31.5255963  80.5779391
  45.9380171  31.2602157  81.0391162  48.5757953  41.0914866  83.7465467
  48.4243460  40.8625417  82.8295551  48.5662633  42.0485467  83.7596812
  45.3443290  38.6646778  78.7311734  46.2735350  38.8157938  78.5580701
  44.9234320  38.7530799  77.8760380  39.6681081  37.4746675  79.4151690
  39.5300879  36.7426914  80.0163229  40.5786004  37.3855576  79.1335878
  42.2963381  37.1866635  78.9035370  43.0063000  36.5459827  78.8621989
  42.2532690  37.4379530  79.8261551  50.2850160  44.1233988  81.8241949
  50.2262706  43.4393208  81.1572532  50.6869678  44.8652978  81.3722575
  41.0092315  34.1731853  80.7231010  40.4729672  33.7222591  81.3752606
  40.4209024  34.3077761  79.9801474  40.4194574  33.6320504  63.2857473
  39.5424041  33.5109305  62.9219720  40.8952327  32.8406582  63.0336362
  50.2867567  42.0873572  80.0555929  49.3994346  41.7499494  80.1782328
  50.8566118  41.3556603  80.2924694  31.9396714  38.4197664  73.3798980
  32.6267754  38.1059394  72.7919996  31.7844843  39.3239028  73.1066232
  36.7431437  33.3087860  77.8084004  36.6589625  32.7013530  77.0734414
  35.9214143  33.7996879  77.8093500  46.9155150  31.7941424  73.1754199
  47.4123850  31.0411386  72.8555269  46.1442132  31.8305741  72.6097408
  54.7684908  37.4981789  74.8172491  54.7574784  38.3806505  74.4466424
  53.9002287  37.1453340  74.6227028  43.4990119  33.9358807  72.9025884
  43.1287907  33.3829847  73.5906789  43.9949212  33.3316940  72.3500884
  51.3857483  36.3930430  71.2842657  51.8517935  37.2258422  71.2102959
  51.8364983  35.9275412  71.9887915  41.3279318  44.3956302  79.9980902
  42.0288777  45.0292785  80.1510296  40.8574433  44.7371033  79.2376541
  49.3574145  28.7611017  75.3233558  48.4437225  28.9915244  75.4915765
  49.7867247  28.8449461  76.1747590  49.1280604  36.9500909  77.8233452
  48.4752054  37.1976817  77.1685905  49.5060984  36.1365048  77.4895929
  45.1768177  37.6920720  84.3099489  44.5008814  37.5914850  84.9801864
  45.9995811  37.5359934  84.7735486  36.9247036  43.9292657  76.9312004
  37.5100473  43.1836345  77.0639909  36.7271874  44.2396614  77.8148668
  31.5164691  36.4998257  75.6516447  31.5548790  35.9661848  76.4453566
  31.0104983  35.9733463  75.0327425  38.8955453  31.3462798  79.1478990
  38.9596779  32.2077629  78.7356387  38.8322573  30.7336799  78.4151348
  38.3707725  33.4185930  82.7952024  38.9979764  33.0363008  83.4089548
  37.5135644  33.2000132  83.1607717  48.7701834  43.8248905  84.4005760
  49.3141738  44.4378864  83.9060714  48.1888679  44.3828484  84.9172773
  35.1473268  35.2262359  68.7270379  35.4426709  34.3173038  68.6737433
  34.2461304  35.2050099  68.4051381  38.6767515  33.3018356  74.7097927
  37.9554101  33.9154324  74.5705401  39.4660771  33.8376121  74.6314573
  49.1194255  44.7478643  77.1600337  48.1724591  44.6283995  77.0878664
  49.4677028  43.8601142  77.2426599  41.4793829  30.6372782  80.9838579
  42.0028231  30.8835079  81.7464889  41.2606162  31.4692817  80.5641717
  36.8761110  32.9076457  68.8509704  36.5473816  32.0273836  68.6684810
  37.2300480  32.8524126  69.7386093  39.9902933  33.1949427  69.2185182
  40.3299005  33.7235348  68.4963790  40.4375053  33.5329833  69.9943748
  49.7274810  45.3659918  74.4469562  50.6521358  45.1602780  74.3094013
  49.5590114  45.1176320  75.3558904  42.6846374  31.5786477  78.6688250
  42.3443194  30.7794291  79.0708930  41.9785380  31.8788188  78.0965083
  43.3362846  28.6635790  77.1215573  44.1588915  28.1896268  76.9994463
  43.5800909  29.4426274  77.6214259  41.9771080  31.6924048  67.4178474
  42.6979443  32.0705301  66.9142191  41.3536384  32.4112925  67.5213452
  46.1202203  32.3969197  68.3536807  46.3365817  33.2793835  68.0525635
  45.6396270  32.0055411  67.6242449  40.8601424  35.3554911  74.9307551
  40.7146005  35.6695214  75.8231833  40.3826628  35.9739811  74.3778450
  42.7197807  32.3457459  74.9788441  42.7059376  31.4498552  74.6420739
  43.4370235  32.3528122  75.6126727  44.5723938  32.7794799  77.0241568
  44.3141716  33.7011869  77.0225899  44.0408978  32.3825233  77.7142033
  35.3347087  37.8960255  77.8695213  34.7900555  38.6720063  78.0015487
  36.2126436  38.2431059  77.7114334  42.1234703  31.2271839  70.2476011
  42.2450614  30.2988485  70.4466899  41.8336746  31.2410525  69.3354327
  44.9925894  28.9126749  73.3842731  45.0147590  28.9766082  72.4294710
  45.4093953  28.0731258  73.5783237  55.3709518  38.6482009  71.4221954
  55.8140664  37.8989334  71.0241077  54.4936028  38.6392145  71.0395685
  36.1213108  37.0230151  80.7625369  35.3794844  37.1712787  81.3490000
  35.8005853  37.2838417  79.8992119  44.0656771  46.5646129  80.5605759
  44.3743897  46.3195276  81.4328459  44.8632253  46.7692768  80.0724630
  36.5669722  44.9095580  72.7935764  37.3927742  44.6099352  72.4134408
  36.2163774  44.1403202  73.2425553  34.7678327  42.8281906  73.7524698
  33.9310235  42.4004081  73.5708699  34.7401973  43.0214350  74.6895489
  41.6075783  32.7403836  84.4565944  41.6563938  33.6165959  84.0743713
  42.1498297  32.1981229  83.8837587  52.0930628  43.2844959  83.7367081
  51.3026172  43.2669098  83.1971580  51.8563983  43.8233253  84.4916117
  52.2128503  40.1337426  81.0499809  52.2626508  39.9687433  81.9915332
  52.1042427  39.2664685  80.6597690  41.0964762  42.8125972  68.3391898
  41.2452882  43.4961436  67.6858571  41.9031206  42.7931062  68.8541354
  49.5032266  36.1168354  82.3659116  50.4042129  35.9774819  82.0743114
  49.5780240  36.2822809  83.3057293  43.8375071  33.4935209  81.2112302
  42.9678381  33.7868775  80.9394891  44.0734552  34.0775654  81.9319566
  53.7146700  42.5534367  81.2941831  53.4231509  42.9164348  82.1305292
  53.1018832  41.8401376  81.1155163  54.9142383  40.1187247  73.8144401
  55.7489274  40.5577051  73.9781961  55.0501511  39.6425900  72.9952647
  51.9633889  37.6766982  79.7621889  52.4388010  37.8694628  78.9540740
  51.0399454  37.7326168  79.5165273  38.8517395  38.8391149  69.3452967
  38.6063437  37.9353479  69.5433177  39.0213310  38.8408300  68.4032445
  46.5414105  29.7114826  78.7277723  47.0596049  30.4475852  78.4024211
  46.1869238  30.0178819  79.5624482  38.1213043  34.5719507  66.8439129
  37.4282288  34.6463862  66.1879165  37.8764795  33.8079850  67.3660646
  46.7926699  26.1315108  74.2478619  47.0728453  25.4638297  74.8739046
  47.5777306  26.3244204  73.7353283  50.6635557  34.5532742  77.9950194
  51.6152980  34.6530840  78.0162418  50.4939008  33.7611011  78.5048279
  48.6849937  31.6388325  78.1809595  48.0899869  31.9193338  77.4856084
  48.3999634  32.1282226  78.9526336  53.1423635  37.7738862  77.1092494
  53.1099955  36.8354862  77.2952178  53.7524259  37.8522898  76.3758319
  44.9806966  36.6434915  63.1519698  45.9266071  36.5141123  63.2208116
  44.6021211  35.9049577  63.6289126  53.2918124  34.5649905  77.1550777
  52.7757172  33.7808362  76.9680706  54.1758072  34.2368622  77.3197297
  50.9528851  28.3090921  73.1146590  50.7553672  28.0006009  73.9989922
  51.5628556  29.0352560  73.2444520  58.9600185  38.8354869  76.2498531
  59.6903574  38.5740157  76.8106234  58.3507131  38.0983591  76.2900599
  57.0415482  36.9762731  76.8472982  56.3148646  36.8418696  76.2389474
  56.6262769  37.2839560  77.6529700  44.8645659  40.6952661  84.6120355
  45.7848668  40.8731260  84.8060402  44.8295242  39.7508706  84.4600054
  43.1649883  34.5684891  63.0874583  42.2581339  34.2718004  63.1637297
  43.4425864  34.2714709  62.2208870  34.0827824  35.8891255  73.5373630
  33.7630608  35.0356563  73.2448004  33.5361252  36.1039833  74.2931597
  37.8607731  38.6053696  77.2543136  38.0793741  39.5370803  77.2731170
  38.2733505  38.2461670  78.0397940  44.7811949  29.1121781  69.2418825
  43.9712677  28.7668866  69.6174071  45.4696366  28.8029325  69.8306436
  46.7102497  28.1899828  70.8643121  47.2633536  28.6095281  71.5233144
  46.9472584  27.2635576  70.9066077  42.7335597  34.1786901  86.6445885
  42.6332323  35.1281258  86.5757976  42.5157139  33.8505140  85.7721955
  41.9348668  31.4271826  63.2286563  42.7967832  31.7526725  63.4882380
  42.1199012  30.6403322  62.7159628  33.9516084  39.5094166  75.5066751
  33.2579555  39.0948119  74.9936706  34.6989075  39.5514703  74.9100170
  50.0881304  30.3000353  70.3721786  49.5079973  30.9585157  69.9899838
  49.8217237  29.4777697  69.9609203  48.5384871  29.7005410  72.5743106
  49.0384649  29.8121945  71.7657425  49.1820479  29.3966463  73.2143914
  42.5966867  37.6084040  85.4610947  42.1133948  38.4084400  85.6674836
  42.6827806  37.6191985  84.5078391  35.8652826  39.4412420  73.3832766
  35.8423514  39.5400107  72.4314649  36.1753463  40.2877571  73.7049932
  38.5240204  41.4988575  77.4979381  39.4783458  41.4672517  77.4309312
  38.3252728  41.0379199  78.3129607  39.1139586  40.0689691  80.0650178
  39.9332475  40.5633770  80.0885016  39.3876394  39.1521659  80.0367746
  48.8706182  32.4600443  69.4278134  47.9832037  32.7450094  69.2098329
  49.2860171  32.2994207  68.5805411  52.2220719  32.4846964  73.1432473
  52.9981109  32.9743417  73.4157090  51.4968853  32.9105018  73.6004343
  54.6593277  33.1974583  74.2006414  55.2537768  32.9570319  73.4899722
  54.7319861  32.4781714  74.8279950  36.8790433  47.0408194  74.5149579
  36.7444901  46.2808595  73.9487577  36.4622495  47.7649094  74.0478367
  48.8447206  37.9754979  69.6428424  48.7882408  38.4323531  68.8036056
  49.3975549  37.2145664  69.4651267  52.6552012  33.7644711  70.4678543
  52.3988946  33.3641347  71.2986751  52.0304880  34.4788505  70.3428683
  56.9664350  36.5040784  72.9749835  56.4063908  36.5733974  73.7481397
  56.3607853  36.3281769  72.2549331  34.3674500  34.4027825  80.7642375
  35.0133364  33.8926779  81.2529601  34.1591652  35.1396506  81.3385801
  46.8927893  41.4708672  86.2634516  47.7619052  41.6449324  85.9021151
  46.4134644  42.2903089  86.1410245  42.8878111  28.6667869  66.5166272
  42.8756781  29.6109709  66.6734542  43.7801533  28.4838015  66.2225733
  46.7030230  25.2610646  70.7712208  45.9362626  24.7069133  70.9168891
  47.1140935  25.3332515  71.6326360  38.7071991  31.5495442  84.8617390
  39.5703453  31.1932247  85.0720714  38.1337402  31.2109337  85.5492794
  63.5070064  50.8423985  73.6465977  64.2395236  50.2723202  73.8803807
  62.7509420  50.4545586  74.0872483  61.0295484  44.5545559  78.1060586
  60.6978809  45.4240970  77.8821801  60.4341098  44.2381843  78.7854616
  57.5227004  56.7558105  77.5056498  57.2227727  57.6583144  77.3972306
  57.1778063  56.4890289  78.3577651  60.9224148  49.2740645  75.1853936
  60.0141025  49.2056054  74.8912697  60.8711743  49.7512590  76.0135761
  48.3348296  52.8505176  74.3736992  48.4640678  53.1039655  75.2876404
  47.6545748  53.4432884  74.0541647  62.7885794  47.4757084  76.9631810
  62.1460174  47.7689617  76.3171604  62.2840723  47.3610004  77.7685006
  58.7266725  55.6444885  81.2878962  59.1350081  55.2027295  80.5433594
  58.0043987  55.0697512  81.5413154  59.0495540  56.2046076  75.0431250
  58.4204402  56.3691790  74.3407318  58.6621202  56.6187685  75.8142214
  58.2297241  48.2421860  80.3193692  57.9858173  48.9963921  79.7827968
  58.5057171  48.6207208  81.1540939  60.1835704  54.7860472  78.9970958
  60.3952599  55.4292232  78.3205339  60.1365452  53.9522789  78.5292888
  57.7861933  47.3978293  75.9007530  56.9246412  47.6959547  76.1924267
  57.8124367  47.6148692  74.9688563  61.2981531  57.6632428  77.1693315
  62.1198975  57.2612615  76.8875997  61.2943934  57.5600662  78.1209431
  51.2653492  44.9576158  85.8547361  50.8720438  44.4042357  86.5295005
  52.0819633  45.2686737  86.2453879  54.1821453  46.3734038  83.4467618
  54.9231167  46.9741191  83.3672080  54.4139376  45.6311675  82.8885660
  58.5035867  59.7810945  81.3514749  58.4854342  60.6019826  80.8595018
  59.4255787  59.6565020  81.5764890  58.1278616  42.4015140  77.7231899
  57.7842886  43.2916782  77.6471010  58.4957579  42.2116798  76.8601484
  57.2075157  44.7719796  75.6881133  56.7039952  44.7349931  74.8748938
  57.5005763  45.6812538  75.7477789  53.4518042  44.8558525  74.6947314
  54.3171039  44.6601334  74.3353204  53.5195551  44.6268877  75.6216671
  61.3054480  54.6190087  74.8224116  60.6478154  55.3089349  74.9104245
  62.1094879  55.0086519  75.1658102  59.9266282  41.6608700  72.8249637
  60.2325159  40.8006063  72.5375552  60.6518887  42.2526320  72.6248631
  57.7353933  51.0381377  79.9231101  58.0903321  51.2652850  80.7825567
  58.3826064  51.3699754  79.3008356  51.6293796  48.1457908  76.7077442
  52.2693176  48.0046667  76.0100405  50.7971327  47.8592421  76.3316044
  63.4921050  56.2276340  75.6391701  63.9257556  56.1351629  76.4874755
  64.2052630  56.2033840  75.0011717  57.2248945  59.8278434  77.1724802
  57.2785967  60.3969370  77.9402518  56.3563726  59.9980319  76.8078839
  64.3536599  56.2700040  78.1724587  64.5472489  57.1745851  78.4183862
  64.2537217  55.8107460  79.0063172  56.0072910  46.1557931  80.6714914
  55.3600825  46.8547881  80.5779391  56.7773925  46.5894075  81.0391162
  59.4151708  56.4206783  83.7465467  59.2637214  56.1917335  82.8295551
  59.4056387  57.3777385  83.7596812  61.1243915  59.4525906  81.8241949
  61.0656461  58.7685126  81.1572532  61.5263433  60.1944896  81.3722575
  61.1261322  57.4165490  80.0555929  60.2388101  57.0791412  80.1782328
  61.6959873  56.6848521  80.2924694  65.6078662  52.8273707  74.8172491
  65.5968539  53.7098423  74.4466424  64.7396042  52.4745258  74.6227028
  60.1967900  44.0902935  75.3233558  59.2830980  44.3207162  75.4915765
  60.6261001  44.1741379  76.1747590  59.9674358  52.2792827  77.8233452
  59.3145809  52.5268734  77.1685905  60.3454738  51.4656965  77.4895929
  59.6095589  59.1540823  84.4005760  60.1535492  59.7670781  83.9060714
  59.0282433  59.7120401  84.9172773  52.3187583  45.9664700  80.9838579
  52.8421985  46.2126997  81.7464889  52.0999916  46.7984735  80.5641717
  53.5240128  46.9078395  78.6688250  53.1836949  46.1086208  79.0708930
  52.8179135  47.2080106  78.0965083  54.1756600  43.9927708  77.1215573
  54.9982669  43.5188186  76.9994463  54.4194664  44.7718191  77.6214259
  55.4117692  48.1086716  77.0241568  55.1535470  49.0303787  77.0225899
  54.8802733  47.7117151  77.7142033  52.4469537  48.0695754  84.4565944
  52.4957693  48.9457877  84.0743713  52.9892051  47.5273147  83.8837587
  62.9324383  58.6136877  83.7367081  62.1419927  58.5961016  83.1971580
  62.6957737  59.1525171  84.4916117  63.0522258  55.4629343  81.0499809
  63.1020263  55.2979351  81.9915332  62.9436181  54.5956603  80.6597690
  60.3426020  51.4460272  82.3659116  61.2435883  51.3066736  82.0743114
  60.4173995  51.6114726  83.3057293  54.6768826  48.8227126  81.2112302
  53.8072135  49.1160692  80.9394891  54.9128306  49.4067571  81.9319566
  64.5540455  57.8826285  81.2941831  64.2625263  58.2456266  82.1305292
  63.9412586  57.1693293  81.1155163  65.7536137  55.4479165  73.8144401
  66.5883028  55.8868969  73.9781961  65.8895266  54.9717818  72.9952647
  62.8027643  53.0058900  79.7621889  63.2781765  53.1986546  78.9540740
  61.8793208  53.0618085  79.5165273  57.3807859  45.0406743  78.7277723
  57.8989803  45.7767770  78.4024211  57.0262992  45.3470736  79.5624482
  57.6320454  41.4607026  74.2478619  57.9122207  40.7930215  74.8739046
  58.4171061  41.6536121  73.7353283  61.5029312  49.8824660  77.9950194
  62.4546735  49.9822757  78.0162418  61.3332762  49.0902928  78.5048279
  59.5243691  46.9680243  78.1809595  58.9293624  47.2485256  77.4856084
  59.2393388  47.4574144  78.9526336  63.9817390  53.1030779  77.1092494
  63.9493710  52.1646780  77.2952178  64.5918013  53.1814816  76.3758319
  64.1311878  49.8941823  77.1550777  63.6150927  49.1100279  76.9680706
  65.0151827  49.5660539  77.3197297  61.7922605  43.6382838  73.1146590
  61.5947426  43.3297927  73.9989922  62.4022311  44.3644477  73.2444520
  69.7993940  54.1646786  76.2498531  70.5297328  53.9032074  76.8106234
  69.1900885  53.4275508  76.2900599  67.8809237  52.3054649  76.8472982
  67.1542400  52.1710614  76.2389474  67.4656524  52.6131477  77.6529700
  53.5729351  49.5078819  86.6445885  53.4726078  50.4573176  86.5757976
  53.3550893  49.1797058  85.7721955  60.9275059  45.6292270  70.3721786
  60.3473728  46.2877074  69.9899838  60.6610992  44.8069615  69.9609203
  63.0614473  47.8138882  73.1432473  63.8374863  48.3035334  73.4157090
  62.3362607  48.2396936  73.6004343  65.4987032  48.5266501  74.2006414
  66.0931522  48.2862237  73.4899722  65.5713615  47.8073632  74.8279950
  67.8058104  51.8332702  72.9749835  67.2457662  51.9025891  73.7481397
  67.2001608  51.6573687  72.2549331  57.7321647  56.8000590  86.2634516
  58.6012807  56.9741242  85.9021151  57.2528399  57.6195007  86.1410245
  57.5423985  40.5902564  70.7712208  56.7756381  40.0361050  70.9168891
  57.9534690  40.6624432  71.6326360  49.5465746  46.8787359  84.8617390
  50.4097208  46.5224164  85.0720714  48.9731157  46.5401254  85.5492794
  62.1047247  60.2868076  85.8547361  61.7114192  59.7334275  86.5295005
  62.9213387  60.5978655  86.2453879  65.0215208  61.7025955  83.4467618
  65.7624921  62.3033108  83.3672080  65.2533131  60.9603593  82.8885660
  60.1656546  66.8882322  81.7245847  60.0510061  65.9867580  82.0252946
  59.3101063  67.1346019  81.3730664  66.8466664  61.4849849  80.6714914
  66.1994580  62.1839798  80.5779391  67.6167680  61.9185993  81.0391162
  62.6879824  64.8315688  80.7231010  62.1517181  64.3806426  81.3752606
  62.0996533  64.9661597  79.9801474  60.5742962  62.0046633  79.1478990
  60.6384288  62.8661464  78.7356387  60.5110082  61.3920635  78.4151348
  63.1581338  61.2956618  80.9838579  63.6815740  61.5418914  81.7464889
  62.9393671  62.1276653  80.5641717  65.0150355  59.3219625  77.1215573
  65.8376424  58.8480103  76.9994463  65.2588418  60.1010109  77.6214259
  63.2863292  63.3987672  84.4565944  63.3351447  64.2749794  84.0743713
  63.8285806  62.8565065  83.8837587  73.7718137  73.9428795  83.7367081
  72.9813681  73.9252934  83.1971580  73.5351492  74.4817088  84.4916117
  73.8916012  70.7921261  81.0499809  73.9414017  70.6271269  81.9915332
  73.7829936  69.9248520  80.6597690  75.3934209  73.2118203  81.2941831
  75.1019018  73.5748183  82.1305292  74.7806341  72.4985211  81.1155163
  64.4123106  64.8370737  86.6445885  64.3119832  65.7865094  86.5757976
  64.1944648  64.5088976  85.7721955  60.3859500  62.2079277  84.8617390
  61.2490962  61.8516082  85.0720714  59.8124911  61.8693172  85.5492794
  80.2307877  83.8381133  75.6679791  80.8686287  83.7187881  74.9643131
  80.1128720  84.7861977  75.7267743  77.0397584  83.7908562  75.6041315
  76.7016095  83.6749626  74.7161850  77.9087352  83.3899727  75.5842321
  77.5217367  84.9443413  81.5627521  77.5106007  84.5496212  80.6908024
  77.6838006  84.2109486  82.1561292  78.4783958  89.3115006  66.9052671
  77.8271938  89.8969086  66.5186685  79.2728321  89.8421201  66.9647709
  74.2424628  87.7280525  80.5106705  73.9514494  88.6326156  80.3953371
  74.8781612  87.7697053  81.2250774  75.1680835  85.1057374  77.1008064
  75.7644407  84.8813396  76.3865027  75.2255806  84.3642119  77.7033512
  79.7849146  81.5632587  72.7432999  80.5712235  81.1452011  72.3923416
  80.0487850  82.4678680  72.9114647  79.9559223  87.0005438  67.4421655
  79.3205056  87.0740064  68.1542560  79.6256630  87.5899036  66.7640735
  85.1857573  81.5007821  73.6465977  85.9182745  80.9307037  73.8803807
  84.4296929  81.1129421  74.0872483  82.7082993  75.2129395  78.1060586
  82.3766318  76.0824806  77.8821801  82.1128607  74.8965679  78.7854616
  79.2014513  87.4141941  77.5056498  78.9015236  88.3166979  77.3972306
  78.8565572  87.1474124  78.3577651  82.6011657  79.9324481  75.1853936
  81.6928534  79.8639889  74.8912697  82.5499252  80.4096426  76.0135761
  74.1835293  94.1786261  70.4727466  74.1059322  95.1294086  70.5515947
  73.5796936  93.8332133  71.1302392  76.6752522  81.3514126  83.1288833
  75.8985856  81.9108047  83.1191698  77.3143085  81.8370909  83.6503703
  84.4673303  78.1340919  76.9631810  83.8247683  78.4273452  76.3171604
  83.9628232  78.0193840  77.7685006  82.1213467  81.8804092  67.6517669
  83.0331323  82.1131479  67.4765367  81.6123114  82.4641137  67.0892748
  74.9298895  84.1599580  82.6906800  75.6713579  84.6984624  82.4141624
  74.2235880  84.7865869  82.8478352  80.4054234  86.3028720  81.2878962
  80.8137590  85.8611131  80.5433594  79.6831496  85.7281348  81.5413154
  76.7585304  81.2401327  78.6612519  77.6046500  81.6640741  78.8047168
  76.6983942  80.5834951  79.3551082  80.7283049  86.8629911  75.0431250
  80.0991911  87.0275625  74.3407318  80.3408711  87.2771520  75.8142214
  84.6072281  87.7984349  72.3975614  83.9223319  88.1783250  71.8472648
  84.6916130  88.4079675  73.1307562  79.9084750  78.9005695  80.3193692
  79.6645682  79.6547756  79.7827968  80.1844680  79.2791043  81.1540939
  81.8623213  85.4444308  78.9970958  82.0740108  86.0876068  78.3205339
  81.8152961  84.6106624  78.5292888  73.6660258  81.3139228  83.4922110
  73.0358919  81.9955509  83.7257507  73.5596346  81.2022310  82.5475248
  82.9769040  88.3216263  77.1693315  83.7986484  87.9196450  76.8875997
  82.9731443  88.2184497  78.1209431  76.7425644  87.8700306  79.3254026
  76.8070076  88.3320714  80.1612197  76.0336568  87.2397671  79.4536335
  91.0675034  84.6655012  73.5178287  90.3138742  84.0962410  73.3622291
  91.2022575  84.6317676  74.4648921  76.4573662  89.5368414  69.1933006
  76.3219336  90.3819950  69.6217854  76.9983474  89.7387692  68.4298940
  72.9441001  75.6159994  85.8547361  72.5507947  75.0626192  86.5295005
  73.7607142  75.9270572  86.2453879  75.8608962  77.0317873  83.4467618
  76.6018676  77.6325026  83.3672080  76.0926885  76.2895511  82.8885660
  78.0842138  90.1591980  83.3233348  77.6405992  89.3728359  83.0054252
  78.7459352  90.3471131  82.6577239  72.8429259  91.6887782  77.8494027
  73.3936684  91.5604845  77.0771020  72.0040735  91.9882671  77.4988919
  80.1823376  90.4394780  81.3514749  80.1641851  91.2603661  80.8595018
  81.1043296  90.3148856  81.5764890  76.6396430  87.9538910  82.1938258
  77.1724767  87.1927198  81.9637566  76.1110511  87.6612562  82.9362412
  79.7716408  83.0507587  66.2304334  79.2563031  83.8212192  66.4692722
  79.4993716  82.3772723  66.8537396  77.3563519  77.8957288  71.2889573
  76.5005115  77.5064138  71.1095212  77.7690471  77.9749249  70.4289358
  84.7450682  85.8039942  68.1657508  83.9680125  85.4651101  67.7212670
  85.4242163  85.8092565  67.4912473  79.5602711  80.9234679  68.0564116
  79.2552847  81.2380828  68.9074259  80.5133153  81.0016099  68.0991449
  82.9841989  85.2773923  74.8224116  82.3265663  85.9673184  74.9104245
  83.7882388  85.6670355  75.1658102  81.7947448  83.6318296  72.8728058
  82.3079329  84.2648287  73.3749767  82.4448672  83.0319491  72.5071418
  79.0569822  93.6102620  65.6288729  78.3831521  93.9134317  66.2373687
  79.4435644  94.4131700  65.2794186  78.2728279  81.1067751  75.1186398
  77.3550840  81.3282698  74.9608086  78.6888422  81.1814062  74.2598106
  79.0563326  82.5059167  70.2489078  79.8035145  83.0180564  69.9396201
  79.3254916  82.1843219  71.1093472  82.5609244  88.6124297  71.0007200
  82.1071571  87.7715207  71.0572391  81.9303211  89.2485695  71.3381980
  81.5042163  79.5416283  72.2307868  80.7664920  79.0293669  72.5618110
  81.7568937  79.1016665  71.4191145  81.0042183  90.4500794  71.9357018
  81.2965158  91.0105851  71.2169384  81.5140804  90.7429355  72.6910178
  77.0266064  86.5426451  64.5704111  76.5885494  85.8262310  64.1109749
  77.7676505  86.7702566  64.0089203  75.9675808  91.2281145  73.0250472
  75.9251987  91.4541991  72.0959004  76.8838507  90.9944519  73.1736273
  79.4141442  81.6965212  79.9231101  79.7690830  81.9236685  80.7825567
  80.0613573  82.0283589  79.3008356  85.1439179  84.8183648  70.6280430
  85.0057078  85.0085244  69.7001619  84.7875398  85.5803031  71.0848481
  85.1708559  86.8860175  75.6391701  85.6045065  86.7935464  76.4874755
  85.8840139  86.8617676  75.0011717  78.9036454  90.4862269  77.1724802
  78.9573476  91.0553206  77.9402518  78.0351235  90.6564154  76.8078839
  86.0324108  86.9283876  78.1724587  86.2259998  87.8329686  78.4183862
  85.9324726  86.4691295  79.0063172  77.6860419  76.8141766  80.6714914
  77.0388334  77.5131716  80.5779391  78.4561434  77.2477910  81.0391162
  81.0939217  87.0790619  83.7465467  80.9424723  86.8501170  82.8295551
  81.0843896  88.0361220  83.7596812  77.8624553  84.6522531  78.7311734
  78.7916613  84.8033691  78.5580701  77.4415583  84.7406552  77.8760380
  76.6612885  88.6773196  76.5010272  76.5223971  88.3091980  77.3736210
  75.8727481  89.1920835  76.3294229  77.2561037  93.7782292  67.8435808
  77.4312793  93.3070335  68.6581431  76.5693825  94.4048058  68.0717069
  78.2118100  88.0554798  73.8899109  77.8767933  88.0155568  74.7856759
  77.7122046  87.3899514  73.4169520  81.1477292  85.4010833  64.1636169
  80.5306463  84.6757661  64.0669222  80.6793780  86.1620193  63.8203243
  74.8144645  83.1742388  78.9035370  75.5244263  82.5335580  78.8621989
  74.7713953  83.4255283  79.8261551  82.8031424  90.1109741  81.8241949
  82.7443970  89.4268961  81.1572532  83.2050942  90.8528731  81.3722575
  71.8222122  96.9271655  74.6175668  72.0618721  97.5590179  75.2954687
  70.9791319  96.5759695  74.9041027  82.8048831  88.0749325  80.0555929
  81.9175610  87.7375247  80.1782328  83.3747382  87.3432356  80.2924694
  76.3349984  92.7350777  77.0217172  76.2620156  93.5405749  77.5336477
  75.8927377  92.9342743  76.1965194  76.1239764  91.9722547  70.5319994
  75.3407286  92.5144228  70.6258218  76.8232509  92.4896527  70.9314235
  87.2866171  83.4857542  74.8172491  87.2756048  84.3682258  74.4466424
  86.4183551  83.1329093  74.6227028  78.7948668  92.6337611  79.1775331
  79.5076640  93.2685076  79.1051232  78.3038696  92.7301477  78.3615333
  80.5166195  86.5388864  70.7492623  79.5822473  86.6590327  70.5797327
  80.6942863  85.6361331  70.4852632  83.9038746  82.3806183  71.2842657
  84.3699198  83.2134175  71.2102959  84.3546247  81.9151165  71.9887915
  73.8460581  90.3832055  79.9980902  74.5470041  91.0168538  80.1510296
  73.3755696  90.7246786  79.2376541  81.9714977  88.7250005  68.2828809
  82.2474821  88.6106599  69.1922683  81.1019476  88.3267490  68.2440982
  81.6461867  82.9376662  77.8233452  80.9933317  83.1852570  77.1685905
  82.0242247  82.1240801  77.4895929  78.6069041  92.9736356  71.9261622
  78.7891436  92.1558011  72.3889375  79.4302027  93.1904048  71.4886512
  78.9411207  91.9004541  69.1876671  79.4698973  91.3896995  68.5746833
  79.2039426  91.5847071  70.0522204  77.6949440  83.6796473  84.3099489
  77.0190077  83.5790603  84.9801864  78.5177074  83.5235687  84.7735486
  72.2966955  92.9519657  71.9474447  71.6277330  93.4365785  71.4638487
  72.1579824  93.1988878  72.8617825  76.4372223  94.9863401  78.5457105
  76.9890531  95.1495022  79.3106190  76.7778417  95.5767839  77.8737130
  81.2883097  89.8124658  84.4005760  81.8323001  90.4254617  83.9060714
  80.7069942  90.3704237  84.9172773  79.5740610  92.9345376  75.5320787
  79.4491750  92.1335116  75.0231733  80.2319702  93.4291570  75.0434757
  81.6375519  90.7354396  77.1600337  80.6905854  90.6159748  77.0878664
  81.9858292  89.8476895  77.2426599  73.9975092  76.6248535  80.9838579
  74.5209494  76.8710832  81.7464889  73.7787425  77.4568570  80.5641717
  78.6421952  90.5307113  73.3604690  78.4946915  89.6023820  73.5412260
  79.4675446  90.5527203  72.8761765  82.2456074  91.3535671  74.4469562
  83.1702621  91.1478533  74.3094013  82.0771377  91.1052073  75.3558904
  75.2027637  77.5662231  78.6688250  74.8624458  76.7670044  79.0708930
  74.4966644  77.8663941  78.0965083  78.6383466  78.3844950  68.3536807
  78.8547081  79.2669588  68.0525635  78.1577534  77.9931164  67.6242449
  75.2379071  78.3333212  74.9788441  75.2240639  77.4374305  74.6420739
  75.9551499  78.3403875  75.6126727  77.0905201  78.7670552  77.0241568
  76.8322979  79.6887622  77.0225899  76.5590242  78.3700986  77.7142033
  82.0351390  91.8721339  69.8031654  82.2088268  91.3067761  69.0505506
  82.5280281  92.6722234  69.6211144  87.8890781  84.6357762  71.4221954
  88.3321927  83.8865087  71.0241077  87.0117292  84.6267898  71.0395685
  83.0226563  91.1888103  66.9028552  83.7177467  91.8094796  67.1215867
  83.3649713  90.3383455  67.1780930  84.9217986  88.6387809  68.4315883
  85.4469310  88.9775082  67.7065203  84.8340338  87.7034824  68.2479017
  76.5838034  92.5521882  80.5605759  76.8925161  92.3071029  81.4328459
  77.3813517  92.7568521  80.0724630  76.6058647  94.7059792  72.7911136
  76.1663637  94.2136171  73.4843993  77.3566763  94.1632760  72.5503211
  74.0532519  90.2497801  74.8633438  73.4312528  89.5868506  74.5635666
  74.7237386  90.2758933  74.1807085  74.1257046  78.7279589  84.4565944
  74.1745202  79.6041712  84.0743713  74.6679560  78.1856982  83.8837587
  84.6111892  89.2720712  83.7367081  83.8207436  89.2544851  83.1971580
  84.3745246  89.8109006  84.4916117  84.7309767  86.1213179  81.0499809
  84.7807772  85.9563186  81.9915332  84.6223690  85.2540438  80.6597690
  82.0213529  82.1044107  82.3659116  82.9223392  81.9650572  82.0743114
  82.0961504  82.2698562  83.3057293  76.3556335  79.4810962  81.2112302
  75.4859644  79.7744528  80.9394891  76.5915815  80.0651407  81.9319566
  86.2327964  88.5410120  81.2941831  85.9412772  88.9040101  82.1305292
  85.6200095  87.8277129  81.1155163  87.4323646  86.1063000  73.8144401
  88.2670537  86.5452804  73.9781961  87.5682775  85.6301653  72.9952647
  84.4815152  83.6642735  79.7621889  84.9569274  83.8570381  78.9540740
  83.5580717  83.7201921  79.5165273  79.0595368  75.6990579  78.7277723
  79.5777312  76.4351605  78.4024211  78.7050501  76.0054572  79.5624482
  77.1141431  91.2949855  65.8103646  76.5415398  91.9140042  65.3574118
  77.6874225  91.8449217  66.3443568  83.1816821  80.5408495  77.9950194
  84.1334244  80.6406593  78.0162418  83.0120271  79.7486764  78.5048279
  81.2031200  77.6264078  78.1809595  80.6081133  77.9069091  77.4856084
  80.9180897  78.1157979  78.9526336  80.3338691  91.5787005  66.9412228
  81.2669364  91.5132567  67.1445103  80.2461904  92.4143272  66.4826761
  82.9626708  90.8952875  63.9016175  82.8840339  90.5612739  64.7951933
  83.7836374  91.3874643  63.9007648  85.6604899  83.7614615  77.1092494
  85.6281219  82.8230615  77.2952178  86.2705522  83.8398651  76.3758319
  85.8099387  80.5525658  77.1550777  85.2938436  79.7684115  76.9680706
  86.6939336  80.2244375  77.3197297  83.4710114  74.2966674  73.1146590
  83.2734935  73.9881762  73.9989922  84.0809820  75.0228313  73.2444520
  91.4781449  84.8230622  76.2498531  92.2084837  84.5615910  76.8106234
  90.8688394  84.0859344  76.2900599  89.5596746  82.9638484  76.8472982
  88.8329909  82.8294449  76.2389474  89.1444033  83.2715313  77.6529700
  77.3826922  86.6828414  84.6120355  78.3029932  86.8607013  84.8060402
  77.3476505  85.7384459  84.4600054  77.2993212  75.0997534  69.2418825
  76.4893941  74.7544619  69.6174071  77.9877629  74.7905078  69.8306436
  75.2516860  80.1662654  86.6445885  75.1513587  81.1157011  86.5757976
  75.0338402  79.8380893  85.7721955  82.6062568  76.2876106  70.3721786
  82.0261237  76.9460910  69.9899838  82.3398501  75.4653450  69.9609203
  75.1148130  83.5959793  85.4610947  74.6315212  84.3960153  85.6674836
  75.2009069  83.6067738  84.5078391  81.3887446  78.4476196  69.4278134
  80.5013301  78.7325847  69.2098329  81.8041435  78.2869960  68.5805411
  84.7401982  78.4722717  73.1432473  85.5162372  78.9619170  73.4157090
  84.0150116  78.8980771  73.6004343  87.1774541  79.1850336  74.2006414
  87.7719031  78.9446072  73.4899722  87.2501124  78.4657467  74.8279950
  69.3971696  93.0283947  74.5149579  69.2626164  92.2684348  73.9487577
  68.9803759  93.7524847  74.0478367  80.5330659  88.2120871  63.5226154
  81.2366509  88.4170873  64.1383809  79.8093308  88.7797633  63.7875237
  81.3628470  83.9630732  69.6428424  81.3063671  84.4199284  68.8036056
  81.9156812  83.2021417  69.4651267  85.1733276  79.7520464  70.4678543
  84.9170210  79.3517100  71.2986751  84.5486144  80.4664258  70.3428683
  89.4845613  82.4916537  72.9749835  88.9245171  82.5609727  73.7481397
  88.8789117  82.3157522  72.2549331  72.5540822  93.9253264  74.7268021
  72.4373206  94.8698697  74.6246711  71.7333268  93.6226826  75.1153820
  82.4417357  88.6503400  65.5724614  83.2762961  88.2184599  65.3902089
  82.2801700  88.4785414  66.5001508  82.0963249  85.1535513  66.9380953
  82.0412053  84.9879785  65.9969397  81.4709304  85.8611546  67.0943143
  79.4109156  87.4584425  86.2634516  80.2800316  87.6325078  85.9021151
  78.9315908  88.2778842  86.1410245  73.5795336  94.5781526  77.9423950
  74.4822583  94.6105137  78.2590445  73.3532706  93.6481977  77.9570285
  75.3348938  93.3312513  74.6034028  74.3844569  93.3314374  74.4898400
  75.6381425  92.5845247  74.0870063  91.0701632  99.1673051  75.6679791
  91.7080042  99.0479799  74.9643131  90.9522475 100.1153895  75.7267743
  87.8791338  99.1200479  75.6041315  87.5409850  99.0041544  74.7161850
  88.7481106  98.7191644  75.5842321  83.7378154 100.9735956  71.5938206
  83.1743019 100.8825893  70.8254494  83.6230549 100.1535860  72.0740699
  88.3611121 100.2735331  81.5627521  88.3499762  99.8788129  80.6908024
  88.5231761  99.5401404  82.1561292  81.2842586 102.4687147  74.4322427
  82.0763878 102.1277972  74.0168726  81.5239236 102.5782122  75.3524580
  89.3177713 104.6406923  66.9052671  88.6665692 105.2261004  66.5186685
  90.1122075 105.1713118  66.9647709  83.2433340 101.7296061  67.3039806
  84.0164216 101.1825048  67.1652681  83.5958739 102.5940310  67.5154267
  85.0818382 103.0572443  80.5106705  84.7908248 103.9618074  80.3953371
  85.7175367 103.0988970  81.2250774  86.0074589 100.4349291  77.1008064
  86.6038161 100.2105314  76.3865027  86.0649561  99.6934037  77.7033512
  85.5799618  97.8888727  64.9358255  85.8325138  97.3670248  64.1741718
  84.6424177  97.7254872  65.0384939  90.6242900  96.8924505  72.7432999
  91.4105990  96.4743928  72.3923416  90.8881605  97.7970597  72.9114647
  90.7952978 102.3297355  67.4421655  90.1598811 102.4031982  68.1542560
  90.4650384 102.9190954  66.7640735  96.0251327  96.8299738  73.6465977
  96.7576499  96.2598955  73.8803807  95.2690683  96.4421339  74.0872483
  85.2995906  99.7916833  67.1382630  85.1832164  99.1161736  67.8063715
  85.4098166  99.3049207  66.3214783  87.6427447  99.2526980  70.8429320
  87.2785654  98.7257601  71.5542241  88.4994563  98.8625449  70.6695805
  93.5476748  90.5421312  78.1060586  93.2160073  91.4116723  77.8821801
  92.9522361  90.2257596  78.7854616  87.2832934  94.2816879  65.8390668
  87.4507337  95.1497116  66.2061139  87.0930103  94.4444161  64.9151957
  90.0408267 102.7433858  77.5056498  89.7408990 103.6458897  77.3972306
  89.6959327 102.4766042  78.3577651  83.4920749  99.1947655  73.5393203
  82.5671245  99.0623869  73.7470895  83.7405162  99.9741874  74.0363145
  93.4405411  95.2616399  75.1853936  92.5322288  95.1931807  74.8912697
  93.3893007  95.7388343  76.0135761  87.2622155  96.7374537  66.8237335
  87.1421780  97.1831588  67.6622815  86.5674743  97.0859855  66.2650873
  80.8529560  98.8380929  74.3736992  80.9821941  99.0915408  75.2876404
  80.1727011  99.4308637  74.0541647  85.0229047 109.5078179  70.4727466
  84.9453077 110.4586004  70.5515947  84.4190691 109.1624051  71.1302392
  87.5146277  96.6806044  83.1288833  86.7379611  97.2399964  83.1191698
  88.1536840  97.1662827  83.6503703  95.3067058  93.4632837  76.9631810
  94.6641438  93.7565370  76.3171604  94.8021986  93.3485757  77.7685006
  92.9607221  97.2096010  67.6517669  93.8725077  97.4423397  67.4765367
  92.4516868  97.7933054  67.0892748  85.7692649  99.4891497  82.6906800
  86.5107334 100.0276541  82.4141624  85.0629635 100.1157786  82.8478352
  91.2447989 101.6320638  81.2878962  91.6531345 101.1903048  80.5433594
  90.5225250 101.0573265  81.5413154  87.5979059  96.5693245  78.6612519
  88.4440254  96.9932658  78.8047168  87.5377697  95.9126869  79.3551082
  91.5676804 102.1921829  75.0431250  90.9385666 102.3567543  74.3407318
  91.1802466 102.6063438  75.8142214  95.4466035 103.1276266  72.3975614
  94.7617074 103.5075168  71.8472648  95.5309885 103.7371593  73.1307562
  90.7478504  94.2297613  80.3193692  90.5039436  94.9839674  79.7827968
  91.0238435  94.6082961  81.1540939  92.7016967 100.7736225  78.9970958
  92.9133862 101.4167985  78.3205339  92.6546715  99.9398542  78.5292888
  90.3043196  93.3854046  75.9007530  89.4427675  93.6835300  76.1924267
  90.3305631  93.6024445  74.9688563  87.1204765 101.9296237  72.3081336
  87.5843111 102.2083940  71.5185958  86.8561563 101.0279681  72.1254426
  84.0128846 101.4767718  75.2461099  84.5830204 101.9054987  74.6078583
  84.6036958 101.1950303  75.9445284  86.0573651  98.0519389  69.1170901
  86.7597695  98.5040433  69.5844827  85.7254280  97.4103208  69.7450794
  84.5054013  96.6431146  83.4922110  83.8752674  97.3247426  83.7257507
  84.3990101  96.5314227  82.5475248  79.7998985  96.3102942  74.4188034
  79.0098039  96.5660470  73.9428145  80.2910233  97.1251280  74.5240075
  93.8162795 103.6508181  77.1693315  94.6380239 103.2488368  76.8875997
  93.8125198 103.5476415  78.1209431  81.7513731  96.6747521  71.3771511
  80.9544894  96.7866215  71.8955007  81.5239323  97.0134173  70.5112401
  87.5819398 103.1992224  79.3254026  87.6463831 103.6612631  80.1612197
  86.8730322 102.5689589  79.4536335  78.0836688  96.5633432  76.8503025
  78.3344727  97.4480442  77.1160601  78.6196237  96.3838034  76.0778117
 101.9068788  99.9946929  73.5178287 101.1532496  99.4254327  73.3622291
 102.0416329  99.9609594  74.4648921  87.2967416 104.8660332  69.1933006
  87.1613091 105.7111867  69.6217854  87.8377229 105.0679609  68.4298940
  83.7834756  90.9451911  85.8547361  83.3901701  90.3918110  86.5295005
  84.6000896  91.2562490  86.2453879  80.7496813 102.3835770  69.7660931
  81.2621334 103.1779020  69.9166496  81.4019526 101.6862060  69.6994532
  82.5591698 105.5001526  71.8483684  82.7358326 106.4219491  71.6604668
  83.3548532 105.1859945  72.2778064  86.7002717  92.3609791  83.4467618
  87.4412430  92.9616944  83.3672080  86.9320640  91.6187428  82.8885660
  81.8444055  97.5466158  81.7245847  81.7297570  96.6451415  82.0252946
  80.9888572  97.7929855  81.3730664  88.9235892 105.4883898  83.3233348
  88.4799747 104.7020277  83.0054252  89.5853106 105.6763049  82.6577239
  83.6823014 107.0179700  77.8494027  84.2330439 106.8896763  77.0771020
  82.8434490 107.3174589  77.4988919  91.0217131 105.7686698  81.3514749
  91.0035606 106.5895579  80.8595018  91.9437051 105.6440773  81.5764890
  87.4790185 103.2830828  82.1938258  88.0118521 102.5219116  81.9637566
  86.9504266 102.9904479  82.9362412  90.6459880  88.3890894  77.7231899
  90.3024149  89.2792535  77.6471010  91.0138842  88.1992551  76.8601484
  78.7145730 100.7124424  70.5420502  79.5520952 101.1221432  70.3254209
  78.8923998  99.7723866  70.5120695  90.6110162  98.3799505  66.2304334
  90.0956786  99.1504109  66.4692722  90.3387471  97.7064641  66.8537396
  88.1957273  93.2249205  71.2889573  87.3398870  92.8356056  71.1095212
  88.6084225  93.3041166  70.4289358  89.7256420  90.7595549  75.6881133
  89.2221216  90.7225684  74.8748938  90.0187027  91.6688291  75.7477789
  85.9699306  90.8434278  74.6947314  86.8352303  90.6477087  74.3353204
  86.0376815  90.6144630  75.6216671  95.5844436 101.1331859  68.1657508
  94.8073879 100.7943019  67.7212670  96.2635917 101.1384482  67.4912473
  90.3996466  96.2526597  68.0564116  90.0946601  96.5672746  68.9074259
  91.3526908  96.3308017  68.0991449  88.8442897 102.4116820  69.7057070
  88.3164259 101.6769580  69.3930307  88.3430400 103.1891496  69.4597038
  93.8235743 100.6065841  74.8224116  93.1659418 101.2965102  74.9104245
  94.6276143 100.9962272  75.1658102  83.5761625  93.0736486  72.0663681
  84.1505377  92.8511668  71.3336874  84.1632607  93.1425181  72.8192282
  92.6341202  98.9610213  72.8728058  93.1473084  99.5940205  73.3749767
  93.2842426  98.3611409  72.5071418  83.9031212  95.1040947  66.0859566
  83.0668524  95.4415634  66.4068841  83.7635982  94.9689927  65.1486703
  85.8784293  89.9477735  70.7938751  85.2248705  89.6326752  70.1695365
  85.8364767  89.3253476  71.5198574  86.9895498 100.2297030  62.7092043
  86.0822559  99.9986284  62.9083192  87.4866530  99.4334650  62.8966024
  89.8963576 108.9394537  65.6288729  89.2225275 109.2426234  66.2373687
  90.2829398 109.7423618  65.2794186  89.1122033  96.4359669  75.1186398
  88.1944594  96.6574616  74.9608086  89.5282177  96.5105979  74.2598106
  89.8957081  97.8351084  70.2489078  90.6428900  98.3472482  69.9396201
  90.1648670  97.5135137  71.1093472  88.1683731 100.3309625  67.2316033
  87.2594950 100.0468658  67.3288503  88.1978815 100.7508704  66.3719340
  93.4002998 103.9416215  71.0007200  92.9465326 103.1007125  71.0572391
  92.7696965 104.5777613  71.3381980  92.3435918  94.8708201  72.2307868
  91.6058675  94.3585587  72.5618110  92.5962691  94.4308582  71.4191145
  91.8435938 105.7792711  71.9357018  92.1358912 106.3397768  71.2169384
  92.3534558 106.0721272  72.6910178  92.4447545  87.6484453  72.8249637
  92.7506422  86.7881816  72.5375552  93.1700150  88.2402073  72.6248631
  78.7371901  98.0515139  71.2131235  78.5396301  97.4584500  70.4882302
  78.1818565  97.7467349  71.9307174  86.7168625  97.9438246  73.3325828
  86.7717235  96.9912082  73.2568305  85.9059827  98.0997685  73.8167127
  87.8659819 101.8718369  64.5704111  87.4279249 101.1554228  64.1109749
  88.6070260 102.0994484  64.0089203  84.6560985  96.5615306  71.0916207
  83.8428850  96.8609476  71.4981399  85.1519979  96.1670994  71.8090689
  86.8069563 106.5573062  73.0250472  86.7645742 106.7833909  72.0959004
  87.7232262 106.3236437  73.1736273  90.2535197  97.0257130  79.9231101
  90.6084584  97.2528603  80.7825567  90.9007328  97.3575507  79.3008356
  95.9832934 100.1475566  70.6280430  95.8450832 100.3377162  69.7001619
  95.6269152 100.9094949  71.0848481  84.1475060  94.1333661  76.7077442
  84.7874439  93.9922420  76.0100405  83.3152590  93.8468174  76.3316044
  96.0102313 102.2152093  75.6391701  96.4438820 102.1227382  76.4874755
  96.7233894 102.1909593  75.0011717  84.9235364 103.4336091  72.8212434
  85.7175962 102.9386412  72.6195009  84.2127056 102.9053955  72.4580140
  89.7430208 105.8154187  77.1724802  89.7967230 106.3845123  77.9402518
  88.8744989 105.9856072  76.8078839  81.2318127  97.5779173  68.8972187
  80.3015715  97.5163629  69.1142149  81.3275599  97.0555126  68.1008828
  81.1503676  94.1033986  71.4850429  81.4110493  95.0179319  71.3759589
  81.9720848  93.6358429  71.6347042  82.6228601  95.5171743  78.6549253
  83.2951655  95.3089105  78.0061902  81.7958388  95.3193829  78.2154486
  96.8717863 102.2575794  78.1724587  97.0653753 103.1621604  78.4183862
  96.7718481 101.7983213  79.0063172  88.5254173  92.1433684  80.6714914
  87.8782089  92.8423634  80.5779391  89.2955189  92.5769828  81.0391162
  91.9332971 102.4082536  83.7465467  91.7818478 102.1793088  82.8295551
  91.9237651 103.3653138  83.7596812  88.7018308  99.9814449  78.7311734
  89.6310368 100.1325609  78.5580701  88.2809338 100.0698470  77.8760380
  87.5006640 104.0065113  76.5010272  87.3617725 103.6383898  77.3736210
  86.7121236 104.5212753  76.3294229  88.0954792 109.1074210  67.8435808
  88.2706547 108.6362253  68.6581431  87.4087580 109.7339976  68.0717069
  89.0511855 103.3846716  73.8899109  88.7161687 103.3447486  74.7856759
  88.5515800 102.7191432  73.4169520  83.0256099  98.7914346  79.4151690
  82.8875897  98.0594585  80.0163229  83.9361022  98.7023246  79.1335878
  91.9871046 100.7302750  64.1636169  91.3700217 100.0049579  64.0669222
  91.5187535 101.4912111  63.8203243  85.6538399  98.5034305  78.9035370
  86.3638018  97.8627498  78.8621989  85.6107708  98.7547200  79.8261551
  93.6425178 105.4401659  81.8241949  93.5837724 104.7560879  81.1572532
  94.0444696 106.1820649  81.3722575  84.3667333  95.4899523  80.7231010
  83.8304690  95.0390262  81.3752606  83.7784042  95.6245432  79.9801474
  82.6615877 112.2563573  74.6175668  82.9012475 112.8882097  75.2954687
  81.8185073 111.9051613  74.9041027  83.7769592  94.9488175  63.2857473
  82.8999059  94.8276976  62.9219720  84.2527345  94.1574253  63.0336362
  93.6442585 103.4041243  80.0555929  92.7569364 103.0667165  80.1782328
  94.2141136 102.6724274  80.2924694  75.2971732  99.7365335  73.3798980
  75.9842772  99.4227065  72.7919996  75.1419861 100.6406699  73.1066232
  80.1006455  94.6255531  77.8084004  80.0164643  94.0181201  77.0734414
  79.2789161  95.1164549  77.8093500  87.1743739 108.0642695  77.0217172
  87.1013910 108.8697667  77.5336477  86.7321132 108.2634661  76.1965194
  86.9633518 107.3014465  70.5319994  86.1801040 107.8436145  70.6258218
  87.6626264 107.8188445  70.9314235  90.2730168  93.1109095  73.1754199
  90.7698868  92.3579057  72.8555269  89.5017150  93.1473411  72.6097408
  98.1259926  98.8149460  74.8172491  98.1149802  99.6974176  74.4466424
  97.2577305  98.4621011  74.6227028  89.6342422 107.9629529  79.1775331
  90.3470394 108.5976994  79.1051232  89.1432451 108.0593395  78.3615333
  91.3559949 101.8680782  70.7492623  90.4216228 101.9882244  70.5797327
  91.5336618 100.9653249  70.4852632  86.8565137  95.2526478  72.9025884
  86.4862925  94.6997518  73.5906789  87.3524230  94.6484611  72.3500884
  94.7432500  97.7098101  71.2842657  95.2092953  98.5426093  71.2102959
  95.1940001  97.2443083  71.9887915  84.6854336 105.7123973  79.9980902
  85.3863795 106.3460456  80.1510296  84.2149451 106.0538704  79.2376541
  92.8108732 104.0541922  68.2828809  93.0868576 103.9398517  69.1922683
  91.9413230 103.6559407  68.2440982  92.7149163  90.0778688  75.3233558
  91.8012243  90.3082915  75.4915765  93.1442265  90.1617132  76.1747590
  92.4855622  98.2668580  77.8233452  91.8327072  98.5144488  77.1685905
  92.8636002  97.4532718  77.4895929  89.4462796 108.3028273  71.9261622
  89.6285190 107.4849929  72.3889375  90.2695782 108.5195965  71.4886512
  89.7804961 107.2296458  69.1876671  90.3092728 106.7188913  68.5746833
  90.0433181 106.9138989  70.0522204  88.5343195  99.0088391  84.3099489
  87.8583832  98.9082520  84.9801864  89.3570829  98.8527605  84.7735486
  80.2822054 105.2460328  76.9312004  80.8675491 104.5004016  77.0639909
  80.0846892 105.5564284  77.8148668  83.1360709 108.2811575  71.9474447
  82.4671084 108.7657703  71.4638487  82.9973579 108.5280795  72.8617825
  74.8739709  97.8165928  75.6516447  74.9123808  97.2829519  76.4453566
  74.3680001  97.2901133  75.0327425  87.2765978 110.3155319  78.5457105
  87.8284286 110.4786940  79.3106190  87.6172171 110.9059756  77.8737130
  82.2530471  92.6630468  79.1478990  82.3171797  93.5245299  78.7356387
  82.1897591  92.0504470  78.4151348  81.7282743  94.7353601  82.7952024
  82.3554782  94.3530678  83.4089548  80.8710662  94.5167803  83.1607717
  92.1276852 105.1416576  84.4005760  92.6716756 105.7546534  83.9060714
  91.5463697 105.6996154  84.9172773  78.5048286  96.5430030  68.7270379
  78.8001727  95.6340708  68.6737433  77.6036322  96.5217769  68.4051381
  90.4134365 108.2637294  75.5320787  90.2885504 107.4627034  75.0231733
  91.0713456 108.7583487  75.0434757  82.0342533  94.6186027  74.7097927
  81.3129119  95.2321994  74.5705401  82.8235789  95.1543791  74.6314573
  92.4769273 106.0646314  77.1600337  91.5299609 105.9451665  77.0878664
  92.8252046 105.1768812  77.2426599  84.8368847  91.9540453  80.9838579
  85.3603248  92.2002750  81.7464889  84.6181180  92.7860488  80.5641717
  80.2336128  94.2244128  68.8509704  79.9048834  93.3441507  68.6684810
  80.5875498  94.1691796  69.7386093  89.4815707 105.8599030  73.3604690
  89.3340669 104.9315738  73.5412260  90.3069200 105.8819121  72.8761765
  83.3477951  94.5117097  69.2185182  83.6874023  95.0403019  68.4963790
  83.7950071  94.8497504  69.9943748  93.0849828 106.6827589  74.4469562
  94.0096376 106.4770450  74.3094013  92.9165132 106.4343990  75.3558904
  86.0421392  92.8954148  78.6688250  85.7018212  92.0961961  79.0708930
  85.3360398  93.1955859  78.0965083  86.6937864  89.9803461  77.1215573
  87.5163933  89.5063939  76.9994463  86.9375927  90.7593944  77.6214259
  85.3346098  93.0091719  67.4178474  86.0554461  93.3872972  66.9142191
  84.7111402  93.7280596  67.5213452  89.4777221  93.7136868  68.3536807
  89.6940835  94.5961506  68.0525635  88.9971288  93.3223081  67.6242449
  84.2176442  96.6722581  74.9307551  84.0721023  96.9862884  75.8231833
  83.7401646  97.2907482  74.3778450  86.0772825  93.6625129  74.9788441
  86.0634394  92.7666223  74.6420739  86.7945253  93.6695793  75.6126727
  87.9298956  94.0962469  77.0241568  87.6716734  95.0179540  77.0225899
  87.3983996  93.6992904  77.7142033  92.8745145 107.2013257  69.8031654
  93.0482022 106.6359679  69.0505506  93.3674036 108.0014151  69.6211144
  78.6922104  99.2127926  77.8695213  78.1475573  99.9887734  78.0015487
  79.5701454  99.5598730  77.7114334  85.4809721  92.5439510  70.2476011
  85.6025632  91.6156156  70.4466899  85.1911763  92.5578195  69.3354327
  88.3500912  90.2294420  73.3842731  88.3722608  90.2933753  72.4294710
  88.7668971  89.3898929  73.5783237  98.7284536  99.9649680  71.4221954
  99.1715682  99.2157005  71.0241077  97.8511046  99.9559816  71.0395685
  93.8620317 106.5180021  66.9028552  94.5571222 107.1386714  67.1215867
  94.2043467 105.6675372  67.1780930  79.4788126  98.3397822  80.7625369
  78.7369862  98.4880457  81.3490000  79.1580871  98.6006088  79.8992119
  95.7611740 103.9679727  68.4315883  96.2863064 104.3066999  67.7065203
  95.6734093 103.0326742  68.2479017  87.4231789 107.8813800  80.5605759
  87.7318915 107.6362947  81.4328459  88.2207271 108.0860439  80.0724630
  87.4452401 110.0351710  72.7911136  87.0057391 109.5428088  73.4843993
  88.1960518 109.4924677  72.5503211  79.9244740 106.2263251  72.7935764
  80.7502760 105.9267023  72.4134408  79.5738792 105.4570873  73.2425553
  84.8926273 105.5789719  74.8633438  84.2706282 104.9160424  74.5635666
  85.5631140 105.6050851  74.1807085  78.1253345 104.1449577  73.7524698
  77.2885253 103.7171751  73.5708699  78.0976990 104.3382020  74.6895489
  84.9650801  94.0571507  84.4565944  85.0138956  94.9333630  84.0743713
  85.5073315  93.5148900  83.8837587  95.4505646 104.6012630  83.7367081
  94.6601190 104.5836769  83.1971580  95.2139001 105.1400924  84.4916117
  95.5703521 101.4505097  81.0499809  95.6201526 101.2855104  81.9915332
  95.4617445 100.5832356  80.6597690  84.4539780 104.1293642  68.3391898
  84.6027900 104.8129107  67.6858571  85.2606224 104.1098732  68.8541354
  92.8607284  97.4336025  82.3659116  93.7617147  97.2942489  82.0743114
  92.9355258  97.5990479  83.3057293  87.1950089  94.8102879  81.2112302
  86.3253399  95.1036445  80.9394891  87.4309569  95.3943324  81.9319566
  97.0721718 103.8702038  81.2941831  96.7806527 104.2332019  82.1305292
  96.4593849 103.1569046  81.1155163  98.2717401 101.4354918  73.8144401
  99.1064292 101.8744722  73.9781961  98.4076529 100.9593571  72.9952647
  95.3208906  98.9934653  79.7621889  95.7963028  99.1862299  78.9540740
  94.3974472  99.0493838  79.5165273  82.2092413 100.1558820  69.3452967
  81.9638455  99.2521150  69.5433177  82.3788328 100.1575970  68.4032445
  89.8989123  91.0282496  78.7277723  90.4171067  91.7643523  78.4024211
  89.5444256  91.3346490  79.5624482  81.4788061  95.8887177  66.8439129
  80.7857306  95.9631532  66.1879165  81.2339812  95.1247521  67.3660646
  90.1501717  87.4482779  74.2478619  90.4303471  86.7805968  74.8739046
  90.9352324  87.6411874  73.7353283  87.9535186 106.6241773  65.8103646
  87.3809153 107.2431960  65.3574118  88.5267979 107.1741134  66.3443568
  94.0210575  95.8700413  77.9950194  94.9727998  95.9698510  78.0162418
  93.8514026  95.0778681  78.5048279  92.0424955  92.9555996  78.1809595
  91.4474887  93.2361009  77.4856084  91.7574652  93.4449897  78.9526336
  91.1732445 106.9078923  66.9412228  92.1063119 106.8424484  67.1445103
  91.0855658 107.7435190  66.4826761  93.8020462 106.2244793  63.9016175
  93.7234094 105.8904657  64.7951933  94.6230129 106.7166561  63.9007648
  96.4998653  99.0906532  77.1092494  96.4674973  98.1522533  77.2952178
  97.1099277  99.1690569  76.3758319  88.3381984  97.9602585  63.1519698
  89.2841089  97.8308794  63.2208116  87.9596229  97.2217247  63.6289126
  96.6493142  95.8817576  77.1550777  96.1332190  95.0976033  76.9680706
  97.5333090  95.5536292  77.3197297  94.3103869  89.6258591  73.1146590
  94.1128690  89.3173680  73.9989922  94.9203574  90.3520230  73.2444520
 102.3175203 100.1522539  76.2498531 103.0478592  99.8907827  76.8106234
 101.7082149  99.4151261  76.2900599 100.3990500  98.2930402  76.8472982
  99.6723664  98.1586367  76.2389474  99.9837787  98.6007230  77.6529700
  88.2220677 102.0120332  84.6120355  89.1423686 102.1898931  84.8060402
  88.1870260 101.0676377  84.4600054  86.5224901  95.8852562  63.0874583
  85.6156357  95.5885675  63.1637297  86.8000882  95.5882380  62.2208870
  77.4402842  97.2058925  73.5373630  77.1205626  96.3524233  73.2448004
  76.8936270  97.4207503  74.2931597  81.2182749  99.9221366  77.2543136
  81.4368759 100.8538474  77.2731170  81.6308523  99.5629341  78.0397940
  88.1386967  90.4289452  69.2418825  87.3287695  90.0836536  69.6174071
  88.8271384  90.1196995  69.8306436  90.0677515  89.5067498  70.8643121
  90.6208554  89.9262952  71.5233144  90.3047602  88.5803246  70.9066077
  86.0910614  95.4954572  86.6445885  85.9907341  96.4448929  86.5757976
  85.8732157  95.1672811  85.7721955  85.2923686  92.7439497  63.2286563
  86.1542850  93.0694395  63.4882380  85.4774030  91.9570993  62.7159628
  77.3091102 100.8261837  75.5066751  76.6154573 100.4115789  74.9936706
  78.0564093 100.8682373  74.9100170  93.4456322  91.6168023  70.3721786
  92.8654991  92.2752828  69.9899838  93.1792255  90.7945368  69.9609203
  91.8959889  91.0173081  72.5743106  92.3959667  91.1289616  71.7657425
  92.5395497  90.7134134  73.2143914  85.9541885  98.9251711  85.4610947
  85.4708966  99.7252071  85.6674836  86.0402824  98.9359656  84.5078391
  79.2227844 100.7580090  73.3832766  79.1998532 100.8567778  72.4314649
  79.5328481 101.6045241  73.7049932  81.8815222 102.8156246  77.4979381
  82.8358476 102.7840188  77.4309312  81.6827746 102.3546869  78.3129607
  82.4714604 101.3857362  80.0650178  83.2907493 101.8801440  80.0885016
  82.7451412 100.4689330  80.0367746  92.2281200  93.7768114  69.4278134
  91.3407055  94.0617764  69.2098329  92.6435189  93.6161877  68.5805411
  95.5795737  93.8014635  73.1432473  96.3556127  94.2911087  73.4157090
  94.8543871  94.2272689  73.6004343  98.0168295  94.5142254  74.2006414
  98.6112786  94.2737990  73.4899722  98.0894879  93.7949385  74.8279950
  80.2365451 108.3575865  74.5149579  80.1019919 107.5976266  73.9487577
  79.8197513 109.0816765  74.0478367  91.3724414 103.5412789  63.5226154
  92.0760264 103.7462791  64.1383809  90.6487063 104.1089550  63.7875237
  92.2022224  99.2922650  69.6428424  92.1457426  99.7491201  68.8036056
  92.7550567  98.5313334  69.4651267  96.0127030  95.0812382  70.4678543
  95.7563964  94.6809017  71.2986751  95.3879898  95.7956176  70.3428683
 100.3239368  97.8208455  72.9749835  99.7638926  97.8901644  73.7481397
  99.7182871  97.6449440  72.2549331  83.3934577 109.2545182  74.7268021
  83.2766961 110.1990615  74.6246711  82.5727023 108.9518744  75.1153820
  93.2811111 103.9795318  65.5724614  94.1156715 103.5476516  65.3902089
  93.1195454 103.8077331  66.5001508  92.9357003 100.4827431  66.9380953
  92.8805807 100.3171702  65.9969397  92.3103059 101.1903464  67.0943143
  77.7249518  95.7195495  80.7642375  78.3708382  95.2094449  81.2529601
  77.5166670  96.4564177  81.3385801  90.2502911 102.7876343  86.2634516
  91.1194070 102.9616995  85.9021151  89.7709662 103.6070760  86.1410245
  86.2453129  89.9835540  66.5166272  86.2331799  90.9277380  66.6734542
  87.1376551  89.8005685  66.2225733  84.4189091 109.9073444  77.9423950
  85.3216338 109.9397054  78.2590445  84.1926461 108.9773895  77.9570285
  86.1742693 108.6604430  74.6034028  85.2238324 108.6606292  74.4898400
  86.4775179 107.9137165  74.0870063  90.0605248  86.5778317  70.7712208
  89.2937644  86.0236803  70.9168891  90.4715953  86.6500185  71.6326360
  82.0647009  92.8663112  84.8617390  82.9278471  92.5099917  85.0720714
  81.4912420  92.5277007  85.5492794 101.9095386 114.4964969  75.6679791
 102.5473796 114.3771716  74.9643131 101.7916229 115.4445813  75.7267743
  98.7185093 114.4492397  75.6041315  98.3803604 114.3333462  74.7161850
  99.5874861 114.0483562  75.5842321  94.5771908 116.3027873  71.5938206
  94.0136773 116.2117810  70.8254494  94.4624303 115.4827778  72.0740699
  99.2004876 115.6027249  81.5627521  99.1893516 115.2080047  80.6908024
  99.3625515 114.8693321  82.1561292  92.1236340 117.7979065  74.4322427
  92.9157632 117.4569890  74.0168726  92.3632990 117.9074040  75.3524580
  94.0827094 117.0587978  67.3039806  94.8557970 116.5116965  67.1652681
  94.4352493 117.9232228  67.5154267  95.9212137 118.3864360  80.5106705
  95.6302003 119.2909991  80.3953371  96.5569121 118.4280888  81.2250774
  96.8468344 115.7641209  77.1008064  97.4431916 115.5397231  76.3865027
  96.9043315 115.0225954  77.7033512  96.4193372 113.2180644  64.9358255
  96.6718893 112.6962166  64.1741718  95.4817931 113.0546790  65.0384939
 101.4636655 112.2216423  72.7432999 102.2499744 111.8035846  72.3923416
 101.7275359 113.1262515  72.9114647 106.8645082 112.1591656  73.6465977
 107.5970254 111.5890873  73.8803807 106.1084438 111.7713256  74.0872483
  96.1389661 115.1208750  67.1382630  96.0225919 114.4453654  67.8063715
  96.2491921 114.6341124  66.3214783  98.4821202 114.5818897  70.8429320
  98.1179409 114.0549518  71.5542241  99.3388318 114.1917366  70.6695805
 104.3870502 105.8713230  78.1060586 104.0553827 106.7408641  77.8821801
 103.7916116 105.5549514  78.7854616  98.1226689 109.6108797  65.8390668
  98.2901091 110.4789033  66.2061139  97.9323858 109.7736079  64.9151957
  94.3314503 114.5239573  73.5393203  93.4065000 114.3915787  73.7470895
  94.5798917 115.3033792  74.0363145 104.2799166 110.5908316  75.1853936
 103.3716043 110.5223725  74.8912697 104.2286761 111.0680261  76.0135761
  98.1015910 112.0666455  66.8237335  97.9815535 112.5123505  67.6622815
  97.4068498 112.4151772  66.2650873  91.6923314 114.1672846  74.3736992
  91.8215696 114.4207325  75.2876404  91.0120766 114.7600554  74.0541647
  98.3540031 112.0097962  83.1288833  97.5773365 112.5691882  83.1191698
  98.9930594 112.4954745  83.6503703 106.1460812 108.7924755  76.9631810
 105.5035192 109.0857288  76.3171604 105.6415741 108.6777675  77.7685006
 103.8000976 112.5387928  67.6517669 104.7118832 112.7715315  67.4765367
 103.2910623 113.1224972  67.0892748  96.6086404 114.8183415  82.6906800
  97.3501088 115.3568459  82.4141624  95.9023389 115.4449704  82.8478352
 102.0841743 116.9612556  81.2878962 102.4925099 116.5194966  80.5433594
 101.3619005 116.3865183  81.5413154  98.4372813 111.8985162  78.6612519
  99.2834009 112.3224576  78.8047168  98.3771451 111.2418787  79.3551082
 101.5872259 109.5589531  80.3193692 101.3433191 110.3131591  79.7827968
 101.8632189 109.9374878  81.1540939 101.1436950 108.7145964  75.9007530
 100.2821429 109.0127217  76.1924267 101.1699385 108.9316363  74.9688563
  97.9598520 117.2588154  72.3081336  98.4236865 117.5375857  71.5185958
  97.6955318 116.3571599  72.1254426  94.8522601 116.8059636  75.2461099
  95.4223958 117.2346904  74.6078583  95.4430713 116.5242221  75.9445284
  96.8967406 113.3811307  69.1170901  97.5991449 113.8332350  69.5844827
  96.5648034 112.7395126  69.7450794  95.3447767 111.9723063  83.4922110
  94.7146428 112.6539344  83.7257507  95.2383855 111.8606145  82.5475248
  90.6392740 111.6394859  74.4188034  89.8491794 111.8952388  73.9428145
  91.1303987 112.4543197  74.5240075  92.5907485 112.0039439  71.3771511
  91.7938649 112.1158133  71.8955007  92.3633077 112.3426091  70.5112401
  98.4213153 118.5284142  79.3254026  98.4857585 118.9904549  80.1612197
  97.7124077 117.8981507  79.4536335  88.9230443 111.8925350  76.8503025
  89.1738481 112.7772360  77.1160601  89.4589991 111.7129951  76.0778117
  94.6228510 106.2743829  85.8547361  94.2295456 105.7210028  86.5295005
  95.4394651 106.5854408  86.2453879  91.5890568 117.7127687  69.7660931
  92.1015089 118.5070938  69.9166496  92.2413281 117.0153978  69.6994532
  93.3985453 120.8293444  71.8483684  93.5752081 121.7511408  71.6604668
  94.1942286 120.5151863  72.2778064  97.5396471 107.6901708  83.4467618
  98.2806185 108.2908861  83.3672080  97.7714394 106.9479346  82.8885660
  92.6837809 112.8758076  81.7245847  92.5691324 111.9743333  82.0252946
  91.8282327 113.1221772  81.3730664  94.5216768 122.3471617  77.8494027
  95.0724193 122.2188681  77.0771020  93.6828244 122.6466506  77.4988919
  98.3183939 118.6122745  82.1938258  98.8512276 117.8511033  81.9637566
  97.7898020 118.3196397  82.9362412 101.4853634 103.7182811  77.7231899
 101.1417904 104.6084453  77.6471010 101.8532597 103.5284469  76.8601484
  89.5539485 116.0416342  70.5420502  90.3914707 116.4513350  70.3254209
  89.7317752 115.1015784  70.5120695 101.4503917 113.7091422  66.2304334
 100.9350540 114.4796027  66.4692722 101.1781225 113.0356558  66.8537396
  99.0351028 108.5541123  71.2889573  98.1792624 108.1647973  71.1095212
  99.4477980 108.6333084  70.4289358 100.5650175 106.0887466  75.6881133
 100.0614970 106.0517602  74.8748938 100.8580781 106.9980209  75.7477789
  96.8093060 106.1726196  74.6947314  97.6746057 105.9769005  74.3353204
  96.8770569 105.9436548  75.6216671 101.2390220 111.5818514  68.0564116
 100.9340356 111.8964664  68.9074259 102.1920662 111.6599934  68.0991449
  99.6836652 117.7408738  69.7057070  99.1558013 117.0061497  69.3930307
  99.1824155 118.5183414  69.4597038  94.4155379 108.4028404  72.0663681
  94.9899131 108.1803585  71.3336874  95.0026362 108.4717098  72.8192282
 103.4734957 114.2902131  72.8728058 103.9866838 114.9232123  73.3749767
 104.1236181 113.6903326  72.5071418  94.7424967 110.4332865  66.0859566
  93.9062279 110.7707552  66.4068841  94.6029736 110.2981845  65.1486703
  96.7178047 105.2769653  70.7938751  96.0642460 104.9618670  70.1695365
  96.6758521 104.6545393  71.5198574  97.8289252 115.5588948  62.7092043
  96.9216314 115.3278201  62.9083192  98.3260284 114.7626567  62.8966024
  99.9515788 111.7651586  75.1186398  99.0338349 111.9866533  74.9608086
 100.3675931 111.8397897  74.2598106 100.7350835 113.1643002  70.2489078
 101.4822654 113.6764399  69.9396201 101.0042425 112.8427055  71.1093472
  99.0077485 115.6601543  67.2316033  98.0988705 115.3760576  67.3288503
  99.0372569 116.0800621  66.3719340 103.1829672 110.2000118  72.2307868
 102.4452429 109.6877505  72.5618110 103.4356446 109.7600500  71.4191145
 103.2841300 102.9776370  72.8249637 103.5900177 102.1173734  72.5375552
 104.0093905 103.5693991  72.6248631  89.5765656 113.3807057  71.2131235
  89.3790056 112.7876418  70.4882302  89.0212320 113.0759267  71.9307174
  97.5562380 113.2730163  73.3325828  97.6110989 112.3204000  73.2568305
  96.7453582 113.4289603  73.8167127  98.7053573 117.2010287  64.5704111
  98.2673003 116.4846145  64.1109749  99.4464014 117.4286401  64.0089203
  95.4954739 111.8907223  71.0916207  94.6822605 112.1901394  71.4981399
  95.9913734 111.4962912  71.8090689 101.0928951 112.3549048  79.9231101
 101.4478339 112.5820521  80.7825567 101.7401082 112.6867424  79.3008356
  94.9868814 109.4625579  76.7077442  95.6268194 109.3214338  76.0100405
  94.1546345 109.1760092  76.3316044  95.7629118 118.7628009  72.8212434
  96.5569717 118.2678329  72.6195009  95.0520810 118.2345872  72.4580140
  92.0711882 112.9071091  68.8972187  91.1409470 112.8455546  69.1142149
  92.1669354 112.3847044  68.1008828  91.9897431 109.4325904  71.4850429
  92.2504248 110.3471237  71.3759589  92.8114603 108.9650346  71.6347042
  93.4622356 110.8463661  78.6549253  94.1345409 110.6381023  78.0061902
  92.6352142 110.6485747  78.2154486  99.3647928 107.4725602  80.6714914
  98.7175843 108.1715551  80.5779391 100.1348943 107.9061746  81.0391162
  99.5412062 115.3106367  78.7311734 100.4704122 115.4617526  78.5580701
  99.1203092 115.3990387  77.8760380  98.3400394 119.3357031  76.5010272
  98.2011480 118.9675816  77.3736210  97.5514990 119.8504671  76.3294229
  99.8905609 118.7138634  73.8899109  99.5555442 118.6739404  74.7856759
  99.3909555 118.0483350  73.4169520  93.8649853 114.1206264  79.4151690
  93.7269651 113.3886503  80.0163229  94.7754777 114.0315164  79.1335878
 102.8264801 116.0594668  64.1636169 102.2093972 115.3341496  64.0669222
 102.3581289 116.8204028  63.8203243  96.4932154 113.8326223  78.9035370
  97.2031772 113.1919415  78.8621989  96.4501462 114.0839118  79.8261551
  95.2061088 110.8191441  80.7231010  94.6698445 110.3682180  81.3752606
  94.6177796 110.9537350  79.9801474  94.6163347 110.2780092  63.2857473
  93.7392813 110.1568893  62.9219720  95.0921100 109.4866171  63.0336362
  86.1365487 115.0657252  73.3798980  86.8236527 114.7518982  72.7919996
  85.9813616 115.9698617  73.1066232  90.9400209 109.9547449  77.8084004
  90.8558398 109.3473118  77.0734414  90.1182915 110.4456467  77.8093500
 101.1123923 108.4401012  73.1754199 101.6092622 107.6870975  72.8555269
 100.3410904 108.4765329  72.6097408 102.1953704 117.1972699  70.7492623
 101.2609982 117.3174162  70.5797327 102.3730372 116.2945166  70.4852632
  97.6958892 110.5818395  72.9025884  97.3256679 110.0289436  73.5906789
  98.1917984 109.9776529  72.3500884 105.5826255 113.0390019  71.2842657
 106.0486707 113.8718010  71.2102959 106.0333755 112.5735000  71.9887915
  95.5248090 121.0415890  79.9980902  96.2257550 121.6752373  80.1510296
  95.0543205 121.3830622  79.2376541 103.5542918 105.4070606  75.3233558
 102.6405998 105.6374833  75.4915765 103.9836019 105.4909050  76.1747590
 103.3249376 113.5960498  77.8233452 102.6720826 113.8436405  77.1685905
 103.7029756 112.7824636  77.4895929  99.3736949 114.3380309  84.3099489
  98.6977586 114.2374438  84.9801864 100.1964583 114.1819523  84.7735486
  91.1215808 120.5752245  76.9312004  91.7069245 119.8295933  77.0639909
  90.9240647 120.8856202  77.8148668  85.7133463 113.1457846  75.6516447
  85.7517563 112.6121436  76.4453566  85.2073756 112.6193051  75.0327425
  93.0924225 107.9922386  79.1478990  93.1565552 108.8537217  78.7356387
  93.0291346 107.3796388  78.4151348  92.5676498 110.0645519  82.7952024
  93.1948537 109.6822596  83.4089548  91.7104417 109.8459721  83.1607717
  89.3442041 111.8721948  68.7270379  89.6395482 110.9632626  68.6737433
  88.4430076 111.8509687  68.4051381  92.8736288 109.9477944  74.7097927
  92.1522873 110.5613912  74.5705401  93.6629543 110.4835709  74.6314573
  95.6762601 107.2832371  80.9838579  96.1997003 107.5294667  81.7464889
  95.4574934 108.1152406  80.5641717  91.0729882 109.5536045  68.8509704
  90.7442588 108.6733424  68.6684810  91.4269253 109.4983714  69.7386093
  94.1871705 109.8409015  69.2185182  94.5267778 110.3694936  68.4963790
  94.6343826 110.1789421  69.9943748  96.8815146 108.2246066  78.6688250
  96.5411967 107.4253879  79.0708930  96.1754152 108.5247777  78.0965083
  97.5331618 105.3095378  77.1215573  98.3557687 104.8355856  76.9994463
  97.7769682 106.0885862  77.6214259  96.1739853 108.3383637  67.4178474
  96.8948215 108.7164890  66.9142191  95.5505157 109.0572514  67.5213452
 100.3170975 109.0428786  68.3536807 100.5334590 109.9253424  68.0525635
  99.8365043 108.6514999  67.6242449  95.0570197 112.0014499  74.9307551
  94.9114778 112.3154802  75.8231833  94.5795400 112.6199399  74.3778450
  96.9166580 108.9917047  74.9788441  96.9028148 108.0958140  74.6420739
  97.6339008 108.9987711  75.6126727  98.7692710 109.4254387  77.0241568
  98.5110488 110.3471458  77.0225899  98.2377751 109.0284822  77.7142033
  89.5315859 114.5419843  77.8695213  88.9869327 115.3179651  78.0015487
  90.4095209 114.8890648  77.7114334  96.3203476 107.8731427  70.2476011
  96.4419387 106.9448073  70.4466899  96.0305518 107.8870113  69.3354327
  99.1894666 105.5586338  73.3842731  99.2116363 105.6225671  72.4294710
  99.6062725 104.7190846  73.5783237  90.3181881 113.6689740  80.7625369
  89.5763617 113.8172375  81.3490000  89.9974625 113.9298005  79.8992119
  90.7638494 121.5555168  72.7935764  91.5896514 121.2558940  72.4134408
  90.4132546 120.7862791  73.2425553  95.7320028 120.9081637  74.8633438
  95.1100037 120.2452342  74.5635666  96.4024895 120.9342768  74.1807085
  88.9647100 119.4741495  73.7524698  88.1279008 119.0463669  73.5708699
  88.9370745 119.6673938  74.6895489  95.8044555 109.3863425  84.4565944
  95.8532711 110.2625547  84.0743713  96.3467069 108.8440818  83.8837587
  95.2933535 119.4585560  68.3391898  95.4421655 120.1421024  67.6858571
  96.0999978 119.4390650  68.8541354 103.7001038 112.7627942  82.3659116
 104.6010901 112.6234407  82.0743114 103.7749013 112.9282397  83.3057293
  98.0343844 110.1394797  81.2112302  97.1647153 110.4328363  80.9394891
  98.2703324 110.7235242  81.9319566  93.0486168 115.4850738  69.3452967
  92.8032209 114.5813068  69.5433177  93.2182082 115.4867888  68.4032445
 100.7382877 106.3574414  78.7277723 101.2564821 107.0935441  78.4024211
 100.3838010 106.6638407  79.5624482  92.3181815 111.2179095  66.8439129
  91.6251060 111.2923450  66.1879165  92.0733567 110.4539439  67.3660646
 100.9895472 102.7774696  74.2478619 101.2697225 102.1097886  74.8739046
 101.7746079 102.9703792  73.7353283 104.8604330 111.1992330  77.9950194
 105.8121753 111.2990428  78.0162418 104.6907780 110.4070599  78.5048279
 102.8818709 108.2847914  78.1809595 102.2868642 108.5652926  77.4856084
 102.5968406 108.7741815  78.9526336  99.1775739 113.2894503  63.1519698
 100.1234843 113.1600711  63.2208116  98.7989984 112.5509165  63.6289126
 107.4886896 111.2109494  77.1550777 106.9725945 110.4267950  76.9680706
 108.3726845 110.8828210  77.3197297 105.1497623 104.9550509  73.1146590
 104.9522444 104.6465597  73.9989922 105.7597329 105.6812148  73.2444520
  99.0614431 117.3412249  84.6120355  99.9817441 117.5190848  84.8060402
  99.0264014 116.3968295  84.4600054  97.3618656 111.2144479  63.0874583
  96.4550111 110.9177592  63.1637297  97.6394637 110.9174298  62.2208870
  88.2796596 112.5350843  73.5373630  87.9599380 111.6816151  73.2448004
  87.7330024 112.7499421  74.2931597  92.0576504 115.2513284  77.2543136
  92.2762513 116.1830392  77.2731170  92.4702277 114.8921258  78.0397940
  98.9780721 105.7581369  69.2418825  98.1681450 105.4128454  69.6174071
  99.6665138 105.4488913  69.8306436 100.9071270 104.8359416  70.8643121
 101.4602308 105.2554869  71.5233144 101.1441356 103.9095164  70.9066077
  96.9304369 110.8246490  86.6445885  96.8301096 111.7740847  86.5757976
  96.7125911 110.4964729  85.7721955  96.1317440 108.0731415  63.2286563
  96.9936604 108.3986313  63.4882380  96.3167785 107.2862911  62.7159628
  88.1484856 116.1553754  75.5066751  87.4548328 115.7407707  74.9936706
  88.8957847 116.1974291  74.9100170 104.2850077 106.9459941  70.3721786
 103.7048746 107.6044745  69.9899838 104.0186010 106.1237286  69.9609203
 102.7353643 106.3464999  72.5743106 103.2353422 106.4581533  71.7657425
 103.3789251 106.0426052  73.2143914  96.7935639 114.2543628  85.4610947
  96.3102721 115.0543989  85.6674836  96.8796578 114.2651573  84.5078391
  90.0621599 116.0872008  73.3832766  90.0392287 116.1859695  72.4314649
  90.3722235 116.9337159  73.7049932  92.7208977 118.1448163  77.4979381
  93.6752230 118.1132106  77.4309312  92.5221500 117.6838787  78.3129607
  93.3108359 116.7149279  80.0650178  94.1301248 117.2093358  80.0885016
  93.5845166 115.7981247  80.0367746 103.0674955 109.1060032  69.4278134
 102.1800810 109.3909682  69.2098329 103.4828944 108.9453795  68.5805411
 106.4189491 109.1306553  73.1432473 107.1949881 109.6203005  73.4157090
 105.6937625 109.5564607  73.6004343 108.8562050 109.8434172  74.2006414
 109.4506540 109.6029908  73.4899722 108.9288633 109.1241302  74.8279950
  91.0759205 123.6867783  74.5149579  90.9413673 122.9268184  73.9487577
  90.6591268 124.4108683  74.0478367 103.0415979 114.6214567  69.6428424
 102.9851180 115.0783119  68.8036056 103.5944321 113.8605252  69.4651267
 106.8520785 110.4104299  70.4678543 106.5957719 110.0100935  71.2986751
 106.2273653 111.1248093  70.3428683 103.7750758 115.8119349  66.9380953
 103.7199562 115.6463620  65.9969397 103.1496813 116.5195382  67.0943143
  88.5643273 111.0487413  80.7642375  89.2102137 110.5386367  81.2529601
  88.3560424 111.7856095  81.3385801  97.0846883 105.3127458  66.5166272
  97.0725553 106.2569298  66.6734542  97.9770305 105.1297603  66.2225733
 100.8999003 101.9070234  70.7712208 100.1331399 101.3528721  70.9168891
 101.3109708 101.9792103  71.6326360  92.9040764 108.1955030  84.8617390
  93.7672225 107.8391835  85.0720714  92.3306175 107.8568925  85.5492794
  36.8732861  -0.4724415  62.3925097  37.5111271  -0.5917667  61.6888437
  36.7553704   0.4756429  62.4513049  33.6822567  -0.5196987  62.3286622
  33.3441078  -0.6355922  61.4407157  34.5512335  -0.9205821  62.3087628
  29.5409383   1.3338490  58.3183513  28.9774248   1.2428427  57.5499801
  29.4261778   0.5138394  58.7986005  34.1642350   0.6337865  68.2872827
  34.1530991   0.2390663  67.4153331  34.3262989  -0.0996062  68.8806599
  27.0873815   2.8289682  61.1567733  27.8795106   2.4880506  60.7414033
  27.3270465   2.9384657  62.0769887  35.1208941   5.0009458  53.6297978
  34.4696921   5.5863538  53.2431992  35.9153304   5.5315653  53.6893015
  29.0464568   2.0898595  54.0285112  29.8195445   1.5427582  53.8897988
  29.3989967   2.9542844  54.2399574  30.8849611   3.4174977  67.2352011
  30.5939477   4.3220608  67.1198678  31.5206595   3.4591505  67.9496081
  31.8105818   0.7951826  63.8253371  32.4069390   0.5707848  63.1110334
  31.8680789   0.0536571  64.4278819  31.3830846  -1.7508739  51.6603562
  31.6356367  -2.2727218  50.8987025  30.4455405  -1.9142594  51.7630246
  36.4274129  -2.7472961  59.4678305  37.2137218  -3.1653538  59.1168722
  36.6912833  -1.8426869  59.6359954  36.5984206   2.6899890  54.1666962
  35.9630039   2.7634516  54.8787867  36.2681613   3.2793488  53.4886041
  41.8282556  -2.8097728  60.3711284  42.5607728  -3.3798511  60.6049113
  41.0721912  -3.1976127  60.8117789  31.1027135   0.1519367  53.8627937
  30.9863393  -0.5235730  54.5309021  31.2129395  -0.3348259  53.0460090
  33.4458676  -0.3870486  57.5674626  33.0816883  -0.9139865  58.2787548
  34.3025792  -0.7772017  57.3941112  35.8439496   3.1036393  64.2301805
  35.5440219   4.0061431  64.1217612  35.4990556   2.8368576  65.0822958
  29.2951978  -0.4449811  60.2638510  28.3702474  -0.5773597  60.4716201
  29.5436391   0.3344409  60.7608452  39.2436640  -4.3781067  61.9099242
  38.3353517  -4.4465659  61.6158003  39.1924236  -3.9009122  62.7381068
  33.0653384  -2.9022929  53.5482642  32.9453009  -2.4565878  54.3868122
  32.3705972  -2.5537611  52.9896180  30.8260276   9.8680713  57.1972773
  30.7484306  10.8188538  57.2761253  30.2221920   9.5226585  57.8547699
  33.3177506  -2.9591422  69.8534140  32.5410840  -2.3997502  69.8437004
  33.9568069  -2.4734639  70.3749010  41.1098286  -6.1764629  63.6877116
  40.4672667  -5.8832096  63.0416911  40.6053215  -6.2911709  64.4930313
  38.7638450  -2.4301456  54.3762976  39.6756306  -2.1974069  54.2010673
  38.2548097  -1.8464411  53.8138054  31.5723878  -0.1505968  69.4152107
  32.3138562   0.3879076  69.1386930  30.8660863   0.4760320  69.5723659
  37.0479218   1.9923172  68.0124268  37.4562574   1.5505583  67.2678901
  36.3256479   1.4175800  68.2658461  33.4010288  -3.0704221  65.3857825
  34.2471483  -2.6464808  65.5292474  33.3408925  -3.7270597  66.0796388
  37.3708032   2.5524363  61.7676557  36.7416895   2.7170077  61.0652625
  36.9833694   2.9665972  62.5387521  41.2497264   3.4878801  59.1220921
  40.5648302   3.8677702  58.5717954  41.3341114   4.0974127  59.8552869
  36.5509733  -5.4099853  67.0438999  36.3070665  -4.6557792  66.5073274
  36.8269664  -5.0314505  67.8786246  38.5048196   1.1338760  65.7216264
  38.7165091   1.7770520  65.0450645  38.4577944   0.3001076  65.2538194
  36.1074425  -6.2543420  62.6252837  35.2458904  -5.9562166  62.9169574
  36.1336859  -6.0373021  61.6933869  32.9235994   2.2898771  59.0326642
  33.3874340   2.5686474  58.2431265  32.6592792   1.3882215  58.8499733
  29.8160075   1.8370252  61.9706405  30.3861432   2.2657521  61.3323890
  30.4068187   1.5552837  62.6690591  31.8604880  -1.5878077  55.8416207
  32.5628924  -1.1357033  56.3090134  31.5285509  -2.2294258  56.4696100
  39.6194024   4.0110715  63.8938622  40.4411467   3.6090902  63.6121303
  39.6156427   3.9078949  64.8454738  33.3850627   3.5594758  66.0499332
  33.4495060   4.0215166  66.8857504  32.6761551   2.9292123  66.1781642
  47.7100017   0.3549464  60.2423593  46.9563725  -0.2143138  60.0867598
  47.8447558   0.3212128  61.1894228  33.0998645   5.2262866  55.9178313
  32.9644320   6.0714402  56.3463160  33.6408457   5.4282143  55.1544246
  26.5528042   2.7438304  56.4906238  27.0652563   3.5381554  56.6411802
  27.2050755   2.0464594  56.4239839  28.3622927   5.8604060  58.5728991
  28.5389555   6.7822025  58.3849975  29.1579760   5.5462479  59.0023371
  34.7267121   5.8486432  70.0478655  34.2830975   5.0622811  69.7299559
  35.3884335   6.0365583  69.3822545  29.4854242   7.3782234  64.5739333
  30.0361668   7.2499297  63.8016327  28.6465718   7.6777123  64.2234226
  36.8248359   6.1289232  68.0760056  36.8066835   6.9498113  67.5840325
  37.7468279   6.0043307  68.3010197  33.2821413   3.6433362  68.9183564
  33.8149750   2.8821650  68.6882872  32.7535495   3.3507014  69.6607719
  36.4141391  -1.2597961  52.9549641  35.8988015  -0.4893357  53.1938029
  36.1418700  -1.9332825  53.5782703  41.3875665   1.4934393  54.8902815
  40.6105108   1.1545553  54.4457977  42.0667146   1.4987017  54.2157780
  36.2027694  -3.3870869  54.7809422  35.8977830  -3.0724720  55.6319565
  37.1558136  -3.3089449  54.8236755  34.6474126   2.7719354  56.4302376
  34.1195488   2.0372114  56.1175614  34.1461629   3.5494031  56.1842345
  39.6266972   0.9668375  61.5469423  38.9690647   1.6567636  61.6349551
  40.4307371   1.3564807  61.8903409  38.4372431  -0.6787253  59.5973364
  38.9504313  -0.0457261  60.0995074  39.0873655  -1.2786057  59.2316724
  32.7926726   0.5899565  49.4337349  31.8853788   0.3588818  49.6328498
  33.2897758  -0.2062816  49.6211331  35.6994805   9.2997072  52.3534035
  35.0256504   9.6028768  52.9618993  36.0860627  10.1026152  52.0039493
  34.9153262  -3.2037797  61.8431705  33.9975823  -2.9822850  61.6853393
  35.3313405  -3.1291487  60.9843412  35.6988310  -1.8046381  56.9734385
  36.4460129  -1.2924984  56.6641507  35.9679899  -2.1262329  57.8338779
  33.9714960   0.6912159  53.9561339  33.0626179   0.4071192  54.0533809
  34.0010044   1.1111238  53.0964646  39.2034227   4.3018749  57.7252507
  38.7496554   3.4609659  57.7817697  38.5728194   4.9380147  58.0627287
  38.1467147  -4.7689265  58.9553174  37.4089904  -5.2811879  59.2863417
  38.3993920  -5.2088883  58.1436451  37.6467166   6.1395246  58.6602325
  37.9390141   6.7000303  57.9414691  38.1565787   6.4323807  59.4155484
  32.5199854  -1.6959220  60.0571135  32.5748464  -2.6485384  59.9813611
  31.7091056  -1.5399781  60.5412433  33.6691048   2.2320903  51.2949418
  33.2310478   1.5156762  50.8355055  34.4101488   2.4597018  50.7334509
  32.6100792   6.9175597  59.7495778  32.5676970   7.1436443  58.8204310
  33.5263491   6.6838971  59.8981579  36.0566425  -2.6140336  66.6476408
  36.4115813  -2.3868863  67.5070873  36.7038557  -2.2821959  66.0253663
  41.7864162   0.5078100  57.3525737  41.6482061   0.6979696  56.4246926
  41.4300381   1.2697483  57.8093788  41.8133542   2.5754627  62.3637008
  42.2470049   2.4829916  63.2120062  42.5265123   2.5512128  61.7257024
  30.7266592   3.7938626  59.5457741  31.5207191   3.2988946  59.3440316
  30.0158285   3.2656489  59.1825447  35.5461437   6.1756721  63.8970109
  35.5998459   6.7447658  64.6647825  34.6776218   6.3458606  63.5324146
  42.6749092   2.6178328  64.8969893  42.8684982   3.5224138  65.1429168
  42.5749710   2.1585747  65.7308478  37.7364200   2.7685070  70.4710774
  37.5849707   2.5395622  69.5540858  37.7268880   3.7255672  70.4842119
  34.5049537   0.3416983  65.4557041  35.4341597   0.4928143  65.2826008
  34.0840567   0.4301004  64.6005687  33.3037868   4.3667648  63.2255578
  33.1648954   3.9986432  64.0981516  32.5152465   4.8815287  63.0539536
  33.8986020   9.4676744  54.5681115  34.0737776   8.9964787  55.3826737
  33.2118808  10.0942510  54.7962375  34.8543084   3.7449250  60.6144416
  34.5192916   3.7050020  61.5102066  34.3547029   3.0793966  60.1414826
  28.8287328  -0.8483120  66.1396997  28.6907125  -1.5802881  66.7408536
  29.7392251  -0.9374220  65.8581185  37.7902275   1.0905285  50.8881476
  37.1731446   0.3652113  50.7914528  37.3218764   1.8514645  50.5448550
  31.4569628  -1.1363160  65.6280677  32.1669247  -1.7769968  65.5867295
  31.4138936  -0.8850265  66.5506858  39.4456407   5.8004193  68.5487256
  39.3868953   5.1163413  67.8817839  39.8475925   6.5423183  68.0967882
  28.4647106  12.6166107  61.3420975  28.7043704  13.2484631  62.0199993
  27.6216302  12.2654147  61.6286334  39.4473814   3.7643777  66.7801236
  38.5600593   3.4269699  66.9027634  40.0172365   3.0326808  67.0170001
  32.9774968   8.4245229  63.7462479  32.9045139   9.2300201  64.2581783
  32.5352361   8.6237195  62.9210500  32.7664747   7.6616999  57.2565300
  31.9832269   8.2038680  57.3503525  33.4657492   8.1790979  57.6559542
  36.0761397  -6.5288371  59.8999506  36.5730097  -7.2818409  59.5800576
  35.3048379  -6.4924055  59.3342715  43.9291155  -0.8248006  61.5417797
  43.9181031   0.0576710  61.1711730  43.0608534  -1.1776455  61.3472334
  35.4373651   8.3232063  65.9020637  36.1501623   8.9579528  65.8296539
  34.9463680   8.4195929  65.0860639  37.1591178   2.2283316  57.4737929
  36.2247457   2.3484778  57.3042633  37.3367846   1.3255783  57.2097939
  40.5463729  -1.9299365  58.0087963  41.0124182  -1.0971373  57.9348266
  40.9971230  -2.3954383  58.7133222  30.4885565   6.0726507  66.7226208
  31.1895024   6.7062990  66.8755603  30.0180680   6.4141238  65.9621848
  38.6139960   4.4144457  55.0074115  38.8899804   4.3001051  55.9167989
  37.7444459   4.0161941  54.9686288  38.2886851  -1.3728886  64.5478759
  37.6358301  -1.1252978  63.8931211  38.6667230  -2.1864748  64.2141236
  35.2494024   8.6630807  58.6506929  35.4316419   7.8452463  59.1134681
  36.0727010   8.8798500  58.2131819  35.5836190   7.5898993  55.9121977
  36.1123956   7.0791447  55.2992140  35.8464410   7.2741523  56.7767510
  34.3374424  -0.6309075  71.0344796  33.6615061  -0.7314945  71.7047171
  35.1602057  -0.7869861  71.4980793  26.0853283   5.6062862  63.6557311
  26.6706719   4.8606550  63.7885215  25.8878121   5.9166819  64.5393975
  28.9391938   8.6414109  58.6719753  28.2702313   9.1260237  58.1883793
  28.8004808   8.8883330  59.5863132  33.0797206  10.6757853  65.2702412
  33.6315514  10.8389474  66.0351497  33.4203400  11.2662291  64.5982437
  37.9308081   5.5019110  71.1251066  38.4747985   6.1149069  70.6306021
  37.3494926   6.0598689  71.6418079  36.2165594   8.6239828  62.2566094
  36.0916733   7.8229568  61.7477039  36.8744685   9.1186022  61.7680064
  38.2800502   6.4248848  63.8845644  37.3330838   6.3054200  63.8123971
  38.6283275   5.5371346  63.9671905  35.2846935   6.2201565  60.0849996
  35.1371898   5.2918272  60.2657566  36.1100429   6.2421655  59.6007071
  38.8881057   7.0430123  61.1714869  39.8127605   6.8372985  61.0339320
  38.7196361   6.7946524  62.0804210  38.6776373   7.5615791  56.5276960
  38.8513251   6.9962213  55.7750813  39.1705265   8.3616686  56.3456450
  44.5315765   0.3252214  58.1467260  44.9746911  -0.4240461  57.7486383
  43.6542275   0.3162350  57.7640992  39.6651546   6.8782555  53.6273859
  40.3602451   7.4989248  53.8461173  40.0074696   6.0277906  53.9026237
  41.5642969   4.3282261  55.1561189  42.0894293   4.6669533  54.4310509
  41.4765322   3.3929276  54.9724324  33.2263018   8.2416334  67.2851066
  33.5350144   7.9965481  68.1573766  34.0238500   8.4462973  66.7969936
  33.2483630  10.3954244  59.5156443  32.8088620   9.9030623  60.2089299
  33.9991747   9.8527212  59.2748518  25.7275969   6.5865785  59.5181071
  26.5533989   6.2869557  59.1379714  25.3770021   5.8173407  59.9670859
  30.6957502   5.9392253  61.5878744  30.0737511   5.2762958  61.2880972
  31.3662369   5.9653385  60.9052392  23.9284574   4.5052111  60.4770004
  23.0916482   4.0774286  60.2954006  23.9008219   4.6984555  61.4140795
  41.2536875   4.9615164  70.4612387  40.4632419   4.9439303  69.9216887
  41.0170230   5.5003458  71.2161424  41.3734750   1.8107631  67.7745116
  41.4232755   1.6457638  68.7160639  41.2648674   0.9434890  67.3842997
  30.2571009   4.4896176  55.0637205  30.4059129   5.1731641  54.4103878
  31.0637452   4.4701266  55.5786661  38.6638513  -2.2061441  69.0904423
  39.5648375  -2.3454976  68.7988420  38.7386487  -2.0406986  70.0302600
  42.8752947   4.2304572  68.0187137  42.5837755   4.5934553  68.8550598
  42.2625078   3.5171581  67.8400470  44.0748629   1.7957452  60.5389708
  44.9095521   2.2347256  60.7027268  44.2107758   1.3196105  59.7197953
  41.1240135  -0.6462813  66.4867195  41.5994257  -0.4535167  65.6786047
  40.2005701  -0.5903627  66.2410579  28.0123642   0.5161354  56.0698274
  27.7669684  -0.3876316  56.2678484  28.1819556   0.5178505  55.1277752
  33.7566414   6.9844307  52.5348952  33.1840381   7.6034494  52.0819424
  34.3299208   7.5343669  53.0688874  39.8241804  -3.7697053  64.7195501
  40.7759227  -3.6698955  64.7407725  39.6545255  -4.5618784  65.2293585
  37.8456184  -6.6841470  64.9054902  37.2506116  -6.4036457  64.2101391
  37.5605880  -6.1947569  65.6771643  36.9763674   7.2681457  53.6657535
  37.9094347   7.2027019  53.8690410  36.8886887   8.1037724  53.2072067
  39.6051691   6.5847327  50.6261482  39.5265322   6.2507191  51.5197240
  40.4261358   7.0769095  50.6252954  42.3029882  -0.5490933  63.8337801
  42.2706202  -1.4874933  64.0197485  42.9130506  -0.4706897  63.1003626
  34.1413213  -1.6794880  49.8765005  35.0872318  -1.8088672  49.9453423
  33.7627458  -2.4180218  50.3534433  42.4524371  -3.7579890  63.8796084
  41.9363419  -4.5421433  63.6926013  43.3364319  -4.0861173  64.0442603
  48.1206432   0.5125073  62.9743838  48.8509820   0.2510362  63.5351541
  47.5113377  -0.2246205  63.0145905  46.2021729  -1.3467064  63.5718289
  45.4754893  -1.4811099  62.9634780  45.7869016  -1.0390235  64.3775007
  34.0251905   2.3722866  71.3365662  34.9454915   2.5501465  71.5305708
  33.9901488   1.4278911  71.1845361  27.0213978   0.2823900  63.9788443
  27.2399988   1.2141008  63.9976477  27.4339752  -0.0768125  64.7643247
  39.2487551  -8.0229442  57.0967092  38.6686220  -7.3644638  56.7145145
  38.9823484  -8.8452098  56.6854510  31.7573113  -0.7145755  72.1856253
  31.2740195   0.0854605  72.3920143  31.8434052  -0.7037810  71.2323697
  25.0259073   1.1182625  60.1078073  25.0029761   1.2170312  59.1559956
  25.3359709   1.9647775  60.4295239  27.6846451   3.1758780  64.2224687
  28.6389704   3.1442722  64.1554619  27.4858974   2.7149403  65.0374913
  28.2745833   1.7459896  66.7895485  29.0938722   2.2403974  66.8130322
  28.5482641   0.8291864  66.7613052  38.0312429  -5.8629352  56.1523440
  37.1438284  -5.5779701  55.9343635  38.4466418  -6.0235589  55.3050717
  41.3826965  -5.8382831  59.8677780  42.1587355  -5.3486378  60.1402397
  40.6575099  -5.4124777  60.3249649  43.8199524  -5.1255212  60.9251720
  44.4144015  -5.3659476  60.2145029  43.8926108  -5.8448081  61.5525257
  26.0396680   8.7178399  61.2394885  25.9051148   7.9578800  60.6732883
  25.6228742   9.4419299  60.7723674  37.1755643   3.9015323  50.2471460
  37.8791493   4.1065325  50.8629116  36.4518291   4.4692085  50.5120544
  38.0053453  -0.3474816  56.3673731  37.9488654   0.1093735  55.5281363
  38.5581795  -1.1084131  56.1896573  41.8158259  -4.5585084  57.1923850
  41.5595193  -4.9588448  58.0232058  41.1911127  -3.8441290  57.0673989
  46.1270597  -1.8189011  59.6995142  45.5670155  -1.7495822  60.4726704
  45.5214100  -1.9948026  58.9794638  29.1965806   9.6147716  61.4513328
  29.0798190  10.5593149  61.3492018  28.3758252   9.3121278  61.8399127
  39.0842340   4.3397852  52.2969920  39.9187944   3.9079050  52.1147395
  38.9226683   4.1679866  53.2246815  38.7388232   0.8429965  53.6626260
  38.6837036   0.6774237  52.7214704  38.1134288   1.5505998  53.8188450
  36.0534139   3.1478877  72.9879823  36.9225299   3.3219529  72.6266457
  35.5740891   3.9673294  72.8655552  30.2220320  10.2675978  64.6669256
  31.1247566  10.2999588  64.9835751  29.9957690   9.3376429  64.6815592
  31.9773922   9.0206965  61.3279335  31.0269553   9.0208826  61.2143707
  32.2806408   8.2739699  60.8115369  47.7126615  14.8567503  62.3925097
  48.3505025  14.7374250  61.6888437  47.5947458  15.8048347  62.4513049
  44.5216321  14.8094931  62.3286622  44.1834833  14.6935996  61.4407157
  45.3906090  14.4086096  62.3087628  40.3803137  16.6630408  58.3183513
  39.8168002  16.5720345  57.5499801  40.2655532  15.8430312  58.7986005
  45.0036104  15.9629783  68.2872827  44.9924745  15.5682581  67.4153331
  45.1656744  15.2295856  68.8806599  37.9267569  18.1581599  61.1567733
  38.7188861  17.8172424  60.7414033  38.1664219  18.2676574  62.0769887
  45.9602696  20.3301375  53.6297978  45.3090676  20.9155456  53.2431992
  46.7547059  20.8607570  53.6893015  39.8858323  17.4190512  54.0285112
  40.6589199  16.8719500  53.8897988  40.2383722  18.2834762  54.2399574
  41.7243366  18.7466895  67.2352011  41.4333232  19.6512526  67.1198678
  42.3600350  18.7883422  67.9496081  42.6499572  16.1243743  63.8253371
  43.2463145  15.8999766  63.1110334  42.7074544  15.3828489  64.4278819
  42.2224601  13.5783179  51.6603562  42.4750121  13.0564700  50.8987025
  41.2849160  13.4149324  51.7630246  47.2667884  12.5818957  59.4678305
  48.0530973  12.1638380  59.1168722  47.5306588  13.4865049  59.6359954
  47.4377961  18.0191807  54.1666962  46.8023794  18.0926434  54.8787867
  47.1075367  18.6085406  53.4886041  52.6676311  12.5194190  60.3711284
  53.4001483  11.9493407  60.6049113  51.9115666  12.1315791  60.8117789
  41.9420890  15.4811285  53.8627937  41.8257148  14.8056188  54.5309021
  42.0523149  14.9943658  53.0460090  44.2852430  14.9421432  57.5674626
  43.9210638  14.4152053  58.2787548  45.1419546  14.5519901  57.3941112
  50.1901731   6.2315764  64.8305892  49.8585056   7.1011175  64.6067107
  49.5947345   5.9152048  65.5099923  43.9257917   9.9711331  52.5635975
  44.0932320  10.8391568  52.9306446  43.7355087  10.1338613  51.6397264
  46.6833251  18.4328310  64.2301805  46.3833974  19.3353349  64.1217612
  46.3384310  18.1660493  65.0822958  40.1345732  14.8842107  60.2638510
  39.2096229  14.7518321  60.4716201  40.3830145  15.6636326  60.7608452
  50.0830394  10.9510850  61.9099242  49.1747272  10.8826259  61.6158003
  50.0317990  11.4282795  62.7381068  43.9047138  12.4268989  53.5482642
  43.7846764  12.8726040  54.3868122  43.2099727  12.7754306  52.9896180
  37.4954543  14.5275381  61.0982299  37.6246924  14.7809860  62.0121710
  36.8151994  15.1203089  60.7786954  41.6654030  25.1972631  57.1972773
  41.5878060  26.1480456  57.2761253  41.0615674  24.8518503  57.8547699
  44.1571260  12.3700496  69.8534140  43.3804594  12.9294416  69.8437004
  44.7961823  12.8557279  70.3749010  51.9492041   9.1527289  63.6877116
  51.3066421   9.4459822  63.0416911  51.4446969   9.0380209  64.4930313
  49.6032204  12.8990462  54.3762976  50.5150061  13.1317849  54.2010673
  49.0941852  13.4827506  53.8138054  42.4117633  15.1785949  69.4152107
  43.1532317  15.7170993  69.1386930  41.7054618  15.8052238  69.5723659
  47.8872972  17.3215090  68.0124268  48.2956328  16.8797500  67.2678901
  47.1650234  16.7467717  68.2658461  44.2404042  12.2587697  65.3857825
  45.0865237  12.6827110  65.5292474  44.1802680  11.6021321  66.0796388
  48.2101787  17.8816280  61.7676557  47.5810649  18.0461995  61.0652625
  47.8227449  18.2957890  62.5387521  52.0891019  18.8170718  59.1220921
  51.4042057  19.1969620  58.5717954  52.1734868  19.4266045  59.8552869
  47.3903488   9.9192065  67.0438999  47.1464419  10.6734125  66.5073274
  47.6663418  10.2977413  67.8786246  49.3441950  16.4630677  65.7216264
  49.5558846  17.1062437  65.0450645  49.2971699  15.6292994  65.2538194
  46.9468179   9.0748498  62.6252837  46.0852658   9.3729752  62.9169574
  46.9730614   9.2918897  61.6933869  43.7629749  17.6190689  59.0326642
  44.2268094  17.8978392  58.2431265  43.4986547  16.7174133  58.8499733
  40.6553830  17.1662170  61.9706405  41.2255187  17.5949438  61.3323890
  41.2461942  16.8844755  62.6690591  42.6998635  13.7413841  55.8416207
  43.4022678  14.1934885  56.3090134  42.3679263  13.0997660  56.4696100
  41.1478996  12.3325598  70.2167417  40.5177657  13.0141878  70.4502814
  41.0415084  12.2208679  69.2720555  36.4423969  11.9997394  61.1433341
  35.6523023  12.2554922  60.6673452  36.9335216  12.8145731  61.2485381
  50.4587778  19.3402633  63.8938622  51.2805222  18.9382820  63.6121303
  50.4550181  19.2370867  64.8454738  38.3938714  12.3641973  58.1016818
  37.5969877  12.4760667  58.6200313  38.1664306  12.7028625  57.2357708
  44.2244382  18.8886676  66.0499332  44.2888814  19.3507083  66.8857504
  43.5155306  18.2584041  66.1781642  34.7261672  12.2527884  63.5748332
  34.9769710  13.1374894  63.8405908  35.2621220  12.0732486  62.8023424
  58.5493771  15.6841381  60.2423593  57.7957480  15.1148779  60.0867598
  58.6841313  15.6504046  61.1894228  43.9392399  20.5554784  55.9178313
  43.8038074  21.4006319  56.3463160  44.4802212  20.7574061  55.1544246
  40.4259739   6.6346363  72.5792668  40.0326685   6.0812562  73.2540312
  41.2425879   6.9456942  72.9699185  37.3921797  18.0730222  56.4906238
  37.9046317  18.8673472  56.6411802  38.0444510  17.3756512  56.4239839
  39.2016681  21.1895978  58.5728991  39.3783310  22.1113943  58.3849975
  39.9973515  20.8754397  59.0023371  43.3427700   8.0504242  70.1712924
  44.0837413   8.6511396  70.0917387  43.5745623   7.3081880  69.6130967
  38.4869038  13.2360610  68.4491154  38.3722553  12.3345867  68.7498253
  37.6313556  13.4824306  68.0975971  45.5660876  21.1778350  70.0478655
  45.1224730  20.3914729  69.7299559  46.2278089  21.3657501  69.3822545
  40.3247997  22.7074152  64.5739333  40.8755422  22.5791215  63.8016327
  39.4859473  23.0069041  64.2234226  47.6642114  21.4581150  68.0760056
  47.6460589  22.2790031  67.5840325  48.5862034  21.3335225  68.3010197
  44.1215168  18.9725279  68.9183564  44.6543505  18.2113568  68.6882872
  43.5929249  18.6798931  69.6607719  47.2884863   4.0785345  64.4477206
  46.9449132   4.9686987  64.3716317  47.6563826   3.8887003  63.5846791
  35.3570714  16.4018876  57.2665808  36.1945936  16.8115884  57.0499516
  35.5348981  15.4618318  57.2366002  47.2535146  14.0693957  52.9549641
  46.7381769  14.8398561  53.1938029  46.9812454  13.3959093  53.5782703
  44.8382257   8.9143657  58.0134880  43.9823853   8.5250508  57.8340518
  45.2509208   8.9935618  57.1534665  46.3681403   6.4490001  62.4126439
  45.8646199   6.4120136  61.5994245  46.6612010   7.3582743  62.4723096
  42.6124289   6.5328730  61.4192621  43.4777286   6.3371539  61.0598510
  42.6801798   6.3039082  62.3461978  52.2269420  16.8226311  54.8902815
  51.4498863  16.4837471  54.4457977  52.9060901  16.8278934  54.2157780
  47.0421449  11.9421049  54.7809422  46.7371584  12.2567198  55.6319565
  47.9951891  12.0202468  54.8236755  45.4867881  18.1011272  56.4302376
  44.9589242  17.3664031  56.1175614  44.9855383  18.8785948  56.1842345
  50.4660727  16.2960292  61.5469423  49.8084401  16.9859554  61.6349551
  51.2701126  16.6856724  61.8903409  40.2186608   8.7630938  58.7908988
  40.7930360   8.5406120  58.0582181  40.8057591   8.8319633  59.5437589
  49.2766185  14.6504665  59.5973364  49.7898067  15.2834657  60.0995074
  49.9267409  14.0505861  59.2316724  40.5456195  10.7935399  52.8104873
  39.7093508  11.1310086  53.1314148  40.4060965  10.6584379  51.8732010
  42.5209276   5.6372187  57.5184057  41.8673688   5.3221204  56.8940672
  42.4789750   5.0147928  58.2443880  43.6320481  15.9191482  49.4337349
  42.7247543  15.6880736  49.6328498  44.1291513  15.1229101  49.6211331
  46.5388560  24.6288989  52.3534035  45.8650258  24.9320686  52.9618993
  46.9254382  25.4318070  52.0039493  45.7547016  12.1254121  61.8431705
  44.8369578  12.3469068  61.6853393  46.1707160  12.2000431  60.9843412
  46.5382064  13.5245536  56.9734385  47.2853883  14.0366934  56.6641507
  46.8073654  13.2029589  57.8338779  44.8108714  16.0204077  53.9561339
  43.9019934  15.7363110  54.0533809  44.8403798  16.4403156  53.0964646
  50.0427982  19.6310667  57.7252507  49.5890309  18.7901576  57.7817697
  49.4121948  20.2672065  58.0627287  48.9860901  10.5602653  58.9553174
  48.2483658  10.0480039  59.2863417  49.2387675  10.1203034  58.1436451
  48.4860921  21.4687163  58.6602325  48.7783895  22.0292220  57.9414691
  48.9959542  21.7615724  59.4155484  49.0872529   3.3378905  59.5494944
  49.3931405   2.4776268  59.2620859  49.8125133   3.9296525  59.3493938
  35.3796885  13.7409591  57.9376542  35.1821284  13.1478952  57.2127608
  34.8243549  13.4361801  58.6552480  43.3593608  13.6332698  60.0571135
  43.4142218  12.6806534  59.9813611  42.5484810  13.7892137  60.5412433
  44.5084802  17.5612821  51.2949418  44.0704232  16.8448680  50.8355055
  45.2495243  17.7888936  50.7334509  41.2985968  12.2509757  57.8161514
  40.4853834  12.5503928  58.2226706  41.7944962  11.8565446  58.5335996
  43.4494546  22.2467514  59.7495778  43.4070725  22.4728361  58.8204310
  44.3657245  22.0130889  59.8981579  46.8960180  12.7151582  66.6476408
  47.2509568  12.9423055  67.5070873  47.5432311  13.0469959  66.0253663
  52.6257917  15.8370018  57.3525737  52.4875815  16.0271614  56.4246926
  52.2694136  16.5989401  57.8093788  40.7900043   9.8228113  63.4322749
  41.4299422   9.6816872  62.7345712  39.9577574   9.5362626  63.0561351
  52.6527296  17.9046545  62.3637008  53.0863803  17.8121834  63.2120062
  53.3658877  17.8804045  61.7257024  41.5660347  19.1230543  59.5457741
  42.3600945  18.6280863  59.3440316  40.8552039  18.5948406  59.1825447
  46.3855191  21.5048639  63.8970109  46.4392214  22.0739575  64.6647825
  45.5169973  21.6750524  63.5324146  37.8743110  13.2673625  55.6217494
  36.9440698  13.2058081  55.8387456  37.9700582  12.7449578  54.8254135
  37.7928659   9.7928438  58.2095735  38.0535477  10.7073771  58.1004896
  38.6145832   9.3252880  58.3592348  39.2653585  11.2066195  65.3794560
  39.9376638  10.9983557  64.7307209  38.4383371  11.0088281  64.9399792
  53.5142846  17.9470245  64.8969893  53.7078736  18.8516056  65.1429168
  53.4143464  17.4877664  65.7308478  45.1679157   7.8328136  67.3960221
  44.5207072   8.5318086  67.3024697  45.9380172   8.2664280  67.7636469
  48.5757955  18.0976988  70.4710774  48.4243461  17.8687540  69.5540858
  48.5662634  19.0547590  70.4842119  45.3443291  15.6708901  65.4557041
  46.2735351  15.8220061  65.2826008  44.9234321  15.7592922  64.6005687
  44.1431623  19.6959565  63.2255578  44.0042709  19.3278350  64.0981516
  43.3546219  20.2107205  63.0539536  44.7379775  24.7968662  54.5681115
  44.9131531  24.3256705  55.3826737  44.0512563  25.4234428  54.7962375
  45.6936838  19.0741168  60.6144416  45.3586671  19.0341938  61.5102066
  45.1940784  18.4085884  60.1414826  39.6681082  14.4808798  66.1396997
  39.5300880  13.7489037  66.7408536  40.5786005  14.3917698  65.8581185
  48.6296030  16.4197202  50.8881476  48.0125200  15.6944031  50.7914528
  48.1612518  17.1806563  50.5448550  42.2963383  14.1928757  65.6280677
  43.0063001  13.5521950  65.5867295  42.2532691  14.4441652  66.5506858
  50.2850161  21.1296111  68.5487256  50.2262708  20.4455331  67.8817839
  50.6869680  21.8715101  68.0967882  41.0092317  11.1793975  67.4476316
  40.4729674  10.7284714  68.0997913  40.4209025  11.3139884  66.7046781
  39.3040860  27.9458025  61.3420975  39.5437458  28.5776549  62.0199993
  38.4610057  27.5946065  61.6286334  40.4194576  10.6382627  50.0102780
  39.5424042  10.5171427  49.6465027  40.8952329   9.8468705  49.7581669
  50.2867569  19.0935695  66.7801236  49.3994347  18.7561616  66.9027634
  50.8566120  18.3618726  67.0170001  31.9396716  15.4259786  60.1044287
  32.6267756  15.1121516  59.5165302  31.7844844  16.3301151  59.8311538
  36.7431438  10.3149983  64.5329311  36.6589627   9.7075653  63.7979721
  35.9214144  10.8059001  64.5338807  43.8168722  23.7537147  63.7462479
  43.7438894  24.5592119  64.2581783  43.3746115  23.9529113  62.9210500
  43.6058502  22.9908917  57.2565300  42.8226024  23.5330597  57.3503525
  44.3051247  23.5082897  57.6559542  46.9155152   8.8003546  59.8999506
  47.4123851   8.0473509  59.5800576  46.1442133   8.8367863  59.3342715
  54.7684909  14.5043912  61.5417797  54.7574785  15.3868627  61.1711730
  53.9002289  14.1515463  61.3472334  46.2767406  23.6523981  65.9020637
  46.9895378  24.2871446  65.8296539  45.7857434  23.7487847  65.0860639
  47.9984932  17.5575234  57.4737929  47.0641211  17.6776696  57.3042633
  48.1761601  16.6547700  57.2097939  43.4990121  10.9420929  59.6271190
  43.1287908  10.3891970  60.3152096  43.9949213  10.3379063  59.0746190
  51.3857484  13.3992553  58.0087963  51.8517936  14.2320545  57.9348266
  51.8364984  12.9337535  58.7133222  41.3279319  21.4018425  66.7226208
  42.0288779  22.0354907  66.8755603  40.8574434  21.7433156  65.9621848
  49.4533715  19.7436374  55.0074115  49.7293559  19.6292969  55.9167989
  48.5838214  19.3453859  54.9686288  49.3574147   5.7673140  62.0478865
  48.4437226   5.9977367  62.2161072  49.7867248   5.8511584  62.8992897
  49.1280605  13.9563032  64.5478759  48.4752055  14.2038939  63.8931211
  49.5060985  13.1427170  64.2141236  46.0887779  23.9922725  58.6506929
  46.2710173  23.1744381  59.1134681  46.9120765  24.2090417  58.2131819
  46.4229944  22.9190910  55.9121977  46.9517711  22.4083365  55.2992140
  46.6858164  22.6033440  56.7767510  45.1768178  14.6982843  71.0344796
  44.5008815  14.5976972  71.7047171  45.9995812  14.5422057  71.4980793
  36.9247037  20.9354780  63.6557311  37.5100474  20.1898467  63.7885215
  36.7271876  21.2458736  64.5393975  39.7785692  23.9706027  58.6719753
  39.1096068  24.4552155  58.1883793  39.6398562  24.2175247  59.5863132
  31.5164692  13.5060380  62.3761754  31.5548791  12.9723970  63.1698872
  31.0104985  12.9795585  61.7572731  43.9190961  26.0049770  65.2702412
  44.4709269  26.1681392  66.0351497  44.2597154  26.5954208  64.5982437
  38.8955454   8.3524920  65.8724296  38.9596781   9.2139751  65.4601694
  38.8322574   7.7398922  65.1396655  38.3707727  10.4248053  69.5197331
  38.9979766  10.0425130  70.1334855  37.5135646  10.2062255  69.8853023
  48.7701835  20.8311028  71.1251066  49.3141739  21.4440986  70.6306021
  48.1888680  21.3890606  71.6418079  35.1473269  12.2324482  55.4515686
  35.4426711  11.3235160  55.3982739  34.2461305  12.2112221  55.1296688
  47.0559348  23.9531746  62.2566094  46.9310488  23.1521486  61.7477039
  47.7138439  24.4477939  61.7680064  38.6767516  10.3080478  61.4343234
  37.9554102  10.9216446  61.2950707  39.4660772  10.8438243  61.3559880
  49.1194257  21.7540766  63.8845644  48.1724592  21.6346117  63.8123971
  49.4677030  20.8663264  63.9671905  41.4793830   7.6434905  67.7083886
  42.0028232   7.8897202  68.4710195  41.2606163   8.4754940  67.2887023
  36.8761111   9.9138580  55.5755011  36.5473817   9.0335958  55.3930117
  37.2300482   9.8586248  56.4631400  46.1240690  21.5493482  60.0849996
  45.9765652  20.6210190  60.2657566  46.9494183  21.5713573  59.6007071
  39.9902934  10.2011549  55.9430488  40.3299007  10.7297471  55.2209097
  40.4375055  10.5391955  56.7189055  49.7274812  22.3722041  61.1714869
  50.6521359  22.1664902  61.0339320  49.5590115  22.1238442  62.0804210
  42.6846375   8.5848600  65.3933556  42.3443195   7.7856413  65.7954236
  41.9785381   8.8850311  64.8210390  43.3362847   5.6697913  63.8460879
  44.1588916   5.1958391  63.7239770  43.5800910   6.4488396  64.3459566
  41.9771081   8.6986171  54.1423781  42.6979444   9.0767424  53.6387498
  41.3536385   9.4175048  54.2458759  46.1202204   9.4031320  55.0782113
  46.3365819  10.2855958  54.7770942  45.6396271   9.0117533  54.3487755
  40.8601426  12.3617033  61.6552858  40.7146006  12.6757336  62.5477140
  40.3826629  12.9801933  61.1023757  42.7197808   9.3519581  61.7033748
  42.7059377   8.4560674  61.3666046  43.4370237   9.3590245  62.3372034
  44.5723939   9.7856921  63.7486875  44.3141717  10.7073992  63.7471205
  44.0408980   9.3887356  64.4387339  49.5170128  22.8907708  56.5276960
  49.6907005  22.3254131  55.7750813  50.0099019  23.6908603  56.3456450
  35.3347088  14.9022378  64.5940519  34.7900556  15.6782186  64.7260794
  36.2126438  15.2493182  64.4359641  42.1234704   8.2333961  56.9721318
  42.2450616   7.3050608  57.1712205  41.8336747   8.2472647  56.0599633
  44.9925895   5.9188872  60.1088038  45.0147592   5.9828205  59.1540017
  45.4093954   5.0793380  60.3028544  55.3709519  15.6544131  58.1467260
  55.8140665  14.9051457  57.7486383  54.4936029  15.6454268  57.7640992
  50.5045300  22.2074473  53.6273859  51.1996205  22.8281166  53.8461173
  50.8468451  21.3569824  53.9026237  36.1213110  14.0292274  67.4870676
  35.3794846  14.1774909  68.0735306  35.8005854  14.2900539  66.6237425
  52.4036724  19.6574178  55.1561189  52.9288048  19.9961451  54.4310509
  52.3159076  18.7221194  54.9724324  44.0656772  23.5708252  67.2851066
  44.3743899  23.3257399  68.1573766  44.8632254  23.7754891  66.7969936
  44.0877384  25.7246162  59.5156443  43.6482375  25.2322540  60.2089299
  44.8385501  25.1819129  59.2748518  36.5669723  21.9157703  59.5181071
  37.3927743  21.6161474  59.1379714  36.2163775  21.1465325  59.9670859
  41.5351256  21.2684171  61.5878744  40.9131266  20.6054876  61.2880972
  42.2056123  21.2945303  60.9052392  34.7678328  19.8344029  60.4770004
  33.9310237  19.4066203  60.2954006  34.7401974  20.0276472  61.4140795
  41.6075784   9.7465959  71.1811250  41.6563939  10.6228082  70.7989020
  42.1498298   9.2043352  70.6082894  52.0930630  20.2907082  70.4612387
  51.3026173  20.2731221  69.9216887  51.8563984  20.8295376  71.2161424
  52.2128505  17.1399548  67.7745116  52.2626510  16.9749556  68.7160639
  52.1042428  16.2726807  67.3842997  41.0964763  19.8188094  55.0637205
  41.2452884  20.5023558  54.4103878  41.9031207  19.7993184  55.5786661
  49.5032267  13.1230476  69.0904423  50.4042130  12.9836941  68.7988420
  49.5780242  13.2884931  70.0302600  43.8375072  10.4997331  67.9357609
  42.9678382  10.7930897  67.6640198  44.0734553  11.0837776  68.6564873
  53.7146702  19.5596490  68.0187137  53.4231510  19.9226470  68.8550598
  53.1018833  18.8463498  67.8400470  54.9142384  17.1249370  60.5389708
  55.7489275  17.5639174  60.7027268  55.0501513  16.6488023  59.7197953
  51.9633890  14.6829105  66.4867195  52.4388011  14.8756751  65.6786047
  51.0399455  14.7388290  66.2410579  38.8517396  15.8453272  56.0698274
  38.6063438  14.9415602  56.2678484  39.0213311  15.8470422  55.1277752
  46.5414106   6.7176948  65.4523029  47.0596050   7.4537975  65.1269518
  46.1869239   7.0240941  66.2869788  38.1213044  11.5781629  53.5684435
  37.4282289  11.6525984  52.9124471  37.8764796  10.8141973  54.0905952
  46.7926700   3.1377231  60.9723926  47.0728454   2.4700420  61.5984352
  47.5777307   3.3306326  60.4598590  44.5960169  22.3136225  52.5348952
  44.0234136  22.9326412  52.0819424  45.1692963  22.8635586  53.0688874
  50.6635559  11.5594865  64.7195501  51.6152982  11.6592962  64.7407725
  50.4939009  10.7673133  65.2293585  48.6849938   8.6450448  64.9054902
  48.0899870   8.9255461  64.2101391  48.3999635   9.1344349  65.6771643
  47.8157429  22.5973375  53.6657535  48.7488102  22.5318936  53.8690410
  47.7280642  23.4329642  53.2072067  50.4445445  21.9139245  50.6261482
  50.3659077  21.5799109  51.5197240  51.2655112  22.4061013  50.6252954
  53.1423637  14.7800984  63.8337801  53.1099957  13.8416985  64.0197485
  53.7524260  14.8585021  63.1003626  44.9806967  13.6497037  49.8765005
  45.9266072  13.5203245  49.9453423  44.6021212  12.9111699  50.3534433
  53.2918125  11.5712028  63.8796084  52.7757174  10.7870484  63.6926013
  54.1758074  11.2430744  64.0442603  50.9528852   5.3153043  59.8391897
  50.7553673   5.0068132  60.7235229  51.5628558   6.0414682  59.9689826
  58.9600186  15.8416991  62.9743838  59.6903575  15.5802279  63.5351541
  58.3507132  15.1045713  63.0145905  57.0415484  13.9824854  63.5718289
  56.3148647  13.8480819  62.9634780  56.6262770  14.2901682  64.3775007
  44.8645660  17.7014783  71.3365662  45.7848669  17.8793382  71.5305708
  44.8295243  16.7570829  71.1845361  43.1649885  11.5747014  49.8119890
  42.2581340  11.2780126  49.8882604  43.4425866  11.2776832  48.9454176
  34.0827825  12.8953377  60.2618936  33.7630609  12.0418685  59.9693310
  33.5361253  13.1101955  61.0176904  37.8607732  15.6115818  63.9788443
  38.0793742  16.5432926  63.9976477  38.2733506  15.2523793  64.7643247
  44.7811950   6.1183903  55.9664131  43.9712679   5.7730988  56.3419377
  45.4696367   5.8091447  56.5551743  46.7102499   5.1961950  57.5888428
  47.2633537   5.6157404  58.2478451  46.9472585   4.2697698  57.6311384
  42.7335598  11.1849024  73.3691192  42.6332325  12.1343381  73.3003283
  42.5157140  10.8567263  72.4967262  41.9348669   8.4333949  49.9531869
  42.7967833   8.7588847  50.2127687  42.1199013   7.6465445  49.4404935
  33.9516085  16.5156289  62.2312058  33.2579556  16.1010241  61.7182012
  34.6989076  16.5576825  61.6345477  50.0881306   7.3062475  57.0967092
  49.5079975   7.9647279  56.7145145  49.8217238   6.4839820  56.6854510
  48.5384872   6.7067533  59.2988413  49.0384650   6.8184068  58.4902731
  49.1820480   6.4028586  59.9389221  42.5966868  14.6146163  72.1856253
  42.1133950  15.4146523  72.3920143  42.6827807  14.6254108  71.2323697
  35.8652827  16.4474542  60.1078073  35.8423516  16.5462230  59.1559956
  36.1753464  17.2939693  60.4295239  38.5240205  18.5050697  64.2224687
  39.4783459  18.4734640  64.1554619  38.3252729  18.0441321  65.0374913
  39.1139587  17.0751813  66.7895485  39.9332476  17.5695892  66.8130322
  39.3876395  16.1583782  66.7613052  48.8706184   9.4662566  56.1523440
  47.9832039   9.7512216  55.9343635  49.2860173   9.3056329  55.3050717
  52.2220720   9.4909087  59.8677780  52.9981110   9.9805539  60.1402397
  51.4968854   9.9167141  60.3249649  54.6593278  10.2036706  60.9251720
  55.2537769   9.9632442  60.2145029  54.7319862   9.4843837  61.5525257
  36.8790434  24.0470317  61.2394885  36.7444902  23.2870718  60.6732883
  36.4622496  24.7711217  60.7723674  48.0149397  19.2307240  50.2471460
  48.7185247  19.4357243  50.8629116  47.2912046  19.7984002  50.5120544
  48.8447207  14.9817102  56.3673731  48.7882409  15.4385653  55.5281363
  49.3975550  14.2207786  56.1896573  52.6552013  10.7706834  57.1923850
  52.3988948  10.3703469  58.0232058  52.0304881  11.4850627  57.0673989
  56.9664351  13.5102907  59.6995142  56.4063909  13.5796096  60.4726704
  56.3607855  13.3343891  58.9794638  40.0359560  24.9439634  61.4513328
  39.9191944  25.8885066  61.3492018  39.2152006  24.6413195  61.8399127
  49.9236095  19.6689770  52.2969920  50.7581698  19.2370968  52.1147395
  49.7620437  19.4971783  53.2246815  49.5781987  16.1721883  53.6626260
  49.5230791  16.0066154  52.7214704  48.9528042  16.8797916  53.8188450
  34.3674502  11.4089947  67.4887682  35.0133365  10.8988901  67.9774907
  34.1591653  12.1458629  68.0631107  46.8927894  18.4770795  72.9879823
  47.7619054  18.6511447  72.6266457  46.4134645  19.2965212  72.8655552
  42.8878112   5.6729992  53.2411578  42.8756782   6.6171832  53.3979849
  43.7801534   5.4900137  52.9471039  41.0614074  25.5967896  64.6669256
  41.9641321  25.6291506  64.9835751  40.8351444  24.6668347  64.6815592
  42.8167676  24.3498882  61.3279335  41.8663307  24.3500744  61.2143707
  43.1200162  23.6031617  60.8115369  46.7030232   2.2672769  57.4957515
  45.9362627   1.7131255  57.6414197  47.1140937   2.3394637  58.3571667
  38.7071993   8.5557564  71.5862696  39.5703454   8.1994369  71.7966021
  38.1337403   8.2171459  72.2738101  58.5520370  30.1859421  62.3925097
  59.1898780  30.0666168  61.6888437  58.4341213  31.1340265  62.4513049
  55.3610076  30.1386849  62.3286622  55.0228587  30.0227914  61.4407157
  56.2299844  29.7378014  62.3087628  51.2196892  31.9922325  58.3183513
  50.6561757  31.9012262  57.5499801  51.1049287  31.1722230  58.7986005
  55.8429859  31.2921701  68.2872827  55.8318500  30.8974499  67.4153331
  56.0050498  30.5587773  68.8806599  56.7996450  35.6593293  53.6297978
  56.1484430  36.2447373  53.2431992  57.5940813  36.1899488  53.6893015
  52.5637120  34.0758812  67.2352011  52.2726986  34.9804443  67.1198678
  53.1994104  34.1175340  67.9496081  53.4893327  31.4535661  63.8253371
  54.0856899  31.2291683  63.1110334  53.5468298  30.7120406  64.4278819
  53.0618355  28.9075096  51.6603562  53.3143876  28.3856617  50.8987025
  52.1242914  28.7441242  51.7630246  58.1061638  27.9110875  59.4678305
  58.8924727  27.4930298  59.1168722  58.3700342  28.8156967  59.6359954
  58.2771715  33.3483725  54.1666962  57.6417548  33.4218351  54.8787867
  57.9469122  33.9377324  53.4886041  63.5070065  27.8486108  60.3711284
  64.2395237  27.2785325  60.6049113  62.7509421  27.4607708  60.8117789
  52.7814644  30.8103202  53.8627937  52.6650902  30.1348106  54.5309021
  52.8916904  30.3235576  53.0460090  55.1246185  30.2713349  57.5674626
  54.7604392  29.7443970  58.2787548  55.9813301  29.8811818  57.3941112
  61.0295486  21.5607682  64.8305892  60.6978810  22.4303093  64.6067107
  60.4341099  21.2443966  65.5099923  54.7651672  25.3003249  52.5635975
  54.9326074  26.1683485  52.9306446  54.5748841  25.4630531  51.6397264
  57.5227005  33.7620228  64.2301805  57.2227728  34.6645267  64.1217612
  57.1778065  33.4952411  65.0822958  50.9739487  30.2134025  60.2638510
  50.0489983  30.0810239  60.4716201  51.2223900  30.9928244  60.7608452
  60.9224149  26.2802768  61.9099242  60.0141026  26.2118177  61.6158003
  60.8711745  26.7574713  62.7381068  54.7440893  27.7560906  53.5482642
  54.6240518  28.2017957  54.3868122  54.0493481  28.1046224  52.9896180
  48.3348298  29.8567298  61.0982299  48.4640679  30.1101777  62.0121710
  47.6545749  30.4495006  60.7786954  54.9965015  27.6992414  69.8534140
  54.2198349  28.2586334  69.8437004  55.6355578  28.1849197  70.3749010
  62.7885795  24.4819206  63.6877116  62.1460176  24.7751740  63.0416911
  62.2840724  24.3672127  64.4930313  60.4425959  28.2282380  54.3762976
  61.3543815  28.4609766  54.2010673  59.9335606  28.8119424  53.8138054
  53.2511387  30.5077867  69.4152107  53.9926071  31.0462911  69.1386930
  52.5448372  31.1344156  69.5723659  58.7266727  32.6507007  68.0124268
  59.1350083  32.2089418  67.2678901  58.0043988  32.0759635  68.2658461
  55.0797797  27.5879614  65.3857825  55.9258992  28.0119028  65.5292474
  55.0196434  26.9313239  66.0796388  59.0495541  33.2108198  61.7676557
  58.4204404  33.3753912  61.0652625  58.6621203  33.6249808  62.5387521
  62.9284773  34.1462636  59.1220921  62.2435811  34.5261537  58.5717954
  63.0128623  34.7557963  59.8552869  58.2297242  25.2483983  67.0438999
  57.9858174  26.0026043  66.5073274  58.5057173  25.6269330  67.8786246
  60.1835705  31.7922595  65.7216264  60.3952600  32.4354355  65.0450645
  60.1365453  30.9584912  65.2538194  57.7861934  24.4040416  62.6252837
  56.9246413  24.7021669  62.9169574  57.8124368  24.6210815  61.6933869
  54.6023503  32.9482606  59.0326642  55.0661849  33.2270309  58.2431265
  54.3380301  32.0466051  58.8499733  53.5392389  29.0705759  55.8416207
  54.2416433  29.5226802  56.3090134  53.2073018  28.4289577  56.4696100
  51.9872751  27.6617515  70.2167417  51.3571411  28.3433796  70.4502814
  51.8808839  27.5500597  69.2720555  47.2817723  27.3289311  61.1433341
  46.4916777  27.5846840  60.6673452  47.7728971  28.1437649  61.2485381
  61.2981533  34.6694550  63.8938622  62.1198976  34.2674738  63.6121303
  61.2943936  34.5662785  64.8454738  49.2332469  27.6933890  58.1016818
  48.4363632  27.8052585  58.6200313  49.0058061  28.0320543  57.2357708
  55.0638136  34.2178594  66.0499332  55.1282569  34.6799001  66.8857504
  54.3549060  33.5875959  66.1781642  45.5655426  27.5819802  63.5748332
  45.8163465  28.4666812  63.8405908  46.1014975  27.4024403  62.8023424
  69.3887526  31.0133299  60.2423593  68.6351234  30.4440697  60.0867598
  69.5235067  30.9795963  61.1894228  51.2653493  21.9638281  72.5792668
  50.8720439  21.4104480  73.2540312  52.0819634  22.2748860  72.9699185
  54.1821454  23.3796160  70.1712924  54.9231168  23.9803313  70.0917387
  54.4139377  22.6373798  69.6130967  49.3262792  28.5652527  68.4491154
  49.2116308  27.6637785  68.7498253  48.4707310  28.8116224  68.0975971
  56.4054630  36.5070268  70.0478655  55.9618484  35.7206646  69.7299559
  57.0671844  36.6949418  69.3822545  58.5035868  36.7873068  68.0760056
  58.4854344  37.6081949  67.5840325  59.4255788  36.6627143  68.3010197
  54.9608922  34.3017197  68.9183564  55.4937259  33.5405485  68.6882872
  54.4323004  34.0090849  69.6607719  58.1278617  19.4077263  64.4477206
  57.7842887  20.2978905  64.3716317  58.4957580  19.2178921  63.5846791
  58.0928900  29.3985874  52.9549641  57.5775524  30.1690479  53.1938029
  57.8206209  28.7251010  53.5782703  55.6776011  24.2435575  58.0134880
  54.8217608  23.8542425  57.8340518  56.0902963  24.3227536  57.1534665
  57.2075158  21.7781918  62.4126439  56.7039953  21.7412053  61.5994245
  57.5005765  22.6874661  62.4723096  53.4518044  21.8620648  61.4192621
  54.3171040  21.6663457  61.0598510  53.5195553  21.6331000  62.3461978
  63.0663174  32.1518229  54.8902815  62.2892617  31.8129388  54.4457977
  63.7454655  32.1570852  54.2157780  57.8815203  27.2712966  54.7809422
  57.5765339  27.5859115  55.6319565  58.8345645  27.3494386  54.8236755
  56.3261635  33.4303190  56.4302376  55.7982997  32.6955949  56.1175614
  55.8249138  34.2077866  56.1842345  61.3054481  31.6252210  61.5469423
  60.6478156  32.3151471  61.6349551  62.1094880  32.0148642  61.8903409
  51.0580363  24.0922856  58.7908988  51.6324115  23.8698037  58.0582181
  51.6451345  24.1611550  59.5437589  60.1159940  29.9796583  59.5973364
  60.6291822  30.6126575  60.0995074  60.7661164  29.3797778  59.2316724
  51.3849950  26.1227317  52.8104873  50.5487262  26.4602003  53.1314148
  51.2454720  25.9876297  51.8732010  53.3603030  20.9664105  57.5184057
  52.7067443  20.6513122  56.8940672  53.3183505  20.3439845  58.2443880
  54.4714235  31.2483400  49.4337349  53.5641297  31.0172653  49.6328498
  54.9685267  30.4521019  49.6211331  57.3782314  39.9580907  52.3534035
  56.7044013  40.2612604  52.9618993  57.7648136  40.7609987  52.0039493
  56.5940771  27.4546038  61.8431705  55.6763332  27.6760985  61.6853393
  57.0100914  27.5292349  60.9843412  57.3775819  28.8537454  56.9734385
  58.1247638  29.3658851  56.6641507  57.6467408  28.5321507  57.8338779
  55.6502469  31.3495995  53.9561339  54.7413688  31.0655028  54.0533809
  55.6797553  31.7695073  53.0964646  60.8821736  34.9602584  57.7252507
  60.4284063  34.1193494  57.7817697  60.2515703  35.5963983  58.0627287
  59.8254656  25.8894570  58.9553174  59.0877413  25.3771956  59.2863417
  60.0781429  25.4494952  58.1436451  59.3254675  36.7979081  58.6602325
  59.6177650  37.3584138  57.9414691  59.8353296  37.0907642  59.4155484
  59.9266283  18.6670822  59.5494944  60.2325160  17.8068186  59.2620859
  60.6518888  19.2588442  59.3493938  46.2190639  29.0701509  57.9376542
  46.0215039  28.4770870  57.2127608  45.6637303  28.7653719  58.6552480
  54.1987363  28.9624615  60.0571135  54.2535973  28.0098452  59.9813611
  53.3878565  29.1184054  60.5412433  55.3478557  32.8904738  51.2949418
  54.9097987  32.1740597  50.8355055  56.0888997  33.1180853  50.7334509
  52.1379723  27.5801675  57.8161514  51.3247588  27.8795846  58.2226706
  52.6338717  27.1857364  58.5335996  57.7353934  28.0443500  66.6476408
  58.0903322  28.2714973  67.5070873  58.3826066  28.3761876  66.0253663
  63.4651671  31.1661935  57.3525737  63.3269570  31.3563531  56.4246926
  63.1087890  31.9281318  57.8093788  51.6293797  25.1520031  63.4322749
  52.2693177  25.0108790  62.7345712  50.7971328  24.8654544  63.0561351
  63.4921051  33.2338462  62.3637008  63.9257558  33.1413752  63.2120062
  64.2052632  33.2095963  61.7257024  57.2248946  36.8340557  63.8970109
  57.2785968  37.4031493  64.6647825  56.3563727  37.0042442  63.5324146
  48.7136865  28.5965543  55.6217494  47.7834453  28.5349998  55.8387456
  48.8094337  28.0741496  54.8254135  48.6322414  25.1220356  58.2095735
  48.8929231  26.0365689  58.1004896  49.4539586  24.6544798  58.3592348
  50.1047339  26.5358113  65.3794560  50.7770393  26.3275475  64.7307209
  49.2777126  26.3380199  64.9399792  64.3536601  33.2762163  64.8969893
  64.5472491  34.1807974  65.1429168  64.2537219  32.8169582  65.7308478
  56.0072911  23.1620054  67.3960221  55.3600826  23.8610003  67.3024697
  56.7773927  23.5956198  67.7636469  59.4151709  33.4268906  70.4710774
  59.2637216  33.1979458  69.5540858  59.4056389  34.3839507  70.4842119
  56.1837046  31.0000819  65.4557041  57.1129106  31.1511978  65.2826008
  55.7628076  31.0884839  64.6005687  54.9825377  35.0251483  63.2255578
  54.8436463  34.6570267  64.0981516  54.1939974  35.5399122  63.0539536
  56.5330593  34.4033086  60.6144416  56.1980425  34.3633856  61.5102066
  56.0334538  33.7377802  60.1414826  50.5074837  29.8100716  66.1396997
  50.3694634  29.0780955  66.7408536  51.4179760  29.7209616  65.8581185
  59.4689784  31.7489120  50.8881476  58.8518955  31.0235948  50.7914528
  59.0006273  32.5098480  50.5448550  53.1357137  29.5220675  65.6280677
  53.8456756  28.8813867  65.5867295  53.0926445  29.7733570  66.5506858
  61.1243916  36.4588028  68.5487256  61.0656462  35.7747249  67.8817839
  61.5263434  37.2007018  68.0967882  51.8486071  26.5085893  67.4476316
  51.3123428  26.0576631  68.0997913  51.2602780  26.6431802  66.7046781
  51.2588330  25.9674544  50.0102780  50.3817796  25.8463345  49.6465027
  51.7346083  25.1760623  49.7581669  61.1261323  34.4227612  66.7801236
  60.2388102  34.0853534  66.9027634  61.6959874  33.6910644  67.0170001
  42.7790470  30.7551704  60.1044287  43.4661510  30.4413434  59.5165302
  42.6238599  31.6593069  59.8311538  47.5825192  25.6441901  64.5329311
  47.4983381  25.0367570  63.7979721  46.7607899  26.1350919  64.5338807
  57.7548906  24.1295464  59.8999506  58.2517606  23.3765426  59.5800576
  56.9835888  24.1659781  59.3342715  65.6078664  29.8335830  61.5417797
  65.5968540  30.7160545  61.1711730  64.7396043  29.4807381  61.3472334
  57.1161160  38.9815899  65.9020637  57.8289132  39.6163364  65.8296539
  56.6251189  39.0779765  65.0860639  58.8378687  32.8867151  57.4737929
  57.9034966  33.0068614  57.3042633  59.0155355  31.9839618  57.2097939
  54.3383875  26.2712847  59.6271190  53.9681663  25.7183888  60.3152096
  54.8342967  25.6670981  59.0746190  62.2251238  28.7284471  58.0087963
  62.6911690  29.5612462  57.9348266  62.6758739  28.2629452  58.7133222
  52.1673074  36.7310342  66.7226208  52.8682533  37.3646825  66.8755603
  51.6968189  37.0725074  65.9621848  60.2927469  35.0728292  55.0074115
  60.5687313  34.9584887  55.9167989  59.4231968  34.6745777  54.9686288
  60.1967901  21.0965058  62.0478865  59.2830981  21.3269285  62.2161072
  60.6261003  21.1803502  62.8992897  59.9674360  29.2854950  64.5478759
  59.3145810  29.5330857  63.8931211  60.3454739  28.4719088  64.2141236
  57.2623699  38.2482828  55.9121977  57.7911465  37.7375283  55.2992140
  57.5251918  37.9325358  56.7767510  56.0161933  30.0274761  71.0344796
  55.3402570  29.9268890  71.7047171  56.8389566  29.8713974  71.4980793
  42.3558446  28.8352297  62.3761754  42.3942546  28.3015888  63.1698872
  41.8498739  28.3087503  61.7572731  49.7349209  23.6816838  65.8724296
  49.7990535  24.5431669  65.4601694  49.6716329  23.0690840  65.1396655
  49.2101481  25.7539970  69.5197331  49.8373520  25.3717048  70.1334855
  48.3529400  25.5354172  69.8853023  59.6095590  36.1602946  71.1251066
  60.1535494  36.7732904  70.6306021  59.0282435  36.7182524  71.6418079
  45.9867024  27.5616400  55.4515686  46.2820465  26.6527078  55.3982739
  45.0855060  27.5404139  55.1296688  49.5161271  25.6372396  61.4343234
  48.7947857  26.2508364  61.2950707  50.3054527  26.1730161  61.3559880
  59.9588011  37.0832684  63.8845644  59.0118347  36.9638035  63.8123971
  60.3070784  36.1955182  63.9671905  52.3187584  22.9726823  67.7083886
  52.8421986  23.2189119  68.4710195  52.0999918  23.8046857  67.2887023
  47.7154866  25.2430497  55.5755011  47.3867572  24.3627876  55.3930117
  48.0694236  25.1878166  56.4631400  50.8296689  25.5303467  55.9430488
  51.1692761  26.0589388  55.2209097  51.2768809  25.8683873  56.7189055
  60.5668566  37.7013959  61.1714869  61.4915114  37.4956820  61.0339320
  60.3983870  37.4530360  62.0804210  53.5240130  23.9140518  65.3933556
  53.1836950  23.1148331  65.7954236  52.8179136  24.2142229  64.8210390
  54.1756601  20.9989830  63.8460879  54.9982671  20.5250308  63.7239770
  54.4194665  21.7780314  64.3459566  52.8164836  24.0278089  54.1423781
  53.5373198  24.4059341  53.6387498  52.1930140  24.7466965  54.2458759
  56.9595959  24.7323238  55.0782113  57.1759573  25.6147875  54.7770942
  56.4790026  24.3409451  54.3487755  51.6995180  27.6908951  61.6552858
  51.5539761  28.0049254  62.5477140  51.2220384  28.3093851  61.1023757
  53.5591563  24.6811499  61.7033748  53.5453132  23.7852592  61.3666046
  54.2763991  24.6882163  62.3372034  55.4117694  25.1148839  63.7486875
  55.1535472  26.0365910  63.7471205  54.8802734  24.7179274  64.4387339
  60.3563882  38.2199626  56.5276960  60.5300760  37.6546049  55.7750813
  60.8492774  39.0200521  56.3456450  46.1740842  30.2314295  64.5940519
  45.6294310  31.0074103  64.7260794  47.0520192  30.5785100  64.4359641
  52.9628459  23.5625879  56.9721318  53.0844370  22.6342525  57.1712205
  52.6730501  23.5764565  56.0599633  55.8319649  21.2480790  60.1088038
  55.8541346  21.3120123  59.1540017  56.2487708  20.4085298  60.3028544
  66.2103274  30.9836049  58.1467260  66.6534420  30.2343374  57.7486383
  65.3329784  30.9746185  57.7640992  61.3439055  37.5366391  53.6273859
  62.0389960  38.1573083  53.8461173  61.6862205  36.6861742  53.9026237
  46.9606864  29.3584191  67.4870676  46.2188600  29.5066827  68.0735306
  46.6399608  29.6192457  66.6237425  63.2430478  34.9866096  55.1561189
  63.7681802  35.3253369  54.4310509  63.1552831  34.0513111  54.9724324
  54.9050527  38.9000170  67.2851066  55.2137653  38.6549316  68.1573766
  55.7026009  39.1046808  66.7969936  52.4469538  25.0757876  71.1811250
  52.4957694  25.9519999  70.7989020  52.9892053  24.5335270  70.6082894
  62.9324384  35.6199000  70.4612387  62.1419928  35.6023139  69.9216887
  62.6957739  36.1587293  71.2161424  63.0522259  32.4691466  67.7745116
  63.1020264  32.3041474  68.7160639  62.9436183  31.6018725  67.3842997
  60.3426022  28.4522394  69.0904423  61.2435884  28.3128859  68.7988420
  60.4173996  28.6176849  70.0302600  54.6768827  25.8289249  67.9357609
  53.8072136  26.1222815  67.6640198  54.9128307  26.4129694  68.6564873
  64.5540456  34.8888408  68.0187137  64.2625264  35.2518388  68.8550598
  63.9412587  34.1755416  67.8400470  65.7536138  32.4541287  60.5389708
  66.5883030  32.8931091  60.7027268  65.8895267  31.9779941  59.7197953
  62.8027644  30.0121022  66.4867195  63.2781766  30.2048669  65.6786047
  61.8793210  30.0680208  66.2410579  49.6911151  31.1745189  56.0698274
  49.4457193  30.2707519  56.2678484  49.8607065  31.1762340  55.1277752
  57.3807861  22.0468866  65.4523029  57.8989805  22.7829893  65.1269518
  57.0262994  22.3532859  66.2869788  48.9606798  26.9073547  53.5684435
  48.2676043  26.9817902  52.9124471  48.7158550  26.1433891  54.0905952
  57.6320455  18.4669148  60.9723926  57.9122209  17.7992337  61.5984352
  58.4171062  18.6598244  60.4598590  55.4353923  37.6428142  52.5348952
  54.8627890  38.2618329  52.0819424  56.0086717  38.1927504  53.0688874
  61.5029313  26.8886782  64.7195501  62.4546736  26.9884880  64.7407725
  61.3332764  26.0965051  65.2293585  59.5243693  23.9742366  64.9054902
  58.9293625  24.2547378  64.2101391  59.2393389  24.4636266  65.6771643
  58.6551183  37.9265292  53.6657535  59.5881856  37.8610854  53.8690410
  58.5674396  38.7621559  53.2072067  61.2839200  37.2431163  50.6261482
  61.2052831  36.9091026  51.5197240  62.1048867  37.7352931  50.6252954
  63.9817391  30.1092902  63.8337801  63.9493711  29.1708903  64.0197485
  64.5918015  30.1876939  63.1003626  55.8200722  28.9788955  49.8765005
  56.7659827  28.8495163  49.9453423  55.4414967  28.2403617  50.3534433
  64.1311880  26.9003945  63.8796084  63.6150928  26.1162402  63.6926013
  65.0151828  26.5722662  64.0442603  61.7922606  20.6444961  59.8391897
  61.5947428  20.3360049  60.7235229  62.4022312  21.3706600  59.9689826
  69.7993941  31.1708909  62.9743838  70.5297329  30.9094197  63.5351541
  69.1900886  30.4337631  63.0145905  67.8809238  29.3116771  63.5718289
  67.1542402  29.1772736  62.9634780  67.4656525  29.6193600  64.3775007
  55.7039414  33.0306701  71.3365662  56.6242424  33.2085300  71.5305708
  55.6688997  32.0862746  71.1845361  54.0043639  26.9038931  49.8119890
  53.0975094  26.6072044  49.8882604  54.2819620  26.6068749  48.9454176
  44.9221579  28.2245295  60.2618936  44.6024364  27.3710603  59.9693310
  44.3755008  28.4393873  61.0176904  48.7001487  30.9407736  63.9788443
  48.9187497  31.8724844  63.9976477  49.1127261  30.5815710  64.7643247
  55.6205705  21.4475821  55.9664131  54.8106433  21.1022906  56.3419377
  56.3090122  21.1383365  56.5551743  57.5496253  20.5253868  57.5888428
  58.1027292  20.9449321  58.2478451  57.7866339  19.5989616  57.6311384
  53.5729352  26.5140942  73.3691192  53.4726079  27.4635298  73.3003283
  53.3550894  26.1859180  72.4967262  52.7742424  23.7625867  49.9531869
  53.6361588  24.0880765  50.2127687  52.9592768  22.9757362  49.4404935
  44.7909839  31.8448206  62.2312058  44.0973311  31.4302159  61.7182012
  45.5382830  31.8868743  61.6345477  60.9275060  22.6354393  57.0967092
  60.3473729  23.2939197  56.7145145  60.6610993  21.8131738  56.6854510
  59.3778627  22.0359451  59.2988413  59.8778405  22.1475985  58.4902731
  60.0214234  21.7320504  59.9389221  53.4360622  29.9438080  72.1856253
  52.9527704  30.7438440  72.3920143  53.5221561  29.9546025  71.2323697
  46.7046582  31.7766460  60.1078073  46.6817270  31.8754147  59.1559956
  47.0147218  32.6231611  60.4295239  49.9533342  32.4043731  66.7895485
  50.7726231  32.8987810  66.8130322  50.2270150  31.4875699  66.7613052
  59.7099938  24.7954483  56.1523440  58.8225793  25.0804134  55.9343635
  60.1253927  24.6348247  55.3050717  63.0614474  24.8201004  59.8677780
  63.8374864  25.3097457  60.1402397  62.3362608  25.2459059  60.3249649
  65.4987033  25.5328624  60.9251720  66.0931524  25.2924360  60.2145029
  65.5713617  24.8135754  61.5525257  58.8543152  34.5599158  50.2471460
  59.5579002  34.7649161  50.8629116  58.1305800  35.1275920  50.5120544
  59.6840962  30.3109019  56.3673731  59.6276163  30.7677571  55.5281363
  60.2369304  29.5499704  56.1896573  63.4945768  26.0998751  57.1923850
  63.2382702  25.6995387  58.0232058  62.8698636  26.8142545  57.0673989
  67.8058106  28.8394824  59.6995142  67.2457664  28.9088014  60.4726704
  67.2001609  28.6635809  58.9794638  60.7629849  34.9981687  52.2969920
  61.5975453  34.5662886  52.1147395  60.6014192  34.8263701  53.2246815
  60.4175741  31.5013801  53.6626260  60.3624545  31.3358072  52.7214704
  59.7921796  32.2089834  53.8188450  45.2068256  26.7381865  67.4887682
  45.8527120  26.2280819  67.9774907  44.9985407  27.4750547  68.0631107
  57.7321648  33.8062712  72.9879823  58.6012808  33.9803365  72.6266457
  57.2528400  34.6257129  72.8655552  53.7271867  21.0021910  53.2411578
  53.7150537  21.9463750  53.3979849  54.6195289  20.8192055  52.9471039
  57.5423986  17.5964686  57.4957515  56.7756382  17.0423173  57.6414197
  57.9534691  17.6686555  58.3571667  49.5465747  23.8849482  71.5862696
  50.4097209  23.5286287  71.7966021  48.9731158  23.5463377  72.2738101
  66.2003830  45.4678767  62.3286622  65.8622342  45.3519831  61.4407157
  67.0693599  45.0669932  62.3087628  62.0590646  47.3214243  58.3183513
  61.4955511  47.2304180  57.5499801  61.9443041  46.5014147  58.7986005
  66.6823613  46.6213618  68.2872827  66.6712254  46.2266417  67.4153331
  66.8444253  45.8879691  68.8806599  67.6390205  50.9885211  53.6297978
  66.9878185  51.5739291  53.2431992  68.4334568  51.5191406  53.6893015
  68.9455393  43.2402792  59.4678305  69.7318482  42.8222215  59.1168722
  69.2094097  44.1448884  59.6359954  69.1165470  48.6775643  54.1666962
  68.4811303  48.7510269  54.8787867  68.7862876  49.2669241  53.4886041
  74.3463820  43.1778025  60.3711284  75.0788992  42.6077242  60.6049113
  73.5903175  42.7899626  60.8117789  63.6208399  46.1395120  53.8627937
  63.5044657  45.4640023  54.5309021  63.7310658  45.6527494  53.0460090
  65.9639939  45.6005267  57.5674626  65.5998147  45.0735888  58.2787548
  66.8207055  45.2103736  57.3941112  71.8689240  36.8899600  64.8305892
  71.5372565  37.7595011  64.6067107  71.2734853  36.5735884  65.5099923
  65.6045426  40.6295167  52.5635975  65.7719829  41.4975403  52.9306446
  65.4142596  40.7922448  51.6397264  71.7617903  41.6094686  61.9099242
  70.8534781  41.5410094  61.6158003  71.7105499  42.0866631  62.7381068
  65.5834647  43.0852824  53.5482642  65.4634273  43.5309875  54.3868122
  64.8887236  43.4338142  52.9896180  65.8358769  43.0284331  69.8534140
  65.0592103  43.5878251  69.8437004  66.4749332  43.5141114  70.3749010
  73.6279550  39.8111124  63.6877116  72.9853930  40.1043657  63.0416911
  73.1234478  39.6964044  64.4930313  71.2819713  43.5574297  54.3762976
  72.1937570  43.7901684  54.2010673  70.7729361  44.1411342  53.8138054
  64.0905142  45.8369785  69.4152107  64.8319826  46.3754829  69.1386930
  63.3842127  46.4636073  69.5723659  65.9191551  42.9171532  65.3857825
  66.7652746  43.3410945  65.5292474  65.8590189  42.2605156  66.0796388
  73.7678528  49.4754554  59.1220921  73.0829566  49.8553455  58.5717954
  73.8522377  50.0849880  59.8552869  69.0690997  40.5775900  67.0438999
  68.8251928  41.3317961  66.5073274  69.3450927  40.9561248  67.8786246
  68.6255688  39.7332333  62.6252837  67.7640167  40.0313587  62.9169574
  68.6518123  39.9502732  61.6933869  64.3786144  44.3997676  55.8416207
  65.0810187  44.8518720  56.3090134  64.0466772  43.7581495  56.4696100
  62.8266505  42.9909433  70.2167417  62.1965166  43.6725714  70.4502814
  62.7202593  42.8792514  69.2720555  60.0726223  43.0225808  58.1016818
  59.2757386  43.1344502  58.6200313  59.8451815  43.3612460  57.2357708
  80.2281280  46.3425217  60.2423593  79.4744989  45.7732615  60.0867598
  80.3628821  46.3087881  61.1894228  62.1047248  37.2930199  72.5792668
  61.7114194  36.7396397  73.2540312  62.9213388  37.6040777  72.9699185
  65.0215209  38.7088078  70.1712924  65.7624922  39.3095231  70.0917387
  65.2533132  37.9665716  69.6130967  67.2448385  51.8362185  70.0478655
  66.8012239  51.0498564  69.7299559  67.9065598  52.0241336  69.3822545
  68.9672372  34.7369181  64.4477206  68.6236641  35.6270822  64.3716317
  69.3351335  34.5470838  63.5846791  66.5169766  39.5727493  58.0134880
  65.6611362  39.1834343  57.8340518  66.9296717  39.6519453  57.1534665
  68.0468912  37.1073836  62.4126439  67.5433708  37.0703971  61.5994245
  68.3399519  38.0166579  62.4723096  64.2911798  37.1912566  61.4192621
  65.1564795  36.9955374  61.0598510  64.3589307  36.9622917  62.3461978
  73.9056929  47.4810147  54.8902815  73.1286372  47.1421306  54.4457977
  74.5848410  47.4862770  54.2157780  68.7208958  42.6004884  54.7809422
  68.4159093  42.9151033  55.6319565  69.6739400  42.6786304  54.8236755
  67.1655390  48.7595107  56.4302376  66.6376751  48.0247867  56.1175614
  66.6642892  49.5369784  56.1842345  61.8974117  39.4214774  58.7908988
  62.4717869  39.1989955  58.0582181  62.4845100  39.4903468  59.5437589
  62.2243704  41.4519235  52.8104873  61.3881017  41.7893921  53.1314148
  62.0848474  41.3168214  51.8732010  64.1996785  36.2956022  57.5184057
  63.5461197  35.9805040  56.8940672  64.1577259  35.6731763  58.2443880
  67.4334525  42.7837956  61.8431705  66.5157087  43.0052903  61.6853393
  67.8494669  42.8584266  60.9843412  68.2169573  44.1829372  56.9734385
  68.9641392  44.6950769  56.6641507  68.4861163  43.8613424  57.8338779
  66.4896223  46.6787912  53.9561339  65.5807443  46.3946945  54.0533809
  66.5191307  47.0986991  53.0964646  70.6648410  41.2186488  58.9553174
  69.9271167  40.7063874  59.2863417  70.9175184  40.7786870  58.1436451
  70.7660038  33.9962740  59.5494944  71.0718914  33.1360103  59.2620859
  71.4912642  34.5880360  59.3493938  65.0381117  44.2916533  60.0571135
  65.0929727  43.3390369  59.9813611  64.2272319  44.4475972  60.5412433
  62.9773477  42.9093593  57.8161514  62.1641343  43.2087763  58.2226706
  63.4732471  42.5149282  58.5335996  68.5747689  43.3735417  66.6476408
  68.9297077  43.6006890  67.5070873  69.2219820  43.7053794  66.0253663
  74.3045426  46.4953853  57.3525737  74.1663324  46.6855449  56.4246926
  73.9481645  47.2573236  57.8093788  62.4687552  40.4811948  63.4322749
  63.1086931  40.3400707  62.7345712  61.6365083  40.1946462  63.0561351
  59.4716168  40.4512273  58.2095735  59.7322986  41.3657607  58.1004896
  60.2933341  39.9836716  58.3592348  60.9441094  41.8650030  65.3794560
  61.6164147  41.6567393  64.7307209  60.1170880  41.6672116  64.9399792
  66.8466666  38.4911971  67.3960221  66.1994581  39.1901921  67.3024697
  67.6167681  38.9248115  67.7636469  70.2545464  48.7560824  70.4710774
  70.1030970  48.5271375  69.5540858  70.2450143  49.7131425  70.4842119
  62.6879826  41.8377811  67.4476316  62.1517183  41.3868549  68.0997913
  62.0996534  41.9723719  66.7046781  58.4218947  40.9733818  64.5329311
  58.3377136  40.3659488  63.7979721  57.6001653  41.4642837  64.5338807
  68.5942661  39.4587382  59.8999506  69.0911360  38.7057344  59.5800576
  67.8229642  39.4951698  59.3342715  76.4472418  45.1627747  61.5417797
  76.4362294  46.0452463  61.1711730  75.5789798  44.8099298  61.3472334
  69.6772441  48.2159069  57.4737929  68.7428720  48.3360532  57.3042633
  69.8549110  47.3131536  57.2097939  65.1777629  41.6004765  59.6271190
  64.8075417  41.0475805  60.3152096  65.6736722  40.9962898  59.0746190
  73.0644993  44.0576388  58.0087963  73.5305445  44.8904380  57.9348266
  73.5152493  43.5921370  58.7133222  71.1321224  50.4020210  55.0074115
  71.4081068  50.2876804  55.9167989  70.2625723  50.0037694  54.9686288
  71.0361656  36.4256975  62.0478865  70.1224735  36.6561202  62.2161072
  71.4654757  36.5095419  62.8992897  66.8555687  45.3566678  71.0344796
  66.1796324  45.2560808  71.7047171  67.6783321  45.2005892  71.4980793
  60.5742963  39.0108756  65.8724296  60.6384290  39.8723587  65.4601694
  60.5110083  38.3982757  65.1396655  60.0495236  41.0831888  69.5197331
  60.6767274  40.7008965  70.1334855  59.1923155  40.8646090  69.8853023
  60.3555025  40.9664314  61.4343234  59.6341611  41.5800282  61.2950707
  61.1448281  41.5022079  61.3559880  63.1581339  38.3018740  67.7083886
  63.6815741  38.5481037  68.4710195  62.9393672  39.1338775  67.2887023
  58.5548620  40.5722415  55.5755011  58.2261326  39.6919794  55.3930117
  58.9087991  40.5170084  56.4631400  61.6690443  40.8595385  55.9430488
  62.0086516  41.3881306  55.2209097  62.1162564  41.1975791  56.7189055
  64.3633884  39.2432435  65.3933556  64.0230704  38.4440249  65.7954236
  63.6572890  39.5434146  64.8210390  65.0150356  36.3281748  63.8460879
  65.8376425  35.8542226  63.7239770  65.2588419  37.1072232  64.3459566
  63.6558590  39.3570006  54.1423781  64.3766953  39.7351259  53.6387498
  63.0323894  40.0758883  54.2458759  67.7989713  40.0615155  55.0782113
  68.0153328  40.9439793  54.7770942  67.3183780  39.6701369  54.3487755
  62.5388935  43.0200869  61.6552858  62.3933515  43.3341172  62.5477140
  62.0614138  43.6385769  61.1023757  64.3985317  40.0103416  61.7033748
  64.3846886  39.1144510  61.3666046  65.1157746  40.0174080  62.3372034
  66.2511448  40.4440757  63.7486875  65.9929226  41.3657827  63.7471205
  65.7196489  40.0471191  64.4387339  63.8022213  38.8917797  56.9721318
  63.9238125  37.9634443  57.1712205  63.5124256  38.9056483  56.0599633
  66.6713404  36.5772707  60.1088038  66.6935101  36.6412040  59.1540017
  67.0881463  35.7377216  60.3028544  77.0497028  46.3127967  58.1467260
  77.4928174  45.5635292  57.7486383  76.1723538  46.3038103  57.7640992
  63.2863293  40.4049794  71.1811250  63.3351448  41.2811917  70.7989020
  63.8285807  39.8627187  70.6082894  71.1819776  43.7814312  69.0904423
  72.0829639  43.6420777  68.7988420  71.2567751  43.9468767  70.0302600
  65.5162581  41.1581167  67.9357609  64.6465891  41.4514733  67.6640198
  65.7522062  41.7421612  68.6564873  76.5929893  47.7833205  60.5389708
  77.4276784  48.2223009  60.7027268  76.7289022  47.3071858  59.7197953
  73.6421399  45.3412940  66.4867195  74.1175520  45.5340586  65.6786047
  72.7186964  45.3972126  66.2410579  68.2201615  37.3760783  65.4523029
  68.7383559  38.1121810  65.1269518  67.8656748  37.6824777  66.2869788
  59.8000553  42.2365465  53.5684435  59.1069798  42.3109820  52.9124471
  59.5552305  41.4725808  54.0905952  68.4714209  33.7961066  60.9723926
  68.7515963  33.1284255  61.5984352  69.2564816  33.9890162  60.4598590
  66.2747678  52.9720060  52.5348952  65.7021645  53.5910247  52.0819424
  66.8480472  53.5219422  53.0688874  72.3423068  42.2178700  64.7195501
  73.2940491  42.3176798  64.7407725  72.1726518  41.4256969  65.2293585
  70.3637447  39.3034283  64.9054902  69.7687379  39.5839296  64.2101391
  70.0787144  39.7928184  65.6771643  74.8211146  45.4384820  63.8337801
  74.7887466  44.5000820  64.0197485  75.4311769  45.5168856  63.1003626
  74.9705634  42.2295863  63.8796084  74.4544683  41.4454320  63.6926013
  75.8545583  41.9014580  64.0442603  72.6316361  35.9736879  59.8391897
  72.4341182  35.6651967  60.7235229  73.2416067  36.6998518  59.9689826
  80.6387695  46.5000827  62.9743838  81.3691084  46.2386115  63.5351541
  80.0294641  45.7629548  63.0145905  78.7202992  44.6408689  63.5718289
  77.9936156  44.5064654  62.9634780  78.3050279  44.9485518  64.3775007
  66.5433169  48.3598619  71.3365662  67.4636178  48.5377218  71.5305708
  66.5082752  47.4154664  71.1845361  66.4599459  36.7767739  55.9664131
  65.6500188  36.4314824  56.3419377  67.1483876  36.4675282  56.5551743
  68.3890008  35.8545786  57.5888428  68.9421046  36.2741239  58.2478451
  68.6260094  34.9281534  57.6311384  64.4123107  41.8432859  73.3691192
  64.3119834  42.7927216  73.3003283  64.1944649  41.5151098  72.4967262
  63.6136178  39.0917784  49.9531869  64.4755342  39.4172683  50.2127687
  63.7986522  38.3049280  49.4404935  71.7668815  37.9646311  57.0967092
  71.1867484  38.6231115  56.7145145  71.5004747  37.1423655  56.6854510
  70.2172381  37.3651368  59.2988413  70.7172159  37.4767903  58.4902731
  70.8607989  37.0612421  59.9389221  64.2754377  45.2729998  72.1856253
  63.7921459  46.0730358  72.3920143  64.3615316  45.2837943  71.2323697
  70.5493693  40.1246401  56.1523440  69.6619548  40.4096052  55.9343635
  70.9647682  39.9640164  55.3050717  73.9008229  40.1492922  59.8677780
  74.6768619  40.6389375  60.1402397  73.1756363  40.5750976  60.3249649
  76.3380787  40.8620541  60.9251720  76.9325278  40.6216277  60.2145029
  76.4107371  40.1427672  61.5525257  70.5234716  45.6400937  56.3673731
  70.4669918  46.0969488  55.5281363  71.0763059  44.8791622  56.1896573
  74.3339522  41.4290669  57.1923850  74.0776457  41.0287305  58.0232058
  73.7092390  42.1434463  57.0673989  78.6451860  44.1686742  59.6995142
  78.0851418  44.2379931  60.4726704  78.0395364  43.9927727  58.9794638
  71.2569496  46.8305718  53.6626260  71.2018300  46.6649990  52.7214704
  70.6315551  47.5381751  53.8188450  68.5715403  49.1354630  72.9879823
  69.4406563  49.3095282  72.6266457  68.0922154  49.9549047  72.8655552
  64.5665621  36.3313827  53.2411578  64.5544291  37.2755667  53.3979849
  65.4589043  36.1483973  52.9471039  68.3817741  32.9256604  57.4957515
  67.6150136  32.3715091  57.6414197  68.7928446  32.9978473  58.3571667
  60.3859502  39.2141400  71.5862696  61.2490963  38.8578205  71.7966021
  59.8124912  38.8755295  72.2738101  85.1857574  58.5069943  60.3711284
  85.9182746  57.9369160  60.6049113  84.4296930  58.1191544  60.8117789
  82.7082995  52.2191517  64.8305892  82.3766319  53.0886928  64.6067107
  82.1128608  51.9027801  65.5099923  82.6011658  56.9386603  61.9099242
  81.6928535  56.8702012  61.6158003  82.5499254  57.4158548  62.7381068
  84.4673304  55.1403042  63.6877116  83.8247685  55.4335575  63.0416911
  83.9628233  55.0255962  64.4930313  84.6072282  64.8046471  59.1220921
  83.9223320  65.1845373  58.5717954  84.6916131  65.4141798  59.8552869
  79.4649443  55.0624251  62.6252837  78.6033922  55.3605505  62.9169574
  79.4911877  55.2794650  61.6933869  91.0675035  61.6717134  60.2423593
  90.3138743  61.1024532  60.0867598  91.2022576  61.6379799  61.1894228
  79.8066126  50.0661098  64.4477206  79.4630396  50.9562740  64.3716317
  80.1745089  49.8762756  63.5846791  78.8862667  52.4365754  62.4126439
  78.3827462  52.3995889  61.5994245  79.1793274  53.3458496  62.4723096
  84.7450683  62.8102064  54.8902815  83.9680126  62.4713224  54.4457977
  85.4242164  62.8154687  54.2157780  75.0390539  51.6247940  57.5184057
  74.3854952  51.3096957  56.8940672  74.9971014  51.0023681  58.2443880
  81.5042165  56.5478406  58.9553174  80.7664922  56.0355792  59.2863417
  81.7568938  56.1078787  58.1436451  81.6053792  49.3254658  59.5494944
  81.9112669  48.4652021  59.2620859  82.3306397  49.9172278  59.3493938
  85.1439180  61.8245771  57.3525737  85.0057079  62.0147367  56.4246926
  84.7875399  62.5865154  57.8093788  85.1708560  63.8922298  62.3637008
  85.6045067  63.7997587  63.2120062  85.8840141  63.8679798  61.7257024
  86.0324110  63.9345998  64.8969893  86.2260000  64.8391809  65.1429168
  85.9324728  63.4753418  65.7308478  81.1477293  62.4072955  50.8881476
  80.5306464  61.6819784  50.7914528  80.6793782  63.1682316  50.5448550
  79.4336415  54.7879300  59.8999506  79.9305115  54.0349262  59.5800576
  78.6623397  54.8243616  59.3342715  87.2866173  60.4919665  61.5417797
  87.2756049  61.3744380  61.1711730  86.4183552  60.1391216  61.3472334
  83.9038747  59.3868306  58.0087963  84.3699199  60.2196298  57.9348266
  84.3546248  58.9213288  58.7133222  81.8755410  51.7548893  62.0478865
  80.9618490  51.9853120  62.2161072  82.3048511  51.8387337  62.8992897
  81.6461869  59.9438785  64.5478759  80.9933319  60.1914692  63.8931211
  82.0242248  59.1302923  64.2141236  82.0351391  68.8783461  56.5276960
  82.2088269  68.3129884  55.7750813  82.5280283  69.6784356  56.3456450
  77.5107158  51.9064625  60.1088038  77.5328855  51.9703958  59.1540017
  77.9275217  51.0669134  60.3028544  87.8890783  61.6419884  58.1467260
  88.3321929  60.8927210  57.7486383  87.0117293  61.6330021  57.7640992
  83.0226564  68.1950226  53.6273859  83.7177469  68.8156919  53.8461173
  83.3649714  67.3445577  53.9026237  84.9217987  65.6449931  55.1561189
  85.4469311  65.9837204  54.4310509  84.8340340  64.7096947  54.9724324
  84.7309768  63.1275301  67.7745116  84.7807773  62.9625309  68.7160639
  84.6223692  62.2602560  67.3842997  82.0213531  59.1106229  69.0904423
  82.9223393  58.9712694  68.7988420  82.0961505  59.2760684  70.0302600
  86.2327965  65.5472243  68.0187137  85.9412773  65.9102224  68.8550598
  85.6200096  64.8339251  67.8400470  87.4323647  63.1125123  60.5389708
  88.2670539  63.5514927  60.7027268  87.5682776  62.6363776  59.7197953
  84.4815153  60.6704858  66.4867195  84.9569275  60.8632504  65.6786047
  83.5580719  60.7264043  66.2410579  79.0595370  52.7052701  65.4523029
  79.5777314  53.4413728  65.1269518  78.7050502  53.0116694  66.2869788
  79.3107964  49.1252984  60.9723926  79.5909718  48.4576173  61.5984352
  80.0958571  49.3182079  60.4598590  83.1816822  57.5470618  64.7195501
  84.1334245  57.6468715  64.7407725  83.0120273  56.7548886  65.2293585
  81.2031202  54.6326201  64.9054902  80.6081134  54.9131214  64.2101391
  80.9180898  55.1220102  65.6771643  82.9626709  67.9014998  50.6261482
  82.8840340  67.5674862  51.5197240  83.7836376  68.3936766  50.6252954
  85.6604900  60.7676737  63.8337801  85.6281220  59.8292738  64.0197485
  86.2705524  60.8460774  63.1003626  85.8099388  57.5587781  63.8796084
  85.2938437  56.7746237  63.6926013  86.6939337  57.2306497  64.0442603
  83.4710115  51.3028796  59.8391897  83.2734937  50.9943885  60.7235229
  84.0809821  52.0290435  59.9689826  91.4781450  61.8292744  62.9743838
  92.2084838  61.5678032  63.5351541  90.8688395  61.0921466  63.0145905
  89.5596747  59.9700607  63.5718289  88.8329911  59.8356572  62.9634780
  89.1444034  60.2777435  64.3775007  79.2283762  51.1837703  57.5888428
  79.7814801  51.6033157  58.2478451  79.4653848  50.2573451  57.6311384
  82.6062569  53.2938228  57.0967092  82.0261238  53.9523032  56.7145145
  82.3398502  52.4715573  56.6854510  81.0566135  52.6943286  59.2988413
  81.5565914  52.8059821  58.4902731  81.7001743  52.3904339  59.9389221
  84.7401983  55.4784840  59.8677780  85.5162373  55.9681292  60.1402397
  84.0150117  55.9042894  60.3249649  87.1774542  56.1912459  60.9251720
  87.7719033  55.9508195  60.2145029  87.2501126  55.4719590  61.5525257
  80.5330661  65.2182993  50.2471460  81.2366511  65.4232996  50.8629116
  79.8093309  65.7859755  50.5120544  85.1733277  56.7582587  57.1923850
  84.9170211  56.3579222  58.0232058  84.5486145  57.4726381  57.0673989
  89.4845615  59.4978660  59.6995142  88.9245173  59.5671849  60.4726704
  88.8789118  59.3219644  58.9794638  82.4417358  65.6565523  52.2969920
  83.2762962  65.2246721  52.1147395  82.2801701  65.4847536  53.2246815
  79.2211495  48.2548522  57.4957515  78.4543891  47.7007008  57.6414197
  79.6322200  48.3270390  58.3571667  91.0701633  76.1735174  62.3925097
  91.7080043  76.0541921  61.6888437  90.9522476  77.1216018  62.4513049
  87.8791339  76.1262602  62.3286622  87.5409851  76.0103667  61.4407157
  88.7481108  75.7253767  62.3087628  83.7378155  77.9798078  58.3183513
  83.1743020  77.8888015  57.5499801  83.6230550  77.1597983  58.7986005
  88.3611122  77.2797454  68.2872827  88.3499763  76.8850252  67.4153331
  88.5231762  76.5463526  68.8806599  81.2842587  79.4749270  61.1567733
  82.0763879  79.1340095  60.7414033  81.5239237  79.5844245  62.0769887
  89.3177714  81.6469046  53.6297978  88.6665694  82.2323126  53.2431992
  90.1122077  82.1775241  53.6893015  83.2433341  78.7358183  54.0285112
  84.0164217  78.1887170  53.8897988  83.5958740  79.6002432  54.2399574
  85.0818384  80.0634565  67.2352011  84.7908250  80.9680196  67.1198678
  85.7175368  80.1051093  67.9496081  86.0074590  77.4411414  63.8253371
  86.6038163  77.2167436  63.1110334  86.0649562  76.6996159  64.4278819
  85.5799619  74.8950849  51.6603562  85.8325139  74.3732371  50.8987025
  84.6424178  74.7316995  51.7630246  90.6242902  73.8986628  59.4678305
  91.4105991  73.4806051  59.1168722  90.8881606  74.8032720  59.6359954
  90.7952979  79.3359478  54.1666962  90.1598812  79.4094104  54.8787867
  90.4650385  79.9253077  53.4886041  96.0251329  73.8361861  60.3711284
  96.7576501  73.2661078  60.6049113  95.2690684  73.4483461  60.8117789
  85.2995908  76.7978955  53.8627937  85.1832166  76.1223859  54.5309021
  85.4098167  76.3111329  53.0460090  87.6427448  76.2589102  57.5674626
  87.2785656  75.7319723  58.2787548  88.4994564  75.8687571  57.3941112
  87.2832935  71.2879002  52.5635975  87.4507338  72.1559238  52.9306446
  87.0930104  71.4506284  51.6397264  90.0408269  79.7495981  64.2301805
  89.7408992  80.6521020  64.1217612  89.6959328  79.4828164  65.0822958
  83.4920750  76.2009778  60.2638510  82.5671247  76.0685992  60.4716201
  83.7405163  76.9803997  60.7608452  93.4405412  72.2678521  61.9099242
  92.5322290  72.1993930  61.6158003  93.3893008  72.7450466  62.7381068
  87.2622156  73.7436660  53.5482642  87.1421782  74.1893710  54.3868122
  86.5674745  74.0921977  52.9896180  80.8529561  75.8443051  61.0982299
  80.9821942  76.0977530  62.0121710  80.1727012  76.4370759  60.7786954
  85.0229048  86.5140301  57.1972773  84.9453078  87.4648126  57.2761253
  84.4190692  86.1686174  57.8547699  87.5146278  73.6868167  69.8534140
  86.7379612  74.2462087  69.8437004  88.1536841  74.1724950  70.3749010
  95.3067059  70.4694959  63.6877116  94.6641439  70.7627493  63.0416911
  94.8021987  70.3547880  64.4930313  92.9607222  74.2158133  54.3762976
  93.8725079  74.4485519  54.2010673  92.4516870  74.7995177  53.8138054
  85.7692650  76.4953620  69.4152107  86.5107335  77.0338664  69.1386930
  85.0629636  77.1219909  69.5723659  91.2447990  78.6382761  68.0124268
  91.6531346  78.1965171  67.2678901  90.5225252  78.0635388  68.2658461
  87.5979060  73.5755367  65.3857825  88.4440255  73.9994781  65.5292474
  87.5377698  72.9188992  66.0796388  91.5676805  79.1983951  61.7676557
  90.9385667  79.3629665  61.0652625  91.1802467  79.6125561  62.5387521
  95.4466037  80.1338389  59.1220921  94.7617075  80.5137290  58.5717954
  95.5309886  80.7433716  59.8552869  90.7478506  71.2359736  67.0438999
  90.5039437  71.9901796  66.5073274  91.0238436  71.6145083  67.8786246
  92.7016968  77.7798348  65.7216264  92.9133864  78.4230108  65.0450645
  92.6546717  76.9460665  65.2538194  90.3043197  70.3916169  62.6252837
  89.4427676  70.6897422  62.9169574  90.3305632  70.6086568  61.6933869
  87.1204767  78.9358359  59.0326642  87.5843112  79.2146062  58.2431265
  86.8561565  78.0341804  58.8499733  84.0128848  78.4829841  61.9706405
  84.5830205  78.9117109  61.3323890  84.6036960  78.2012425  62.6690591
  86.0573653  75.0581512  55.8416207  86.7597696  75.5102555  56.3090134
  85.7254281  74.4165330  56.4696100  84.5054014  73.6493268  70.2167417
  83.8752675  74.3309549  70.4502814  84.3990102  73.5376350  69.2720555
  93.8162796  80.6570303  63.8938622  94.6380240  80.2550491  63.6121303
  93.8125199  80.5538538  64.8454738  87.5819400  80.2054347  66.0499332
  87.6463832  80.6674754  66.8857504  86.8730324  79.5751712  66.1781642
 101.9068789  77.0009052  60.2423593 101.1532498  76.4316450  60.0867598
 102.0416330  76.9671716  61.1894228  87.2967417  81.8722454  55.9178313
  87.1613092  82.7173990  56.3463160  87.8377230  82.0741732  55.1544246
  80.7496815  79.3897892  56.4906238  81.2621335  80.1841143  56.6411802
  81.4019528  78.6924183  56.4239839  82.5591699  82.5063649  58.5728991
  82.7358328  83.4281613  58.3849975  83.3548533  82.1922068  59.0023371
  86.7002718  69.3671913  70.1712924  87.4412431  69.9679066  70.0917387
  86.9320641  68.6249551  69.6130967  81.8444056  74.5528280  68.4491154
  81.7297571  73.6513538  68.7498253  80.9888574  74.7991977  68.0975971
  88.9235894  82.4946021  70.0478655  88.4799748  81.7082399  69.7299559
  89.5853107  82.6825171  69.3822545  83.6823015  84.0241822  64.5739333
  84.2330440  83.8958886  63.8016327  82.8434491  84.3236711  64.2234226
  91.0217132  82.7748821  68.0760056  91.0035607  83.5957702  67.5840325
  91.9437052  82.6502896  68.3010197  87.4790186  80.2892950  68.9183564
  88.0118523  79.5281238  68.6882872  86.9504267  79.9966602  69.6607719
  90.6459881  65.3953016  64.4477206  90.3024150  66.2854658  64.3716317
  91.0138843  65.2054674  63.5846791  90.6110164  75.3861627  52.9549641
  90.0956787  76.1566232  53.1938029  90.3387472  74.7126763  53.5782703
  88.1957275  70.2311328  58.0134880  87.3398871  69.8418178  57.8340518
  88.6084226  70.3103289  57.1534665  89.7256421  67.7657671  62.4126439
  89.2221217  67.7287806  61.5994245  90.0187028  68.6750414  62.4723096
  85.9699307  67.8496401  61.4192621  86.8352304  67.6539210  61.0598510
  86.0376816  67.6206753  62.3461978  95.5844438  78.1393982  54.8902815
  94.8073881  77.8005141  54.4457977  96.2635919  78.1446605  54.2157780
  90.3996467  73.2588719  54.7809422  90.0946602  73.5734868  55.6319565
  91.3526909  73.3370139  54.8236755  88.8442899  79.4178943  56.4302376
  88.3164260  78.6831702  56.1175614  88.3430401  80.1953619  56.1842345
  93.8235745  77.6127963  61.5469423  93.1659419  78.3027225  61.6349551
  94.6276144  78.0024395  61.8903409  83.5761626  70.0798609  58.7908988
  84.1505378  69.8573790  58.0582181  84.1632609  70.1487303  59.5437589
  92.6341203  75.9672336  59.5973364  93.1473085  76.6002328  60.0995074
  93.2842427  75.3673531  59.2316724  83.9031213  72.1103070  52.8104873
  83.0668526  72.4477756  53.1314148  83.7635983  71.9752050  51.8732010
  85.8784294  66.9539858  57.5184057  85.2248706  66.6388875  56.8940672
  85.8364768  66.3315598  58.2443880  86.9895499  77.2359153  49.4337349
  86.0822561  77.0048406  49.6328498  87.4866531  76.4396772  49.6211331
  89.8963578  85.9456660  52.3534035  89.2225276  86.2488357  52.9618993
  90.2829400  86.7485740  52.0039493  89.1122034  73.4421791  61.8431705
  88.1944596  73.6636738  61.6853393  89.5282178  73.5168102  60.9843412
  89.8957082  74.8413207  56.9734385  90.6428901  75.3534604  56.6641507
  90.1648672  74.5197260  57.8338779  88.1683732  77.3371748  53.9561339
  87.2594952  77.0530781  54.0533809  88.1978816  77.7570826  53.0964646
  93.4003000  80.9478337  57.7252507  92.9465327  80.1069247  57.7817697
  92.7696966  81.5839736  58.0627287  92.3435919  71.8770323  58.9553174
  91.6058676  71.3647709  59.2863417  92.5962693  71.4370705  58.1436451
  91.8435939  82.7854834  58.6602325  92.1358913  83.3459891  57.9414691
  92.3534559  83.0783395  59.4155484  92.4447547  64.6546575  59.5494944
  92.7506423  63.7943939  59.2620859  93.1700151  65.2464195  59.3493938
  86.7168626  74.9500368  60.0571135  86.7717236  73.9974205  59.9813611
  85.9059828  75.1059807  60.5412433  87.8659820  78.8780491  51.2949418
  87.4279250  78.1616350  50.8355055  88.6070261  79.1056606  50.7334509
  84.6560986  73.5677428  57.8161514  83.8428852  73.8671599  58.2226706
  85.1519980  73.1733117  58.5335996  86.8069564  83.5635185  59.7495778
  86.7645743  83.7896031  58.8204310  87.7232263  83.3298560  59.8981579
  90.2535198  74.0319253  66.6476408  90.6084586  74.2590726  67.5070873
  90.9007329  74.3637629  66.0253663  95.9832935  77.1537688  57.3525737
  95.8450833  77.3439284  56.4246926  95.6269154  77.9157071  57.8093788
  96.0102314  79.2214215  62.3637008  96.4438821  79.1289505  63.2120062
  96.7233895  79.1971716  61.7257024  84.9235365  80.4398214  59.5457741
  85.7175963  79.9448534  59.3440316  84.2127057  79.9116077  59.1825447
  89.7430209  82.8216310  63.8970109  89.7967232  83.3907246  64.6647825
  88.8744991  82.9918195  63.5324146  81.2318128  74.5841296  55.6217494
  80.3015716  74.5225751  55.8387456  81.3275600  74.0617249  54.8254135
  96.8717864  79.2637916  64.8969893  97.0653754  80.1683727  65.1429168
  96.7718482  78.8045335  65.7308478  88.5254175  69.1495807  67.3960221
  87.8782090  69.8485756  67.3024697  89.2955190  69.5831951  67.7636469
  91.9332973  79.4144659  70.4710774  91.7818479  79.1855211  69.5540858
  91.9237652  80.3715260  70.4842119  88.7018309  76.9876572  65.4557041
  89.6310369  77.1387731  65.2826008  88.2809339  77.0760592  64.6005687
  87.5006641  81.0127236  63.2255578  87.3617727  80.6446020  64.0981516
  86.7121237  81.5274875  63.0539536  88.0954793  86.1136332  54.5681115
  88.2706549  85.6424376  55.3826737  87.4087581  86.7402099  54.7962375
  89.0511856  80.3908839  60.6144416  88.7161689  80.3509609  61.5102066
  88.5515802  79.7253555  60.1414826  83.0256100  75.7976469  66.1396997
  82.8875898  75.0656708  66.7408536  83.9361023  75.7085369  65.8581185
  91.9871048  77.7364873  50.8881476  91.3700218  77.0111701  50.7914528
  91.5187536  78.4974233  50.5448550  85.6538401  75.5096428  65.6280677
  86.3638019  74.8689620  65.5867295  85.6107709  75.7609323  66.5506858
  93.6425179  82.4463781  68.5487256  93.5837725  81.7623002  67.8817839
  94.0444698  83.1882771  68.0967882  84.3667335  72.4961646  67.4476316
  83.8304692  72.0452384  68.0997913  83.7784043  72.6307555  66.7046781
  82.6615878  89.2625695  61.3420975  82.9012476  89.8944219  62.0199993
  81.8185075  88.9113735  61.6286334  83.7769594  71.9550297  50.0102780
  82.8999060  71.8339098  49.6465027  84.2527347  71.1636376  49.7581669
  93.6442587  80.4103365  66.7801236  92.7569365  80.0729287  66.9027634
  94.2141138  79.6786397  67.0170001  87.1743740  85.0704818  63.7462479
  87.1013911  85.8759789  64.2581783  86.7321133  85.2696784  62.9210500
  86.9633520  84.3076588  57.2565300  86.1801042  84.8498268  57.3503525
  87.6626265  84.8250567  57.6559542  90.2730170  70.1171217  59.8999506
  90.7698869  69.3641180  59.5800576  89.5017151  70.1535534  59.3342715
  98.1259927  75.8211583  61.5417797  98.1149803  76.7036298  61.1711730
  97.2577307  75.4683134  61.3472334  89.6342424  84.9691652  65.9020637
  90.3470396  85.6039117  65.8296539  89.1432452  85.0655518  65.0860639
  91.3559950  78.8742904  57.4737929  90.4216229  78.9944367  57.3042633
  91.5336619  77.9715371  57.2097939  86.8565138  72.2588600  59.6271190
  86.4862926  71.7059641  60.3152096  87.3524231  71.6546734  59.0746190
  84.6854337  82.7186095  66.7226208  85.3863797  83.3522578  66.8755603
  84.2149452  83.0600827  65.9621848  92.8108733  81.0604045  55.0074115
  93.0868577  80.9460640  55.9167989  91.9413232  80.6621530  54.9686288
  92.7149165  67.0840811  62.0478865  91.8012244  67.3145038  62.2161072
  93.1442266  67.1679255  62.8992897  92.4855623  75.2730703  64.5478759
  91.8327073  75.5206610  63.8931211  92.8636003  74.4594841  64.2141236
  89.4462797  85.3090396  58.6506929  89.6285191  84.4912052  59.1134681
  90.2695783  85.5258088  58.2131819  89.7804962  84.2358581  55.9121977
  90.3092729  83.7251036  55.2992140  90.0433182  83.9201111  56.7767510
  88.5343196  76.0150514  71.0344796  87.8583833  75.9144643  71.7047171
  89.3570830  75.8589727  71.4980793  80.2822055  82.2522450  63.6557311
  80.8675492  81.5066138  63.7885215  80.0846894  82.5626407  64.5393975
  83.1360710  85.2873698  58.6719753  82.4671086  85.7719825  58.1883793
  82.9973580  85.5342918  59.5863132  87.2765979  87.3217441  65.2702412
  87.8284287  87.4849063  66.0351497  87.6172172  87.9121879  64.5982437
  92.1276853  82.1478699  71.1251066  92.6716757  82.7608657  70.6306021
  91.5463698  82.7058277  71.6418079  90.4134366  85.2699417  62.2566094
  90.2885506  84.4689157  61.7477039  91.0713457  85.7645610  61.7680064
  92.4769275  83.0708437  63.8845644  91.5299610  82.9513788  63.8123971
  92.8252048  82.1830935  63.9671905  89.4815708  82.8661153  60.0849996
  89.3340670  81.9377860  60.2657566  90.3069201  82.8881244  59.6007071
  83.3477952  71.5179220  55.9430488  83.6874025  72.0465141  55.2209097
  83.7950073  71.8559626  56.7189055  93.0849830  83.6889712  61.1714869
  94.0096377  83.4832573  61.0339320  92.9165133  83.4406113  62.0804210
  86.0421393  69.9016271  65.3933556  85.7018213  69.1024084  65.7954236
  85.3360399  70.2017982  64.8210390  86.6937865  66.9865583  63.8460879
  87.5163934  66.5126061  63.7239770  86.9375928  67.7656067  64.3459566
  85.3346099  70.0153842  54.1423781  86.0554462  70.3935094  53.6387498
  84.7111403  70.7342718  54.2458759  89.4777222  70.7198991  55.0782113
  89.6940837  71.6023629  54.7770942  88.9971289  70.3285204  54.3487755
  84.2176444  73.6784704  61.6552858  84.0721024  73.9925007  62.5477140
  83.7401647  74.2969604  61.1023757  86.0772826  70.6687252  61.7033748
  86.0634395  69.7728345  61.3666046  86.7945255  70.6757916  62.3372034
  87.9298957  71.1024592  63.7486875  87.6716735  72.0241663  63.7471205
  87.3983998  70.7055027  64.4387339  92.8745146  84.2075379  56.5276960
  93.0482023  83.6421802  55.7750813  93.3674037  85.0076274  56.3456450
  78.6922106  76.2190048  64.5940519  78.1475574  76.9949856  64.7260794
  79.5701456  76.5660853  64.4359641  85.4809722  69.5501632  56.9721318
  85.6025634  68.6218278  57.1712205  85.1911765  69.5640318  56.0599633
  88.3500913  67.2356543  60.1088038  88.3722610  67.2995876  59.1540017
  88.7668972  66.3961051  60.3028544  98.7284537  76.9711802  58.1467260
  99.1715683  76.2219127  57.7486383  97.8511047  76.9621938  57.7640992
  93.8620318  83.5242144  53.6273859  94.5571223  84.1448836  53.8461173
  94.2043469  82.6737495  53.9026237  79.4788128  75.3459945  67.4870676
  78.7369864  75.4942580  68.0735306  79.1580872  75.6068210  66.6237425
  95.7611742  80.9741849  55.1561189  96.2863066  81.3129122  54.4310509
  95.6734094  80.0388864  54.9724324  87.4231790  84.8875923  67.2851066
  87.7318917  84.6425070  68.1573766  88.2207272  85.0922561  66.7969936
  87.4452402  87.0413832  59.5156443  87.0057393  86.5490211  60.2089299
  88.1960519  86.4986800  59.2748518  79.9244741  83.2325373  59.5181071
  80.7502761  82.9329145  59.1379714  79.5738793  82.4632996  59.9670859
  84.8926274  82.5851841  61.5878744  84.2706284  81.9222546  61.2880972
  85.5631141  82.6112973  60.9052392  84.9650802  71.0633629  71.1811250
  85.0138957  71.9395752  70.7989020  85.5073316  70.5211023  70.6082894
  95.4505648  81.6074753  70.4612387  94.6601191  81.5898892  69.9216887
  95.2139002  82.1463046  71.2161424  95.5703523  78.4567219  67.7745116
  95.6201528  78.2917227  68.7160639  95.4617446  77.5894478  67.3842997
  84.4539781  81.1355765  55.0637205  84.6027902  81.8191229  54.4103878
  85.2606225  81.1160855  55.5786661  92.8607285  74.4398147  69.0904423
  93.7617148  74.3004612  68.7988420  92.9355260  74.6052602  70.0302600
  87.1950090  71.8165002  67.9357609  86.3253400  72.1098568  67.6640198
  87.4309571  72.4005447  68.6564873  97.0721719  80.8764161  68.0187137
  96.7806528  81.2394141  68.8550598  96.4593851  80.1631169  67.8400470
  98.2717402  78.4417040  60.5389708  99.1064293  78.8806844  60.7027268
  98.4076531  77.9655694  59.7197953  95.3208908  75.9996775  66.4867195
  95.7963029  76.1924422  65.6786047  94.3974473  76.0555961  66.2410579
  82.2092414  77.1620942  56.0698274  81.9638456  76.2583272  56.2678484
  82.3788329  77.1638093  55.1277752  89.8989124  68.0344619  65.4523029
  90.4171068  68.7705646  65.1269518  89.5444257  68.3408612  66.2869788
  81.4788062  72.8949300  53.5684435  80.7857307  72.9693655  52.9124471
  81.2339814  72.1309644  54.0905952  90.1501718  64.4544901  60.9723926
  90.4303472  63.7868090  61.5984352  90.9352325  64.6473997  60.4598590
  87.9535187  83.6303895  52.5348952  87.3809154  84.2494082  52.0819424
  88.5267981  84.1803257  53.0688874  94.0210577  72.8762535  64.7195501
  94.9728000  72.9760633  64.7407725  93.8514027  72.0840804  65.2293585
  92.0424956  69.9618119  64.9054902  91.4474888  70.2423131  64.2101391
  91.7574653  70.4512019  65.6771643  91.1732447  83.9141045  53.6657535
  92.1063120  83.8486607  53.8690410  91.0855659  84.7497312  53.2072067
  93.8020463  83.2306916  50.6261482  93.7234095  82.8966779  51.5197240
  94.6230130  83.7228684  50.6252954  88.3381985  74.9664708  49.8765005
  89.2841090  74.8370916  49.9453423  87.9596230  74.2279370  50.3534433
  96.6493143  72.8879698  63.8796084  96.1332192  72.1038155  63.6926013
  97.5333092  72.5598415  64.0442603  94.3103870  66.6320714  59.8391897
  94.1128691  66.3235802  60.7235229  94.9203575  67.3582353  59.9689826
 102.3175204  77.1584662  62.9743838 103.0478593  76.8969950  63.5351541
 101.7082150  76.4213384  63.0145905 100.3990501  75.2992524  63.5718289
  99.6723665  75.1648489  62.9634780  99.9837788  75.6069353  64.3775007
  88.2220678  79.0182454  71.3365662  89.1423687  79.1961053  71.5305708
  88.1870261  78.0738499  71.1845361  86.5224903  72.8914684  49.8119890
  85.6156358  72.5947797  49.8882604  86.8000884  72.5944502  48.9454176
  81.2182750  76.9283489  63.9788443  81.4368760  77.8600597  63.9976477
  81.6308524  76.5691463  64.7643247  88.1386968  67.4351574  55.9664131
  87.3287697  67.0898659  56.3419377  88.8271385  67.1259118  56.5551743
  90.0677517  66.5129621  57.5888428  90.6208555  66.9325074  58.2478451
  90.3047603  65.5865369  57.6311384  86.0910616  72.5016695  73.3691192
  85.9907343  73.4511052  73.3003283  85.8732158  72.1734933  72.4967262
  85.2923687  69.7501620  49.9531869  86.1542851  70.0756518  50.2127687
  85.4774031  68.9633116  49.4404935  93.4456324  68.6230146  57.0967092
  92.8654993  69.2814950  56.7145145  93.1792256  67.8007491  56.6854510
  91.8959890  68.0235204  59.2988413  92.3959668  68.1351738  58.4902731
  92.5395498  67.7196257  59.9389221  85.9541886  75.9313833  72.1856253
  85.4708968  76.7314194  72.3920143  86.0402825  75.9421778  71.2323697
  81.8815223  79.8218368  64.2224687  82.8358477  79.7902310  64.1554619
  81.6827747  79.3608992  65.0374913  82.4714605  78.3919484  66.7895485
  83.2907494  78.8863563  66.8130322  82.7451413  77.4751452  66.7613052
  92.2281202  70.7830236  56.1523440  91.3407057  71.0679887  55.9343635
  92.6435191  70.6224000  55.3050717  95.5795738  70.8076757  59.8677780
  96.3556128  71.2973210  60.1402397  94.8543872  71.2334812  60.3249649
  80.2365452  85.3637988  61.2394885  80.1019920  84.6038388  60.6732883
  79.8197514  86.0878887  60.7723674  91.3724415  80.5474911  50.2471460
  92.0760265  80.7524914  50.8629116  90.6487064  81.1151673  50.5120544
  92.2022225  76.2984772  56.3673731  92.1457427  76.7553324  55.5281363
  92.7550568  75.5375457  56.1896573  96.0127031  72.0874504  57.1923850
  95.7563966  71.6871140  58.0232058  95.3879899  72.8018298  57.0673989
 100.3239369  74.8270578  59.6995142  99.7638927  74.8963767  60.4726704
  99.7182873  74.6511562  58.9794638  83.3934578  86.2607305  61.4513328
  83.2766962  87.2052737  61.3492018  82.5727024  85.9580866  61.8399127
  93.2811113  80.9857440  52.2969920  94.1156716  80.5538639  52.1147395
  93.1195455  80.8139454  53.2246815  92.9357005  77.4889554  53.6626260
  92.8805808  77.3233825  52.7214704  92.3103060  78.1965587  53.8188450
  90.2502912  79.7938465  72.9879823  91.1194071  79.9679118  72.6266457
  89.7709663  80.6132882  72.8655552  86.2453130  66.9897663  53.2411578
  86.2331800  67.9339503  53.3979849  87.1376552  66.8067808  52.9471039
  84.4189092  86.9135567  64.6669256  85.3216339  86.9459177  64.9835751
  84.1926462  85.9836017  64.6815592  86.1742694  85.6666553  61.3279335
  85.2238325  85.6668415  61.2143707  86.4775180  84.9199288  60.8115369
  90.0605250  63.5840439  57.4957515  89.2937645  63.0298926  57.6414197
  90.4715955  63.6562308  58.3571667 101.9095388  91.5027091  62.3925097
 102.5473798  91.3833839  61.6888437 101.7916230  92.4507935  62.4513049
  98.7185094  91.4554520  62.3286622  98.3803605  91.3395584  61.4407157
  99.5874862  91.0545685  62.3087628  94.5771910  93.3089996  58.3183513
  94.0136775  93.2179933  57.5499801  94.4624305  92.4889900  58.7986005
  99.2004877  92.6089371  68.2872827  99.1893518  92.2142170  67.4153331
  99.3625516  91.8755444  68.8806599  92.1236342  94.8041188  61.1567733
  92.9157633  94.4632012  60.7414033  92.3632992  94.9136163  62.0769887
 100.1571468  96.9760964  53.6297978  99.5059448  97.5615044  53.2431992
 100.9515831  97.5067159  53.6893015  94.0827095  94.0650101  54.0285112
  94.8557971  93.5179088  53.8897988  94.4352494  94.9294350  54.2399574
  95.9212138  95.3926483  67.2352011  95.6302004  96.2972114  67.1198678
  96.5569122  95.4343011  67.9496081  96.8468345  92.7703332  63.8253371
  97.4431917  92.5459354  63.1110334  96.9043316  92.0288077  64.4278819
  96.4193373  90.2242767  51.6603562  96.6718894  89.7024288  50.8987025
  95.4817932  90.0608912  51.7630246 101.4636656  89.2278545  59.4678305
 102.2499745  88.8097968  59.1168722 101.7275360  90.1324637  59.6359954
 101.6346733  94.6651396  54.1666962 100.9992566  94.7386022  54.8787867
 101.3044140  95.2544994  53.4886041 106.8645083  89.1653778  60.3711284
 107.5970255  88.5952995  60.6049113 106.1084439  88.7775379  60.8117789
  96.1389662  92.1270873  53.8627937  96.0225920  91.4515776  54.5309021
  96.2491922  91.6403247  53.0460090  98.4821203  91.5881020  57.5674626
  98.1179410  91.0611641  58.2787548  99.3388319  91.1979489  57.3941112
 104.3870504  82.8775353  64.8305892 104.0553828  83.7470764  64.6067107
 103.7916117  82.5611637  65.5099923  98.1226690  86.6170920  52.5635975
  98.2901092  87.4851156  52.9306446  97.9323859  86.7798201  51.6397264
 100.8802023  95.0787899  64.2301805 100.5802746  95.9812937  64.1217612
 100.5353083  94.8120082  65.0822958  94.3314505  91.5301695  60.2638510
  93.4065001  91.3977910  60.4716201  94.5798918  92.3095915  60.7608452
 104.2799167  87.5970439  61.9099242 103.3716044  87.5285847  61.6158003
 104.2286763  88.0742384  62.7381068  98.1015911  89.0728577  53.5482642
  97.9815536  89.5185628  54.3868122  97.4068499  89.4213895  52.9896180
  91.6923316  91.1734969  61.0982299  91.8215697  91.4269448  62.0121710
  91.0120767  91.7662677  60.7786954  95.8622803 101.8432219  57.1972773
  95.7846833 102.7940044  57.2761253  95.2584446 101.4978091  57.8547699
  98.3540033  89.0160084  69.8534140  97.5773367  89.5754005  69.8437004
  98.9930596  89.5016867  70.3749010 106.1460813  85.7986877  63.6877116
 105.5035194  86.0919410  63.0416911 105.6415742  85.6839798  64.4930313
 103.8000977  89.5450050  54.3762976 104.7118833  89.7777437  54.2010673
 103.2910624  90.1287095  53.8138054  96.6086405  91.8245538  69.4152107
  97.3501089  92.3630582  69.1386930  95.9023390  92.4511826  69.5723659
 102.0841745  93.9674678  68.0124268 102.4925101  93.5257089  67.2678901
 101.3619006  93.3927306  68.2658461  98.4372815  88.9047285  65.3857825
  99.2834010  89.3286699  65.5292474  98.3771452  88.2480909  66.0796388
 102.4070559  94.5275869  61.7676557 101.7779422  94.6921583  61.0652625
 102.0196221  94.9417478  62.5387521 106.2859791  95.4630307  59.1220921
 105.6010829  95.8429208  58.5717954 106.3703640  96.0725633  59.8552869
 101.5872260  86.5651653  67.0438999 101.3433192  87.3193714  66.5073274
 101.8632190  86.9437001  67.8786246 103.5410723  93.1090266  65.7216264
 103.7527618  93.7522026  65.0450645 103.4940471  92.2752582  65.2538194
 101.1436952  85.7208086  62.6252837 100.2821431  86.0189340  62.9169574
 101.1699386  85.9378485  61.6933869  97.9598521  94.2650277  59.0326642
  98.4236867  94.5437980  58.2431265  97.6955319  93.3633721  58.8499733
  94.8522602  93.8121758  61.9706405  95.4223959  94.2409027  61.3323890
  95.4430714  93.5304343  62.6690591  96.8967407  90.3873429  55.8416207
  97.5991451  90.8394473  56.3090134  96.5648036  89.7457248  56.4696100
  95.3447769  88.9785186  70.2167417  94.7146429  89.6601467  70.4502814
  95.2383857  88.8668268  69.2720555  90.6392741  88.6456982  61.1433341
  89.8491795  88.9014510  60.6673452  91.1303989  89.4605320  61.2485381
 104.6556551  95.9862221  63.8938622 105.4773994  95.5842408  63.6121303
 104.6518954  95.8830455  64.8454738  92.5907487  89.0101561  58.1016818
  91.7938650  89.1220255  58.6200313  92.3633079  89.3488213  57.2357708
  98.4213154  95.5346264  66.0499332  98.4857587  95.9966672  66.8857504
  97.7124078  94.9043629  66.1781642  88.9230444  88.8987472  63.5748332
  89.1738483  89.7834482  63.8405908  89.4589993  88.7192074  62.8023424
 112.7462544  92.3300970  60.2423593 111.9926252  91.7608368  60.0867598
 112.8810085  92.2963634  61.1894228  98.1361172  97.2014372  55.9178313
  98.0006847  98.0465908  56.3463160  98.6770984  97.4033650  55.1544246
  94.6228511  83.2805952  72.5792668  94.2295457  82.7272150  73.2540312
  95.4394652  83.5916530  72.9699185  91.5890569  94.7189810  56.4906238
  92.1015090  95.5133060  56.6411802  92.2413282  94.0216100  56.4239839
  93.3985454  97.8355566  58.5728991  93.5752082  98.7573531  58.3849975
  94.1942287  97.5213985  59.0023371  97.5396472  84.6963831  70.1712924
  98.2806186  85.2970984  70.0917387  97.7714395  83.9541469  69.6130967
  92.6837810  89.8820198  68.4491154  92.5691326  88.9805455  68.7498253
  91.8282328  90.1283895  68.0975971  99.7629648  97.8237938  70.0478655
  99.3193502  97.0374317  69.7299559 100.4246862  98.0117089  69.3822545
  94.5216769  99.3533740  64.5739333  95.0724194  99.2250803  63.8016327
  93.6828245  99.6528629  64.2234226 101.8610886  98.1040738  68.0760056
 101.8429362  98.9249619  67.5840325 102.7830806  97.9794814  68.3010197
  98.3183940  95.6184868  68.9183564  98.8512277  94.8573156  68.6882872
  97.7898022  95.3258520  69.6607719 101.4853635  80.7244934  64.4477206
 101.1417905  81.6146575  64.3716317 101.8532598  80.5346591  63.5846791
  89.5539486  93.0478464  57.2665808  90.3914708  93.4575473  57.0499516
  89.7317754  92.1077906  57.2366002 101.4503918  90.7153545  52.9549641
 100.9350542  91.4858150  53.1938029 101.1781227  90.0418681  53.5782703
  99.0351029  85.5603246  58.0134880  98.1792625  85.1710096  57.8340518
  99.4477981  85.6395206  57.1534665 100.5650176  83.0949589  62.4126439
 100.0614971  83.0579724  61.5994245 100.8580783  84.0042332  62.4723096
  96.8093062  83.1788319  61.4192621  97.6746058  82.9831127  61.0598510
  96.8770571  82.9498670  62.3461978 106.4238192  93.4685900  54.8902815
 105.6467635  93.1297059  54.4457977 107.1029673  93.4738523  54.2157780
 101.2390221  88.5880637  54.7809422 100.9340357  88.9026786  55.6319565
 102.1920663  88.6662057  54.8236755  99.6836653  94.7470860  56.4302376
  99.1558015  94.0123620  56.1175614  99.1824156  95.5245537  56.1842345
 104.6629499  92.9419881  61.5469423 104.0053174  93.6319142  61.6349551
 105.4669898  93.3316313  61.8903409  94.4155381  85.4090527  58.7908988
  94.9899133  85.1865708  58.0582181  95.0026363  85.4779221  59.5437589
 103.4734958  91.2964253  59.5973364 103.9866840  91.9294245  60.0995074
 104.1236182  90.6965449  59.2316724  94.7424968  87.4394988  52.8104873
  93.9062280  87.7769674  53.1314148  94.6029737  87.3043967  51.8732010
  96.7178048  82.2831775  57.5184057  96.0642461  81.9680793  56.8940672
  96.6758523  81.6607516  58.2443880  97.8289253  92.5651071  49.4337349
  96.9216315  92.3340324  49.6328498  98.3260285  91.7688690  49.6211331
 100.7357332 101.2748578  52.3534035 100.0619031 101.5780275  52.9618993
 101.1223154 102.0777658  52.0039493  99.9515789  88.7713709  61.8431705
  99.0338350  88.9928656  61.6853393 100.3675932  88.8460020  60.9843412
 100.7350837  90.1705125  56.9734385 101.4822656  90.6826522  56.6641507
 101.0042426  89.8489177  57.8338779  99.0077487  92.6663665  53.9561339
  98.0988706  92.3822698  54.0533809  99.0372571  93.0862744  53.0964646
 104.2396754  96.2770255  57.7252507 103.7859081  95.4361165  57.7817697
 103.6090721  96.9131653  58.0627287 103.1829674  87.2062241  58.9553174
 102.4452431  86.6939627  59.2863417 103.4356447  86.7662623  58.1436451
 102.6829693  98.1146752  58.6602325 102.9752668  98.6751809  57.9414691
 103.1928314  98.4075313  59.4155484 103.2841301  79.9838493  59.5494944
 103.5900178  79.1235856  59.2620859 104.0093906  80.5756113  59.3493938
  89.5765657  90.3869180  57.9376542  89.3790057  89.7938540  57.2127608
  89.0212321  90.0821390  58.6552480  97.5562381  90.2792286  60.0571135
  97.6110991  89.3266122  59.9813611  96.7453583  90.4351725  60.5412433
  98.7053575  94.2072409  51.2949418  98.2673004  93.4908268  50.8355055
  99.4464015  94.4348524  50.7334509  95.4954741  88.8969346  57.8161514
  94.6822606  89.1963516  58.2226706  95.9913735  88.5025035  58.5335996
  97.6463319  98.8927103  59.7495778  97.6039497  99.1187949  58.8204310
  98.5626017  98.6590477  59.8981579 101.0928952  89.3611170  66.6476408
 101.4478340  89.5882643  67.5070873 101.7401084  89.6929547  66.0253663
 106.8226689  92.4829606  57.3525737 106.6844588  92.6731202  56.4246926
 106.4662908  93.2448989  57.8093788  94.9868815  86.4687701  63.4322749
  95.6268195  86.3276460  62.7345712  94.1546346  86.1822215  63.0561351
 106.8496069  94.5506133  62.3637008 107.2832576  94.4581422  63.2120062
 107.5627650  94.5263634  61.7257024  95.7629119  95.7690132  59.5457741
  96.5569718  95.2740452  59.3440316  95.0520812  95.2407995  59.1825447
 100.5823964  98.1508227  63.8970109 100.6360986  98.7199164  64.6647825
  99.7138745  98.3210112  63.5324146  92.0711883  89.9133213  55.6217494
  91.1409471  89.8517669  55.8387456  92.1669355  89.3909166  54.8254135
  91.9897432  86.4388026  58.2095735  92.2504249  87.3533360  58.1004896
  92.8114604  85.9712469  58.3592348  93.4622357  87.8525783  65.3794560
  94.1345411  87.6443146  64.7307209  92.6352144  87.6547869  64.9399792
 107.7111618  94.5929834  64.8969893 107.9047509  95.4975644  65.1429168
 107.6112237  94.1337253  65.7308478  99.3647929  84.4787724  67.3960221
  98.7175844  85.1777674  67.3024697 100.1348945  84.9123868  67.7636469
 102.7726727  94.7436577  70.4710774 102.6212234  94.5147128  69.5540858
 102.7631407  95.7007178  70.4842119  99.5412064  92.3168489  65.4557041
 100.4704124  92.4679649  65.2826008  99.1203094  92.4052510  64.6005687
  98.3400395  96.3419154  63.2255578  98.2011481  95.9737938  64.0981516
  97.5514992  96.8566793  63.0539536  98.9348547 101.4428250  54.5681115
  99.1100303 100.9716293  55.3826737  98.2481335 102.0694016  54.7962375
  99.8905611  95.7200756  60.6144416  99.5555443  95.6801526  61.5102066
  99.3909556  95.0545472  60.1414826  93.8649854  91.1268386  66.1396997
  93.7269652  90.3948625  66.7408536  94.7754778  91.0377287  65.8581185
 102.8264802  93.0656791  50.8881476 102.2093973  92.3403619  50.7914528
 102.3581291  93.8266151  50.5448550  96.4932155  90.8388346  65.6280677
  97.2031774  90.1981538  65.5867295  96.4501463  91.0901241  66.5506858
 104.4818934  97.7755699  68.5487256 104.4231480  97.0914919  67.8817839
 104.8838452  98.5174689  68.0967882  95.2061089  87.8253564  67.4476316
  94.6698446  87.3744302  68.0997913  94.6177798  87.9599472  66.7046781
  93.5009633 104.5917613  61.3420975  93.7406231 105.2236137  62.0199993
  92.6578829 104.2405653  61.6286334  94.6163348  87.2842215  50.0102780
  93.7392814  87.1631016  49.6465027  95.0921101  86.4928293  49.7581669
 104.4836341  95.7395283  66.7801236 103.5963120  95.4021205  66.9027634
 105.0534892  95.0078314  67.0170001  86.1365488  92.0719375  60.1044287
  86.8236528  91.7581105  59.5165302  85.9813617  92.9760739  59.8311538
  90.9400210  86.9609571  64.5329311  90.8558399  86.3535241  63.7979721
  90.1182917  87.4518590  64.5338807  98.0137494 100.3996735  63.7462479
  97.9407666 101.2051707  64.2581783  97.5714888 100.5988701  62.9210500
  97.8027274  99.6368505  57.2565300  97.0194796 100.1790186  57.3503525
  98.5020019 100.1542485  57.6559542 101.1123924  85.4463135  59.8999506
 101.6092624  84.6933097  59.5800576 100.3410906  85.4827452  59.3342715
 108.9653682  91.1503500  61.5417797 108.9543558  92.0328216  61.1711730
 108.0971061  90.7975051  61.3472334 100.4736178 100.2983569  65.9020637
 101.1864150 100.9331034  65.8296539  99.9826207 100.3947435  65.0860639
 102.1953705  94.2034822  57.4737929 101.2609984  94.3236285  57.3042633
 102.3730373  93.3007289  57.2097939  97.6958893  87.5880518  59.6271190
  97.3256680  87.0351558  60.3152096  98.1917985  86.9838651  59.0746190
 105.5826256  90.0452141  58.0087963 106.0486708  90.8780133  57.9348266
 106.0333757  89.5797123  58.7133222  95.5248092  98.0478013  66.7226208
  96.2257551  98.6814496  66.8755603  95.0543207  98.3892744  65.9621848
 103.6502487  96.3895963  55.0074115 103.9262331  96.2752557  55.9167989
 102.7806986  95.9913448  54.9686288 103.5542919  82.4132728  62.0478865
 102.6405999  82.6436955  62.2161072 103.9836020  82.4971172  62.8992897
 103.3249377  90.6022620  64.5478759 102.6720828  90.8498528  63.8931211
 103.7029757  89.7886759  64.2141236 100.2856551 100.6382314  58.6506929
 100.4678946  99.8203969  59.1134681 101.1089537 100.8550006  58.2131819
 100.6198717  99.5650499  55.9121977 101.1486483  99.0542953  55.2992140
 100.8826936  99.2493029  56.7767510  99.3736951  91.3442431  71.0344796
  98.6977588  91.2436561  71.7047171 100.1964584  91.1881645  71.4980793
  91.1215810  97.5814368  63.6557311  91.7069246  96.8358056  63.7885215
  90.9240648  97.8918325  64.5393975  93.9754465 100.6165615  58.6719753
  93.3064840 101.1011743  58.1883793  93.8367335 100.8634836  59.5863132
  85.7133464  90.1519968  62.3761754  85.7517564  89.6183559  63.1698872
  85.2073757  89.6255174  61.7572731  98.1159733 102.6509359  65.2702412
  98.6678041 102.8140980  66.0351497  98.4565927 103.2413797  64.5982437
  93.0924227  84.9984509  65.8724296  93.1565553  85.8599340  65.4601694
  93.0291347  84.3858510  65.1396655  92.5676499  87.0707641  69.5197331
  93.1948538  86.6884718  70.1334855  91.7104418  86.8521843  69.8853023
 102.9670608  97.4770616  71.1251066 103.5110512  98.0900575  70.6306021
 102.3857453  98.0350195  71.6418079  89.3442042  88.8784070  55.4515686
  89.6395483  87.9694749  55.3982739  88.4430078  88.8571810  55.1296688
 101.2528121 100.5991334  62.2566094 101.1279260  99.7981074  61.7477039
 101.9107212 101.0937528  61.7680064  92.8736289  86.9540067  61.4343234
  92.1522875  87.5676035  61.2950707  93.6629545  87.4897832  61.3559880
 103.3163029  98.4000354  63.8845644 102.3693365  98.2805706  63.8123971
 103.6645802  97.5122852  63.9671905  95.6762602  84.2894493  67.7083886
  96.1997004  84.5356790  68.4710195  95.4574936  85.1214528  67.2887023
  91.0729883  86.5598168  55.5755011  90.7442590  85.6795547  55.3930117
  91.4269254  86.5045837  56.4631400 100.3209462  98.1953071  60.0849996
 100.1734425  97.2669778  60.2657566 101.1462956  98.2173161  59.6007071
  94.1871707  86.8471138  55.9430488  94.5267779  87.3757059  55.2209097
  94.6343827  87.1851544  56.7189055 103.9243584  99.0181629  61.1714869
 104.8490132  98.8124491  61.0339320 103.7558888  98.7698031  62.0804210
  96.8815147  85.2308188  65.3933556  96.5411968  84.4316002  65.7954236
  96.1754154  85.5309899  64.8210390  97.5331619  82.3157501  63.8460879
  98.3557689  81.8417979  63.7239770  97.7769683  83.0947985  64.3459566
  96.1739854  85.3445759  54.1423781  96.8948216  85.7227012  53.6387498
  95.5505158  86.0634636  54.2458759 100.3170977  86.0490908  55.0782113
 100.5334591  86.9315546  54.7770942  99.8365044  85.6577122  54.3487755
  95.0570198  89.0076622  61.6552858  94.9114779  89.3216925  62.5477140
  94.5795402  89.6261522  61.1023757  96.9166581  85.9979170  61.7033748
  96.9028150  85.1020263  61.3666046  97.6339009  86.0049833  62.3372034
  98.7692712  86.4316510  63.7486875  98.5110489  87.3533580  63.7471205
  98.2377752  86.0346944  64.4387339 103.7138900  99.5367297  56.5276960
 103.8875778  98.9713719  55.7750813 104.2067792 100.3368192  56.3456450
  89.5315860  91.5481966  64.5940519  88.9869328  92.3241774  64.7260794
  90.4095210  91.8952770  64.4359641  96.3203477  84.8793550  56.9721318
  96.4419388  83.9510196  57.1712205  96.0305519  84.8932236  56.0599633
  99.1894667  82.5648460  60.1088038  99.2116364  82.6287793  59.1540017
  99.6062726  81.7252969  60.3028544 109.5678292  92.3003720  58.1467260
 110.0109438  91.5511045  57.7486383 108.6904802  92.2913856  57.7640992
 104.7014073  98.8534061  53.6273859 105.3964978  99.4740754  53.8461173
 105.0437223  98.0029412  53.9026237  90.3181882  90.6751862  67.4870676
  89.5763618  90.8234498  68.0735306  89.9974626  90.9360128  66.6237425
 106.6005496  96.3033767  55.1561189 107.1256820  96.6421040  54.4310509
 106.5127849  95.3680782  54.9724324  98.2625545 100.2167840  67.2851066
  98.5712671  99.9716987  68.1573766  99.0601027 100.4214479  66.7969936
  98.2846157 102.3705750  59.5156443  97.8451147 101.8782129  60.2089299
  99.0354274 101.8278718  59.2748518  90.7638496  98.5617291  59.5181071
  91.5896516  98.2621063  59.1379714  90.4132548  97.7924913  59.9670859
  95.7320029  97.9143759  61.5878744  95.1100038  97.2514464  61.2880972
  96.4024896  97.9404891  60.9052392  88.9647101  96.4803617  60.4770004
  88.1279009  96.0525792  60.2954006  88.9370746  96.6736061  61.4140795
  95.8044556  86.3925547  71.1811250  95.8532712  87.2687670  70.7989020
  96.3467071  85.8502940  70.6082894 106.2899402  96.9366670  70.4612387
 105.4994946  96.9190809  69.9216887 106.0532757  97.4754964  71.2161424
 106.4097277  93.7859137  67.7745116 106.4595282  93.6209144  68.7160639
 106.3011200  92.9186396  67.3842997  95.2933536  96.4647682  55.0637205
  95.4421656  97.1483147  54.4103878  96.0999979  96.4452773  55.5786661
 103.7001040  89.7690065  69.0904423 104.6010902  89.6296530  68.7988420
 103.7749014  89.9344520  70.0302600  98.0343845  87.1456920  67.9357609
  97.1647154  87.4390486  67.6640198  98.2703325  87.7297365  68.6564873
 107.9115474  96.2056078  68.0187137 107.6200282  96.5686059  68.8550598
 107.2987605  95.4923087  67.8400470 109.1111156  93.7708958  60.5389708
 109.9458048  94.2098762  60.7027268 109.2470285  93.2947611  59.7197953
 106.1602662  91.3288693  66.4867195 106.6356784  91.5216339  65.6786047
 105.2368228  91.3847879  66.2410579  93.0486169  92.4912860  56.0698274
  92.8032211  91.5875190  56.2678484  93.2182083  92.4930011  55.1277752
 100.7382879  83.3636537  65.4523029 101.2564823  84.0997563  65.1269518
 100.3838011  83.6700530  66.2869788  92.3181816  88.2241218  53.5684435
  91.6251061  88.2985573  52.9124471  92.0733568  87.4601561  54.0905952
 100.9895473  79.7836819  60.9723926 101.2697227  79.1160008  61.5984352
 101.7746080  79.9765915  60.4598590  98.7928941  98.9595813  52.5348952
  98.2202908  99.5786000  52.0819424  99.3661735  99.5095175  53.0688874
 104.8604331  88.2054453  64.7195501 105.8121754  88.3052551  64.7407725
 104.6907782  87.4132722  65.2293585 102.8818711  85.2910036  64.9054902
 102.2868643  85.5715049  64.2101391 102.5968407  85.7803937  65.6771643
 102.0126201  99.2432963  53.6657535 102.9456874  99.1778525  53.8690410
 101.9249414 100.0789230  53.2072067 104.6414218  98.5598833  50.6261482
 104.5627849  98.2258697  51.5197240 105.4623885  99.0520601  50.6252954
 107.3392409  91.4260573  63.8337801 107.3068729  90.4876573  64.0197485
 107.9493033  91.5044609  63.1003626  99.1775740  90.2956626  49.8765005
 100.1234845  90.1662834  49.9453423  98.7989985  89.5571288  50.3534433
 107.4886897  88.2171616  63.8796084 106.9725946  87.4330073  63.6926013
 108.3726846  87.8890333  64.0442603 105.1497624  81.9612632  59.8391897
 104.9522446  81.6527720  60.7235229 105.7597330  82.6874271  59.9689826
 113.1568959  92.4876580  62.9743838 113.8872347  92.2261868  63.5351541
 112.5475904  91.7505301  63.0145905 111.2384256  90.6284442  63.5718289
 110.5117420  90.4940407  62.9634780 110.8231543  90.9361271  64.3775007
  99.0614432  94.3474372  71.3365662  99.9817442  94.5252971  71.5305708
  99.0264015  93.4030417  71.1845361  97.3618657  88.2206602  49.8119890
  96.4550112  87.9239715  49.8882604  97.6394638  87.9236420  48.9454176
  88.2796597  89.5412965  60.2618936  87.9599382  88.6878274  59.9693310
  87.7330026  89.7561544  61.0176904  92.0576505  92.2575406  63.9788443
  92.2762515  93.1892514  63.9976477  92.4702279  91.8983381  64.7643247
  98.9780723  82.7643492  55.9664131  98.1681451  82.4190577  56.3419377
  99.6665140  82.4551036  56.5551743 100.9071271  81.8421539  57.5888428
 101.4602310  82.2616992  58.2478451 101.1441357  80.9157287  57.6311384
  96.9304370  87.8308612  73.3691192  96.8301097  88.7802969  73.3003283
  96.7125912  87.5026851  72.4967262  96.1317442  85.0793537  49.9531869
  96.9936606  85.4048436  50.2127687  96.3167786  84.2925033  49.4404935
  88.1484857  93.1615877  62.2312058  87.4548329  92.7469830  61.7182012
  88.8957848  93.2036413  61.6345477 104.2850078  83.9522064  57.0967092
 103.7048747  84.6106868  56.7145145 104.0186011  83.1299408  56.6854510
 102.7353644  83.3527121  59.2988413 103.2353423  83.4643656  58.4902731
 103.3789252  83.0488174  59.9389221  96.7935640  91.2605751  72.1856253
  96.3102722  92.0606111  72.3920143  96.8796579  91.2713696  71.2323697
  90.0621600  93.0934131  60.1078073  90.0392288  93.1921818  59.1559956
  90.3722236  93.9399282  60.4295239  92.7208978  95.1510286  64.2224687
  93.6752231  95.1194228  64.1554619  92.5221501  94.6900910  65.0374913
  93.3108360  93.7211402  66.7895485  94.1301249  94.2155481  66.8130322
  93.5845168  92.8043370  66.7613052 103.0674956  86.1122154  56.1523440
 102.1800811  86.3971805  55.9343635 103.4828945  85.9515918  55.3050717
 106.4189492  86.1368675  59.8677780 107.1949882  86.6265128  60.1402397
 105.6937626  86.5626729  60.3249649 108.8562051  86.8496294  60.9251720
 109.4506542  86.6092030  60.2145029 108.9288635  86.1303425  61.5525257
  91.0759207 100.6929905  61.2394885  90.9413675  99.9330306  60.6732883
  90.6591269 101.4170805  60.7723674 102.2118170  95.8766829  50.2471460
 102.9154020  96.0816831  50.8629116 101.4880818  96.4443591  50.5120544
 103.0415980  91.6276690  56.3673731 102.9851181  92.0845241  55.5281363
 103.5944322  90.8667375  56.1896573 106.8520786  87.4166422  57.1923850
 106.5957720  87.0163058  58.0232058 106.2273654  88.1310216  57.0673989
 111.1633124  90.1562495  59.6995142 110.6032682  90.2255685  60.4726704
 110.5576627  89.9803480  58.9794638  94.2328332 101.5899222  61.4513328
  94.1160717 102.5344655  61.3492018  93.4120779 101.2872784  61.8399127
 104.1204867  96.3149358  52.2969920 104.9550471  95.8830556  52.1147395
 103.9589210  96.1431372  53.2246815 103.7750759  92.8181471  53.6626260
 103.7199563  92.6525743  52.7214704 103.1496814  93.5257504  53.8188450
  88.5643274  88.0549536  67.4887682  89.2102138  87.5448490  67.9774907
  88.3560425  88.7918217  68.0631107 101.0896666  95.1230383  72.9879823
 101.9587826  95.2971035  72.6266457 100.6103418  95.9424800  72.8655552
  97.0846885  82.3189580  53.2411578  97.0725554  83.2631420  53.3979849
  97.9770307  82.1359726  52.9471039  95.2582847 102.2427484  64.6669256
  96.1610093 102.2751094  64.9835751  95.0320217 101.3127935  64.6815592
  97.0136449 100.9958471  61.3279335  96.0632080 100.9960332  61.2143707
  97.3168935 100.2491205  60.8115369 100.8999004  78.9132357  57.4957515
 100.1331400  78.3590844  57.6414197 101.3109709  78.9854226  58.3571667
  92.9040765  85.2017153  71.5862696  93.7672227  84.8453958  71.7966021
  92.3306176  84.8631048  72.2738101 112.7489142 106.8319009  62.3925097
 113.3867552 106.7125756  61.6888437 112.6309985 107.7799853  62.4513049
 109.5578848 106.7846437  62.3286622 109.2197360 106.6687502  61.4407157
 110.4268617 106.3837602  62.3087628 105.4165664 108.6381914  58.3183513
 104.8530529 108.5471851  57.5499801 105.3018059 107.8181818  58.7986005
 110.0398631 107.9381289  68.2872827 110.0287272 107.5434087  67.4153331
 110.2019271 107.2047362  68.8806599 102.9630096 110.1333105  61.1567733
 103.7551388 109.7923930  60.7414033 103.2026746 110.2428080  62.0769887
 104.9220850 109.3942018  54.0285112 105.6951726 108.8471006  53.8897988
 105.2746249 110.2586268  54.2399574 106.7605893 110.7218401  67.2352011
 106.4695758 111.6264032  67.1198678 107.3962877 110.7634928  67.9496081
 107.6862099 108.0995249  63.8253371 108.2825672 107.8751272  63.1110334
 107.7437071 107.3579995  64.4278819 107.2587128 105.5534685  51.6603562
 107.5112648 105.0316206  50.8987025 106.3211687 105.3900830  51.7630246
 112.3030411 104.5570463  59.4678305 113.0893500 104.1389886  59.1168722
 112.5669115 105.4616555  59.6359954 117.7038838 104.4945696  60.3711284
 118.4364010 103.9244913  60.6049113 116.9478193 104.1067297  60.8117789
 106.9783416 107.4562791  53.8627937 106.8619675 106.7807694  54.5309021
 107.0885676 106.9695164  53.0460090 109.3214957 106.9172938  57.5674626
 108.9573165 106.3903559  58.2787548 110.1782073 106.5271407  57.3941112
 115.2264258  98.2067270  64.8305892 114.8947583  99.0762681  64.6067107
 114.6309871  97.8903554  65.5099923 108.9620444 101.9462837  52.5635975
 109.1294847 102.8143074  52.9306446 108.7717613 102.1090119  51.6397264
 105.1708259 106.8593613  60.2638510 104.2458756 106.7269827  60.4716201
 105.4192672 107.6387832  60.7608452 115.1192921 102.9262356  61.9099242
 114.2109799 102.8577765  61.6158003 115.0680517 103.4034301  62.7381068
 108.9409665 104.4020495  53.5482642 108.8209290 104.8477546  54.3868122
 108.2462254 104.7505813  52.9896180 102.5317070 106.5026887  61.0982299
 102.6609451 106.7561366  62.0121710 101.8514521 107.0954595  60.7786954
 109.1933787 104.3452002  69.8534140 108.4167121 104.9045922  69.8437004
 109.8324350 104.8308785  70.3749010 116.9854568 101.1278795  63.6877116
 116.3428948 101.4211328  63.0416911 116.4809496 101.0131715  64.4930313
 114.6394731 104.8741968  54.3762976 115.5512588 105.1069355  54.2010673
 114.1304379 105.4579012  53.8138054 107.4480159 107.1537455  69.4152107
 108.1894844 107.6922499  69.1386930 106.7417145 107.7803744  69.5723659
 112.9235499 109.2966596  68.0124268 113.3318855 108.8549006  67.2678901
 112.2012761 108.7219223  68.2658461 109.2766569 104.2339203  65.3857825
 110.1227764 104.6578616  65.5292474 109.2165207 103.5772827  66.0796388
 112.4266014 101.8943571  67.0438999 112.1826946 102.6485632  66.5073274
 112.7025945 102.2728919  67.8786246 111.9830706 101.0500004  62.6252837
 111.1215185 101.3481258  62.9169574 112.0093141 101.2670403  61.6933869
 108.7992276 109.5942195  59.0326642 109.2630621 109.8729898  58.2431265
 108.5349074 108.6925639  58.8499733 105.6916357 109.1413676  61.9706405
 106.2617714 109.5700944  61.3323890 106.2824469 108.8596261  62.6690591
 107.7361162 105.7165347  55.8416207 108.4385205 106.1686391  56.3090134
 107.4041790 105.0749166  56.4696100 106.1841523 104.3077104  70.2167417
 105.5540184 104.9893384  70.4502814 106.0777611 104.1960185  69.2720555
 101.4786496 103.9748900  61.1433341 100.6885550 104.2306428  60.6673452
 101.9697743 104.7897237  61.2485381 103.4301241 104.3393479  58.1016818
 102.6332404 104.4512173  58.6200313 103.2026833 104.6780131  57.2357708
 109.2606909 110.8638182  66.0499332 109.3251341 111.3258589  66.8857504
 108.5517833 110.2335547  66.1781642  99.7624199 104.2279390  63.5748332
 100.0132237 105.1126400  63.8405908 100.2983747 104.0483992  62.8023424
 105.4622266  98.6097869  72.5792668 105.0689212  98.0564068  73.2540312
 106.2788406  98.9208448  72.9699185 102.4284324 110.0481728  56.4906238
 102.9408844 110.8424978  56.6411802 103.0807037 109.3508018  56.4239839
 104.2379208 113.1647484  58.5728991 104.4145837 114.0865449  58.3849975
 105.0336042 112.8505903  59.0023371 108.3790227 100.0255749  70.1712924
 109.1199940 100.6262902  70.0917387 108.6108150  99.2833386  69.6130967
 103.5231565 105.2112116  68.4491154 103.4085080 104.3097373  68.7498253
 102.6676083 105.4575813  68.0975971 105.3610524 114.6825658  64.5739333
 105.9117949 114.5542721  63.8016327 104.5222000 114.9820547  64.2234226
 109.1577695 110.9476786  68.9183564 109.6906032 110.1865074  68.6882872
 108.6291776 110.6550437  69.6607719 112.3247390  96.0536851  64.4477206
 111.9811659  96.9438493  64.3716317 112.6926352  95.8638509  63.5846791
 100.3933240 108.3770382  57.2665808 101.2308462 108.7867390  57.0499516
 100.5711508 107.4369824  57.2366002 112.2897673 106.0445463  52.9549641
 111.7744296 106.8150067  53.1938029 112.0174981 105.3710599  53.5782703
 109.8744784 100.8895163  58.0134880 109.0186380 100.5002014  57.8340518
 110.2871735 100.9687124  57.1534665 111.4043930  98.4241507  62.4126439
 110.9008726  98.3871642  61.5994245 111.6974537  99.3334249  62.4723096
 107.6486816  98.5080236  61.4192621 108.5139813  98.3123045  61.0598510
 107.7164325  98.2790588  62.3461978 112.0783976 103.9172555  54.7809422
 111.7734111 104.2318704  55.6319565 113.0314418 103.9953975  54.8236755
 110.5230408 110.0762778  56.4302376 109.9951769 109.3415538  56.1175614
 110.0217910 110.8537454  56.1842345 105.2549135 100.7382444  58.7908988
 105.8292887 100.5157626  58.0582181 105.8420118 100.8071139  59.5437589
 114.3128712 106.6256171  59.5973364 114.8260594 107.2586163  60.0995074
 114.9629936 106.0257367  59.2316724 105.5818722 102.7686905  52.8104873
 104.7456035 103.1061592  53.1314148 105.4423492 102.6335885  51.8732010
 107.5571803  97.6123693  57.5184057 106.9036215  97.2972710  56.8940672
 107.5152277  96.9899434  58.2443880 108.6683008 107.8942988  49.4337349
 107.7610070 107.6632242  49.6328498 109.1654040 107.0980607  49.6211331
 110.7909543 104.1005627  61.8431705 109.8732105 104.3220574  61.6853393
 111.2069687 104.1751937  60.9843412 111.5744591 105.4997042  56.9734385
 112.3216410 106.0118440  56.6641507 111.8436181 105.1781095  57.8338779
 109.8471241 107.9955583  53.9561339 108.9382460 107.7114616  54.0533809
 109.8766325 108.4154662  53.0964646 114.0223428 102.5354159  58.9553174
 113.2846185 102.0231545  59.2863417 114.2750202 102.0954540  58.1436451
 114.1235056  95.3130411  59.5494944 114.4293932  94.4527774  59.2620859
 114.8487660  95.9048031  59.3493938 100.4159412 105.7161097  57.9376542
 100.2183811 105.1230458  57.2127608  99.8606076 105.4113307  58.6552480
 108.3956135 105.6084204  60.0571135 108.4504745 104.6558040  59.9813611
 107.5847337 105.7643643  60.5412433 109.5447329 109.5364327  51.2949418
 109.1066759 108.8200186  50.8355055 110.2857770 109.7640442  50.7334509
 106.3348495 104.2261263  57.8161514 105.5216361 104.5255434  58.2226706
 106.8307489 103.8316952  58.5335996 111.9322707 104.6903088  66.6476408
 112.2872095 104.9174561  67.5070873 112.5794838 105.0221465  66.0253663
 105.8262570 101.7979619  63.4322749 106.4661949 101.6568378  62.7345712
 104.9940100 101.5114132  63.0561351 106.6022874 111.0982049  59.5457741
 107.3963472 110.6032370  59.3440316 105.8914566 110.5699913  59.1825447
 102.9105637 105.2425131  55.6217494 101.9803225 105.1809587  55.8387456
 103.0063109 104.7201084  54.8254135 102.8291186 101.7679944  58.2095735
 103.0898004 102.6825277  58.1004896 103.6508359 101.3004387  58.3592348
 104.3016112 103.1817701  65.3794560 104.9739165 102.9735063  64.7307209
 103.4745898 102.9839787  64.9399792 110.2041684  99.8079642  67.3960221
 109.5569599 100.5069592  67.3024697 110.9742699 100.2415786  67.7636469
 110.3805818 107.6460407  65.4557041 111.3097878 107.7971567  65.2826008
 109.9596848 107.7344428  64.6005687 109.1794150 111.6711071  63.2255578
 109.0405236 111.3029856  64.0981516 108.3908746 112.1858711  63.0539536
 110.7299365 111.0492674  60.6144416 110.3949198 111.0093444  61.5102066
 110.2303311 110.3837390  60.1414826 104.7043609 106.4560304  66.1396997
 104.5663407 105.7240543  66.7408536 105.6148532 106.3669204  65.8581185
 113.6658557 108.3948708  50.8881476 113.0487727 107.6695537  50.7914528
 113.1975045 109.1558069  50.5448550 107.3325910 106.1680263  65.6280677
 108.0425528 105.5273456  65.5867295 107.2895218 106.4193158  66.5506858
 106.0454844 103.1545481  67.4476316 105.5092201 102.7036220  68.0997913
 105.4571552 103.2891390  66.7046781 105.4557103 102.6134133  50.0102780
 104.5786569 102.4922934  49.6465027 105.9314856 101.8220211  49.7581669
  96.9759243 107.4011292  60.1044287  97.6630283 107.0873022  59.5165302
  96.8207371 108.3052657  59.8311538 101.7793965 102.2901489  64.5329311
 101.6952154 101.6827159  63.7979721 100.9576671 102.7810507  64.5338807
 111.9517679 100.7755053  59.8999506 112.4486378 100.0225015  59.5800576
 111.1804660 100.8119369  59.3342715 113.0347459 109.5326740  57.4737929
 112.1003738 109.6528202  57.3042633 113.2124128 108.6299207  57.2097939
 108.5352647 102.9172436  59.6271190 108.1650435 102.3643476  60.3152096
 109.0311740 102.3130569  59.0746190 116.4220011 105.3744059  58.0087963
 116.8880463 106.2072051  57.9348266 116.8727511 104.9089041  58.7133222
 106.3641846 113.3769931  66.7226208 107.0651306 114.0106414  66.8755603
 105.8936961 113.7184662  65.9621848 114.3936673  97.7424646  62.0478865
 113.4799753  97.9728873  62.2161072 114.8229775  97.8263090  62.8992897
 114.1643132 105.9314538  64.5478759 113.5114582 106.1790445  63.8931211
 114.5423512 105.1178676  64.2141236 110.2130705 106.6734349  71.0344796
 109.5371342 106.5728478  71.7047171 111.0358339 106.5173563  71.4980793
 101.9609564 112.9106286  63.6557311 102.5463001 112.1649974  63.7885215
 101.7634403 113.2210242  64.5393975  96.5527219 105.4811886  62.3761754
  96.5911318 104.9475477  63.1698872  96.0467512 104.9547091  61.7572731
 103.9317981 100.3276426  65.8724296 103.9959308 101.1891257  65.4601694
 103.8685101  99.7150428  65.1396655 103.4070254 102.3999559  69.5197331
 104.0342292 102.0176636  70.1334855 102.5498172 102.1813761  69.8853023
 100.1835796 104.2075988  55.4515686 100.4789237 103.2986666  55.3982739
  99.2823832 104.1863727  55.1296688 103.7130043 102.2831985  61.4343234
 102.9916629 102.8967952  61.2950707 104.5023299 102.8189749  61.3559880
 106.5156357  99.6186411  67.7083886 107.0390759  99.8648708  68.4710195
 106.2968690 100.4506446  67.2887023 101.9123638 101.8890086  55.5755011
 101.5836344 101.0087465  55.3930117 102.2663009 101.8337754  56.4631400
 105.0265461 102.1763055  55.9430488 105.3661534 102.7048977  55.2209097
 105.4737582 102.5143462  56.7189055 107.7208902 100.5600106  65.3933556
 107.3805722  99.7607919  65.7954236 107.0147908 100.8601817  64.8210390
 108.3725374  97.6449419  63.8460879 109.1951443  97.1709897  63.7239770
 108.6163437  98.4239902  64.3459566 107.0133608 100.6737677  54.1423781
 107.7341971 101.0518930  53.6387498 106.3898912 101.3926554  54.2458759
 111.1564731 101.3782826  55.0782113 111.3728346 102.2607464  54.7770942
 110.6758798 100.9869039  54.3487755 105.8963953 104.3368539  61.6552858
 105.7508533 104.6508842  62.5477140 105.4189156 104.9553440  61.1023757
 107.7560335 101.3271087  61.7033748 107.7421904 100.4312181  61.3666046
 108.4732764 101.3341751  62.3372034 109.6086466 101.7608427  63.7486875
 109.3504244 102.6825498  63.7471205 109.0771507 101.3638862  64.4387339
 100.3709615 106.8773884  64.5940519  99.8263083 107.6533692  64.7260794
 101.2488965 107.2244688  64.4359641 107.1597231 100.2085467  56.9721318
 107.2813143  99.2802114  57.1712205 106.8699274 100.2224153  56.0599633
 110.0288422  97.8940378  60.1088038 110.0510119  97.9579711  59.1540017
 110.4456481  97.0544887  60.3028544 101.1575637 106.0043780  67.4870676
 100.4157373 106.1526415  68.0735306 100.8368381 106.2652045  66.6237425
 101.6032250 113.8909209  59.5181071 102.4290270 113.5912980  59.1379714
 101.2526302 113.1216831  59.9670859 106.5713783 113.2435677  61.5878744
 105.9493793 112.5806382  61.2880972 107.2418650 113.2696809  60.9052392
  99.8040855 111.8095535  60.4770004  98.9672764 111.3817709  60.2954006
  99.7764501 112.0027978  61.4140795 106.6438311 101.7217465  71.1811250
 106.6926466 102.5979588  70.7989020 107.1860825 101.1794858  70.6082894
 106.1327290 111.7939600  55.0637205 106.2815411 112.4775065  54.4103878
 106.9393734 111.7744690  55.5786661 114.5394794 105.0981982  69.0904423
 115.4404657 104.9588447  68.7988420 114.6142769 105.2636437  70.0302600
 108.8737599 102.4748837  67.9357609 108.0040909 102.7682403  67.6640198
 109.1097080 103.0589282  68.6564873 103.8879923 107.8204778  56.0698274
 103.6425965 106.9167108  56.2678484 104.0575838 107.8221928  55.1277752
 111.5776633  98.6928454  65.4523029 112.0958577  99.4289481  65.1269518
 111.2231766  98.9992447  66.2869788 103.1575571 103.5533135  53.5684435
 102.4644816 103.6277490  52.9124471 102.9127323 102.7893479  54.0905952
 111.8289227  95.1128737  60.9723926 112.1090981  94.4451926  61.5984352
 112.6139834  95.3057832  60.4598590 115.6998086 103.5346371  64.7195501
 116.6515509 103.6344468  64.7407725 115.5301536 102.7424639  65.2293585
 113.7212465 100.6201954  64.9054902 113.1262397 100.9006967  64.2101391
 113.4362162 101.1095855  65.6771643 110.0169494 105.6248543  49.8765005
 110.9628599 105.4954751  49.9453423 109.6383739 104.8863205  50.3534433
 118.3280652 103.5463534  63.8796084 117.8119701 102.7621990  63.6926013
 119.2120600 103.2182250  64.0442603 115.9891379  97.2904549  59.8391897
 115.7916200  96.9819638  60.7235229 116.5991084  98.0166188  59.9689826
 109.9008187 109.6766289  71.3365662 110.8211196 109.8544889  71.5305708
 109.8657770 108.7322335  71.1845361 108.2012411 103.5498520  49.8119890
 107.2943867 103.2531632  49.8882604 108.4788393 103.2528338  48.9454176
  99.1190352 104.8704883  60.2618936  98.7993136 104.0170191  59.9693310
  98.5723780 105.0853461  61.0176904 102.8970259 107.5867324  63.9788443
 103.1156269 108.5184432  63.9976477 103.3096033 107.2275299  64.7643247
 109.8174477  98.0935409  55.9664131 109.0075206  97.7482494  56.3419377
 110.5058894  97.7842953  56.5551743 111.7465026  97.1713456  57.5888428
 112.2996064  97.5908910  58.2478451 111.9835112  96.2449204  57.6311384
 107.7698125 103.1600530  73.3691192 107.6694852 104.1094887  73.3003283
 107.5519667 102.8318769  72.4967262 106.9711196 100.4085455  49.9531869
 107.8330360 100.7340353  50.2127687 107.1561540  99.6216951  49.4404935
  98.9878612 108.4907795  62.2312058  98.2942083 108.0761747  61.7182012
  99.7351603 108.5328331  61.6345477 115.1243833  99.2813981  57.0967092
 114.5442502  99.9398785  56.7145145 114.8579765  98.4591326  56.6854510
 113.5747399  98.6819039  59.2988413 114.0747177  98.7935574  58.4902731
 114.2183007  98.3780092  59.9389221 107.6329395 106.5897669  72.1856253
 107.1496476 107.3898029  72.3920143 107.7190334 106.6005614  71.2323697
 100.9015354 108.4226048  60.1078073 100.8786043 108.5213736  59.1559956
 101.2115991 109.2691199  60.4295239 103.5602732 110.4802203  64.2224687
 104.5145986 110.4486146  64.1554619 103.3615256 110.0192827  65.0374913
 104.1502114 109.0503320  66.7895485 104.9695003 109.5447398  66.8130322
 104.4238922 108.1335288  66.7613052 113.9068711 101.4414072  56.1523440
 113.0194566 101.7263722  55.9343635 114.3222700 101.2807835  55.3050717
 117.2583247 101.4660593  59.8677780 118.0343637 101.9557045  60.1402397
 116.5331381 101.8918647  60.3249649 119.6955805 102.1788212  60.9251720
 120.2900296 101.9383948  60.2145029 119.7682389 101.4595343  61.5525257
 101.9152961 116.0221823  61.2394885 101.7807429 115.2622224  60.6732883
 101.4985023 116.7462723  60.7723674 113.8809734 106.9568608  56.3673731
 113.8244936 107.4137159  55.5281363 114.4338077 106.1959292  56.1896573
 117.6914540 102.7458340  57.1923850 117.4351475 102.3454975  58.0232058
 117.0667408 103.4602134  57.0673989 114.6144514 108.1473389  53.6626260
 114.5593317 107.9817660  52.7214704 113.9890569 108.8549422  53.8188450
  99.4037029 103.3841453  67.4887682 100.0495892 102.8740407  67.9774907
  99.1954180 104.1210135  68.0631107 107.9240639  97.6481498  53.2411578
 107.9119309  98.5923338  53.3979849 108.8164061  97.4651643  52.9471039
 111.7392759  94.2424275  57.4957515 110.9725154  93.6882761  57.6414197
 112.1503464  94.3146143  58.3571667 103.7434520 100.5309070  71.5862696
 104.6065981 100.1745875  71.7966021 103.1699930 100.1922965  72.2738101
  44.5216323  -8.1842946  49.0531929  44.1834834  -8.3001882  48.1652463
  45.3906091  -8.5851781  49.0332935  40.3803138  -6.3307470  45.0428820
  39.8168004  -6.4217533  44.2745107  40.2655533  -7.1507565  45.5231312
  45.0036106  -7.0308095  55.0118134  44.9924746  -7.4255296  54.1398638
  45.1656745  -7.7642022  55.6051906  37.9267570  -4.8356278  47.8813040
  38.7188862  -5.1765454  47.4659339  38.1664220  -4.7261303  48.8015193
  45.9602697  -2.6636502  40.3543284  45.3090677  -2.0782422  39.9677298
  46.7547060  -2.1330307  40.4138322  39.8858324  -5.5747365  40.7530419
  40.6589200  -6.1218378  40.6143295  40.2383723  -4.7103116  40.9644880
  41.7243367  -4.2470983  53.9597318  41.4333233  -3.3425352  53.8443984
  42.3600351  -4.2054455  54.6741388  42.6499574  -6.8694134  50.5498678
  43.2463146  -7.0938112  49.8355641  42.7074545  -7.6109389  51.1524126
  47.4377962  -4.9746070  40.8912269  46.8023795  -4.9011444  41.6033173
  47.1075369  -4.3852471  40.2131348  41.9420891  -7.5126593  40.5873244
  41.8257149  -8.1881690  41.2554328  42.0523151  -7.9994219  39.7705397
  44.2852432  -8.0516446  44.2919933  43.9210639  -8.5785825  45.0032854
  45.1419548  -8.4417977  44.1186418  46.6833252  -4.5609567  50.9547112
  46.3833975  -3.6584528  50.8462919  46.3384311  -4.8277384  51.8068265
  40.1345733  -8.1095770  46.9883816  39.2096230  -8.2419556  47.1961508
  40.3830147  -7.3301551  47.4853759  41.6654032   2.2034753  43.9218079
  41.5878061   3.1542578  44.0006560  41.0615675   1.8580626  44.5793006
  42.4117634  -7.8151928  56.1397413  43.1532318  -7.2766884  55.8632237
  41.7054619  -7.1885639  56.2968965  47.8872973  -5.6722788  54.7369575
  48.2956329  -6.1140377  53.9924207  47.1650235  -6.2470160  54.9903768
  48.2101788  -5.1121597  48.4921864  47.5810651  -4.9475883  47.7897932
  47.8227450  -4.6979987  49.2632828  52.0891020  -4.1767159  45.8466227
  51.4042058  -3.7968258  45.2963261  52.1734869  -3.5671832  46.5798175
  49.3441952  -6.5307200  52.4461571  49.5558847  -5.8875440  51.7695952
  49.2971700  -7.3644884  51.9783501  43.7629750  -5.3747189  45.7571949
  44.2268095  -5.0959486  44.9676571  43.4986548  -6.2763744  45.5745040
  40.6553831  -5.8275707  48.6951712  41.2255188  -5.3988439  48.0569197
  41.2461943  -6.1093123  49.3935898  50.4587780  -3.6535245  50.6183928
  51.2805223  -4.0555057  50.3366610  50.4550182  -3.7567011  51.5700044
  44.2244383  -4.1051201  52.7744639  44.2888815  -3.6430794  53.6102811
  43.5155307  -4.7353836  52.9026949  43.9392401  -2.4383094  42.6423619
  43.8038075  -1.5931558  43.0708467  44.4802213  -2.2363816  41.8789553
  37.3921798  -4.9207656  43.2151544  37.9046319  -4.1264406  43.3657109
  38.0444511  -5.6181365  43.1485146  39.2016683  -1.8041900  45.2974297
  39.3783311  -0.8823935  45.1095281  39.9973516  -2.1183480  45.7268677
  45.5660877  -1.8159527  56.7723961  45.1224731  -2.6023149  56.4544866
  46.2278091  -1.6280377  56.1067852  40.3247998  -0.2863726  51.2984640
  40.8755423  -0.4146662  50.5261634  39.4859474   0.0131163  50.9479533
  47.6642115  -1.5356727  54.8005363  47.6460590  -0.7147846  54.3085632
  48.5862035  -1.6602652  55.0255504  44.1215169  -4.0212598  55.6428871
  44.6543506  -4.7824310  55.4128179  43.5929250  -4.3138946  56.3853025
  45.4867882  -4.8926605  43.1547683  44.9589243  -5.6273846  42.8420920
  44.9855385  -4.1151929  42.9087651  50.4660728  -6.6977585  48.2714729
  49.8084402  -6.0078324  48.3594858  51.2701127  -6.3081153  48.6148716
  43.6320482  -7.0746395  36.1582656  42.7247544  -7.3057142  36.3573805
  44.1291514  -7.8708776  36.3456638  46.5388561   1.6351112  39.0779342
  45.8650260   1.9382809  39.6864300  46.9254383   2.4380192  38.7284799
  44.8108716  -6.9733800  40.6806646  43.9019935  -7.2574768  40.7779116
  44.8403799  -6.5534722  39.8209953  50.0427983  -3.3627211  44.4497814
  49.5890310  -4.2036301  44.5063004  49.4121950  -2.7265812  44.7872594
  48.4860922  -1.5250714  45.3847632  48.7783897  -0.9645657  44.6659997
  48.9959543  -1.2322153  46.1400791  44.5084803  -5.4325057  38.0194725
  44.0704233  -6.1489198  37.5600362  45.2495244  -5.2048942  37.4579816
  43.4494547  -0.7470363  46.4741085  43.4070726  -0.5209517  45.5449617
  44.3657246  -0.9806988  46.6226886  52.6527298  -5.0891333  49.0882315
  53.0863804  -5.1816044  49.9365369  53.3658878  -5.1133832  48.4502331
  41.5660348  -3.8707334  46.2703048  42.3600947  -4.3657014  46.0685623
  40.8552041  -4.3989471  45.9070753  46.3855193  -1.4889239  50.6215415
  46.4392215  -0.9198302  51.3893131  45.5169974  -1.3187353  50.2569452
  53.5142847  -5.0467632  51.6215200  53.7078737  -4.1421821  51.8674475
  53.4143465  -5.5060213  52.4553785  48.5757956  -4.8960889  57.1956081
  48.4243462  -5.1250338  56.2786164  48.5662635  -3.9390288  57.2087426
  45.3443292  -7.3228976  52.1802347  46.2735352  -7.1717817  52.0071314
  44.9234322  -7.2344956  51.3250994  44.1431624  -3.2978312  49.9500885
  44.0042710  -3.6659528  50.8226823  43.3546220  -2.7830673  49.7784843
  44.7379776   1.8030784  41.2926421  44.9131532   1.3318828  42.1072044
  44.0512564   2.4296551  41.5207682  45.6936839  -3.9196709  47.3389723
  45.3586672  -3.9595939  48.2347372  45.1940785  -4.5851993  46.8660133
  39.6681083  -8.5129079  52.8642304  39.5300881  -9.2448841  53.4653843
  40.5786007  -8.6020179  52.5826491  48.6296031  -6.5740675  37.6126782
  48.0125202  -7.2993847  37.5159835  48.1612519  -5.8131315  37.2693856
  42.2963384  -8.8009120  52.3525983  43.0063002  -9.4415928  52.3112602
  42.2532692  -8.5496225  53.2752164  50.2850163  -1.8641767  55.2732563
  50.2262709  -2.5482547  54.6063146  50.6869681  -1.1222777  54.8213189
  39.3040861   4.9520147  48.0666281  39.5437460   5.5838671  48.7445300
  38.4610058   4.6008187  48.3531641  50.2867570  -3.9002183  53.5046542
  49.3994349  -4.2376261  53.6272941  50.8566121  -4.6319152  53.7415308
  43.8168723   0.7599270  50.4707785  43.7438895   1.5654241  50.9827090
  43.3746116   0.9591235  49.6455807  43.6058503  -0.0028960  43.9810607
  42.8226025   0.5392720  44.0748832  44.3051248   0.5145019  44.3804848
  46.2767407   0.6586104  52.6265944  46.9895379   1.2933568  52.5541846
  45.7857435   0.7549970  51.8105946  47.9984934  -5.4362644  44.1983236
  47.0641212  -5.3161181  44.0287940  48.1761602  -6.3390177  43.9343246
  41.3279320  -1.5919453  53.4471515  42.0288780  -0.9582970  53.6000909
  40.8574435  -1.2504721  52.6867154  49.4533716  -3.2501503  41.7319422
  49.7293560  -3.3644909  42.6413296  48.5838215  -3.6484018  41.6931595
  46.0887780   0.9984848  45.3752236  46.2710175   0.1806504  45.8379988
  46.9120766   1.2152540  44.9377126  46.4229946  -0.0746967  42.6367284
  46.9517712  -0.5854513  42.0237446  46.6858165  -0.3904437  43.5012817
  45.1768179  -8.2955034  57.7590102  44.5008816  -8.3960905  58.4292478
  45.9995813  -8.4515821  58.2226100  36.9247038  -2.0583098  50.3802618
  37.5100475  -2.8039410  50.5130522  36.7271877  -1.7479141  51.2639282
  39.7785694   0.9768150  45.3965060  39.1096069   1.4614277  44.9129100
  39.6398563   1.2237370  46.3108439  43.9190962   3.0111893  51.9947718
  44.4709270   3.1743515  52.7596804  44.2597156   3.6016331  51.3227743
  48.7701837  -2.1626849  57.8496373  49.3141741  -1.5496891  57.3551328
  48.1888681  -1.6047271  58.3663386  47.0559349   0.9593869  48.9811401
  46.9310489   0.1583608  48.4722346  47.7138441   1.4540062  48.4925370
  49.1194258  -1.2397111  50.6090951  48.1724593  -1.3591760  50.5369277
  49.4677031  -2.1274613  50.6917212  46.1240691  -1.4444395  46.8095303
  45.9765654  -2.3727688  46.9902873  46.9494185  -1.4224304  46.3252378
  49.7274813  -0.6215836  47.8960176  50.6521360  -0.8272975  47.7584627
  49.5590116  -0.8699435  48.8049517  49.5170129  -0.1030169  43.2522267
  49.6907007  -0.6683746  42.4996120  50.0099020   0.6970726  43.0701757
  50.5045302  -0.7863405  40.3519165  51.1996206  -0.1656712  40.5706480
  50.8468452  -1.6368053  40.6271543  52.4036725  -3.3363699  41.8806496
  52.9288049  -2.9976426  41.1555816  52.3159077  -4.2716684  41.6969631
  44.0656774   0.5770375  54.0096373  44.3743900   0.3319521  54.8819072
  44.8632256   0.7817013  53.5215243  44.0877386   2.7308284  46.2401749
  43.6482376   2.2384663  46.9334606  44.8385503   2.1881252  45.9993825
  36.5669725  -1.0780175  46.2426377  37.3927744  -1.3776403  45.8625021
  36.2163777  -1.8472552  46.6916166  41.5351258  -1.7253707  48.3124051
  40.9131267  -2.3883002  48.0126279  42.2056125  -1.6992575  47.6297699
  34.7678330  -3.1593848  47.2015311  33.9310238  -3.5871674  47.0199312
  34.7401975  -2.9661405  48.1386102  52.0930631  -2.7030795  57.1857694
  51.3026175  -2.7206657  56.6462193  51.8563985  -2.1642502  57.9406731
  41.0964765  -3.1749783  41.7882512  41.2452885  -2.4914319  41.1349184
  41.9031208  -3.1944693  42.3031967  53.7146703  -3.4341387  54.7432444
  53.4231511  -3.0711407  55.5795905  53.1018834  -4.1474379  54.5645776
  38.8517398  -7.1484606  42.7943580  38.6063440  -8.0522276  42.9923791
  39.0213312  -7.1467455  41.8523058  44.5960170  -0.6801653  39.2594259
  44.0234137  -0.0611466  38.8064731  45.1692964  -0.1302291  39.7934181
  47.8157430  -0.3964503  40.3902841  48.7488103  -0.4618941  40.5935717
  47.7280643   0.4391764  39.9317374  50.4445447  -1.0798632  37.3506789
  50.3659078  -1.4138769  38.2442547  51.2655113  -0.5876864  37.3498261
  44.8645661  -5.2923094  58.0610968  45.7848671  -5.1144495  58.2551015
  44.8295244  -6.2367049  57.9090668  37.8607734  -7.3822059  50.7033750
  38.0793744  -6.4504951  50.7221783  38.2733508  -7.7414085  51.4888553
  42.5966869  -8.3791715  58.9101560  42.1133951  -7.5791355  59.1165449
  42.6827808  -8.3683770  57.9569004  35.8652829  -6.5463335  46.8323380
  35.8423517  -6.4475648  45.8805263  36.1753465  -5.6998184  47.1540546
  38.5240207  -4.4887180  50.9469994  39.4783460  -4.5203238  50.8799925
  38.3252730  -4.9496556  51.7620220  39.1139589  -5.9186064  53.5140792
  39.9332478  -5.4241985  53.5375629  39.3876396  -6.8354096  53.4858359
  36.8790435   1.0532439  47.9640192  36.7444903   0.2932840  47.3978190
  36.4622498   1.7773339  47.4968981  48.0149398  -3.7630637  36.9716767
  48.7185249  -3.5580634  37.5874423  47.2912047  -3.1953875  37.2365851
  40.0359561   1.9501757  48.1758634  39.9191945   2.8947189  48.0737325
  39.2152008   1.6475318  48.5644434  49.9236096  -3.3248108  39.0215227
  50.7581700  -3.7566909  38.8392702  49.7620439  -3.4966094  39.9492122
  49.5781988  -6.8215994  40.3871566  49.5230792  -6.9871723  39.4460011
  48.9528043  -6.1139962  40.5433756  46.8927895  -4.5167083  59.7125129
  47.7619055  -4.3426430  59.3511764  46.4134647  -3.6972666  59.5900859
  41.0614075   2.6030018  51.3914563  41.9641322   2.6353629  51.7081058
  40.8351445   1.6730469  51.4060899  42.8167677   1.3561005  48.0524641
  41.8663308   1.3562867  47.9389014  43.1200164   0.6093740  47.5360676
  58.5520371   7.1921543  49.1170404  59.1898781   7.0728291  48.4133744
  58.4341214   8.1402387  49.1758356  55.3610077   7.1448971  49.0531929
  55.0228589   7.0290036  48.1652463  56.2299845   6.7440137  49.0332935
  51.2196893   8.9984448  45.0428820  50.6561758   8.9074385  44.2745107
  51.1049288   8.1784352  45.5231312  55.8429860   8.2983823  55.0118134
  55.8318501   7.9036621  54.1398638  56.0050500   7.5649896  55.6051906
  48.7661325  10.4935639  47.8813040  49.5582617  10.1526464  47.4659339
  49.0057975  10.6030615  48.8015193  56.7996452  12.6655416  40.3543284
  56.1484431  13.2509496  39.9677298  57.5940814  13.1961610  40.4138322
  50.7252079   9.7544553  40.7530419  51.4982955   9.2073540  40.6143295
  51.0777478  10.6188802  40.9644880  52.5637121  11.0820935  53.9597318
  52.2726987  11.9866566  53.8443984  53.1994106  11.1237463  54.6741388
  53.4893328   8.4597783  50.5498678  54.0856900   8.2353806  49.8355641
  53.5468300   7.7182529  51.1524126  53.0618357   5.9137219  38.3848869
  53.3143877   5.3918740  37.6232332  52.1242916   5.7503364  38.4875552
  58.1061639   4.9172997  46.1923612  58.8924729   4.4992420  45.8414029
  58.3700344   5.8219089  46.3605260  58.2771717  10.3545847  40.8912269
  57.6417550  10.4280474  41.6033173  57.9469123  10.9439446  40.2131348
  63.5070067   4.8548230  47.0956590  64.2395238   4.2847447  47.3294420
  62.7509422   4.4669831  47.5363096  52.7814645   7.8165325  40.5873244
  52.6650903   7.1410228  41.2554328  52.8916905   7.3297699  39.7705397
  55.1246186   7.2775472  44.2919933  54.7604393   6.7506093  45.0032854
  55.9813302   6.8873941  44.1186418  61.0295487  -1.4330196  51.5551199
  60.6978812  -0.5634785  51.3312414  60.4341100  -1.7493912  52.2345229
  54.7651673   2.3065372  39.2881281  54.9326076   3.1745608  39.6551752
  54.5748842   2.4692653  38.3642571  57.5227006  10.7682350  50.9547112
  57.2227729  11.6707389  50.8462919  57.1778066  10.5014534  51.8068265
  50.9739488   7.2196147  46.9883816  50.0489984   7.0872361  47.1961508
  51.2223901   7.9990367  47.4853759  60.9224150   3.2864891  48.6344549
  60.0141028   3.2180299  48.3403310  60.8711746   3.7636836  49.4626375
  54.7440894   4.7623029  40.2727948  54.6240519   5.2080080  41.1113429
  54.0493482   5.1108347  39.7141486  48.3348299   6.8629421  47.8227605
  48.4640680   7.1163900  48.7367017  47.6545750   7.4557129  47.5032260
  52.5047786  17.5326671  43.9218079  52.4271816  18.4834496  44.0006560
  51.9009430  17.1872543  44.5793006  54.9965016   4.7054536  56.5779446
  54.2198350   5.2648456  56.5682311  55.6355579   5.1911319  57.0994316
  62.7885797   1.4881329  50.4122423  62.1460177   1.7813862  49.7662218
  62.2840725   1.3734249  51.2175620  60.4425960   5.2344502  41.1008282
  61.3543816   5.4671889  40.9255980  59.9335607   5.8181546  40.5383361
  53.2511388   7.5139990  56.1397413  53.9926073   8.0525034  55.8632237
  52.5448374   8.1406278  56.2968965  58.7266728   9.6569130  54.7369575
  59.1350084   9.2151541  53.9924207  58.0043989   9.0821758  54.9903768
  55.0797798   4.5941737  52.1103132  55.9258993   5.0181150  52.2537781
  55.0196436   3.9375361  52.8041695  59.0495543  10.2170321  48.4921864
  58.4204405  10.3816035  47.7897932  58.6621205  10.6311930  49.2632828
  62.9284774  11.1524759  45.8466227  62.2435813  11.5323660  45.2963261
  63.0128624  11.7620085  46.5798175  58.2297243   2.2546105  53.7684305
  57.9858175   3.0088166  53.2318581  58.5057174   2.6331453  54.6031553
  60.1835706   8.7984718  52.4461571  60.3952601   9.4416477  51.7695952
  60.1365454   7.9647034  51.9783501  57.7861935   1.4102538  49.3498143
  56.9246414   1.7083792  49.6414881  57.8124370   1.6272937  48.4179176
  54.6023504   9.9544729  45.7571949  55.0661850  10.2332432  44.9676571
  54.3380303   9.0528173  45.5745040  51.4947585   9.5016210  48.6951712
  52.0648943   9.9303479  48.0569197  52.0855697   9.2198795  49.3935898
  53.5392390   6.0767881  42.5661514  54.2416434   6.5288925  43.0335440
  53.2073019   5.4351700  43.1941407  51.9872752   4.6679638  56.9412723
  51.3571413   5.3495919  57.1748120  51.8808840   4.5562719  55.9965862
  47.2817724   4.3351434  47.8678648  46.4916778   4.5908962  47.3918758
  47.7728972   5.1499772  47.9730688  61.2981534  11.6756673  50.6183928
  62.1198978  11.2736860  50.3366610  61.2943937  11.5724907  51.5700044
  49.2332470   4.6996013  44.8262124  48.4363633   4.8114707  45.3445620
  49.0058062   5.0382665  43.9603015  55.0638137  11.2240716  52.7744639
  55.1282570  11.6861124  53.6102811  54.3549061  10.5938081  52.9026949
  45.5655427   4.5881924  50.2993638  45.8163466   5.4728934  50.5651214
  46.1014976   4.4086526  49.5268730  69.3887527   8.0195421  46.9668900
  68.6351235   7.4502820  46.8112904  69.5235068   7.9858086  47.9139535
  54.7786155  12.8908824  42.6423619  54.6431830  13.7360360  43.0708467
  55.3195968  13.0928101  41.8789553  51.2653495  -1.0299596  59.3037974
  50.8720440  -1.5833398  59.9785619  52.0819635  -0.7189018  59.6944492
  48.2315553  10.4084262  43.2151544  48.7440073  11.2027512  43.3657109
  48.8838265   9.7110552  43.1485146  50.0410437  13.5250018  45.2974297
  50.2177066  14.4467983  45.1095281  50.8367271  13.2108437  45.7268677
  54.1821456   0.3858283  56.8958231  54.9231169   0.9865436  56.8162693
  54.4139379  -0.3564079  56.3376274  49.3262794   5.5714650  55.1736461
  49.2116309   4.6699907  55.4743560  48.4707311   5.8178347  54.8221277
  56.4054631  13.5132390  56.7723961  55.9618486  12.7268769  56.4544866
  57.0671845  13.7011541  56.1067852  51.1641753  15.0428192  51.2984640
  51.7149178  14.9145255  50.5261634  50.3253229  15.3423081  50.9479533
  58.5035870  13.7935190  54.8005363  58.4854345  14.6144071  54.3085632
  59.4255790  13.6689265  55.0255504  54.9608924  11.3079320  55.6428871
  55.4937261  10.5467608  55.4128179  54.4323005  11.0152972  56.3853025
  58.1278619  -3.5860614  51.1722513  57.7842888  -2.6958973  51.0961623
  58.4957581  -3.7758957  50.3092098  46.1964469   8.7372916  43.9911115
  47.0339691   9.1469924  43.7744823  46.3742737   7.7972358  43.9611309
  58.0928901   6.4047997  39.6794948  57.5775525   7.1752601  39.9183335
  57.8206210   5.7313133  40.3028009  55.6776012   1.2497698  44.7380186
  54.8217609   0.8604548  44.5585825  56.0902964   1.3289658  43.8779972
  57.2075159  -1.2155959  49.1371746  56.7039955  -1.2525824  48.3239551
  57.5005766  -0.3063216  49.1968403  53.4518045  -1.1317229  48.1437928
  54.3171042  -1.3274421  47.7843817  53.5195554  -1.3606878  49.0707284
  63.0663176   9.1580351  41.6148121  62.2892618   8.8191511  41.1703283
  63.7454657   9.1632975  40.9403086  57.8815205   4.2775089  41.5054729
  57.5765340   4.5921238  42.3564872  58.8345647   4.3556509  41.5482062
  56.3261636  10.4365312  43.1547683  55.7982998   9.7018072  42.8420920
  55.8249139  11.2139989  42.9087651  61.3054482   8.6314333  48.2714729
  60.6478157   9.3213594  48.3594858  62.1094882   9.0210765  48.6148716
  51.0580364   1.0984978  45.5154294  51.6324116   0.8760160  44.7827487
  51.6451346   1.1673673  46.2682896  60.1159941   6.9858705  46.3218671
  60.6291823   7.6188697  46.8240381  60.7661165   6.3859901  45.9562031
  51.3849951   3.1289440  39.5350180  50.5487263   3.4664126  39.8559454
  51.2454721   2.9938419  38.5977317  53.3603032  -2.0273773  44.2429364
  52.7067444  -2.3424755  43.6185979  53.3183506  -2.6498032  44.9689187
  54.4714237   8.2545522  36.1582656  53.5641298   8.0234776  36.3573805
  54.9685269   7.4583142  36.3456638  57.3782315  16.9643030  39.0779342
  56.7044014  17.2674726  39.6864300  57.7648137  17.7672110  38.7284799
  56.5940772   4.4608161  48.5677012  55.6763333   4.6823108  48.4098700
  57.0100916   4.5354471  47.7088719  57.3775820   5.8599577  43.6979692
  58.1247639   6.3720974  43.3886814  57.6467409   5.5383629  44.5584085
  55.6502470   8.3558117  40.6806646  54.7413689   8.0717150  40.7779116
  55.6797554   8.7757196  39.8209953  60.8821737  11.9664707  44.4497814
  60.4284065  11.1255617  44.5063004  60.2515704  12.6026105  44.7872594
  59.8254657   2.8956693  45.6798481  59.0877414   2.3834079  46.0108724
  60.0781431   2.4557074  44.8681758  59.3254677  13.8041204  45.3847632
  59.6177651  14.3646261  44.6659997  59.8353297  14.0969765  46.1400791
  46.2190640   6.0763631  44.6621848  46.0215040   5.4832992  43.9372915
  45.6637304   5.7715842  45.3797787  54.1987364   5.9686738  46.7816441
  54.2535974   5.0160574  46.7058918  53.3878566   6.1246177  47.2657740
  55.3478558   9.8966861  38.0194725  54.9097988   9.1802720  37.5600362
  56.0888999  10.1242976  37.4579816  52.1379724   4.5863798  44.5406820
  51.3247590   4.8857968  44.9472012  52.6338718   4.1919486  45.2581303
  54.2888302  14.5821555  46.4741085  54.2464481  14.8082401  45.5449617
  55.2051001  14.3484929  46.6226886  57.7353936   5.0505622  53.3721714
  58.0903323   5.2777095  54.2316180  58.3826067   5.3823999  52.7498969
  63.4651673   8.1724058  44.0771043  63.3269571   8.3625654  43.1492232
  63.1087891   8.9343441  44.5339094  51.6293799   2.1582153  50.1568055
  52.2693178   2.0170912  49.4591019  50.7971329   1.8716667  49.7806657
  63.4921052  10.2400585  49.0882315  63.9257559  10.1475874  49.9365369
  64.2052633  10.2158086  48.4502331  52.4054103  11.4584584  46.2703048
  53.1994701  10.9634904  46.0685623  51.6945795  10.9302447  45.9070753
  57.2248947  13.8402679  50.6215415  57.2785969  14.4093615  51.3893131
  56.3563728  14.0104564  50.2569452  48.7136866   5.6027665  42.3462800
  47.7834454   5.5412121  42.5632762  48.8094338   5.0803618  41.5499442
  48.6322415   2.1282478  44.9341042  48.8929232   3.0427811  44.8250202
  49.4539588   1.6606921  45.0837655  50.1047341   3.5420235  52.1039867
  50.7770394   3.3337597  51.4552515  49.2777127   3.3442321  51.6645099
  64.3536602  10.2824286  51.6215200  64.5472492  11.1870096  51.8674475
  64.2537220   9.8231705  52.4553785  56.0072913   0.1682176  54.1205527
  55.3600828   0.8672126  54.0270004  56.7773928   0.6018320  54.4881776
  59.4151710  10.4331028  57.1956081  59.2637217  10.2041580  56.2786164
  59.4056390  11.3901630  57.2087426  56.1837047   8.0062941  52.1802347
  57.1129107   8.1574101  52.0071314  55.7628077   8.0946962  51.3250994
  54.9825379  12.0313606  49.9500885  54.8436464  11.6632390  50.8226823
  54.1939975  12.5461245  49.7784843  55.5773531  17.1322702  41.2926421
  55.7525286  16.6610745  42.1072044  54.8906319  17.7588468  41.5207682
  56.5330594  11.4095208  47.3389723  56.1980426  11.3695978  48.2347372
  56.0334539  10.7439924  46.8660133  50.5074838   6.8162838  52.8642304
  50.3694636   6.0843077  53.4653843  51.4179761   6.7271738  52.5826491
  59.4689785   8.7551243  37.6126782  58.8518956   8.0298071  37.5159835
  59.0006274   9.5160603  37.2693856  53.1357138   6.5282798  52.3525983
  53.8456757   5.8875990  52.3112602  53.0926447   6.7795692  53.2752164
  61.1243917  13.4650151  55.2732563  61.0656463  12.7809371  54.6063146
  61.5263435  14.2069141  54.8213189  51.8486072   3.5148016  54.1721623
  51.3123429   3.0638754  54.8243219  51.2602781   3.6493924  53.4292087
  50.1434616  20.2812065  48.0666281  50.3831214  20.9130589  48.7445300
  49.3003812  19.9300105  48.3531641  51.2588331   2.9736667  36.7348086
  50.3817798   2.8525468  36.3710333  51.7346084   2.1822745  36.4826975
  61.1261324  11.4289735  53.5046542  60.2388103  11.0915657  53.6272941
  61.6959875  10.6972766  53.7415308  42.7790471   7.7613827  46.8289594
  43.4661511   7.4475557  46.2410609  42.6238600   8.6655191  46.5556845
  47.5825194   2.6504023  51.2574617  47.4983382   2.0429693  50.5225027
  46.7607900   3.1413042  51.2584114  54.6562478  16.0891187  50.4707785
  54.5832649  16.8946159  50.9827090  54.2139871  16.2883153  49.6455807
  54.4452257  15.3262957  43.9810607  53.6619779  15.8684637  44.0748832
  55.1445003  15.8436937  44.3804848  57.7548908   1.1357587  46.6244812
  58.2517607   0.3827549  46.3045883  56.9835889   1.1721903  46.0588022
  65.6078665   6.8397952  48.2663104  65.5968541   7.7222668  47.8957037
  64.7396044   6.4869503  48.0717641  57.1161161  15.9878021  52.6265944
  57.8289133  16.6225486  52.5541846  56.6251190  16.0841887  51.8105946
  58.8378688   9.8929274  44.1983236  57.9034967  10.0130736  44.0287940
  59.0155357   8.9901741  43.9343246  54.3383876   3.2774970  46.3516497
  53.9681664   2.7246010  47.0397403  54.8342969   2.6733103  45.7991497
  62.2251240   5.7346593  44.7333270  62.6911692   6.5674585  44.6593573
  62.6758740   5.2691575  45.4378528  52.1673075  13.7372465  53.4471515
  52.8682534  14.3708948  53.6000909  51.6968190  14.0787196  52.6867154
  60.2927471  12.0790415  41.7319422  60.5687315  11.9647009  42.6413296
  59.4231969  11.6807899  41.6931595  60.1967902  -1.8972820  48.7724171
  59.2830982  -1.6668593  48.9406378  60.6261004  -1.8134376  49.6238204
  59.9674361   6.2917072  51.2724065  59.3145811   6.5392980  50.6176518
  60.3454741   5.4781210  50.9386543  56.9281535  16.3276765  45.3752236
  57.1103929  15.5098421  45.8379988  57.7514521  16.5444458  44.9377126
  57.2623700  15.2544951  42.6367284  57.7911467  14.7437405  42.0237446
  57.5251920  14.9387481  43.5012817  56.0161934   7.0336883  57.7590102
  55.3402571   6.9331013  58.4292478  56.8389568   6.8776097  58.2226100
  47.7640793  13.2708820  50.3802618  48.3494230  12.5252508  50.5130522
  47.5665631  13.5812777  51.2639282  50.6179448  16.3060067  45.3965060
  49.9489823  16.7906195  44.9129100  50.4792318  16.5529288  46.3108439
  42.3558448   5.8414420  49.1007061  42.3942547   5.3078011  49.8944179
  41.8498740   5.3149626  48.4818038  54.7584717  18.3403811  51.9947718
  55.3103025  18.5035432  52.7596804  55.0990910  18.9308249  51.3227743
  49.7349210   0.6878961  52.5969603  49.7990536   1.5493791  52.1847001
  49.6716330   0.0752962  51.8641962  49.2101482   2.7602093  56.2442637
  49.8373521   2.3779170  56.8580162  48.3529401   2.5416295  56.6098330
  59.6095591  13.1665068  57.8496373  60.1535495  13.7795027  57.3551328
  59.0282436  13.7244647  58.3663386  45.9867025   4.5678522  42.1760992
  46.2820466   3.6589201  42.1228046  45.0855061   4.5466262  41.8541995
  57.8953104  16.2885786  48.9811401  57.7704243  15.4875526  48.4722346
  58.5532195  16.7831980  48.4925370  49.5161272   2.6434519  48.1588541
  48.7947858   3.2570486  48.0196014  50.3054528   3.1792284  48.0805187
  59.9588012  14.0894806  50.6090951  59.0118348  13.9700158  50.5369277
  60.3070785  13.2017304  50.6917212  52.3187586  -0.0211055  54.4329193
  52.8421988   0.2251242  55.1955502  52.0999919   0.8108980  54.0132330
  47.7154867   2.2492620  42.3000317  47.3867573   1.3689999  42.1175423
  48.0694237   2.1940289  43.1876707  56.9634446  13.8847523  46.8095303
  56.8159408  12.9564230  46.9902873  57.7887939  13.9067613  46.3252378
  50.8296690   2.5365590  42.6675795  51.1692762   3.0651511  41.9454403
  51.2768810   2.8745996  43.4434362  60.5668567  14.7076081  47.8960176
  61.4915115  14.5018943  47.7584627  60.3983871  14.4592482  48.8049517
  53.5240131   0.9202640  52.1178863  53.1836951   0.1210453  52.5199543
  52.8179137   1.2204351  51.5455696  54.1756603  -1.9948047  50.5706186
  54.9982672  -2.4687569  50.4485076  54.4194666  -1.2157563  51.0704872
  52.8164837   1.0340211  40.8669088  53.5373200   1.4121464  40.3632805
  52.1930141   1.7529088  40.9704066  56.9595960   1.7385360  41.8027420
  57.1759574   2.6209998  41.5016248  56.4790027   1.3471574  41.0733062
  51.6995181   4.6971073  48.3798165  51.5539762   5.0111376  49.2722446
  51.2220385   5.3155974  47.8269063  53.5591564   1.6873621  48.4279054
  53.5453133   0.7914715  48.0911352  54.2763992   1.6944285  49.0617340
  55.4117695   2.1210962  50.4732182  55.1535473   3.0428032  50.4716512
  54.8802735   1.7241396  51.1632646  60.3563884  15.2261749  43.2522267
  60.5300761  14.6608171  42.4996120  60.8492775  16.0262644  43.0701757
  46.1740844   7.2376418  51.3185826  45.6294312   8.0136226  51.4506100
  47.0520193   7.5847222  51.1604947  52.9628460   0.5688002  43.6966624
  53.0844371  -0.3595352  43.8957512  52.6730503   0.5826688  42.7844940
  55.8319651  -1.7457088  46.8333344  55.8541347  -1.6817755  45.8785324
  56.2487710  -2.5852579  47.0273850  66.2103275   7.9898172  44.8712567
  66.6534421   7.2405497  44.4731690  65.3329785   7.9808308  44.4886299
  61.3439056  14.5428513  40.3519165  62.0389961  15.1635206  40.5706480
  61.6862206  13.6923864  40.6271543  46.9606865   6.3646314  54.2115983
  46.2188601   6.5128949  54.7980613  46.6399610   6.6254580  53.3482732
  63.2430479  11.9928219  41.8806496  63.7681803  12.3315491  41.1555816
  63.1552832  11.0575234  41.6969631  54.9050528  15.9062292  54.0096373
  55.2137654  15.6611439  54.8819072  55.7026010  16.1108931  53.5215243
  54.9271140  18.0600202  46.2401749  54.4876130  17.5676581  46.9334606
  55.6779257  17.5173170  45.9993825  47.4063479  14.2511743  46.2426377
  48.2321499  13.9515515  45.8625021  47.0557531  13.4819365  46.6916166
  52.3745012  13.6038211  48.3124051  51.7525022  12.9408916  48.0126279
  53.0449879  13.6299343  47.6297699  45.6072084  12.1698069  47.2015311
  44.7703992  11.7420244  47.0199312  45.5795730  12.3630513  48.1386102
  52.4469540   2.0819999  57.9056557  52.4957695   2.9582122  57.5234327
  52.9892054   1.5397392  57.3328200  62.9324385  12.6261122  57.1857694
  62.1419929  12.6085261  56.6462193  62.6957740  13.1649416  57.9406731
  63.0522260   9.4753589  54.4990423  63.1020265   9.3103596  55.4405945
  62.9436184   8.6080848  54.1088303  51.9358519  12.1542134  41.7882512
  52.0846639  12.8377599  41.1349184  52.7424963  12.1347224  42.3031967
  60.3426023   5.4584517  55.8149729  61.2435886   5.3190982  55.5233727
  60.4173997   5.6238972  56.7547907  54.6768828   2.8351371  54.6602916
  53.8072138   3.1284938  54.3885504  54.9128309   3.4191816  55.3810179
  64.5540457  11.8950530  54.7432444  64.2625266  12.2580511  55.5795905
  63.9412589  11.1817538  54.5645776  65.7536140   9.4603410  47.2635014
  66.5883031   9.8993214  47.4272575  65.8895268   8.9842063  46.4443260
  62.8027646   7.0183145  53.2112502  63.2781767   7.2110791  52.4031354
  61.8793211   7.0742331  52.9655886  49.6911152   8.1807312  42.7943580
  49.4457194   7.2769642  42.9923791  49.8607067   8.1824462  41.8523058
  57.3807862  -0.9469012  52.1768336  57.8989806  -0.2107985  51.8514825
  57.0262995  -0.6405018  53.0115095  48.9606800   3.9135670  40.2929742
  48.2676045   3.9880025  39.6369778  48.7158552   3.1496013  40.8151259
  55.4353925  14.6490265  39.2594259  54.8627892  15.2680452  38.8064731
  56.0086718  15.1989627  39.7934181  61.5029315   3.8948905  51.4440808
  62.4546737   3.9947003  51.4653032  61.3332765   3.1027173  51.9538892
  59.5243694   0.9804488  51.6300209  58.9293626   1.2609501  50.9346697
  59.2393391   1.4698389  52.4016950  58.6551184  14.9327415  40.3902841
  59.5881858  14.8672977  40.5935717  58.5674397  15.7683682  39.9317374
  61.2839201  14.2493285  37.3506789  61.2052833  13.9153149  38.2442547
  62.1048868  14.7415053  37.3498261  63.9817392   7.1155025  50.5583107
  63.9493712   6.1771025  50.7442791  64.5918016   7.1939061  49.8248932
  55.8200723   5.9851078  36.6010311  56.7659828   5.8557286  36.6698729
  55.4414968   5.2465739  37.0779740  64.1311881   3.9066068  50.6041391
  63.6150929   3.1224525  50.4171319  65.0151829   3.5784785  50.7687910
  61.7922608  -2.3492916  46.5637203  61.5947429  -2.6577828  47.4480535
  62.4022313  -1.6231277  46.6935133  69.7993942   8.1771031  49.6989144
  70.5297331   7.9156320  50.2596847  69.1900888   7.4399753  49.7391212
  67.8809239   6.3178894  50.2963595  67.1542403   6.1834859  49.6880087
  67.4656526   6.6255723  51.1020313  55.7039416  10.0368824  58.0610968
  56.6242425  10.2147423  58.2551015  55.6688999   9.0924869  57.9090668
  54.0043640   3.9101054  36.5365197  53.0975096   3.6134167  36.6127910
  54.2819621   3.6130872  35.6699483  44.9221581   5.2307417  46.9864243
  44.6024365   4.3772726  46.6938617  44.3755009   5.4455996  47.7422210
  48.7001488   7.9469858  50.7033750  48.9187498   8.8786966  50.7221783
  49.1127262   7.5877833  51.4888553  55.6205706  -1.5462056  42.6909438
  54.8106434  -1.8914971  43.0664684  56.3090123  -1.8554513  43.2797050
  57.5496254  -2.4684010  44.3133735  58.1027293  -2.0488556  44.9723758
  57.7866341  -3.3948261  44.3556691  53.5729354   3.5203064  60.0936498
  53.4726080   4.4697421  60.0248590  53.3550896   3.1921303  59.2212569
  52.7742425   0.7687989  36.6777176  53.6361589   1.0942888  36.9372993
  52.9592769  -0.0180515  36.1650242  44.7909841   8.8510329  48.9557365
  44.0973312   8.4364282  48.4427319  45.5382832   8.8930865  48.3590784
  60.9275061  -0.3583484  43.8212399  60.3473730   0.3001320  43.4390451
  60.6610994  -1.1806140  43.4099816  59.3778628  -0.9578427  46.0233719
  59.8778406  -0.8461892  45.2148038  60.0214236  -1.2617374  46.6634528
  53.4360624   6.9500203  58.9101560  52.9527705   7.7500563  59.1165449
  53.5221563   6.9608148  57.9569004  46.7046583   8.7828583  46.8323380
  46.6817271   8.8816270  45.8805263  47.0147220   9.6293733  47.1540546
  49.3633961  10.8404738  50.9469994  50.3177215  10.8088680  50.8799925
  49.1646485  10.3795361  51.7620220  49.9533343   9.4105854  53.5140792
  50.7726232   9.9049932  53.5375629  50.2270151   8.4937822  53.4858359
  59.7099939   1.8016606  42.8768747  58.8225794   2.0866257  42.6588942
  60.1253928   1.6410369  42.0296024  63.0614476   1.8263127  46.5923086
  63.8374866   2.3159579  46.8647703  62.3362610   2.2521181  47.0494956
  65.4987034   2.5390746  47.6497027  66.0931525   2.2986482  46.9390335
  65.5713618   1.8197877  48.2770563  47.7184190  16.3824357  47.9640192
  47.5838658  15.6224758  47.3978190  47.3016252  17.1065257  47.4968981
  58.8543153  11.5661281  36.9716767  59.5579003  11.7711283  37.5874423
  58.1305802  12.1338043  37.2365851  59.6840963   7.3171142  43.0919037
  59.6276165   7.7739693  42.2526670  60.2369306   6.5561827  42.9141880
  63.4945769   3.1060874  43.9169157  63.2382703   2.7057509  44.7477364
  62.8698637   3.8204668  43.7919296  67.8058107   5.8456947  46.4240448
  67.2457665   5.9150136  47.1972010  67.2001610   5.6697932  45.7039944
  50.8753316  17.2793674  48.1758634  50.7585700  18.2239107  48.0737325
  50.0545762  16.9767236  48.5644434  60.7629850  12.0043810  39.0215227
  61.5975454  11.5725008  38.8392702  60.6014193  11.8325824  39.9492122
  60.4175742   8.5075923  40.3871566  60.3624546   8.3420195  39.4460011
  59.7921798   9.2151956  40.5433756  45.2068257   3.7443988  54.2132989
  45.8527121   3.2342942  54.7020214  44.9985409   4.4812669  54.7876414
  57.7321650  10.8124835  59.7125129  58.6012809  10.9865487  59.3511764
  57.2528401  11.6319252  59.5900859  53.7271868  -1.9915968  39.9656885
  53.7150538  -1.0474128  40.1225156  54.6195290  -2.1745822  39.6716346
  51.9007830  17.9321936  51.3914563  52.8035077  17.9645546  51.7081058
  51.6745200  17.0022387  51.4060899  53.6561432  16.6852923  48.0524641
  52.7057063  16.6854784  47.9389014  53.9593918  15.9385657  47.5360676
  49.5465748   0.8911605  58.3108003  50.4097210   0.5348410  58.5211327
  48.9731159   0.5525499  58.9983407  69.3914125  22.5213461  49.1170404
  70.0292535  22.4020208  48.4133744  69.2734968  23.4694305  49.1758356
  66.2003832  22.4740889  49.0531929  65.8622343  22.3581954  48.1652463
  67.0693600  22.0732054  49.0332935  62.0590647  24.3276366  45.0428820
  61.4955512  24.2366302  44.2745107  61.9443042  23.5076270  45.5231312
  66.6823615  23.6275741  55.0118134  66.6712255  23.2328539  54.1398638
  66.8444254  22.8941813  55.6051906  59.6055079  25.8227557  47.8813040
  60.3976371  25.4818382  47.4659339  59.8451729  25.9322532  48.8015193
  67.6390206  27.9947333  40.3543284  66.9878186  28.5801414  39.9677298
  68.4334569  28.5253528  40.4138322  61.5645833  25.0836470  40.7530419
  62.3376709  24.5365457  40.6143295  61.9171232  25.9480720  40.9644880
  63.4030876  26.4112853  53.9597318  63.1120742  27.3158483  53.8443984
  64.0387860  26.4529380  54.6741388  64.3287083  23.7889701  50.5498678
  64.9250655  23.5645724  49.8355641  64.3862054  23.0474447  51.1524126
  63.9012111  21.2429137  38.3848869  64.1537632  20.7210658  37.6232332
  62.9636670  21.0795282  38.4875552  68.9455394  20.2464915  46.1923612
  69.7318483  19.8284338  45.8414029  69.2094098  21.1511007  46.3605260
  69.1165471  25.6837765  40.8912269  68.4811304  25.7572392  41.6033173
  68.7862878  26.2731364  40.2131348  74.3463821  20.1840148  47.0956590
  75.0788993  19.6139365  47.3294420  73.5903177  19.7961749  47.5363096
  63.6208400  23.1457242  40.5873244  63.5044658  22.4702146  41.2554328
  63.7310660  22.6589616  39.7705397  65.9639941  22.6067390  44.2919933
  65.5998148  22.0798011  45.0032854  66.8207057  22.2165859  44.1186418
  71.8689241  13.8961722  51.5551199  71.5372566  14.7657133  51.3312414
  71.2734855  13.5798006  52.2345229  65.6045428  17.6357289  39.2881281
  65.7719830  18.5037526  39.6551752  65.4142597  17.7984571  38.3642571
  68.3620761  26.0974268  50.9547112  68.0621484  26.9999307  50.8462919
  68.0171820  25.8306451  51.8068265  61.8133242  22.5488065  46.9883816
  60.8883739  22.4164279  47.1961508  62.0617656  23.3282284  47.4853759
  71.7617905  18.6156808  48.6344549  70.8534782  18.5472217  48.3403310
  71.7105500  19.0928753  49.4626375  65.5834649  20.0914947  40.2727948
  65.4634274  20.5371998  41.1113429  64.8887237  20.4400264  39.7141486
  59.1742053  22.1921339  47.8227605  59.3034435  22.4455817  48.7367017
  58.4939505  22.7849047  47.5032260  63.3441541  32.8618589  43.9218079
  63.2665570  33.8126414  44.0006560  62.7403184  32.5164461  44.5793006
  65.8358770  20.0346454  56.5779446  65.0592105  20.5940374  56.5682311
  66.4749334  20.5203237  57.0994316  73.6279551  16.8173247  50.4122423
  72.9853931  17.1105780  49.7662218  73.1234480  16.7026167  51.2175620
  71.2819715  20.5636420  41.1008282  72.1937571  20.7963807  40.9255980
  70.7729362  21.1473464  40.5383361  64.0905143  22.8431907  56.1397413
  64.8319827  23.3816951  55.8632237  63.3842128  23.4698196  56.2968965
  69.5660482  24.9861048  54.7369575  69.9743838  24.5443458  53.9924207
  68.8437744  24.4113675  54.9903768  65.9191552  19.9233655  52.1103132
  66.7652748  20.3473068  52.2537781  65.8590190  19.2667279  52.8041695
  69.8889297  25.5462238  48.4921864  69.2598159  25.7107953  47.7897932
  69.5014959  25.9603848  49.2632828  69.0690998  17.5838023  53.7684305
  68.8251930  18.3380083  53.2318581  69.3450928  17.9623370  54.6031553
  71.0229461  24.1276635  52.4461571  71.2346356  24.7708395  51.7695952
  70.9759209  23.2938952  51.9783501  68.6255690  16.7394456  49.3498143
  67.7640169  17.0375709  49.6414881  68.6518124  16.9564855  48.4179176
  65.4417259  25.2836646  45.7571949  65.9055604  25.5624349  44.9676571
  65.1774057  24.3820091  45.5745040  62.3341340  24.8308128  48.6951712
  62.9042697  25.2595396  48.0569197  62.9249452  24.5490713  49.3935898
  64.3786145  21.4059799  42.5661514  65.0810188  21.8580843  43.0335440
  64.0466773  20.7643618  43.1941407  62.8266507  19.9971555  56.9412723
  62.1965167  20.6787836  57.1748120  62.7202594  19.8854637  55.9965862
  58.1211479  19.6643352  47.8678648  57.3310533  19.9200880  47.3918758
  58.6122726  20.4791689  47.9730688  72.1375288  27.0048591  50.6183928
  72.9592732  26.6028778  50.3366610  72.1337691  26.9016825  51.5700044
  60.0726224  20.0287931  44.8262124  59.2757388  20.1406625  45.3445620
  59.8451817  20.3674583  43.9603015  65.9031892  26.5532634  52.7744639
  65.9676324  27.0153041  53.6102811  65.1942816  25.9229999  52.9026949
  56.4049182  19.9173842  50.2993638  56.6557220  20.8020852  50.5651214
  56.9408730  19.7378443  49.5268730  65.6179910  28.2200741  42.6423619
  65.4825584  29.0652277  43.0708467  66.1589722  28.4220019  41.8789553
  62.1047249  14.2992321  59.3037974  61.7114195  13.7458520  59.9785619
  62.9213390  14.6102900  59.6944492  59.0709307  25.7376180  43.2151544
  59.5833828  26.5319430  43.3657109  59.7232020  25.0402470  43.1485146
  60.8804192  28.8541936  45.2974297  61.0570820  29.7759900  45.1095281
  61.6761025  28.5400355  45.7268677  65.0215210  15.7150200  56.8958231
  65.7624924  16.3157354  56.8162693  65.2533133  14.9727838  56.3376274
  60.1656548  20.9006568  55.1736461  60.0510063  19.9991825  55.4743560
  59.3101066  21.1470264  54.8221277  67.2448386  28.8424308  56.7723961
  66.8012240  28.0560687  56.4544866  67.9065600  29.0303458  56.1067852
  62.0035507  30.3720110  51.2984640  62.5542932  30.2437173  50.5261634
  61.1646983  30.6714999  50.9479533  69.3429624  29.1227108  54.8005363
  69.3248099  29.9435989  54.3085632  70.2649544  28.9981183  55.0255504
  65.8002678  26.6371237  55.6428871  66.3331015  25.8759526  55.4128179
  65.2716759  26.3444889  56.3853025  68.9672373  11.7431303  51.1722513
  68.6236643  12.6332945  51.0961623  69.3351336  11.5532961  50.3092098
  57.0358224  24.0664834  43.9911115  57.8733446  24.4761842  43.7744823
  57.2136491  23.1264276  43.9611309  68.9322656  21.7339914  39.6794948
  68.4169279  22.5044519  39.9183335  68.6599964  21.0605051  40.3028009
  66.5169767  16.5789615  44.7380186  65.6611363  16.1896466  44.5585825
  66.9296719  16.6581576  43.8779972  68.0468914  14.1135959  49.1371746
  67.5433709  14.0766094  48.3239551  68.3399520  15.0228701  49.1968403
  64.2911799  14.1974688  48.1437928  65.1564796  14.0017497  47.7843817
  64.3589308  13.9685040  49.0707284  68.7208959  19.6067007  41.5054729
  68.4159095  19.9213156  42.3564872  69.6739401  19.6848426  41.5482062
  67.1655391  25.7657230  43.1547683  66.6376752  25.0309989  42.8420920
  66.6642894  26.5431906  42.9087651  61.8974119  16.4276896  45.5154294
  62.4717870  16.2052078  44.7827487  62.4845101  16.4965591  46.2682896
  70.9553696  22.3150623  46.3218671  71.4685577  22.9480615  46.8240381
  71.6054920  21.7151819  45.9562031  62.2243706  18.4581357  39.5350180
  61.3881018  18.7956044  39.8559454  62.0848475  18.3230337  38.5977317
  64.1996786  13.3018145  44.2429364  63.5461199  12.9867162  43.6185979
  64.1577260  12.6793886  44.9689187  65.3107991  23.5837440  36.1582656
  64.4035053  23.3526694  36.3573805  65.8079023  22.7875059  36.3456638
  67.4334527  19.7900079  48.5677012  66.5157088  20.0115026  48.4098700
  67.8494670  19.8646389  47.7088719  68.2169574  21.1891494  43.6979692
  68.9641393  21.7012891  43.3886814  68.4861164  20.8675547  44.5584085
  66.4896225  23.6850035  40.6806646  65.5807444  23.4009068  40.7779116
  66.5191308  24.1049114  39.8209953  70.6648412  18.2248611  45.6798481
  69.9271168  17.7125997  46.0108724  70.9175185  17.7848992  44.8681758
  70.7660039  11.0024863  46.2740250  71.0718916  10.1422226  45.9866165
  71.4912644  11.5942483  46.0739244  57.0584395  21.4055549  44.6621848
  56.8608795  20.8124910  43.9372915  56.5031059  21.1007759  45.3797787
  65.0381119  21.2978656  46.7816441  65.0929728  20.3452492  46.7058918
  64.2272321  21.4538095  47.2657740  66.1872312  25.2258779  38.0194725
  65.7491742  24.5094638  37.5600362  66.9282753  25.4534893  37.4579816
  62.9773478  19.9155715  44.5406820  62.1641344  20.2149886  44.9472012
  63.4732473  19.5211404  45.2581303  65.1282056  29.9113472  46.4741085
  65.0858235  30.1374319  45.5449617  66.0444755  29.6776847  46.6226886
  68.5747690  20.3797540  53.3721714  68.9297078  20.6069013  54.2316180
  69.2219821  20.7115917  52.7498969  62.4687553  17.4874071  50.1568055
  63.1086933  17.3462830  49.4591019  61.6365084  17.2008584  49.7806657
  63.2447857  26.7876501  46.2703048  64.0388456  26.2926821  46.0685623
  62.5339550  26.2594364  45.9070753  68.0642702  29.1694597  50.6215415
  68.1179724  29.7385533  51.3893131  67.1957483  29.3396482  50.2569452
  59.5530621  20.9319583  42.3462800  58.6228209  20.8704039  42.5632762
  59.6488093  20.4095536  41.5499442  59.4716170  17.4574396  44.9341042
  59.7322987  18.3719729  44.8250202  60.2933342  16.9898838  45.0837655
  60.9441095  18.8712153  52.1039867  61.6164148  18.6629515  51.4552515
  60.1170882  18.6734239  51.6645099  75.1930356  25.6116203  51.6215200
  75.3866246  26.5162014  51.8674475  75.0930974  25.1523622  52.4553785
  66.8466667  15.4974094  54.1205527  66.1994582  16.1964044  54.0270004
  67.6167682  15.9310238  54.4881776  70.2545465  25.7622946  57.1956081
  70.1030971  25.5333498  56.2786164  70.2450144  26.7193548  57.2087426
  67.0230801  23.3354859  52.1802347  67.9522861  23.4866018  52.0071314
  66.6021831  23.4238880  51.3250994  65.8219133  27.3605523  49.9500885
  65.6830219  26.9924308  50.8226823  65.0333729  27.8753163  49.7784843
  67.3724348  26.7387126  47.3389723  67.0374181  26.6987896  48.2347372
  66.8728294  26.0731842  46.8660133  61.3468592  22.1454756  52.8642304
  61.2088390  21.4134995  53.4653843  62.2573516  22.0563656  52.5826491
  70.3083540  24.0843160  37.6126782  69.6912711  23.3589988  37.5159835
  69.8400028  24.8452521  37.2693856  63.9750893  21.8574715  52.3525983
  64.6850511  21.2167908  52.3112602  63.9320201  22.1087610  53.2752164
  71.9637672  28.7942069  55.2732563  71.9050218  28.1101289  54.6063146
  72.3657190  29.5361059  54.8213189  62.6879827  18.8439933  54.1721623
  62.1517184  18.3930672  54.8243219  62.0996535  18.9785842  53.4292087
  60.9828370  35.6103983  48.0666281  61.2224969  36.2422507  48.7445300
  60.1397567  35.2592023  48.3531641  62.0982086  18.3028585  36.7348086
  61.2211552  18.1817385  36.3710333  62.5739839  17.5114663  36.4826975
  71.9655079  26.7581653  53.5046542  71.0781858  26.4207574  53.6272941
  72.5353630  26.0264684  53.7415308  53.6184226  23.0905744  46.8289594
  54.3055266  22.7767474  46.2410609  53.4632355  23.9947109  46.5556845
  58.4218948  17.9795941  51.2574617  58.3377137  17.3721610  50.5225027
  57.6001655  18.4704959  51.2584114  65.4956232  31.4183105  50.4707785
  65.4226404  32.2238076  50.9827090  65.0533625  31.6175071  49.6455807
  68.5942662  16.4649504  46.6244812  69.0911362  15.7119467  46.3045883
  67.8229644  16.5013821  46.0588022  76.4472419  22.1689870  48.2663104
  76.4362296  23.0514585  47.8957037  75.5789799  21.8161421  48.0717641
  67.9554916  31.3169939  52.6265944  68.6682888  31.9517404  52.5541846
  67.4644944  31.4133805  51.8105946  65.1777631  18.6066887  46.3516497
  64.8075418  18.0537928  47.0397403  65.6736723  18.0025021  45.7991497
  73.0644994  21.0638511  44.7333270  73.5305446  21.8966503  44.6593573
  73.5152495  20.5983493  45.4378528  63.0066829  29.0664382  53.4471515
  63.7076289  29.7000865  53.6000909  62.5361944  29.4079114  52.6867154
  71.0361657  13.4319098  48.7724171  70.1224737  13.6623325  48.9406378
  71.4654758  13.5157542  49.6238204  70.8068115  21.6208990  51.2724065
  70.1539566  21.8684897  50.6176518  71.1848495  20.8073128  50.9386543
  66.8555688  22.3628801  57.7590102  66.1796325  22.2622930  58.4292478
  67.6783322  22.2068015  58.2226100  58.6034547  28.6000737  50.3802618
  59.1887984  27.8544425  50.5130522  58.4059386  28.9104694  51.2639282
  61.4573203  31.6351985  45.3965060  60.7883578  32.1198113  44.9129100
  61.3186072  31.8821205  46.3108439  53.1952202  21.1706338  49.1007061
  53.2336302  20.6369928  49.8944179  52.6892495  20.6441543  48.4818038
  65.5978471  33.6695728  51.9947718  66.1496779  33.8327350  52.7596804
  65.9384665  34.2600166  51.3227743  60.5742964  16.0170878  52.5969603
  60.6384291  16.8785709  52.1847001  60.5110085  15.4044880  51.8641962
  60.0495237  18.0894011  56.2442637  60.6767276  17.7071088  56.8580162
  59.1923156  17.8708213  56.6098330  70.4489346  28.4956986  57.8496373
  70.9929249  29.1086944  57.3551328  69.8676190  29.0536564  58.3663386
  56.8260780  19.8970440  42.1760992  57.1214221  18.9881118  42.1228046
  55.9248815  19.8758179  41.8541995  68.7346858  31.6177704  48.9811401
  68.6097998  30.8167444  48.4722346  69.3925950  32.1123897  48.4925370
  60.3555027  17.9726436  48.1588541  59.6341612  18.5862404  48.0196014
  61.1448282  18.5084201  48.0805187  70.7981767  29.4186724  50.6090951
  69.8512102  29.2992075  50.5369277  71.1464540  28.5309222  50.6917212
  63.1581340  15.3080863  54.4329193  63.6815742  15.5543159  55.1955502
  62.9393673  16.1400898  54.0132330  58.5548621  17.5784538  42.3000317
  58.2261327  16.6981916  42.1175423  58.9087992  17.5232206  43.1876707
  61.6690444  17.8657507  42.6675795  62.0086517  18.3943429  41.9454403
  62.1162565  18.2037913  43.4434362  64.3633885  16.2494558  52.1178863
  64.0230706  15.4502371  52.5199543  63.6572892  16.5496269  51.5455696
  65.0150357  13.3343870  50.5706186  65.8376426  12.8604349  50.4485076
  65.2588421  14.1134354  51.0704872  63.6558592  16.3632129  40.8669088
  64.3766954  16.7413382  40.3632805  63.0323896  17.0821006  40.9704066
  67.7989714  17.0677278  41.8027420  68.0153329  17.9501916  41.5016248
  67.3183782  16.6763491  41.0733062  62.5388936  20.0262991  48.3798165
  62.3933517  20.3403294  49.2722446  62.0614139  20.6447891  47.8269063
  64.3985319  17.0165539  48.4279054  64.3846887  16.1206632  48.0911352
  65.1157747  17.0236203  49.0617340  66.2511449  17.4502879  50.4732182
  65.9929227  18.3719950  50.4716512  65.7196490  17.0533314  51.1632646
  57.0134598  22.5668335  51.3185826  56.4688066  23.3428143  51.4506100
  57.8913948  22.9139140  51.1604947  63.8022215  15.8979919  43.6966624
  63.9238126  14.9696566  43.8957512  63.5124257  15.9118605  42.7844940
  66.6713405  13.5834830  46.8333344  66.6935102  13.6474163  45.8785324
  67.0881464  12.7439338  47.0273850  57.8000620  21.6938232  54.2115983
  57.0582356  21.8420867  54.7980613  57.4793364  21.9546497  53.3482732
  65.7444283  31.2354210  54.0096373  66.0531409  30.9903357  54.8819072
  66.5419765  31.4400848  53.5215243  65.7664895  33.3892120  46.2401749
  65.3269885  32.8968498  46.9334606  66.5173012  32.8465087  45.9993825
  58.2457234  29.5803660  46.2426377  59.0715253  29.2807432  45.8625021
  57.8951286  28.8111283  46.6916166  63.2138767  28.9330129  48.3124051
  62.5918776  28.2700834  48.0126279  63.8843634  28.9591261  47.6297699
  56.4465839  27.4989987  47.2015311  55.6097747  27.0712161  47.0199312
  56.4189484  27.6922430  48.1386102  63.2863294  17.4111917  57.9056557
  63.3351450  18.2874040  57.5234327  63.8285808  16.8689310  57.3328200
  73.7718140  27.9553040  57.1857694  72.9813684  27.9377179  56.6462193
  73.5351494  28.4941334  57.9406731  73.8916015  24.8045506  54.4990423
  73.9414020  24.6395514  55.4405945  73.7829938  23.9372765  54.1088303
  62.7752274  27.4834052  41.7882512  62.9240394  28.1669516  41.1349184
  63.5818717  27.4639142  42.3031967  71.1819777  20.7876434  55.8149729
  72.0829640  20.6482899  55.5233727  71.2567752  20.9530889  56.7547907
  65.5162583  18.1643289  54.6602916  64.6465892  18.4576855  54.3885504
  65.7522063  18.7483734  55.3810179  75.3934212  27.2242448  54.7432444
  75.1019020  27.5872428  55.5795905  74.7806343  26.5109456  54.5645776
  73.6421400  22.3475063  53.2112502  74.1175522  22.5402709  52.4031354
  72.7186965  22.4034248  52.9655886  60.5304907  23.5099230  42.7943580
  60.2850949  22.6061560  42.9923791  60.7000821  23.5116380  41.8523058
  68.2201616  14.3822906  52.1768336  68.7383560  15.1183933  51.8514825
  67.8656749  14.6886899  53.0115095  59.8000554  19.2427587  40.2929742
  59.1069799  19.3171942  39.6369778  59.5552306  18.4787931  40.8151259
  68.4714211  10.8023189  47.6969233  68.7515964  10.1346378  48.3229659
  69.2564818  10.9952284  47.1843896  66.2747679  29.9782182  39.2594259
  65.7021646  30.5972370  38.8064731  66.8480473  30.5281544  39.7934181
  72.3423069  19.2240823  51.4440808  73.2940492  19.3238920  51.4653032
  72.1726519  18.4319091  51.9538892  70.3637448  16.3096406  51.6300209
  69.7687381  16.5901419  50.9346697  70.0787145  16.7990307  52.4016950
  74.8211147  22.4446942  50.5583107  74.7887467  21.5062943  50.7442791
  75.4311770  22.5230979  49.8248932  66.6594478  21.3142995  36.6010311
  67.6053582  21.1849203  36.6698729  66.2808723  20.5757657  37.0779740
  74.9705635  19.2357986  50.6041391  74.4544684  18.4516442  50.4171319
  75.8545584  18.9076702  50.7687910  72.6316362  12.9799001  46.5637203
  72.4341183  12.6714089  47.4480535  73.2416068  13.7060640  46.6935133
  78.7202994  21.6470812  50.2963595  77.9936157  21.5126777  49.6880087
  78.3050281  21.9547640  51.1020313  66.5433170  25.3660741  58.0610968
  67.4636180  25.5439340  58.2551015  66.5082753  24.4216787  57.9090668
  64.8437395  19.2392972  36.5365197  63.9368850  18.9426084  36.6127910
  65.1213376  18.9422790  35.6699483  55.7615335  20.5599335  46.9864243
  55.4418120  19.7064643  46.6938617  55.2148763  20.7747913  47.7422210
  59.5395243  23.2761776  50.7033750  59.7581253  24.2078884  50.7221783
  59.9521017  22.9169750  51.4888553  66.4599461  13.7829861  42.6909438
  65.6500189  13.4376946  43.0664684  67.1483877  13.4737405  43.2797050
  68.3890009  12.8607908  44.3133735  68.9421047  13.2803362  44.9723758
  68.6260095  11.9343656  44.3556691  64.4123108  18.8494982  60.0936498
  64.3119835  19.7989339  60.0248590  64.1944650  18.5213221  59.2212569
  63.6136179  16.0979907  36.6777176  64.4755343  16.4234805  36.9372993
  63.7986524  15.3111403  36.1650242  55.6303595  24.1802247  48.9557365
  54.9367067  23.7656199  48.4427319  56.3776586  24.2222783  48.3590784
  71.7668816  14.9708433  43.8212399  71.1867485  15.6293237  43.4390451
  71.5004749  14.1485778  43.4099816  70.2172382  14.3713491  46.0233719
  70.7172161  14.4830026  45.2148038  70.8607990  14.0674544  46.6634528
  64.2754378  22.2792121  58.9101560  63.7921460  23.0792481  59.1165449
  64.3615317  22.2900066  57.9569004  57.5440338  24.1120500  46.8323380
  57.5211026  24.2108188  45.8805263  57.8540974  24.9585651  47.1540546
  60.2027716  26.1696655  50.9469994  61.1570969  26.1380598  50.8799925
  60.0040239  25.7087279  51.7620220  60.7927098  24.7397771  53.5140792
  61.6119987  25.2341850  53.5375629  61.0663905  23.8229740  53.4858359
  70.5493694  17.1308524  42.8768747  69.6619549  17.4158174  42.6588942
  70.9647683  16.9702287  42.0296024  73.9008230  17.1555045  46.5923086
  74.6768620  17.6451497  46.8647703  73.1756364  17.5813099  47.0494956
  76.3380789  17.8682664  47.6497027  76.9325279  17.6278400  46.9390335
  76.4107372  17.1489794  48.2770563  58.5577944  31.7116275  47.9640192
  58.4232412  30.9516676  47.3978190  58.1410007  32.4357175  47.4968981
  69.6936907  26.8953198  36.9716767  70.3972758  27.1003201  37.5874423
  68.9699556  27.4629960  37.2365851  70.5234718  22.6463060  43.0919037
  70.4669919  23.1031611  42.2526670  71.0763060  21.8853744  42.9141880
  74.3339524  18.4352792  43.9169157  74.0776458  18.0349427  44.7477364
  73.7092392  19.1496585  43.7919296  78.6451861  21.1748865  46.4240448
  78.0851419  21.2442054  47.1972010  78.0395365  20.9989849  45.7039944
  61.7147070  32.6085592  48.1758634  61.5979454  33.5531024  48.0737325
  60.8939517  32.3059153  48.5644434  71.2569497  23.8367841  40.3871566
  71.2018301  23.6712112  39.4460011  70.6315552  24.5443874  40.5433756
  56.0462012  19.0735905  54.2132989  56.6920876  18.5634859  54.7020214
  55.8379163  19.8104587  54.7876414  68.5715404  26.1416753  59.7125129
  69.4406564  26.3157405  59.3511764  68.0922156  26.9611170  59.5900859
  64.5665622  13.3375950  39.9656885  64.5544292  14.2817790  40.1225156
  65.4589044  13.1546095  39.6716346  62.7401584  33.2613854  51.3914563
  63.6428831  33.2937464  51.7081058  62.5138954  32.3314305  51.4060899
  64.4955186  32.0144840  48.0524641  63.5450817  32.0146702  47.9389014
  64.7987673  31.2677575  47.5360676  68.3817742   9.9318727  44.2202822
  67.6150138   9.3777213  44.3659504  68.7928447  10.0040595  45.0816973
  60.3859503  16.2203522  58.3108003  61.2490965  15.8640327  58.5211327
  59.8124914  15.8817417  58.9983407  73.6660261  35.3263473  56.9412723
  73.0358922  36.0079754  57.1748120  73.5596349  35.2146555  55.9965862
  68.9605233  34.9935269  47.8678648  68.1704287  35.2492798  47.3918758
  69.4516481  35.8083607  47.9730688  67.2442936  35.2465760  50.2993638
  67.4950975  36.1312770  50.5651214  67.7802485  35.0670361  49.5268730
  72.9441004  29.6284239  59.3037974  72.5507949  29.0750438  59.9785619
  73.7607144  29.9394817  59.6944492  75.8608965  31.0442118  56.8958231
  76.6018678  31.6449271  56.8162693  76.0926888  30.3019756  56.3376274
  71.0050303  36.2298485  55.1736461  70.8903818  35.3283743  55.4743560
  70.1494820  36.4762182  54.8221277  78.0842140  44.1716226  56.7723961
  77.6405995  43.3852604  56.4544866  78.7459354  44.3595376  56.1067852
  76.6396433  41.9663155  55.6428871  77.1724769  41.2051443  55.4128179
  76.1110514  41.6736807  56.3853025  71.7834849  34.2004071  52.1039867
  72.4557903  33.9921433  51.4552515  70.9564636  34.0026157  51.6645099
  72.1862347  37.4746674  52.8642304  72.0482145  36.7426913  53.4653843
  73.0967270  37.3855574  52.5826491  73.5273581  34.1731851  54.1721623
  72.9910938  33.7222589  54.8243219  72.9390290  34.3077760  53.4292087
  69.2612703  33.3087859  51.2574617  69.1770891  32.7013528  50.5225027
  68.4395409  33.7996877  51.2584114  64.0345957  36.4998255  49.1007061
  64.0730056  35.9661846  49.8944179  63.5286249  35.9733461  48.4818038
  71.4136719  31.3462796  52.5969603  71.4778045  32.2077627  52.1847001
  71.3503839  30.7336798  51.8641962  70.8888991  33.4185928  56.2442637
  71.5161030  33.0363006  56.8580162  70.0316910  33.2000130  56.6098330
  71.1948781  33.3018354  48.1588541  70.4735367  33.9154322  48.0196014
  71.9842037  33.8376119  48.0805187  73.9975095  30.6372781  54.4329193
  74.5209497  30.8835077  55.1955502  73.7787428  31.4692815  54.0132330
  75.2027640  31.5786476  52.1178863  74.8624460  30.7794289  52.5199543
  74.4966646  31.8788187  51.5455696  75.8544112  28.6635788  50.5706186
  76.6770181  28.1896266  50.4485076  76.0982175  29.4426272  51.0704872
  67.8528352  37.8960253  51.3185826  67.3081821  38.6720061  51.4506100
  68.7307702  38.2431058  51.1604947  68.6394374  37.0230149  54.2115983
  67.8976110  37.1712785  54.7980613  68.3187119  37.2838415  53.3482732
  74.1257049  32.7403834  57.9056557  74.1745204  33.6165957  57.5234327
  74.6679563  32.1981227  57.3328200  75.2516863  34.1786899  60.0936498
  75.1513589  35.1281256  60.0248590  75.0338405  33.8505138  59.2212569
  75.1148133  37.6084038  58.9101560  74.6315214  38.4084398  59.1165449
  75.2009072  37.6191983  57.9569004  71.6320852  40.0689689  53.5140792
  72.4513741  40.5633768  53.5375629  71.9057660  39.1521657  53.4858359
  66.8855766  34.4027823  54.2132989  67.5314630  33.8926777  54.7020214
  66.6772918  35.1396505  54.7876414  79.4109159  41.4708670  59.7125129
  80.2800318  41.6449323  59.3511764  78.9315910  42.2903087  59.5900859
  71.2253257  31.5495440  58.3108003  72.0884719  31.1932245  58.5211327
  70.6518668  31.2109335  58.9983407  91.0701634  53.1797296  49.1170404
  91.7080044  53.0604044  48.4133744  90.9522477  54.1278140  49.1758356
  87.8791341  53.1324724  49.0531929  87.5409852  53.0165789  48.1652463
  88.7481109  52.7315890  49.0332935  83.7378156  54.9860201  45.0428820
  83.1743021  54.8950138  44.2745107  83.6230551  54.1660105  45.5231312
  88.3611124  54.2859576  55.0118134  88.3499764  53.8912374  54.1398638
  88.5231763  53.5525649  55.6051906  81.2842588  56.4811392  47.8813040
  82.0763880  56.1402217  47.4659339  81.5239238  56.5906368  48.8015193
  89.3177715  58.6531169  40.3543284  88.6665695  59.2385249  39.9677298
  90.1122078  59.1837363  40.4138322  85.0818385  57.0696688  53.9597318
  84.7908251  57.9742319  53.8443984  85.7175369  57.1113216  54.6741388
  86.0074592  54.4473537  50.5498678  86.6038164  54.2229559  49.8355641
  86.0649563  53.7058282  51.1524126  90.6242903  50.9048750  46.1923612
  91.4105992  50.4868173  45.8414029  90.8881607  51.8094842  46.3605260
  90.7952980  56.3421601  40.8912269  90.1598813  56.4156227  41.6033173
  90.4650387  56.9315199  40.2131348  96.0251330  50.8423983  47.0956590
  96.7576502  50.2723200  47.3294420  95.2690686  50.4545584  47.5363096
  87.6427450  53.2651225  44.2919933  87.2785657  52.7381846  45.0032854
  88.4994566  52.8749694  44.1186418  93.5476750  44.5545558  51.5551199
  93.2160075  45.4240968  51.3312414  92.9522364  44.2381842  52.2345229
  90.0408270  56.7558104  50.9547112  89.7408993  57.6583142  50.8462919
  89.6959329  56.4890287  51.8068265  83.4920751  53.2071900  46.9883816
  82.5671248  53.0748114  47.1961508  83.7405165  53.9866120  47.4853759
  93.4405414  49.2740644  48.6344549  92.5322291  49.2056052  48.3403310
  93.3893009  49.7512589  49.4626375  80.8529562  52.8505174  47.8227605
  80.9821944  53.1039653  48.7367017  80.1727014  53.4432882  47.5032260
  85.0229050  63.5202424  43.9218079  84.9453079  64.4710249  44.0006560
  84.4190693  63.1748296  44.5793006  87.5146279  50.6930289  56.5779446
  86.7379613  51.2524209  56.5682311  88.1536842  51.1787072  57.0994316
  95.3067060  47.4757082  50.4122423  94.6641440  47.7689615  49.7662218
  94.8021989  47.3610002  51.2175620  92.9607224  51.2220255  41.1008282
  93.8725080  51.4547642  40.9255980  92.4516871  51.8057299  40.5383361
  85.7692652  53.5015743  56.1397413  86.5107336  54.0400787  55.8632237
  85.0629637  54.1282031  56.2968965  91.2447991  55.6444883  54.7369575
  91.6531347  55.2027294  53.9924207  90.5225253  55.0697511  54.9903768
  87.5979061  50.5817490  52.1103132  88.4440257  51.0056903  52.2537781
  87.5377699  49.9251114  52.8041695  91.5676806  56.2046074  48.4921864
  90.9385668  56.3691788  47.7897932  91.1802468  56.6187683  49.2632828
  95.4466038  57.1400512  45.8466227  94.7617076  57.5199413  45.2963261
  95.5309887  57.7495838  46.5798175  90.7478507  48.2421858  53.7684305
  90.5039439  48.9963919  53.2318581  91.0238437  48.6207206  54.6031553
  92.7016970  54.7860471  52.4461571  92.9133865  55.4292231  51.7695952
  92.6546718  53.9522787  51.9783501  90.3043198  47.3978291  49.3498143
  89.4427678  47.6959545  49.6414881  90.3305633  47.6148690  48.4179176
  87.1204768  55.9420482  45.7571949  87.5843113  56.2208185  44.9676571
  86.8561566  55.0403926  45.5745040  84.0128849  55.4891963  48.6951712
  84.5830206  55.9179232  48.0569197  84.6036961  55.2074548  49.3935898
  86.0573654  52.0643634  42.5661514  86.7597697  52.5164678  43.0335440
  85.7254282  51.4227453  43.1941407  84.5054015  50.6555391  56.9412723
  83.8752676  51.3371672  57.1748120  84.3990103  50.5438472  55.9965862
  79.7998988  50.3227187  47.8678648  79.0098042  50.5784715  47.3918758
  80.2910235  51.1375525  47.9730688  93.8162797  57.6632426  50.6183928
  94.6380241  57.2612613  50.3366610  93.8125200  57.5600660  51.5700044
  87.5819401  57.2116469  52.7744639  87.6463833  57.6736877  53.6102811
  86.8730325  56.5813834  52.9026949  78.0836691  50.5757677  50.2993638
  78.3344729  51.4604687  50.5651214  78.6196239  50.3962279  49.5268730
 101.9068791  54.0071175  46.9668900 101.1532499  53.4378573  46.8112904
 102.0416332  53.9733839  47.9139535  87.2967419  58.8784577  42.6423619
  87.1613093  59.7236113  43.0708467  87.8377231  59.0803854  41.8789553
  83.7834758  44.9576157  59.3037974  83.3901704  44.4042355  59.9785619
  84.6000899  45.2686735  59.6944492  86.7002719  46.3734036  56.8958231
  87.4412433  46.9741189  56.8162693  86.9320642  45.6311674  56.3376274
  81.8444057  51.5590403  55.1736461  81.7297572  50.6575660  55.4743560
  80.9888575  51.8054100  54.8221277  88.9235895  59.5008143  56.7723961
  88.4799749  58.7144522  56.4544866  89.5853109  59.6887294  56.1067852
  83.6823016  61.0303945  51.2984640  84.2330441  60.9021008  50.5261634
  82.8434492  61.3298834  50.9479533  91.0217133  59.7810943  54.8005363
  91.0035608  60.6019824  54.3085632  91.9437053  59.6565018  55.0255504
  87.4790187  57.2955073  55.6428871  88.0118524  56.5343361  55.4128179
  86.9504268  57.0028725  56.3853025  90.6110165  52.3923750  39.6794948
  90.0956788  53.1628354  39.9183335  90.3387473  51.7188886  40.3028009
  95.5844439  55.1456104  41.6148121  94.8073882  54.8067264  41.1703283
  96.2635920  55.1508728  40.9403086  90.3996468  50.2650842  41.5054729
  90.0946604  50.5796991  42.3564872  91.3526910  50.3432262  41.5482062
  88.8442900  56.4241065  43.1547683  88.3164261  55.6893825  42.8420920
  88.3430403  57.2015742  42.9087651  93.8235746  54.6190086  48.2714729
  93.1659420  55.3089347  48.3594858  94.6276145  55.0086518  48.6148716
  92.6341205  52.9734458  46.3218671  93.1473086  53.6064450  46.8240381
  93.2842429  52.3735654  45.9562031  89.8963579  62.9518783  39.0779342
  89.2225278  63.2550479  39.6864300  90.2829401  63.7547863  38.7284799
  89.1122036  50.4483914  48.5677012  88.1944597  50.6698861  48.4098700
  89.5282179  50.5230224  47.7088719  89.8957083  51.8475330  43.6979692
  90.6428902  52.3596727  43.3886814  90.1648673  51.5259382  44.5584085
  88.1683734  54.3433870  40.6806646  87.2594953  54.0592903  40.7779116
  88.1978817  54.7632949  39.8209953  93.4003001  57.9540460  44.4497814
  92.9465328  57.1131370  44.5063004  92.7696968  58.5901858  44.7872594
  92.3435920  48.8832446  45.6798481  91.6058677  48.3709832  46.0108724
  92.5962694  48.4432827  44.8681758  91.8435940  59.7916957  45.3847632
  92.1358915  60.3522014  44.6659997  92.3534561  60.0845518  46.1400791
  78.7371904  52.0639384  44.6621848  78.5396304  51.4708745  43.9372915
  78.1818568  51.7591595  45.3797787  86.7168628  51.9562491  46.7816441
  86.7717237  51.0036327  46.7058918  85.9059830  52.1121930  47.2657740
  87.8659821  55.8842614  38.0194725  87.4279251  55.1678473  37.5600362
  88.6070262  56.1118729  37.4579816  84.6560987  50.5739551  44.5406820
  83.8428853  50.8733721  44.9472012  85.1519982  50.1795239  45.2581303
  86.8069565  60.5697308  46.4741085  86.7645744  60.7958154  45.5449617
  87.7232264  60.3360682  46.6226886  90.2535199  51.0381375  53.3721714
  90.6084587  51.2652848  54.2316180  90.9007330  51.3699752  52.7498969
  95.9832936  54.1599811  44.0771043  95.8450835  54.3501407  43.1492232
  95.6269155  54.9219194  44.5339094  96.0102316  56.2276338  49.0882315
  96.4438822  56.1351627  49.9365369  96.7233896  56.2033839  48.4502331
  84.9235366  57.4460337  46.2703048  85.7175965  56.9510657  46.0685623
  84.2127059  56.9178200  45.9070753  89.7430211  59.8278432  50.6215415
  89.7967233  60.3969368  51.3893131  88.8744992  59.9980317  50.2569452
  82.6228604  49.5295988  52.1039867  83.2951657  49.3213351  51.4552515
  81.7958391  49.3318074  51.6645099  91.9332974  56.4206781  57.1956081
  91.7818480  56.1917333  56.2786164  91.9237653  57.3777383  57.2087426
  88.7018310  53.9938694  52.1802347  89.6310370  54.1449854  52.0071314
  88.2809340  54.0822715  51.3250994  87.5006642  58.0189359  49.9500885
  87.3617728  57.6508143  50.8226823  86.7121238  58.5336998  49.7784843
  88.0954794  63.1198455  41.2926421  88.2706550  62.6486498  42.1072044
  87.4087582  63.7464221  41.5207682  89.0511857  57.3970961  47.3389723
  88.7161690  57.3571731  48.2347372  88.5515803  56.7315677  46.8660133
  83.0256101  52.8038591  52.8642304  82.8875899  52.0718830  53.4653843
  83.9361025  52.7147491  52.5826491  91.9871049  54.7426996  37.6126782
  91.3700220  54.0173824  37.5159835  91.5187537  55.5036356  37.2693856
  85.6538402  52.5158551  52.3525983  86.3638020  51.8751743  52.3112602
  85.6107710  52.7671446  53.2752164  93.6425181  59.4525904  55.2732563
  93.5837727  58.7685124  54.6063146  94.0444699  60.1944894  54.8213189
  82.6615879  66.2687818  48.0666281  82.9012478  66.9006342  48.7445300
  81.8185076  65.9175858  48.3531641  93.6442588  57.4165488  53.5046542
  92.7569367  57.0791410  53.6272941  94.2141139  56.6848519  53.7415308
  80.1006457  48.6379776  51.2574617  80.0164646  48.0305446  50.5225027
  79.2789164  49.1288795  51.2584114  87.1743741  62.0766940  50.4707785
  87.1013913  62.8821912  50.9827090  86.7321134  62.2758906  49.6455807
  86.9633521  61.3138710  43.9810607  86.1801043  61.8560391  44.0748832
  87.6626266  61.8312690  44.3804848  98.1259928  52.8273705  48.2663104
  98.1149805  53.7098421  47.8957037  97.2577308  52.4745256  48.0717641
  89.6342425  61.9753774  52.6265944  90.3470397  62.6101239  52.5541846
  89.1432453  62.0717640  51.8105946  91.3559952  55.8805027  44.1983236
  90.4216230  56.0006489  44.0287940  91.5336620  54.9777494  43.9343246
  86.8565140  49.2650723  46.3516497  86.4862927  48.7121763  47.0397403
  87.3524232  48.6608856  45.7991497  94.7432503  51.7222346  44.7333270
  95.2092955  52.5550338  44.6593573  95.1940004  51.2567328  45.4378528
  84.6854338  59.7248218  53.4471515  85.3863798  60.3584701  53.6000909
  84.2149453  60.0662949  52.6867154  92.8108734  58.0666168  41.7319422
  93.0868578  57.9522762  42.6413296  91.9413233  57.6683652  41.6931595
  92.4855624  52.2792825  51.2724065  91.8327074  52.5268733  50.6176518
  92.8636004  51.4656963  50.9386543  89.4462798  62.3152518  45.3752236
  89.6285193  61.4974174  45.8379988  90.2695784  62.5320211  44.9377126
  89.7804964  61.2420704  42.6367284  90.3092730  60.7313158  42.0237446
  90.0433183  60.9263234  43.5012817  88.5343197  53.0212636  57.7590102
  87.8583834  52.9206766  58.4292478  89.3570831  52.8651850  58.2226100
  83.1360712  62.2935820  45.3965060  82.4671087  62.7781948  44.9129100
  82.9973581  62.5405041  46.3108439  87.2765980  64.3279564  51.9947718
  87.8284288  64.4911185  52.7596804  87.6172174  64.9184002  51.3227743
  81.7282746  48.7477846  56.2442637  82.3554785  48.3654923  56.8580162
  80.8710665  48.5292048  56.6098330  92.1276854  59.1540821  57.8496373
  92.6716758  59.7670780  57.3551328  91.5463699  59.7120400  58.3663386
  90.4134367  62.2761539  48.9811401  90.2885507  61.4751279  48.4722346
  91.0713459  62.7707733  48.4925370  82.0342536  48.6310272  48.1588541
  81.3129121  49.2446239  48.0196014  82.8235791  49.1668037  48.0805187
  92.4769276  60.0770559  50.6090951  91.5299611  59.9575911  50.5369277
  92.8252049  59.1893057  50.6917212  89.4815709  59.8723276  46.8095303
  89.3340672  58.9439983  46.9902873  90.3069203  59.8943366  46.3252378
  93.0849831  60.6951834  47.8960176  94.0096378  60.4894696  47.7584627
  92.9165134  60.4468235  48.8049517  84.2176445  50.6846826  48.3798165
  84.0721026  50.9987130  49.2722446  83.7401648  51.3031727  47.8269063
  86.0772828  47.6749374  48.4279054  86.0634396  46.7790468  48.0911352
  86.7945256  47.6820038  49.0617340  87.9298958  48.1086715  50.4732182
  87.6716736  49.0303785  50.4716512  87.3983999  47.7117149  51.1632646
  92.8745147  61.2137502  43.2522267  93.0482025  60.6483924  42.4996120
  93.3674038  62.0138397  43.0701757  98.7284538  53.9773925  44.8712567
  99.1715684  53.2281250  44.4731690  97.8511049  53.9684061  44.4886299
  93.8620320  60.5304266  40.3519165  94.5571224  61.1510959  40.5706480
  94.2043470  59.6799617  40.6271543  95.7611743  57.9803972  41.8806496
  96.2863067  58.3191244  41.1555816  95.6734095  57.0450987  41.6969631
  87.4231791  61.8938045  54.0096373  87.7318918  61.6487192  54.8819072
  88.2207274  62.0984684  53.5215243  87.4452404  64.0475955  46.2401749
  87.0057394  63.5552334  46.9334606  88.1960520  63.5048923  45.9993825
  84.8926276  59.5913964  48.3124051  84.2706285  58.9284669  48.0126279
  85.5631143  59.6175096  47.6297699  84.9650803  48.0695752  57.9056557
  85.0138959  48.9457875  57.5234327  85.5073317  47.5273145  57.3328200
  95.5703524  55.4629342  54.4990423  95.6201529  55.2979349  55.4405945
  95.4617447  54.5956601  54.1088303  92.8607286  51.4460270  55.8149729
  93.7617149  51.3066735  55.5233727  92.9355261  51.6114725  56.7547907
  98.2717403  55.4479163  47.2635014  99.1064294  55.8868967  47.4272575
  98.4076532  54.9717816  46.4443260  95.3208909  53.0058898  53.2112502
  95.7963031  53.1986544  52.4031354  94.3974474  53.0618084  52.9655886
  87.9535188  60.6366018  39.2594259  87.3809155  61.2556205  38.8064731
  88.5267982  61.1865380  39.7934181  94.0210578  49.8824658  51.4440808
  94.9728001  49.9822756  51.4653032  93.8514028  49.0902926  51.9538892
  92.0424957  46.9680241  51.6300209  91.4474890  47.2485254  50.9346697
  91.7574654  47.4574142  52.4016950  91.1732448  60.9203168  40.3902841
  92.1063121  60.8548730  40.5935717  91.0855661  61.7559435  39.9317374
  93.8020465  60.2369038  37.3506789  93.7234096  59.9028902  38.2442547
  94.6230131  60.7290806  37.3498261  96.4998656  53.1030778  50.5583107
  96.4674976  52.1646778  50.7442791  97.1099279  53.1814814  49.8248932
  88.3381987  51.9726831  36.6010311  89.2841091  51.8433039  36.6698729
  87.9596232  51.2341493  37.0779740  96.6493144  49.8941821  50.6041391
  96.1332193  49.1100278  50.4171319  97.5333093  49.5660538  50.7687910
 102.3175206  54.1646784  49.6989144 103.0478594  53.9032073  50.2596847
 101.7082151  53.4275506  49.7391212 100.3990503  52.3054647  50.2963595
  99.6723666  52.1710612  49.6880087  99.9837790  52.6131476  51.1020313
  88.2220679  56.0244577  58.0610968  89.1423689  56.2023176  58.2551015
  88.1870262  55.0800622  57.9090668  81.2182752  53.9345611  50.7033750
  81.4368761  54.8662719  50.7221783  81.6308526  53.5753586  51.4888553
  86.0910617  49.5078817  60.0936498  85.9907344  50.4573174  60.0248590
  85.8732159  49.1797056  59.2212569  85.9541887  52.9375956  58.9101560
  85.4708969  53.7376316  59.1165449  86.0402826  52.9483901  57.9569004
  95.5795739  47.8138880  46.5923086  96.3556129  48.3035332  46.8647703
  94.8543873  48.2396934  47.0494956  98.0168298  48.5266499  47.6497027
  98.6112788  48.2862235  46.9390335  98.0894881  47.8073630  48.2770563
  80.2365453  62.3700110  47.9640192  80.1019921  61.6100511  47.3978190
  79.8197516  63.0941010  47.4968981  91.3724416  57.5537034  36.9716767
  92.0760266  57.7587036  37.5874423  90.6487065  58.1213796  37.2365851
  92.2022227  53.3046895  43.0919037  92.1457428  53.7615446  42.2526670
  92.7550569  52.5437580  42.9141880  96.0127033  49.0936627  43.9169157
  95.7563967  48.6933263  44.7477364  95.3879901  49.8080421  43.7919296
 100.3239370  51.8332700  46.4240448  99.7638928  51.9025889  47.1972010
  99.7182874  51.6573685  45.7039944  83.3934579  63.2669427  48.1758634
  83.2766963  64.2114860  48.0737325  82.5727025  62.9642989  48.5644434
  93.2811114  57.9919563  39.0215227  94.1156718  57.5600761  38.8392702
  93.1195457  57.8201577  39.9492122  92.9357006  54.4951676  40.3871566
  92.8805810  54.3295948  39.4460011  92.3103061  55.2027709  40.5433756
  90.2502913  56.8000588  59.7125129  91.1194073  56.9741240  59.3511764
  89.7709665  57.6195005  59.5900859  84.4189093  63.9197689  51.3914563
  85.3216340  63.9521299  51.7081058  84.1926463  62.9898140  51.4060899
  86.1742695  62.6728676  48.0524641  85.2238326  62.6730537  47.9389014
  86.4775182  61.9261410  47.5360676  82.0647012  46.8787358  58.3108003
  82.9278473  46.5224163  58.5211327  81.4912423  46.5401253  58.9983407
 101.9095389  68.5089214  49.1170404 102.5473799  68.3895961  48.4133744
 101.7916232  69.4570058  49.1758356  98.7185095  68.4616642  49.0531929
  98.3803607  68.3457707  48.1652463  99.5874863  68.0607807  49.0332935
  94.5771911  70.3152119  45.0428820  94.0136776  70.2242055  44.2745107
  94.4624306  69.4952023  45.5231312  99.2004878  69.6151494  55.0118134
  99.1893519  69.2204292  54.1398638  99.3625518  68.8817566  55.6051906
  92.1236343  71.8103310  47.8813040  92.9157635  71.4694135  47.4659339
  92.3632993  71.9198285  48.8015193 100.1571470  73.9823086  40.3543284
  99.5059449  74.5677167  39.9677298 100.9515832  74.5129281  40.4138322
  94.0827097  71.0712223  40.7530419  94.8557973  70.5241210  40.6143295
  94.4352496  71.9356473  40.9644880  95.9212139  72.3988606  53.9597318
  95.6302005  73.3034237  53.8443984  96.5569124  72.4405133  54.6741388
  96.8468346  69.7765454  50.5498678  97.4431918  69.5521477  49.8355641
  96.9043318  69.0350200  51.1524126  96.4193375  67.2304890  38.3848869
  96.6718895  66.7086411  37.6232332  95.4817934  67.0671035  38.4875552
 101.4636657  66.2340668  46.1923612 102.2499747  65.8160091  45.8414029
 101.7275362  67.1386760  46.3605260 101.6346735  71.6713518  40.8912269
 100.9992568  71.7448145  41.6033173 101.3044141  72.2607117  40.2131348
 106.8645084  66.1715901  47.0956590 107.5970256  65.6015118  47.3294420
 106.1084440  65.7837502  47.5363096  96.1389663  69.1332995  40.5873244
  96.0225921  68.4577899  41.2554328  96.2491923  68.6465369  39.7705397
  98.4821204  68.5943143  44.2919933  98.1179411  68.0673764  45.0032854
  99.3388320  68.2041612  44.1186418 104.3870505  59.8837475  51.5551199
 104.0553830  60.7532886  51.3312414 103.7916118  59.5673759  52.2345229
  98.1226691  63.6233042  39.2881281  98.2901094  64.4913279  39.6551752
  97.9323860  63.7860324  38.3642571 100.8802024  72.0850021  50.9547112
 100.5802747  72.9875060  50.8462919 100.5353084  71.8182204  51.8068265
  94.3314506  68.5363818  46.9883816  93.4065002  68.4040032  47.1961508
  94.5798919  69.3158037  47.4853759 104.2799168  64.6032561  48.6344549
 103.3716045  64.5347970  48.3403310 104.2286764  65.0804506  49.4626375
  98.1015912  66.0790700  40.2727948  97.9815537  66.5247751  41.1113429
  97.4068500  66.4276017  39.7141486  91.6923317  68.1797092  47.8227605
  91.8215698  68.4331571  48.7367017  91.0120768  68.7724800  47.5032260
  95.8622804  78.8494342  43.9218079  95.7846834  79.8002167  44.0006560
  95.2584448  78.5040214  44.5793006  98.3540034  66.0222207  56.5779446
  97.5773368  66.5816127  56.5682311  98.9930597  66.5078990  57.0994316
 106.1460815  62.8049000  50.4122423 105.5035195  63.0981533  49.7662218
 105.6415743  62.6901920  51.2175620 103.8000978  66.5512173  41.1008282
 104.7118834  66.7839560  40.9255980 103.2910625  67.1349217  40.5383361
  96.6086406  68.8307660  56.1397413  97.3501091  69.3692704  55.8632237
  95.9023392  69.4573949  56.2968965 102.0841746  70.9736801  54.7369575
 102.4925102  70.5319211  53.9924207 101.3619007  70.3989428  54.9903768
  98.4372816  65.9109408  52.1103132  99.2834011  66.3348821  52.2537781
  98.3771454  65.2543032  52.8041695 102.4070561  71.5337991  48.4921864
 101.7779423  71.6983706  47.7897932 102.0196223  71.9479601  49.2632828
 106.2859792  72.4692429  45.8466227 105.6010831  72.8491331  45.2963261
 106.3703642  73.0787756  46.5798175 101.5872261  63.5713776  53.7684305
 101.3433193  64.3255836  53.2318581 101.8632192  63.9499124  54.6031553
 103.5410724  70.1152388  52.4461571 103.7527619  70.7584148  51.7695952
 103.4940472  69.2814705  51.9783501 101.1436953  62.7270209  49.3498143
 100.2821432  63.0251463  49.6414881 101.1699388  62.9440608  48.4179176
  97.9598522  71.2712400  45.7571949  98.4236868  71.5500102  44.9676571
  97.6955320  70.3695844  45.5745040  94.8522603  70.8183881  48.6951712
  95.4223961  71.2471149  48.0569197  95.4430715  70.5366466  49.3935898
  96.8967408  67.3935552  42.5661514  97.5991452  67.8456596  43.0335440
  96.5648037  66.7519371  43.1941407  95.3447770  65.9847309  56.9412723
  94.7146431  66.6663589  57.1748120  95.2383858  65.8730390  55.9965862
  90.6392742  65.6519105  47.8678648  89.8491796  65.9076633  47.3918758
  91.1303990  66.4667442  47.9730688 104.6556552  72.9924344  50.6183928
 105.4773996  72.5904531  50.3366610 104.6518955  72.8892578  51.5700044
  92.5907488  66.0163684  44.8262124  91.7938651  66.1282378  45.3445620
  92.3633080  66.3550336  43.9603015  98.4213155  72.5408387  52.7744639
  98.4857588  73.0028794  53.6102811  97.7124079  71.9105752  52.9026949
  88.9230445  65.9049595  50.2993638  89.1738484  66.7896605  50.5651214
  89.4589994  65.7254197  49.5268730 112.7462545  69.3363092  46.9668900
 111.9926253  68.7670490  46.8112904 112.8810086  69.3025757  47.9139535
  98.1361173  74.2076494  42.6423619  98.0006848  75.0528030  43.0708467
  98.6770986  74.4095772  41.8789553  94.6228513  60.2868074  59.3037974
  94.2295458  59.7334273  59.9785619  95.4394653  60.5978653  59.6944492
  91.5890570  71.7251933  43.2151544  92.1015091  72.5195183  43.3657109
  92.2413283  71.0278223  43.1485146  93.3985455  74.8417689  45.2974297
  93.5752083  75.7635654  45.1095281  94.1942289  74.5276108  45.7268677
  97.5396474  61.7025953  56.8958231  98.2806187  62.3033107  56.8162693
  97.7714397  60.9603591  56.3376274  92.6837812  66.8882321  55.1736461
  92.5691327  65.9867578  55.4743560  91.8282329  67.1346017  54.8221277
  99.7629649  74.8300061  56.7723961  99.3193504  74.0436440  56.4544866
 100.4246863  75.0179212  56.1067852  94.5216771  76.3595863  51.2984640
  95.0724196  76.2312926  50.5261634  93.6828247  76.6590752  50.9479533
 101.8610888  75.1102861  54.8005363 101.8429363  75.9311742  54.3085632
 102.7830808  74.9856936  55.0255504 101.4853637  57.7307056  51.1722513
 101.1417906  58.6208698  51.0961623 101.8532599  57.5408714  50.3092098
  89.5539487  70.0540587  43.9911115  90.3914709  70.4637595  43.7744823
  89.7317755  69.1140029  43.9611309 101.4503919  67.7215667  39.6794948
 100.9350543  68.4920272  39.9183335 101.1781228  67.0480804  40.3028009
  99.0351030  62.5665368  44.7380186  98.1792627  62.1772219  44.5585825
  99.4477982  62.6457329  43.8779972 100.5650177  60.1011712  49.1371746
 100.0614973  60.0641847  48.3239551 100.8580784  61.0104454  49.1968403
  96.8093063  60.1850441  48.1437928  97.6746060  59.9893250  47.7843817
  96.8770572  59.9560793  49.0707284 106.4238193  70.4748022  41.6148121
 105.6467636  70.1359182  41.1703283 107.1029674  70.4800645  40.9403086
 101.2390223  65.5942760  41.5054729 100.9340358  65.9088909  42.3564872
 102.1920665  65.6724179  41.5482062  99.6836654  71.7532983  43.1547683
  99.1558016  71.0185742  42.8420920  99.1824157  72.5307659  42.9087651
 104.6629500  69.9482003  48.2714729 104.0053175  70.6381265  48.3594858
 105.4669900  70.3378435  48.6148716  94.4155382  62.4152649  45.5154294
  94.9899134  62.1927831  44.7827487  95.0026364  62.4841344  46.2682896
 103.4734959  68.3026376  46.3218671 103.9866841  68.9356368  46.8240381
 104.1236183  67.7027572  45.9562031  94.7424969  64.4457110  39.5350180
  93.9062281  64.7831797  39.8559454  94.6029739  64.3106090  38.5977317
  96.7178050  59.2893898  44.2429364  96.0642462  58.9742915  43.6185979
  96.6758524  58.6669639  44.9689187  97.8289255  69.5713193  36.1582656
  96.9216316  69.3402447  36.3573805  98.3260287  68.7750812  36.3456638
 100.7357333  78.2810700  39.0779342 100.0619032  78.5842397  39.6864300
 101.1223155  79.0839781  38.7284799  99.9515790  65.7775832  48.5677012
  99.0338351  65.9990779  48.4098700 100.3675934  65.8522142  47.7088719
 100.7350838  67.1767247  43.6979692 101.4822657  67.6888645  43.3886814
 101.0042427  66.8551300  44.5584085  99.0077488  69.6725788  40.6806646
  98.0988707  69.3884821  40.7779116  99.0372572  70.0924867  39.8209953
 104.2396755  73.2832378  44.4497814 103.7859083  72.4423287  44.5063004
 103.6090722  73.9193776  44.7872594 103.1829675  64.2124364  45.6798481
 102.4452432  63.7001750  46.0108724 103.4356449  63.7724745  44.8681758
 102.6829695  75.1208874  45.3847632 102.9752669  75.6813931  44.6659997
 103.1928315  75.4137435  46.1400791 103.2841302  56.9900616  46.2740250
 103.5900179  56.1297979  45.9866165 104.0093907  57.5818236  46.0739244
  89.5765658  67.3931302  44.6621848  89.3790058  66.8000663  43.9372915
  89.0212322  67.0883512  45.3797787  97.5562382  67.2854409  46.7816441
  97.6110992  66.3328245  46.7058918  96.7453584  67.4413848  47.2657740
  98.7053576  71.2134532  38.0194725  98.2673006  70.4970391  37.5600362
  99.4464017  71.4410647  37.4579816  95.4954742  65.9031468  44.5406820
  94.6822607  66.2025639  44.9472012  95.9913736  65.5087157  45.2581303
  97.6463320  75.8989225  46.4741085  97.6039499  76.1250072  45.5449617
  98.5626019  75.6652600  46.6226886 101.0928954  66.3673293  53.3721714
 101.4478341  66.5944766  54.2316180 101.7401085  66.6991670  52.7498969
 106.8226691  69.4891729  44.0771043 106.6844589  69.6793325  43.1492232
 106.4662909  70.2511112  44.5339094  94.9868817  63.4749824  50.1568055
  95.6268196  63.3338583  49.4591019  94.1546347  63.1884337  49.7806657
 106.8496070  71.5568256  49.0882315 107.2832577  71.4643545  49.9365369
 107.5627651  71.5325756  48.4502331  95.7629121  72.7752254  46.2703048
  96.5569719  72.2802574  46.0685623  95.0520813  72.2470117  45.9070753
 100.5823965  75.1570350  50.6215415 100.6360987  75.7261286  51.3893131
  99.7138746  75.3272235  50.2569452  92.0711884  66.9195336  42.3462800
  91.1409472  66.8579792  42.5632762  92.1669356  66.3971289  41.5499442
  91.9897433  63.4450149  44.9341042  92.2504250  64.3595482  44.8250202
  92.8114605  62.9774591  45.0837655  93.4622358  64.8587906  52.1039867
  94.1345412  64.6505268  51.4552515  92.6352145  64.6609992  51.6645099
 107.7111620  71.5991956  51.6215200 107.9047510  72.5037767  51.8674475
 107.6112238  71.1399375  52.4553785  99.3647930  61.4849847  54.1205527
  98.7175846  62.1839797  54.0270004 100.1348946  61.9185991  54.4881776
 102.7726728  71.7498699  57.1956081 102.6212235  71.5209251  56.2786164
 102.7631408  72.7069301  57.2087426  99.5412065  69.3230612  52.1802347
 100.4704125  69.4741771  52.0071314  99.1203095  69.4114633  51.3250994
  98.3400397  73.3481276  49.9500885  98.2011482  72.9800061  50.8226823
  97.5514993  73.8628916  49.7784843  98.9348549  78.4490373  41.2926421
  99.1100304  77.9778416  42.1072044  98.2481337  79.0756139  41.5207682
  99.8905612  72.7262879  47.3389723  99.5555444  72.6863649  48.2347372
  99.3909557  72.0607595  46.8660133  93.8649856  68.1330509  52.8642304
  93.7269654  67.4010748  53.4653843  94.7754779  68.0439409  52.5826491
 102.8264803  70.0718913  37.6126782 102.2093974  69.3465742  37.5159835
 102.3581292  70.8328274  37.2693856  96.4932156  67.8450468  52.3525983
  97.2031775  67.2043661  52.3112602  96.4501465  68.0963363  53.2752164
 104.4818935  74.7817822  55.2732563 104.4231481  74.0977042  54.6063146
 104.8838453  75.5236812  54.8213189  95.2061090  64.8315686  54.1721623
  94.6698447  64.3806425  54.8243219  94.6177799  64.9661595  53.4292087
  93.5009634  81.5979736  48.0666281  93.7406232  82.2298260  48.7445300
  92.6578830  81.2467776  48.3531641  94.6163349  64.2904338  36.7348086
  93.7392816  64.1693138  36.3710333  95.0921102  63.4990416  36.4826975
 104.4836342  72.7457406  53.5046542 103.5963121  72.4083327  53.6272941
 105.0534893  72.0140437  53.7415308  86.1365489  69.0781497  46.8289594
  86.8236529  68.7643227  46.2410609  85.9813618  69.9822862  46.5556845
  90.9400212  63.9671694  51.2574617  90.8558400  63.3597363  50.5225027
  90.1182918  64.4580712  51.2584114  98.0137496  77.4058858  50.4707785
  97.9407667  78.2113829  50.9827090  97.5714889  77.6050824  49.6455807
  97.8027275  76.6430628  43.9810607  97.0194797  77.1852308  44.0748832
  98.5020021  77.1604608  44.3804848 101.1123925  62.4525257  46.6244812
 101.6092625  61.6995220  46.3045883 100.3410907  62.4889574  46.0588022
 108.9653683  68.1565623  48.2663104 108.9543559  69.0390338  47.8957037
 108.0971062  67.8037174  48.0717641 100.4736179  77.3045692  52.6265944
 101.1864151  77.9393157  52.5541846  99.9826208  77.4009558  51.8105946
 102.1953706  71.2096945  44.1983236 101.2609985  71.3298407  44.0287940
 102.3730375  70.3069411  43.9343246  97.6958894  64.5942640  46.3516497
  97.3256682  64.0413681  47.0397403  98.1917987  63.9900774  45.7991497
 105.5826258  67.0514264  44.7333270 106.0486710  67.8842256  44.6593573
 106.0333758  66.5859246  45.4378528  95.5248093  75.0540135  53.4471515
  96.2257552  75.6876618  53.6000909  95.0543208  75.3954867  52.6867154
 103.6502489  73.3958085  41.7319422 103.9262333  73.2814680  42.6413296
 102.7806987  72.9975570  41.6931595 103.5542920  59.4194851  48.7724171
 102.6406000  59.6499078  48.9406378 103.9836022  59.5033295  49.6238204
 103.3249379  67.6084743  51.2724065 102.6720829  67.8560650  50.6176518
 103.7029759  66.7948881  50.9386543 100.2856553  77.6444436  45.3752236
 100.4678947  76.8266092  45.8379988 101.1089539  77.8612128  44.9377126
 100.6198718  76.5712621  42.6367284 101.1486485  76.0605076  42.0237446
 100.8826938  76.2555151  43.5012817  91.1215811  74.5876491  50.3802618
  91.7069248  73.8420178  50.5130522  90.9240649  74.8980447  51.2639282
  93.9754466  77.6227738  45.3965060  93.3064841  78.1073866  44.9129100
  93.8367336  77.8696958  46.3108439  85.7133466  67.1582091  49.1007061
  85.7517565  66.6245681  49.8944179  85.2073758  66.6317296  48.4818038
  98.1159735  79.6571481  51.9947718  98.6678043  79.8203103  52.7596804
  98.4565928  80.2475919  51.3227743  93.0924228  62.0046631  52.5969603
  93.1565554  62.8661462  52.1847001  93.0291348  61.3920633  51.8641962
  92.5676500  64.0769764  56.2442637  93.1948539  63.6946841  56.8580162
  91.7104419  63.8583966  56.6098330 102.9670609  74.4832739  57.8496373
 103.5110513  75.0962697  57.3551328 102.3857454  75.0412317  58.3663386
  89.3442043  65.8846193  42.1760992  89.6395484  64.9756871  42.1228046
  88.4430079  65.8633932  41.8541995 101.2528122  77.6053457  48.9811401
 101.1279261  76.8043197  48.4722346 101.9107213  78.0999650  48.4925370
  92.8736290  63.9602189  48.1588541  92.1522876  64.5738157  48.0196014
  93.6629546  64.4959954  48.0805187 103.3163030  75.4062477  50.6090951
 102.3693366  75.2867828  50.5369277 103.6645803  74.5184975  50.6917212
  95.6762604  61.2956616  54.4329193  96.1997005  61.5418913  55.1955502
  95.4574937  62.1276651  54.0132330  91.0729885  63.5660291  42.3000317
  90.7442591  62.6857669  42.1175423  91.4269255  63.5107959  43.1876707
 100.3209464  75.2015193  46.8095303 100.1734426  74.2731901  46.9902873
 101.1462957  75.2235284  46.3252378  94.1871708  63.8533260  42.6675795
  94.5267780  64.3819182  41.9454403  94.6343828  64.1913666  43.4434362
 103.9243585  76.0243752  47.8960176 104.8490133  75.8186613  47.7584627
 103.7558889  75.7760153  48.8049517  96.8815149  62.2370311  52.1178863
  96.5411969  61.4378124  52.5199543  96.1754155  62.5372022  51.5455696
  97.5331621  59.3219623  50.5706186  98.3557690  58.8480102  50.4485076
  97.7769684  60.1010107  51.0704872  96.1739855  62.3507882  40.8669088
  96.8948218  62.7289135  40.3632805  95.5505159  63.0696759  40.9704066
 100.3170978  63.0553031  41.8027420 100.5334592  63.9377669  41.5016248
  99.8365045  62.6639244  41.0733062  95.0570199  66.0138744  48.3798165
  94.9114780  66.3279047  49.2722446  94.5795403  66.6323644  47.8269063
  96.9166582  63.0041292  48.4279054  96.9028151  62.1082385  48.0911352
  97.6339010  63.0111956  49.0617340  98.7692713  63.4378632  50.4732182
  98.5110491  64.3595703  50.4716512  98.2377753  63.0409067  51.1632646
 103.7138902  76.5429419  43.2522267 103.8875779  75.9775842  42.4996120
 104.2067793  77.3430314  43.0701757  89.5315861  68.5544089  51.3185826
  88.9869330  69.3303896  51.4506100  90.4095211  68.9014893  51.1604947
  96.3203478  61.8855672  43.6966624  96.4419389  60.9572319  43.8957512
  96.0305520  61.8994358  42.7844940  99.1894669  59.5710583  46.8333344
  99.2116365  59.6349916  45.8785324  99.6062728  58.7315091  47.0273850
 109.5678293  69.3065842  44.8712567 110.0109439  68.5573168  44.4731690
 108.6904803  69.2975979  44.4886299 104.7014074  75.8596184  40.3519165
 105.3964979  76.4802877  40.5706480 105.0437224  75.0091535  40.6271543
  90.3181883  67.6813985  54.2115983  89.5763619  67.8296620  54.7980613
  89.9974628  67.9422250  53.3482732 106.6005497  73.3095889  41.8806496
 107.1256821  73.6483162  41.1555816 106.5127850  72.3742905  41.6969631
  98.2625546  77.2229963  54.0096373  98.5712672  76.9779110  54.8819072
  99.0601028  77.4276601  53.5215243  98.2846158  79.3767873  46.2401749
  97.8451148  78.8844251  46.9334606  99.0354275  78.8340840  45.9993825
  90.7638497  75.5679414  46.2426377  91.5896517  75.2683185  45.8625021
  90.4132549  74.7987036  46.6916166  95.7320030  74.9205882  48.3124051
  95.1100039  74.2576587  48.0126279  96.4024897  74.9467014  47.6297699
  88.9647102  73.4865740  47.2015311  88.1279010  73.0587914  47.0199312
  88.9370747  73.6798183  48.1386102  95.8044558  63.3987670  57.9056557
  95.8532713  64.2749793  57.5234327  96.3467072  62.8565063  57.3328200
 106.2899403  73.9428793  57.1857694 105.4994947  73.9252932  56.6462193
 106.0532758  74.4817087  57.9406731 106.4097278  70.7921259  54.4990423
 106.4595283  70.6271267  55.4405945 106.3011202  69.9248518  54.1088303
  95.2933537  73.4709805  41.7882512  95.4421657  74.1545269  41.1349184
  96.0999981  73.4514895  42.3031967 103.7001041  66.7752187  55.8149729
 104.6010904  66.6358652  55.5233727 103.7749015  66.9406642  56.7547907
  98.0343846  64.1519042  54.6602916  97.1647156  64.4452608  54.3885504
  98.2703326  64.7359487  55.3810179 107.9115475  73.2118201  54.7432444
 107.6200284  73.5748181  55.5795905 107.2987607  72.4985209  54.5645776
 109.1111158  70.7771081  47.2635014 109.9458049  71.2160885  47.4272575
 109.2470286  70.3009734  46.4443260 106.1602663  68.3350816  53.2112502
 106.6356785  68.5278462  52.4031354 105.2368229  68.3910001  52.9655886
  93.0486170  69.4974983  42.7943580  92.8032212  68.5937313  42.9923791
  93.2182085  69.4992133  41.8523058 100.7382880  60.3698659  52.1768336
 101.2564824  61.1059686  51.8514825 100.3838013  60.6762652  53.0115095
  92.3181818  65.2303340  40.2929742  91.6251063  65.3047695  39.6369778
  92.0733569  64.4663684  40.8151259 100.9895474  56.7898942  47.6969233
 101.2697228  56.1222131  48.3229659 101.7746081  56.9828037  47.1843896
  98.7928943  75.9657936  39.2594259  98.2202910  76.5848123  38.8064731
  99.3661736  76.5157297  39.7934181 104.8604332  65.2116576  51.4440808
 105.8121755  65.3114673  51.4653032 104.6907783  64.4194844  51.9538892
 102.8818712  62.2972159  51.6300209 102.2868644  62.5777172  50.9346697
 102.5968409  62.7866060  52.4016950 102.0126202  76.2495086  40.3902841
 102.9456876  76.1840647  40.5935717 101.9249415  77.0851353  39.9317374
 104.6414219  75.5660956  37.3506789 104.5627851  75.2320820  38.2442547
 105.4623886  76.0582724  37.3498261 107.3392410  68.4322695  50.5583107
 107.3068730  67.4938696  50.7442791 107.9493034  68.5106732  49.8248932
  99.1775741  67.3018748  36.6010311 100.1234846  67.1724956  36.6698729
  98.7989986  66.5633410  37.0779740 107.4886899  65.2233739  50.6041391
 106.9725947  64.4392195  50.4171319 108.3726847  64.8952455  50.7687910
 105.1497626  58.9674754  46.5637203 104.9522447  58.6589842  47.4480535
 105.7597331  59.6936393  46.6935133 113.1568960  69.4938702  49.6989144
 113.8872349  69.2323990  50.2596847 112.5475906  68.7567424  49.7391212
 111.2384257  67.6346565  50.2963595 110.5117421  67.5002530  49.6880087
 110.8231544  67.9423393  51.1020313  99.0614434  71.3536494  58.0610968
  99.9817443  71.5315093  58.2551015  99.0264017  70.4092540  57.9090668
  97.3618658  65.2268725  36.5365197  96.4550114  64.9301837  36.6127910
  97.6394639  64.9298543  35.6699483  88.2796599  66.5475088  46.9864243
  87.9599383  65.6940396  46.6938617  87.7330027  66.7623666  47.7422210
  92.0576506  69.2637529  50.7033750  92.2762516  70.1954637  50.7221783
  92.4702280  68.9045503  51.4888553  98.9780724  59.7705614  42.6909438
  98.1681452  59.4252699  43.0664684  99.6665141  59.4613158  43.2797050
 100.9071272  58.8483661  44.3133735 101.4602311  59.2679115  44.9723758
 101.1441359  57.9219409  44.3556691  96.9304372  64.8370735  60.0936498
  96.8301098  65.7865092  60.0248590  96.7125914  64.5088974  59.2212569
  96.1317443  62.0855660  36.6777176  96.9936607  62.4110558  36.9372993
  96.3167787  61.2987156  36.1650242  88.1484859  70.1678000  48.9557365
  87.4548330  69.7531952  48.4427319  88.8957850  70.2098536  48.3590784
 104.2850079  60.9584186  43.8212399 103.7048748  61.6168990  43.4390451
 104.0186012  60.1361531  43.4099816 102.7353646  60.3589244  46.0233719
 103.2353424  60.4705779  45.2148038 103.3789254  60.0550297  46.6634528
  90.0621601  70.0996253  46.8323380  90.0392289  70.1983941  45.8805263
  90.3722238  70.9461404  47.1540546  92.7208979  72.1572408  50.9469994
  93.6752233  72.1256351  50.8799925  92.5221503  71.6963032  51.7620220
  93.3108361  70.7273524  53.5140792  94.1301250  71.2217603  53.5375629
  93.5845169  69.8105493  53.4858359 103.0674957  63.1184277  42.8768747
 102.1800812  63.4033927  42.6588942 103.4828946  62.9578040  42.0296024
 106.4189494  63.1430798  46.5923086 107.1949884  63.6327250  46.8647703
 105.6937628  63.5688852  47.0494956 108.8562052  63.8558417  47.6497027
 109.4506543  63.6154153  46.9390335 108.9288636  63.1365548  48.2770563
  91.0759208  77.6992028  47.9640192  90.9413676  76.9392429  47.3978190
  90.6591270  78.4232928  47.4968981 102.2118171  72.8828951  36.9716767
 102.9154021  73.0878954  37.5874423 101.4880820  73.4505713  37.2365851
 103.0415981  68.6338813  43.0919037 102.9851183  69.0907364  42.2526670
 103.5944324  67.8729497  42.9141880 106.8520787  64.4228545  43.9169157
 106.5957721  64.0225180  44.7477364 106.2273655  65.1372338  43.7919296
 111.1633125  67.1624618  46.4240448 110.6032683  67.2317807  47.1972010
 110.5576628  66.9865602  45.7039944  94.2328334  78.5961345  48.1758634
  94.1160718  79.5406777  48.0737325  93.4120780  78.2934906  48.5644434
 104.1204868  73.3211481  39.0215227 104.9550472  72.8892679  38.8392702
 103.9589211  73.1493494  39.9492122 103.7750760  69.8243594  40.3871566
 103.7199564  69.6587865  39.4460011 103.1496816  70.5319627  40.5433756
  88.5643275  65.0611658  54.2132989  89.2102139  64.5510612  54.7020214
  88.3560427  65.7980340  54.7876414 101.0896668  72.1292506  59.7125129
 101.9587827  72.3033158  59.3511764 100.6103419  72.9486923  59.5900859
  97.0846886  59.3251703  39.9656885  97.0725556  60.2693543  40.1225156
  97.9770308  59.1421848  39.6716346  95.2582848  79.2489607  51.3914563
  96.1610095  79.2813217  51.7081058  95.0320218  78.3190058  51.4060899
  97.0136450  78.0020593  48.0524641  96.0632081  78.0022455  47.9389014
  97.3168936  77.2553328  47.5360676 100.8999005  55.9194480  44.2202822
 100.1331401  55.3652966  44.3659504 101.3109710  55.9916348  45.0816973
  92.9040766  62.2079275  58.3108003  93.7672228  61.8516080  58.5211327
  92.3306177  61.8693170  58.9983407 112.7489143  83.8381132  49.1170404
 113.3867553  83.7187879  48.4133744 112.6309986  84.7861976  49.1758356
 109.5578850  83.7908560  49.0531929 109.2197361  83.6749625  48.1652463
 110.4268618  83.3899725  49.0332935 105.4165665  85.6444036  45.0428820
 104.8530530  85.5533973  44.2745107 105.3018060  84.8243941  45.5231312
 110.0398633  84.9443412  55.0118134 110.0287273  84.5496210  54.1398638
 110.2019272  84.2109484  55.6051906 102.9630097  87.1395228  47.8813040
 103.7551389  86.7986052  47.4659339 103.2026747  87.2490203  48.8015193
 110.9965224  89.3115004  40.3543284 110.3453204  89.8969084  39.9677298
 111.7909587  89.8421199  40.4138322 104.9220851  86.4004141  40.7530419
 105.6951727  85.8533128  40.6143295 105.2746250  87.2648390  40.9644880
 106.7605894  87.7280523  53.9597318 106.4695760  88.6326154  53.8443984
 107.3962878  87.7697051  54.6741388 107.6862101  85.1057372  50.5498678
 108.2825673  84.8813394  49.8355641 107.7437072  84.3642117  51.1524126
 107.2587129  82.5596807  38.3848869 107.5112650  82.0378328  37.6232332
 106.3211688  82.3962953  38.4875552 112.3030412  81.5632586  46.1923612
 113.0893501  81.1452009  45.8414029 112.5669116  82.4678678  46.3605260
 112.4740489  87.0005436  40.8912269 111.8386322  87.0740062  41.6033173
 112.1437896  87.5899035  40.2131348 117.7038839  81.5007819  47.0956590
 118.4364011  80.9307036  47.3294420 116.9478195  81.1129419  47.5363096
 106.9783418  84.4624913  40.5873244 106.8619676  83.7869817  41.2554328
 107.0885678  83.9757287  39.7705397 109.3214959  83.9235060  44.2919933
 108.9573166  83.3965681  45.0032854 110.1782075  83.5333529  44.1186418
 115.2264259  75.2129393  51.5551199 114.8947584  76.0824804  51.3312414
 114.6309873  74.8965677  52.2345229 108.9620446  78.9524960  39.2881281
 109.1294848  79.8205196  39.6551752 108.7717615  79.1152242  38.3642571
 111.7195779  87.4141939  50.9547112 111.4196502  88.3166978  50.8462919
 111.3746838  87.1474122  51.8068265 105.1708260  83.8655736  46.9883816
 104.2458757  83.7331950  47.1961508 105.4192674  84.6449955  47.4853759
 115.1192923  79.9324479  48.6344549 114.2109800  79.8639887  48.3403310
 115.0680518  80.4096424  49.4626375 108.9409667  81.4082617  40.2727948
 108.8209292  81.8539668  41.1113429 108.2462255  81.7567935  39.7141486
 102.5317071  83.5089009  47.8227605 102.6609453  83.7623488  48.7367017
 101.8514523  84.1016717  47.5032260 106.7016559  94.1786259  43.9218079
 106.6240588  95.1294084  44.0006560 106.0978202  93.8332132  44.5793006
 109.1933788  81.3514125  56.5779446 108.4167122  81.9108045  56.5682311
 109.8324351  81.8370908  57.0994316 116.9854569  78.1340917  50.4122423
 116.3428949  78.4273451  49.7662218 116.4809498  78.0193838  51.2175620
 114.6394733  81.8804091  41.1008282 115.5512589  82.1131477  40.9255980
 114.1304380  82.4641135  40.5383361 107.4480161  84.1599578  56.1397413
 108.1894845  84.6984622  55.8632237 106.7417146  84.7865867  56.2968965
 112.9235500  86.3028718  54.7369575 113.3318856  85.8611129  53.9924207
 112.2012762  85.7281346  54.9903768 109.2766570  81.2401325  52.1103132
 110.1227766  81.6640739  52.2537781 109.2165208  80.5834950  52.8041695
 113.2464315  86.8629909  48.4921864 112.6173177  87.0275623  47.7897932
 112.8589977  87.2771519  49.2632828 117.1253547  87.7984347  45.8466227
 116.4404585  88.1783248  45.2963261 117.2097396  88.4079674  46.5798175
 112.4266016  78.9005694  53.7684305 112.1826948  79.6547754  53.2318581
 112.7025946  79.2791041  54.6031553 114.3804479  85.4444306  52.4461571
 114.5921374  86.0876066  51.7695952 114.3334227  84.6106623  51.9783501
 111.9830707  78.0562127  49.3498143 111.1215186  78.3543380  49.6414881
 112.0093142  78.2732526  48.4179176 108.7992277  86.6004317  45.7571949
 109.2630622  86.8792020  44.9676571 108.5349075  85.6987762  45.5745040
 105.6916358  86.1475799  48.6951712 106.2617715  86.5763067  48.0569197
 106.2824470  85.8658383  49.3935898 107.7361163  82.7227470  42.5661514
 108.4385206  83.1748513  43.0335440 107.4041791  82.0811288  43.1941407
 106.1841524  81.3139226  56.9412723 105.5540185  81.9955507  57.1748120
 106.0777612  81.2022308  55.9965862 101.4786497  80.9811022  47.8678648
 100.6885551  81.2368551  47.3918758 101.9697744  81.7959360  47.9730688
 115.4950306  88.3216261  50.6183928 116.3167750  87.9196449  50.3366610
 115.4912709  88.2184496  51.5700044 103.4301242  81.3455601  44.8262124
 102.6332406  81.4574296  45.3445620 103.2026834  81.6842254  43.9603015
 109.2606910  87.8700305  52.7744639 109.3251342  88.3320712  53.6102811
 108.5517834  87.2397670  52.9026949  99.7624200  81.2341513  50.2993638
 100.0132238  82.1188523  50.5651214 100.2983748  81.0546114  49.5268730
 108.9754928  89.5368412  42.6423619 108.8400602  90.3819948  43.0708467
 109.5164740  89.7387690  41.8789553 105.4622267  75.6159992  59.3037974
 105.0689213  75.0626191  59.9785619 106.2788408  75.9270570  59.6944492
 102.4284325  87.0543850  43.2151544 102.9408846  87.8487100  43.3657109
 103.0807038  86.3570141  43.1485146 104.2379210  90.1709606  45.2974297
 104.4145838  91.0927571  45.1095281 105.0336043  89.8568026  45.7268677
 108.3790228  77.0317871  56.8958231 109.1199942  77.6325024  56.8162693
 108.6108151  76.2895509  56.3376274 103.5231566  82.2174238  55.1736461
 103.4085081  81.3159496  55.4743560 102.6676084  82.4637935  54.8221277
 110.6023404  90.1591979  56.7723961 110.1587258  89.3728357  56.4544866
 111.2640618  90.3471129  56.1067852 105.3610525  91.6887780  51.2984640
 105.9117950  91.5604844  50.5261634 104.5222001  91.9882669  50.9479533
 112.7004642  90.4394779  54.8005363 112.6823117  91.2603660  54.3085632
 113.6224562  90.3148854  55.0255504 109.1577696  87.9538908  55.6428871
 109.6906033  87.1927196  55.4128179 108.6291777  87.6612560  56.3853025
 112.3247391  73.0598974  51.1722513 111.9811661  73.9500616  51.0961623
 112.6926354  72.8700632  50.3092098 100.3933242  85.3832505  43.9911115
 101.2308464  85.7929513  43.7744823 100.5711509  84.4431947  43.9611309
 112.2897674  83.0507585  39.6794948 111.7744297  83.8212190  39.9183335
 112.0174982  82.3772721  40.3028009 109.8744785  77.8957286  44.7380186
 109.0186381  77.5064136  44.5585825 110.2871737  77.9749247  43.8779972
 111.4043932  75.4303629  49.1371746 110.9008727  75.3933764  48.3239551
 111.6974538  76.3396372  49.1968403 107.6486817  75.5142359  48.1437928
 108.5139814  75.3185168  47.7843817 107.7164326  75.2852711  49.0707284
 117.2631948  85.8039940  41.6148121 116.4861391  85.4651099  41.1703283
 117.9423429  85.8092563  40.9403086 112.0783977  80.9234677  41.5054729
 111.7734113  81.2380826  42.3564872 113.0314419  81.0016097  41.5482062
 110.5230409  87.0824901  43.1547683 109.9951770  86.3477660  42.8420920
 110.0217912  87.8599577  42.9087651 115.5023255  85.2773921  48.2714729
 114.8446929  85.9673182  48.3594858 116.3063654  85.6670353  48.6148716
 105.2549136  77.7444567  45.5154294 105.8292888  77.5219748  44.7827487
 105.8420119  77.8133261  46.2682896 114.3128714  83.6318294  46.3218671
 114.8260595  84.2648286  46.8240381 114.9629938  83.0319489  45.9562031
 105.5818724  79.7749028  39.5350180 104.7456036  80.1123714  39.8559454
 105.4423493  79.6398008  38.5977317 107.5571804  74.6185816  44.2429364
 106.9036217  74.3034833  43.6185979 107.5152278  73.9961556  44.9689187
 108.6683009  84.9005111  36.1582656 107.7610071  84.6694364  36.3573805
 109.1654041  84.1042730  36.3456638 111.5751088  93.6102618  39.0779342
 110.9012787  93.9134315  39.6864300 111.9616910  94.4131698  38.7284799
 110.7909545  81.1067749  48.5677012 109.8732106  81.3282696  48.4098700
 111.2069688  81.1814060  47.7088719 111.5744592  82.5059165  43.6979692
 112.3216411  83.0180562  43.3886814 111.8436182  82.1843218  44.5584085
 109.8471242  85.0017706  40.6806646 108.9382462  84.7176739  40.7779116
 109.8766326  85.4216784  39.8209953 115.0790510  88.6124295  44.4497814
 114.6252837  87.7715205  44.5063004 114.4484477  89.2485694  44.7872594
 114.0223429  79.5416281  45.6798481 113.2846186  79.0293667  46.0108724
 114.2750203  79.1016663  44.8681758 113.5223449  90.4500792  45.3847632
 113.8146424  91.0105849  44.6659997 114.0322070  90.7429353  46.1400791
 114.1235057  72.3192533  46.2740250 114.4293934  71.4589897  45.9866165
 114.8487662  72.9110153  46.0739244 100.4159413  82.7223220  44.6621848
 100.2183813  82.1292581  43.9372915  99.8606077  82.4175430  45.3797787
 108.3956137  82.6146326  46.7816441 108.4504746  81.6620163  46.7058918
 107.5847339  82.7705765  47.2657740 109.5447330  86.5426449  38.0194725
 109.1066760  85.8262308  37.5600362 110.2857771  86.7702564  37.4579816
 106.3348496  81.2323386  44.5406820 105.5216362  81.5317557  44.9472012
 106.8307491  80.8379075  45.2581303 108.4857074  91.2281143  46.4741085
 108.4433253  91.4541989  45.5449617 109.4019773  90.9944518  46.6226886
 111.9322708  81.6965211  53.3721714 112.2872096  81.9236684  54.2316180
 112.5794839  82.0283587  52.7498969 117.6620445  84.8183646  44.0771043
 117.5238344  85.0085242  43.1492232 117.3056664  85.5803029  44.5339094
 105.8262571  78.8041742  50.1568055 106.4661951  78.6630501  49.4591019
 104.9940102  78.5176255  49.7806657 117.6889825  86.8860173  49.0882315
 118.1226331  86.7935463  49.9365369 118.4021405  86.8617674  48.4502331
 106.6022875  88.1044172  46.2703048 107.3963474  87.6094492  46.0685623
 105.8914567  87.5762035  45.9070753 111.4217720  90.4862268  50.6215415
 111.4754742  91.0553204  51.3893131 110.5532501  90.6564153  50.2569452
 102.9105639  82.2487254  42.3462800 101.9803227  82.1871709  42.5632762
 103.0063111  81.7263206  41.5499442 102.8291188  78.7742067  44.9341042
 103.0898005  79.6887400  44.8250202 103.6508360  78.3066509  45.0837655
 104.3016113  80.1879824  52.1039867 104.9739166  79.9797186  51.4552515
 103.4745899  79.9901910  51.6645099 118.5505374  86.9283874  51.6215200
 118.7441264  87.8329685  51.8674475 118.4505992  86.4691293  52.4553785
 110.2041685  76.8141765  54.1205527 109.5569600  77.5131714  54.0270004
 110.9742700  77.2477909  54.4881776 113.6120483  87.0790617  57.1956081
 113.4605989  86.8501169  56.2786164 113.6025162  88.0361218  57.2087426
 110.3805819  84.6522530  52.1802347 111.3097879  84.8033689  52.0071314
 109.9596849  84.7406550  51.3250994 109.1794151  88.6773194  49.9500885
 109.0405237  88.3091978  50.8226823 108.3908747  89.1920833  49.7784843
 109.7742303  93.7782290  41.2926421 109.9494059  93.3070334  42.1072044
 109.0875091  94.4048057  41.5207682 110.7299366  88.0554797  47.3389723
 110.3949199  88.0155567  48.2347372 110.2303312  87.3899513  46.8660133
 104.7043610  83.4622427  52.8642304 104.5663408  82.7302666  53.4653843
 105.6148534  83.3731327  52.5826491 113.6658558  85.4010831  37.6126782
 113.0487729  84.6757659  37.5159835 113.1975046  86.1620191  37.2693856
 107.3325911  83.1742386  52.3525983 108.0425529  82.5335578  52.3112602
 107.2895219  83.4255281  53.2752164 115.3212690  90.1109739  55.2732563
 115.2625236  89.4268960  54.6063146 115.7232208  90.8528729  54.8213189
 106.0454845  80.1607604  54.1721623 105.5092202  79.7098342  54.8243219
 105.4571553  80.2953513  53.4292087 104.3403388  96.9271653  48.0666281
 104.5799987  97.5590177  48.7445300 103.4972585  96.5759693  48.3531641
 105.4557104  79.6196255  36.7348086 104.5786570  79.4985056  36.3710333
 105.9314857  78.8282334  36.4826975 115.3230097  88.0749323  53.5046542
 114.4356876  87.7375245  53.6272941 115.8928648  87.3432355  53.7415308
  96.9759244  84.4073415  46.8289594  97.6630284  84.0935145  46.2410609
  96.8207373  85.3114780  46.5556845 101.7793966  79.2963612  51.2574617
 101.6952155  78.6889281  50.5225027 100.9576672  79.7872630  51.2584114
 108.8531250  92.7350776  50.4707785 108.7801422  93.5405747  50.9827090
 108.4108643  92.9342741  49.6455807 108.6421030  91.9722546  43.9810607
 107.8588552  92.5144226  44.0748832 109.3413775  92.4896525  44.3804848
 111.9517680  77.7817175  46.6244812 112.4486379  77.0287137  46.3045883
 111.1804661  77.8181492  46.0588022 119.8047437  83.4857541  48.2663104
 119.7937314  84.3682256  47.8957037 118.9364817  83.1329092  48.0717641
 111.3129934  92.6337610  52.6265944 112.0257906  93.2685075  52.5541846
 110.8219962  92.7301476  51.8105946 113.0347461  86.5388862  44.1983236
 112.1003739  86.6590325  44.0287940 113.2124129  85.6361329  43.9343246
 108.5352649  79.9234558  46.3516497 108.1650436  79.3705599  47.0397403
 109.0311741  79.3192692  45.7991497 116.4220012  82.3806182  44.7333270
 116.8880464  83.2134173  44.6593573 116.8727512  81.9151163  45.4378528
 106.3641847  90.3832053  53.4471515 107.0651307  91.0168536  53.6000909
 105.8936962  90.7246785  52.6867154 114.4896243  88.7250003  41.7319422
 114.7656087  88.6106598  42.6413296 113.6200742  88.3267488  41.6931595
 114.3936675  74.7486769  48.7724171 113.4799755  74.9790995  48.9406378
 114.8229776  74.8325213  49.6238204 114.1643133  82.9376661  51.2724065
 113.5114583  83.1852568  50.6176518 114.5423513  82.1240799  50.9386543
 111.1250307  92.9736354  45.3752236 111.3072702  92.1558010  45.8379988
 111.9483293  93.1904046  44.9377126 111.4592473  91.9004539  42.6367284
 111.9880239  91.3896993  42.0237446 111.7220692  91.5847069  43.5012817
 110.2130706  83.6796472  57.7590102 109.5371343  83.5790601  58.4292478
 111.0358340  83.5235685  58.2226100 101.9609565  89.9168408  50.3802618
 102.5463002  89.1712096  50.5130522 101.7634404  90.2272365  51.2639282
 104.8148221  92.9519656  45.3965060 104.1458596  93.4365783  44.9129100
 104.6761090  93.1988876  46.3108439  96.5527220  82.4874008  49.1007061
  96.5911320  81.9537599  49.8944179  96.0467513  81.9609214  48.4818038
 108.9553489  94.9863399  51.9947718 109.5071797  95.1495021  52.7596804
 109.2959683  95.5767837  51.3227743 103.9317982  77.3338549  52.5969603
 103.9959309  78.1953380  52.1847001 103.8685103  76.7212551  51.8641962
 103.4070255  79.4061681  56.2442637 104.0342294  79.0238759  56.8580162
 102.5498174  79.1875883  56.6098330 113.8064363  89.8124657  57.8496373
 114.3504267  90.4254615  57.3551328 113.2251208  90.3704235  58.3663386
 100.1835798  81.2138111  42.1760992 100.4789239  80.3048789  42.1228046
  99.2823833  81.1925850  41.8541995 112.0921876  92.9345375  48.9811401
 111.9673016  92.1335114  48.4722346 112.7500968  93.4291568  48.4925370
 103.7130045  79.2894107  48.1588541 102.9916630  79.9030075  48.0196014
 104.5023300  79.8251872  48.0805187 114.1556785  90.7354395  50.6090951
 113.2087120  90.6159746  50.5369277 114.5039558  89.8476893  50.6917212
 106.5156358  76.6248534  54.4329193 107.0390760  76.8710830  55.1955502
 106.2968691  77.4568568  54.0132330 101.9123639  78.8952208  42.3000317
 101.5836345  78.0149587  42.1175423 102.2663010  78.8399877  43.1876707
 111.1603218  90.5307111  46.8095303 111.0128181  89.6023818  46.9902873
 111.9856712  90.5527202  46.3252378 105.0265462  79.1825178  42.6675795
 105.3661535  79.7111099  41.9454403 105.4737583  79.5205584  43.4434362
 114.7637340  91.3535670  47.8960176 115.6883887  91.1478531  47.7584627
 114.5952643  91.1052071  48.8049517 107.7208903  77.5662229  52.1178863
 107.3805724  76.7670042  52.5199543 107.0147909  77.8663940  51.5455696
 108.3725375  74.6511541  50.5706186 109.1951444  74.1772019  50.4485076
 108.6163439  75.4302025  51.0704872 107.0133610  77.6799800  40.8669088
 107.7341972  78.0581052  40.3632805 106.3898914  78.3988676  40.9704066
 111.1564732  78.3844949  41.8027420 111.3728347  79.2669586  41.5016248
 110.6758800  77.9931162  41.0733062 105.8963954  81.3430662  48.3798165
 105.7508535  81.6570965  49.2722446 105.4189157  81.9615562  47.8269063
 107.7560337  78.3333210  48.4279054 107.7421905  77.4374303  48.0911352
 108.4732765  78.3403874  49.0617340 109.6086467  78.7670550  50.4732182
 109.3504245  79.6887621  50.4716512 109.0771508  78.3700985  51.1632646
 114.5532656  91.8721337  43.2522267 114.7269534  91.3067760  42.4996120
 115.0461547  92.6722232  43.0701757 100.3709616  83.8836006  51.3185826
  99.8263084  84.6595814  51.4506100 101.2488966  84.2306811  51.1604947
 107.1597233  77.2147590  43.6966624 107.2813144  76.2864236  43.8957512
 106.8699275  77.2286276  42.7844940 110.0288423  74.9002501  46.8333344
 110.0510120  74.9641834  45.8785324 110.4456482  74.0607009  47.0273850
 120.4072047  84.6357760  44.8712567 120.8503193  83.8865085  44.4731690
 119.5298558  84.6267896  44.4886299 115.5407829  91.1888102  40.3519165
 116.2358733  91.8094794  40.5706480 115.8830979  90.3383453  40.6271543
 101.1575638  83.0105902  54.2115983 100.4157374  83.1588538  54.7980613
 100.8368382  83.2714168  53.3482732 117.4399252  88.6387807  41.8806496
 117.9650576  88.9775080  41.1555816 117.3521604  87.7034822  41.6969631
 109.1019300  92.5521881  54.0096373 109.4106427  92.3071027  54.8819072
 109.8994782  92.7568519  53.5215243 109.1239913  94.7059790  46.2401749
 108.6844903  94.2136169  46.9334606 109.8748029  94.1632758  45.9993825
 101.6032251  90.8971331  46.2426377 102.4290271  90.5975103  45.8625021
 101.2526303  90.1278954  46.6916166 106.5713785  90.2497799  48.3124051
 105.9493794  89.5868504  48.0126279 107.2418652  90.2758931  47.6297699
  99.8040857  88.8157658  47.2015311  98.9672765  88.3879832  47.0199312
  99.7764502  89.0090101  48.1386102 106.6438312  78.7279587  57.9056557
 106.6926468  79.6041710  57.5234327 107.1860826  78.1856980  57.3328200
 117.1293158  89.2720711  57.1857694 116.3388702  89.2544850  56.6462193
 116.8926512  89.8109004  57.9406731 117.2491033  86.1213177  54.4990423
 117.2989038  85.9563185  55.4405945 117.1404956  85.2540436  54.1088303
 106.1327292  88.8001723  41.7882512 106.2815412  89.4837187  41.1349184
 106.9393735  88.7806813  42.3031967 114.5394795  82.1044105  55.8149729
 115.4404658  81.9650570  55.5233727 114.6142770  82.2698560  56.7547907
 108.8737601  79.4810960  54.6602916 108.0040910  79.7744526  54.3885504
 109.1097081  80.0651405  55.3810179 118.7509230  88.5410119  54.7432444
 118.4594038  88.9040099  55.5795905 118.1381361  87.8277127  54.5645776
 119.9504912  86.1062998  47.2635014 120.7851803  86.5452802  47.4272575
 120.0864041  85.6301652  46.4443260 116.9996418  83.6642733  53.2112502
 117.4750540  83.8570380  52.4031354 116.0761983  83.7201919  52.9655886
 103.8879925  84.8266900  42.7943580 103.6425966  83.9229230  42.9923791
 104.0575839  84.8284051  41.8523058 111.5776634  75.6990577  52.1768336
 112.0958578  76.4351604  51.8514825 111.2231767  76.0054570  53.0115095
 103.1575572  80.5595258  40.2929742 102.4644817  80.6339613  39.6369778
 102.9127324  79.7955602  40.8151259 111.8289229  72.1190859  47.6969233
 112.1090982  71.4514048  48.3229659 112.6139836  72.3119955  47.1843896
 109.6322697  91.2949853  39.2594259 109.0596664  91.9140040  38.8064731
 110.2055491  91.8449215  39.7934181 115.6998087  80.5408493  51.4440808
 116.6515510  80.6406591  51.4653032 115.5301537  79.7486762  51.9538892
 113.7212466  77.6264077  51.6300209 113.1262399  77.9069089  50.9346697
 113.4362163  78.1157977  52.4016950 112.8519957  91.5787003  40.3902841
 113.7850630  91.5132565  40.5935717 112.7643170  92.4143270  39.9317374
 115.4807974  90.8952874  37.3506789 115.4021605  90.5612737  38.2442547
 116.3017640  91.3874642  37.3498261 118.1786165  83.7614613  50.5583107
 118.1462485  82.8230614  50.7442791 118.7886788  83.8398650  49.8248932
 110.0169496  82.6310666  36.6010311 110.9628600  82.5016874  36.6698729
 109.6383741  81.8925328  37.0779740 118.3280653  80.5525656  50.6041391
 117.8119702  79.7684113  50.4171319 119.2120602  80.2244373  50.7687910
 115.9891380  74.2966672  46.5637203 115.7916201  73.9881760  47.4480535
 116.5991086  75.0228311  46.6935133 109.9008188  86.6828412  58.0610968
 110.8211198  86.8607011  58.2551015 109.8657771  85.7384457  57.9090668
 108.2012413  80.5560642  36.5365197 107.2943868  80.2593755  36.6127910
 108.4788394  80.2590460  35.6699483  99.1190353  81.8767006  46.9864243
  98.7993137  81.0232314  46.6938617  98.5723781  82.0915584  47.7422210
 102.8970261  84.5929447  50.7033750 103.1156270  85.5246555  50.7221783
 103.3096035  84.2337421  51.4888553 109.8174478  75.0997532  42.6909438
 109.0075207  74.7544617  43.0664684 110.5058895  74.7905076  43.2797050
 111.7465027  74.1775579  44.3133735 112.2996065  74.5971032  44.9723758
 111.9835113  73.2511327  44.3556691 107.7698126  80.1662653  60.0936498
 107.6694853  81.1157009  60.0248590 107.5519668  79.8380891  59.2212569
 106.9711197  77.4147578  36.6777176 107.8330361  77.7402476  36.9372993
 107.1561542  76.6279073  36.1650242  98.9878613  85.4969917  48.9557365
  98.2942085  85.0823870  48.4427319  99.7351604  85.5390454  48.3590784
 115.1243834  76.2876104  43.8212399 114.5442503  76.9460908  43.4390451
 114.8579767  75.4653449  43.4099816 113.5747400  75.6881162  46.0233719
 114.0747179  75.7997696  45.2148038 114.2183008  75.3842215  46.6634528
 107.6329396  83.5959791  58.9101560 107.1496478  84.3960151  59.1165449
 107.7190335  83.6067736  57.9569004 100.9015356  85.4288171  46.8323380
 100.8786044  85.5275858  45.8805263 101.2115992  86.2753322  47.1540546
 103.5602734  87.4864326  50.9469994 104.5145987  87.4548268  50.8799925
 103.3615257  87.0254950  51.7620220 104.1502116  86.0565442  53.5140792
 104.9695005  86.5509521  53.5375629 104.4238923  85.1397410  53.4858359
 113.9068712  78.4476194  42.8768747 113.0194567  78.7325845  42.6588942
 114.3222701  78.2869958  42.0296024 117.2583248  78.4722715  46.5923086
 118.0343638  78.9619168  46.8647703 116.5331382  78.8980770  47.0494956
 119.6955807  79.1850335  47.6497027 120.2900297  78.9446071  46.9390335
 119.7682390  78.4657465  48.2770563 101.9152962  93.0283946  47.9640192
 101.7807430  92.2684346  47.3978190 101.4985025  93.7524845  47.4968981
 113.0511925  88.2120869  36.9716767 113.7547775  88.4170872  37.5874423
 112.3274574  88.7797631  37.2365851 113.8809736  83.9630730  43.0919037
 113.8244937  84.4199282  42.2526670 114.4338078  83.2021415  42.9141880
 117.6914542  79.7520462  43.9169157 117.4351476  79.3517098  44.7477364
 117.0667410  80.4664256  43.7919296 105.0722088  93.9253263  48.1758634
 104.9554472  94.8698695  48.0737325 104.2514534  93.6226824  48.5644434
 114.9598623  88.6503398  39.0215227 115.7944227  88.2184597  38.8392702
 114.7982966  88.4785412  39.9492122 114.6144515  85.1535512  40.3871566
 114.5593319  84.9879783  39.4460011 113.9890570  85.8611544  40.5433756
  99.4037030  80.3903576  54.2132989 100.0495894  79.8802530  54.7020214
  99.1954181  81.1272258  54.7876414 111.9290422  87.4584423  59.7125129
 112.7981582  87.6325076  59.3511764 111.4497174  88.2778840  59.5900859
 107.9240640  74.6543621  39.9656885 107.9119310  75.5985461  40.1225156
 108.8164062  74.4713766  39.6716346 106.0976602  94.5781524  51.3914563
 107.0003849  94.6105135  51.7081058 105.8713972  93.6481975  51.4060899
 107.8530204  93.3312511  48.0524641 106.9025835  93.3314373  47.9389014
 108.1562690  92.5845246  47.5360676 111.7392760  71.2486397  44.2202822
 110.9725156  70.6944884  44.3659504 112.1503465  71.3208266  45.0816973
 103.7434521  77.5371193  58.3108003 104.6065982  77.1807998  58.5211327
 103.1699932  77.1985088  58.9983407 120.3972604  99.1200478  49.0531929
 120.0591116  99.0041542  48.1652463 121.2662372  98.7191643  49.0332935
 116.2559420 100.9735954  45.0428820 115.6924285 100.8825891  44.2745107
 116.1411815 100.1535858  45.5231312 120.8792387 100.2735329  55.0118134
 120.8681028  99.8788127  54.1398638 121.0413027  99.5401402  55.6051906
 113.8023852 102.4687146  47.8813040 114.5945144 102.1277970  47.4659339
 114.0420502 102.5782121  48.8015193 115.7614606 101.7296059  40.7530419
 116.5345482 101.1825046  40.6143295 116.1140005 102.5940308  40.9644880
 117.5999648 103.0572441  53.9597318 117.3089514 103.9618072  53.8443984
 118.2356633 103.0988969  54.6741388 118.5255855 100.4349290  50.5498678
 119.1219427 100.2105312  49.8355641 118.5830827  99.6934035  51.1524126
 118.0980884  97.8888725  38.3848869 118.3506404  97.3670246  37.6232332
 117.1605443  97.7254870  38.4875552 117.8177172  99.7916831  40.5873244
 117.7013430  99.1161734  41.2554328 117.9279432  99.3049205  39.7705397
 120.1608713  99.2526978  44.2919933 119.7966920  98.7257599  45.0032854
 121.0175829  98.8625447  44.1186418 119.8014200  94.2816878  39.2881281
 119.9688603  95.1497114  39.6551752 119.6111369  94.4444159  38.3642571
 116.0102015  99.1947653  46.9883816 115.0852511  99.0623867  47.1961508
 116.2586428  99.9741873  47.4853759 119.7803421  96.7374535  40.2727948
 119.6603046  97.1831586  41.1113429 119.0856009  97.0859853  39.7141486
 113.3710826  98.8380927  47.8227605 113.5003207  99.0915406  48.7367017
 112.6908277  99.4308635  47.5032260 120.0327543  96.6806042  56.5779446
 119.2560877  97.2399962  56.5682311 120.6718106  97.1662825  57.0994316
 118.2873915  99.4891496  56.1397413 119.0288600 100.0276540  55.8632237
 117.5810901 100.1157784  56.2968965 120.1160325  96.5693243  52.1103132
 120.9621520  96.9932656  52.2537781 120.0558963  95.9126867  52.8041695
 119.6386031 101.9296235  45.7571949 120.1024377 102.2083938  44.9676571
 119.3742829 101.0279679  45.5745040 116.5310112 101.4767716  48.6951712
 117.1011469 101.9054985  48.0569197 117.1218224 101.1950301  49.3935898
 118.5754917  98.0519387  42.5661514 119.2778961  98.5040431  43.0335440
 118.2435546  97.4103206  43.1941407 117.0235279  96.6431144  56.9412723
 116.3933940  97.3247425  57.1748120 116.9171367  96.5314225  55.9965862
 112.3180251  96.3102940  47.8678648 111.5279305  96.5660468  47.3918758
 112.8091499  97.1251278  47.9730688 114.2694997  96.6747519  44.8262124
 113.4726160  96.7866213  45.3445620 114.0420589  97.0134171  43.9603015
 120.1000664 103.1992222  52.7744639 120.1645097 103.6612630  53.6102811
 119.3911588 102.5689587  52.9026949 110.6017954  96.5633430  50.2993638
 110.8525993  97.4480440  50.5651214 111.1377503  96.3838032  49.5268730
 116.3016022  90.9451910  59.3037974 115.9082967  90.3918108  59.9785619
 117.1182162  91.2562488  59.6944492 113.2678079 102.3835768  43.2151544
 113.7802600 103.1779018  43.3657109 113.9200792 101.6862058  43.1485146
 115.0772964 105.5001524  45.2974297 115.2539592 106.4219489  45.1095281
 115.8729798 105.1859943  45.7268677 119.2183983  92.3609789  56.8958231
 119.9593696  92.9616942  56.8162693 119.4501905  91.6187427  56.3376274
 114.3625321  97.5466156  55.1736461 114.2478836  96.6451413  55.4743560
 113.5069838  97.7929853  54.8221277 116.2004280 107.0179698  51.2984640
 116.7511705 106.8896761  50.5261634 115.3615756 107.3174587  50.9479533
 119.9971451 103.2830826  55.6428871 120.5299787 102.5219114  55.4128179
 119.4685532 102.9904478  56.3853025 111.2326996 100.7124422  43.9911115
 112.0702218 101.1221431  43.7744823 111.4105264  99.7723864  43.9611309
 120.7138539  93.2249204  44.7380186 119.8580136  92.8356054  44.5585825
 121.1265491  93.3041164  43.8779972 118.4880572  90.8434277  48.1437928
 119.3533569  90.6477085  47.7843817 118.5558081  90.6144628  49.0707284
 121.3624163 102.4116818  43.1547683 120.8345525 101.6769578  42.8420920
 120.8611666 103.1891495  42.9087651 116.0942891  93.0736485  45.5154294
 116.6686643  92.8511666  44.7827487 116.6813873  93.1425179  46.2682896
 116.4212478  95.1040946  39.5350180 115.5849790  95.4415632  39.8559454
 116.2817248  94.9689925  38.5977317 118.3965559  89.9477733  44.2429364
 117.7429971  89.6326751  43.6185979 118.3546033  89.3253474  44.9689187
 119.5076764 100.2297029  36.1582656 118.6003825  99.9986282  36.3573805
 120.0047796  99.4334648  36.3456638 120.6864997 100.3309623  40.6806646
 119.7776216 100.0468656  40.7779116 120.7160081 100.7508702  39.8209953
 111.2553167  98.0515138  44.6621848 111.0577567  97.4584498  43.9372915
 110.6999831  97.7467348  45.3797787 119.2349891  97.9438244  46.7816441
 119.2898501  96.9912080  46.7058918 118.4241093  98.0997683  47.2657740
 120.3841085 101.8718367  38.0194725 119.9460515 101.1554226  37.5600362
 121.1251526 102.0994482  37.4579816 117.1742251  96.5615304  44.5406820
 116.3610116  96.8609474  44.9472012 117.6701245  96.1670992  45.2581303
 116.6656326  94.1333659  50.1568055 117.3055705  93.9922418  49.4591019
 115.8333856  93.8468173  49.7806657 117.4416630 103.4336090  46.2703048
 118.2357228 102.9386410  46.0685623 116.7308322 102.9053953  45.9070753
 113.7499393  97.5779171  42.3462800 112.8196981  97.5163627  42.5632762
 113.8456865  97.0555124  41.5499442 113.6684942  94.1033984  44.9341042
 113.9291759  95.0179317  44.8250202 114.4902114  93.6358427  45.0837655
 115.1409867  95.5171741  52.1039867 115.8132921  95.3089104  51.4552515
 114.3139654  95.3193827  51.6645099 120.0187906 104.0065112  49.9500885
 119.8798991 103.6383896  50.8226823 119.2302502 104.5212751  49.7784843
 121.5693121 103.3846714  47.3389723 121.2342953 103.3447484  48.2347372
 121.0697066 102.7191430  46.8660133 115.5437365  98.7914344  52.8642304
 115.4057163  98.0594583  53.4653843 116.4542288  98.7023244  52.5826491
 118.1719665  98.5034304  52.3525983 118.8819284  97.8627496  52.3112602
 118.1288974  98.7547199  53.2752164 116.8848599  95.4899522  54.1721623
 116.3485956  95.0390260  54.8243219 116.2965308  95.6245430  53.4292087
 116.2950858  94.9488173  36.7348086 115.4180325  94.8276974  36.3710333
 116.7708611  94.1574251  36.4826975 107.8152998  99.7365333  46.8289594
 108.5024038  99.4227063  46.2410609 107.6601127 100.6406697  46.5556845
 112.6187721  94.6255529  51.2574617 112.5345909  94.0181199  50.5225027
 111.7970427  95.1164548  51.2584114 119.3746403  95.2526476  46.3516497
 119.0044191  94.6997516  47.0397403 119.8705496  94.6484609  45.7991497
 117.2035602 105.7123971  53.4471515 117.9045061 106.3460454  53.6000909
 116.7330717 106.0538702  52.6867154 112.8003320 105.2460326  50.3802618
 113.3856757 104.5004014  50.5130522 112.6028158 105.5564283  51.2639282
 107.3920975  97.8165926  49.1007061 107.4305074  97.2829517  49.8944179
 106.8861267  97.2901132  48.4818038 114.7711737  92.6630467  52.5969603
 114.8353063  93.5245297  52.1847001 114.7078857  92.0504468  51.8641962
 114.2464009  94.7353599  56.2442637 114.8736048  94.3530676  56.8580162
 113.3891928  94.5167801  56.6098330 111.0229552  96.5430028  42.1760992
 111.3182993  95.6340707  42.1228046 110.1217588  96.5217768  41.8541995
 114.5523799  94.6186025  48.1588541 113.8310385  95.2321993  48.0196014
 115.3417055  95.1543790  48.0805187 117.3550113  91.9540451  54.4329193
 117.8784514  92.2002748  55.1955502 117.1362446  92.7860486  54.0132330
 112.7517394  94.2244126  42.3000317 112.4230100  93.3441505  42.1175423
 113.1056764  94.1691795  43.1876707 115.8659217  94.5117096  42.6675795
 116.2055289  95.0403017  41.9454403 116.3131337  94.8497502  43.4434362
 118.5602658  92.8954146  52.1178863 118.2199478  92.0961959  52.5199543
 117.8541664  93.1955857  51.5455696 119.2119130  89.9803459  50.5706186
 120.0345199  89.5063937  50.4485076 119.4557193  90.7593943  51.0704872
 117.8527364  93.0091717  40.8669088 118.5735727  93.3872970  40.3632805
 117.2292668  93.7280594  40.9704066 116.7357708  96.6722579  48.3798165
 116.5902289  96.9862883  49.2722446 116.2582912  97.2907480  47.8269063
 118.5954091  93.6625127  48.4279054 118.5815660  92.7666221  48.0911352
 119.3126519  93.6695791  49.0617340 120.4480222  94.0962468  50.4732182
 120.1898000  95.0179538  50.4716512 119.9165262  93.6992902  51.1632646
 111.2103370  99.2127924  51.3185826 110.6656839  99.9887732  51.4506100
 112.0882720  99.5598728  51.1604947 117.9990987  92.5439508  43.6966624
 118.1206898  91.6156154  43.8957512 117.7093029  92.5578194  42.7844940
 120.8682177  90.2294418  46.8333344 120.8903874  90.2933751  45.8785324
 121.2850236  89.3898927  47.0273850 111.9969392  98.3397820  54.2115983
 111.2551128  98.4880456  54.7980613 111.6762137  98.6006086  53.3482732
 112.4426006 106.2263249  46.2426377 113.2684026 105.9267021  45.8625021
 112.0920058 105.4570871  46.6916166 117.4107539 105.5789717  48.3124051
 116.7887548 104.9160422  48.0126279 118.0812406 105.6050849  47.6297699
 110.6434611 104.1449575  47.2015311 109.8066519 103.7171750  47.0199312
 110.6158256 104.3382019  48.1386102 117.4832067  94.0571505  57.9056557
 117.5320222  94.9333628  57.5234327 118.0254581  93.5148898  57.3328200
 116.9721046 104.1293640  41.7882512 117.1209166 104.8129105  41.1349184
 117.7787490 104.1098730  42.3031967 119.7131355  94.8102878  54.6602916
 118.8434664  95.1036444  54.3885504 119.9490835  95.3943323  55.3810179
 114.7273679 100.1558818  42.7943580 114.4819721  99.2521148  42.9923791
 114.8969594 100.1575969  41.8523058 113.9969327  95.8887176  40.2929742
 113.3038572  95.9631531  39.6369778 113.7521078  95.1247519  40.8151259
 119.0406167  95.8852560  36.5365197 118.1337623  95.5885673  36.6127910
 119.3182148  95.5882378  35.6699483 109.9584108  97.2058923  46.9864243
 109.6386892  96.3524232  46.6938617 109.4117536  97.4207502  47.7422210
 113.7364015  99.9221364  50.7033750 113.9550025 100.8538472  50.7221783
 114.1489789  99.5629339  51.4888553 120.6568233  90.4289450  42.6909438
 119.8468961  90.0836535  43.0664684 121.3452650  90.1196993  43.2797050
 118.6091880  95.4954570  60.0936498 118.5088607  96.4448927  60.0248590
 118.3913423  95.1672809  59.2212569 117.8104952  92.7439495  36.6777176
 118.6724116  93.0694394  36.9372993 117.9955296  91.9570991  36.1650242
 109.8272368 100.8261835  48.9557365 109.1335839 100.4115788  48.4427319
 110.5745359 100.8682371  48.3590784 118.4723151  98.9251709  58.9101560
 117.9890232  99.7252069  59.1165449 118.5584090  98.9359654  57.9569004
 111.7409110 100.7580089  46.8323380 111.7179798 100.8567776  45.8805263
 112.0509747 101.6045240  47.1540546 114.3996488 102.8156244  50.9469994
 115.3539742 102.7840186  50.8799925 114.2009012 102.3546867  51.7620220
 114.9895870 101.3857360  53.5140792 115.8088759 101.8801438  53.5375629
 115.2632678 100.4689328  53.4858359 112.7546717 108.3575863  47.9640192
 112.6201185 107.5976264  47.3978190 112.3378779 109.0816763  47.4968981
 110.2430784  95.7195494  54.2132989 110.8889648  95.2094448  54.7020214
 110.0347936  96.4564175  54.7876414 118.7634395  89.9835538  39.9656885
 118.7513065  90.9277378  40.1225156 119.6557817  89.8005684  39.6716346
 114.5828275  92.8663111  58.3108003 115.4459737  92.5099916  58.5211327
 114.0093686  92.5277006  58.9983407  52.5047787  -5.4611207  30.6463386
  52.4271817  -4.5103381  30.7251867  51.9009431  -5.8065334  31.3038312
  50.1434617  -2.7125813  34.7911588  50.3831215  -2.0807288  35.4690607
  49.3003814  -3.0637773  35.0776947  50.6179449  -6.6877810  32.1210367
  49.9489825  -6.2031683  31.6374407  50.4792319  -6.4408590  33.0353745
  54.7584718  -4.6534067  38.7193025  55.3103026  -4.4902445  39.4842110
  55.0990911  -4.0629629  38.0473050  47.7184191  -6.6113520  34.6885498
  47.5838659  -7.3713119  34.1223496  47.3016253  -5.8872620  34.2214287
  50.8753317  -5.7144203  34.9003941  50.7585701  -4.7698771  34.7982631
  50.0545763  -6.0170642  35.2889740  51.9007831  -5.0615941  38.1159869
  52.8035078  -5.0292331  38.4326364  51.6745201  -5.9915490  38.1306205
  66.2003833  -0.5196988  35.7777235  65.8622344  -0.6355924  34.8897770
  67.0693601  -0.9205823  35.7578241  62.0590649   1.3338488  31.7674126
  61.4955514   1.2428425  30.9990414  61.9443044   0.5138393  32.2476619
  66.6823616   0.6337863  41.7363441  66.6712257   0.2390662  40.8643944
  66.8444255  -0.0996064  42.3297212  59.6055081   2.8289680  34.6058347
  60.3976372   2.4880504  34.1904646  59.8451731   2.9384655  35.5260500
  67.6390207   5.0009456  27.0788591  66.9878187   5.5863536  26.6922605
  68.4334570   5.5315651  27.1383629  61.5645834   2.0898593  27.4775725
  62.3376710   1.5427580  27.3388601  61.9171233   2.9542842  27.6890187
  63.4030877   3.4174975  40.6842625  63.1120743   4.3220606  40.5689291
  64.0387861   3.4591503  41.3986694  64.3287084   0.7951824  37.2743984
  64.9250656   0.5707846  36.5600947  64.3862055   0.0536569  37.8769432
  69.1165472   2.6899888  27.6157575  68.4811305   2.7634514  28.3278480
  68.7862879   3.2793487  26.9376655  63.6208401   0.1519365  27.3118550
  63.5044659  -0.5235732  27.9799635  63.7310661  -0.3348261  26.4950703
  65.9639942  -0.3870488  31.0165240  65.5998149  -0.9139867  31.7278161
  66.8207058  -0.7772019  30.8431725  68.3620762   3.1036391  37.6792418
  68.0621485   4.0061430  37.5708226  68.0171822   2.8368574  38.5313571
  61.8133244  -0.4449812  33.7129123  60.8883740  -0.5773598  33.9206815
  62.0617657   0.3344407  34.2099065  59.1742055  -0.8016539  34.5472912
  59.3034436  -0.5482060  35.4612324  58.4939506  -0.2088831  34.2277567
  63.3441542   9.8680711  30.6463386  63.2665572  10.8188536  30.7251867
  62.7403186   9.5226584  31.3038312  64.0905144  -0.1505970  42.8642720
  64.8319828   0.3879074  42.5877544  63.3842129   0.4760319  43.0214272
  69.5660484   1.9923170  41.4614881  69.9743840   1.5505581  40.7169514
  68.8437745   1.4175798  41.7149074  69.8889298   2.5524361  35.2167170
  69.2598161   2.7170075  34.5143238  69.5014960   2.9665971  35.9878134
  73.7678530   3.4878799  32.5711534  73.0829568   3.8677700  32.0208567
  73.8522380   4.0974125  33.3043482  71.0229462   1.1338758  39.1706878
  71.2346357   1.7770518  38.4941259  70.9759210   0.3001074  38.7028808
  65.4417260   2.2898769  32.4817255  65.9055606   2.5686472  31.6921878
  65.1774058   1.3882214  32.2990346  62.3341341   1.8370251  35.4197019
  62.9042698   2.2657519  34.7814503  62.9249453   1.5552835  36.1181204
  58.1211480  -3.3294526  34.5923954  57.3310534  -3.0736997  34.1164065
  58.6122728  -2.5146188  34.6975995  72.1375290   4.0110713  37.3429235
  72.9592733   3.6090901  37.0611917  72.1337693   3.9078947  38.2945351
  60.0726226  -2.9649947  31.5507431  59.2757389  -2.8531252  32.0690927
  59.8451818  -2.6263294  30.6848321  65.9031893   3.5594757  39.4989946
  65.9676326   4.0215164  40.3348117  65.1942817   2.9292121  39.6272255
  56.4049183  -3.0764035  37.0238945  56.6557222  -2.1917026  37.2896521
  56.9408732  -3.2559434  36.2514037  65.6179911   5.2262864  29.3668926
  65.4825586   6.0714400  29.7953774  66.1589723   5.4282142  28.6034860
  59.0709308   2.7438302  29.9396851  59.5833829   3.5381552  30.0902416
  59.7232021   2.0464593  29.8730452  60.8804193   5.8604058  32.0219604
  61.0570821   6.7822023  31.8340588  61.6761026   5.5462478  32.4513984
  60.1656549  -2.0931310  41.8981767  60.0510065  -2.9946053  42.1988866
  59.3101067  -1.8467613  41.5466584  67.2448387   5.8486431  43.4969268
  66.8012241   5.0622809  43.1790172  67.9065601   6.0365581  42.8313159
  62.0035508   7.3782232  38.0229946  62.5542934   7.2499296  37.2506940
  61.1646984   7.6777121  37.6724839  69.3429625   6.1289230  41.5250669
  69.3248101   6.9498112  41.0330938  70.2649545   6.0043306  41.7500810
  65.8002679   3.6433360  42.3674178  66.3331016   2.8821648  42.1373486
  65.2716761   3.3507012  43.1098332  57.0358225   1.0726956  30.7156421
  57.8733447   1.4823965  30.4990129  57.2136493   0.1326399  30.6856615
  67.1655392   2.7719352  29.8792990  66.6376754   2.0372112  29.5666227
  66.6642895   3.5494029  29.6332958  72.1448238   0.9668373  34.9960036
  71.4871913   1.6567634  35.0840165  72.9488637   1.3564805  35.3394022
  65.3107992   0.5899563  22.8827963  64.4035054   0.3588816  23.0819112
  65.8079024  -0.2062818  23.0701944  68.2176071   9.2997070  25.8024649
  67.5437770   9.6028767  26.4109607  68.6041893  10.1026150  25.4530106
  66.4896226   0.6912158  27.4051953  65.5807445   0.4071190  27.5024422
  66.5191310   1.1111236  26.5455260  71.7215493   4.3018747  31.1743120
  71.2677820   3.4609657  31.2308311  71.0909460   4.9380145  31.5117900
  70.1648432   6.1395244  32.1092938  70.4571407   6.7000301  31.3905304
  70.6747053   6.4323805  32.8646097  57.0584396  -1.5882328  31.3867155
  56.8608796  -2.1812968  30.6618221  56.5031060  -1.8930118  32.1043094
  66.1872314   2.2320901  24.7440031  65.7491744   1.5156760  24.2845669
  66.9282754   2.4597016  24.1825123  65.1282058   6.9175595  33.1986392
  65.0858236   7.1436441  32.2694924  66.0444756   6.6838969  33.3472193
  74.3314808   2.5754625  35.8127621  74.7651315   2.4829914  36.6610675
  75.0446389   2.5512126  35.1747637  63.2447858   3.7938624  32.9948354
  64.0388457   3.2988944  32.7930929  62.5339551   3.2656487  32.6316060
  68.0642703   6.1756719  37.3460722  68.1179725   6.7447656  38.1138438
  67.1957484   6.3458604  36.9814759  59.5530622  -2.0618294  29.0708107
  58.6228210  -2.1233839  29.2878069  59.6488094  -2.5842342  28.2744748
  75.1930358   2.6178326  38.3460507  75.3866248   3.5224136  38.5919782
  75.0930976   2.1585745  39.1799092  70.2545466   2.7685069  43.9201387
  70.1030973   2.5395620  43.0031471  70.2450146   3.7255670  43.9332732
  67.0230803   0.3416981  38.9047654  67.9522863   0.4928141  38.7316621
  66.6021833   0.4301002  38.0496300  65.8219134   4.3667646  36.6746191
  65.6830220   3.9986430  37.5472130  65.0333731   4.8815285  36.5030149
  66.4167286   9.4676742  28.0171728  66.5919042   8.9964786  28.8317351
  65.7300074  10.0942509  28.2452989  67.3724350   3.7449249  34.0635029
  67.0374182   3.7050019  34.9592679  66.8728295   3.0793964  33.5905439
  61.3468594  -0.8483121  39.5887610  61.2088391  -1.5802883  40.1899149
  62.2573517  -0.9374221  39.3071798  70.3083541   1.0905283  24.3372089
  69.6912712   0.3652111  24.2405142  69.8400030   1.8514643  23.9939163
  63.9750894  -1.1363162  39.0771290  64.6850513  -1.7769970  39.0357908
  63.9320202  -0.8850267  39.9997471  71.9637673   5.8004191  41.9977869
  71.9050219   5.1163411  41.3308452  72.3657191   6.5423181  41.5458495
  60.9828372  12.6166105  34.7911588  61.2224970  13.2484629  35.4690607
  60.1397568  12.2654145  35.0776947  71.9655080   3.7643775  40.2291849
  71.0781859   3.4269697  40.3518248  72.5353631   3.0326806  40.4660614
  53.6184227   0.0967867  33.5534900  54.3055267  -0.2170403  32.9655916
  53.4632356   1.0009232  33.2802152  65.4956234   8.4245228  37.1953092
  65.4226405   9.2300199  37.7072397  65.0533627   8.6237193  36.3701113
  65.2846013   7.6616998  30.7055914  64.5013535   8.2038678  30.7994138
  65.9838758   8.1790977  31.1050155  67.9554917   8.3232062  39.3511251
  68.6682889   8.9579526  39.2787152  67.4644946   8.4195928  38.5351253
  69.6772444   2.2283314  30.9228542  68.7428723   2.3484777  30.7533247
  69.8549112   1.3255781  30.6588552  63.0066831   6.0726505  40.1716822
  63.7076290   6.7062988  40.3246216  62.5361946   6.4141237  39.4112461
  71.1321226   4.4144455  28.4564729  71.4081070   4.3001049  29.3658603
  70.2625725   4.0161940  28.4176902  67.7675290   8.6630806  32.0997542
  67.9497685   7.8452462  32.5625295  68.5908276   8.8798498  31.6622432
  68.1017456   7.5898991  29.3612591  68.6305222   7.0791445  28.7482753
  68.3645676   7.2741521  30.2258124  66.8555690  -0.6309076  44.4835409
  66.1796327  -0.7314947  45.1537784  67.6783323  -0.7869863  44.9471406
  58.6034549   5.6062860  37.1047924  59.1887985   4.8606548  37.2375828
  58.4059387   5.9166817  37.9884588  61.4573204   8.6414107  32.1210367
  60.7883579   9.1260235  31.6374407  61.3186074   8.8883328  33.0353745
  53.1952203  -1.8231540  35.8252367  53.2336303  -2.3567949  36.6189486
  52.6892496  -2.3496334  35.2063345  65.5978472  10.6757851  38.7193025
  66.1496780  10.8389472  39.4842110  65.9384666  11.2662289  38.0473050
  70.4489347   5.5019109  44.5741679  70.9929251   6.1149067  44.0796634
  69.8676192   6.0598687  45.0908692  56.8260781  -3.0967438  28.9006299
  57.1214222  -4.0056759  28.8473352  55.9248817  -3.1179698  28.5787301
  68.7346860   8.6239827  35.7056707  68.6097999   7.8229566  35.1967653
  69.3925951   9.1186020  35.2170677  70.7981768   6.4248847  37.3336257
  69.8512104   6.3054198  37.2614584  71.1464541   5.5371345  37.4162519
  67.8028201   6.2201563  33.5340609  67.6553164   5.2918270  33.7148180
  68.6281695   6.2421654  33.0497685  71.4062323   7.0430122  34.6205482
  72.3308871   6.8372983  34.4829933  71.2377627   6.7946523  35.5294824
  71.1957639   7.5615789  29.9767574  71.3694517   6.9962211  29.2241426
  71.6886531   8.3616684  29.7947064  57.0134599  -0.4269542  38.0431132
  56.4688067   0.3490266  38.1751407  57.8913949  -0.0798737  37.8850254
  72.1832812   6.8782553  27.0764472  72.8783717   7.4989246  27.2951787
  72.5255962   6.0277905  27.3516850  57.8000621  -1.2999646  40.9361289
  57.0582357  -1.1517010  41.5225920  57.4793365  -1.0391380  40.0728039
  74.0824235   4.3282259  28.6051803  74.6075559   4.6669532  27.8801123
  73.9946588   3.3929274  28.4214937  65.7444284   8.2416333  40.7341679
  66.0531410   7.9965479  41.6064379  66.5419766   8.4462971  40.2460550
  65.7664896  10.3954242  32.9647056  65.3269886   9.9030621  33.6579913
  66.5173013   9.8527210  32.7239131  58.2457235   6.5865783  32.9671684
  59.0715255   6.2869555  32.5870328  57.8951287   5.8173406  33.4161473
  63.2138768   5.9392251  35.0369358  62.5918777   5.2762956  34.7371585
  63.8843635   5.9653383  34.3543005  56.4465840   4.5052110  33.9260618
  55.6097748   4.0774284  33.7444619  56.4189485   4.6984553  34.8631409
  73.7718141   4.9615163  43.9103001  72.9813685   4.9439301  43.3707500
  73.5351496   5.5003456  44.6652037  62.7752275   4.4896175  28.5127818
  62.9240395   5.1731639  27.8594491  63.5818718   4.4701265  29.0277274
  75.3934213   4.2304570  41.4677751  75.1019021   4.5934551  42.3041212
  74.7806344   3.5171579  41.2891083  60.5304908   0.5161352  29.5188887
  60.2850950  -0.3876318  29.7169097  60.7000822   0.5178503  28.5768365
  66.2747680   6.9844305  25.9839566  65.7021647   7.6034492  25.5310037
  66.8480474   7.5343667  26.5179487  69.4944940   7.2681455  27.1148148
  70.4275613   7.2027017  27.3181023  69.4068153   8.1037722  26.6562680
  72.1232957   6.5847326  24.0752095  72.0446588   6.2507189  24.9687853
  72.9442624   7.0769093  24.0743568  66.5433171   2.3722864  44.7856275
  67.4636181   2.5501463  44.9796322  66.5082754   1.4278909  44.6335974
  55.7615336  -2.4338542  33.7109550  55.4418121  -3.2873234  33.4183924
  55.2148765  -2.2189964  34.4667517  59.5395244   0.2823899  37.4279056
  59.7581254   1.2141006  37.4467090  59.9521018  -0.0768127  38.2133860
  55.6303596   1.1864369  35.6802671  54.9367068   0.7718322  35.1672626
  56.3776587   1.2284906  35.0836090  64.2754379  -0.7145757  45.6346867
  63.7921461   0.0854603  45.8410756  64.3615318  -0.7037812  44.6814311
  57.5440339   1.1182623  33.5568686  57.5211027   1.2170310  32.6050569
  57.8540975   1.9647774  33.8785852  60.2027717   3.1758778  37.6715301
  61.1570970   3.1442720  37.6045232  60.0040240   2.7149402  38.4865526
  60.7927099   1.7459894  40.2386098  61.6119988   2.2403973  40.2620936
  61.0663907   0.8291862  40.2103666  58.5577946   8.7178397  34.6885498
  58.4232414   7.9578798  34.1223496  58.1410008   9.4419297  34.2214287
  69.6936909   3.9015321  23.6962074  70.3972759   4.1065323  24.3119729
  68.9699557   4.4692083  23.9611157  61.7147071   9.6147714  34.9003941
  61.5979456  10.5593147  34.7982631  60.8939518   9.3121276  35.2889740
  71.6023606   4.3397850  25.7460534  72.4369210   3.9079049  25.5638009
  71.4407949   4.1679864  26.6737428  71.2569498   0.8429963  27.1116873
  71.2018302   0.6774235  26.1705317  70.6315553   1.5505996  27.2679063
  56.0462013  -3.9201972  40.9378295  56.6920877  -4.4303018  41.4265520
  55.8379164  -3.1833290  41.5121721  68.5715405   3.1478875  46.4370436
  69.4406565   3.3219528  46.0757071  68.0922157   3.9673292  46.3146165
  62.7401586  10.2675976  38.1159869  63.6428832  10.2999587  38.4326364
  62.5138956   9.3376427  38.1306205  64.4955188   9.0206963  34.7769948
  63.5450819   9.0208824  34.6634320  64.7987674   8.2739697  34.2605983
  80.2307881  14.8567501  35.8415711  80.8686291  14.7374249  35.1379051
  80.1128724  15.8048345  35.9003663  77.0397587  14.8094929  35.7777235
  76.7016099  14.6935994  34.8897770  77.9087356  14.4086094  35.7578241
  72.8984403  16.6630406  31.7674126  72.3349268  16.5720343  30.9990414
  72.7836798  15.8430310  32.2476619  77.5217370  15.9629781  41.7363441
  77.5106011  15.5682579  40.8643944  77.6838010  15.2295854  42.3297212
  70.4448835  18.1581597  34.6058347  71.2370127  17.8172422  34.1904646
  70.6845485  18.2676572  35.5260500  78.4783962  20.3301373  27.0788591
  77.8271942  20.9155454  26.6922605  79.2728325  20.8607568  27.1383629
  72.4039589  17.4190511  27.4775725  73.1770465  16.8719498  27.3388601
  72.7564988  18.2834760  27.6890187  74.2424632  18.7466893  40.6842625
  73.9514498  19.6512524  40.5689291  74.8781616  18.7883421  41.3986694
  75.1680838  16.1243741  37.2743984  75.7644411  15.8999764  36.5600947
  75.2255810  15.3828487  37.8769432  74.7405867  13.5783177  25.1094175
  74.9931387  13.0564698  24.3477638  73.8030426  13.4149322  25.2120859
  79.7849150  12.5818955  32.9168919  80.5712239  12.1638378  32.5659336
  80.0487854  13.4865047  33.0850567  79.9559227  18.0191805  27.6157575
  79.3205060  18.0926432  28.3278480  79.6256633  18.6085404  26.9376655
  85.1857577  12.5194188  33.8201897  85.9182749  11.9493405  34.0539727
  84.4296932  12.1315789  34.2608403  74.4602156  15.4811283  27.3118550
  74.3438414  14.8056186  27.9799635  74.5704415  14.9943657  26.4950703
  76.8033696  14.9421430  31.0165240  76.4391904  14.4152051  31.7278161
  77.6600812  14.5519899  30.8431725  82.7082997   6.2315762  38.2796506
  82.3766322   7.1011173  38.0557721  82.1128610   5.9152046  38.9590536
  76.4439183   9.9711330  26.0126588  76.6113586  10.8391566  26.3797059
  76.2536353  10.1338611  25.0887877  79.2014517  18.4328308  37.6792418
  78.9015240  19.3353347  37.5708226  78.8565576  18.1660492  38.5313571
  72.6526998  14.8842105  33.7129123  71.7277495  14.7518319  33.9206815
  72.9011411  15.6636325  34.2099065  82.6011660  10.9510849  35.3589856
  81.6928538  10.8826257  35.0648617  82.5499256  11.4282794  36.1871681
  76.4228404  12.4268987  26.9973255  76.3028030  12.8726038  27.8358735
  75.7280993  12.7754305  26.4386793  70.0135809  14.5275379  34.5472912
  70.1428190  14.7809858  35.4612324  69.3333260  15.1203087  34.2277567
  74.1835296  25.1972629  30.6463386  74.1059326  26.1480454  30.7251867
  73.5796940  24.8518501  31.3038312  76.6752526  12.3700494  43.3024753
  75.8985860  12.9294414  43.2927618  77.3143089  12.8557277  43.8239623
  84.4673307   9.1527287  37.1367730  83.8247687   9.4459820  36.4907524
  83.9628235   9.0380207  37.9420926  82.1213470  12.8990460  27.8253589
  83.0331327  13.1317847  27.6501286  81.6123118  13.4827504  27.2628668
  74.9298899  15.1785948  42.8642720  75.6713583  15.7170992  42.5877544
  74.2235884  15.8052236  43.0214272  80.4054238  17.3215088  41.4614881
  80.8137594  16.8797499  40.7169514  79.6831500  16.7467716  41.7149074
  76.7585308  12.2587695  38.8348438  77.6046503  12.6827108  38.9783087
  76.6983946  11.6021319  39.5287002  80.7283053  17.8816279  35.2167170
  80.0991915  18.0461993  34.5143238  80.3408715  18.2957888  35.9878134
  84.6072285  18.8170717  32.5711534  83.9223323  19.1969618  32.0208567
  84.6916134  19.4266043  33.3043482  79.9084754   9.9192063  40.4929612
  79.6645685  10.6734124  39.9563888  80.1844684  10.2977411  41.3276859
  81.8623216  16.4630676  39.1706878  82.0740112  17.1062435  38.4941259
  81.8152965  15.6292992  38.7028808  79.4649445   9.0748496  36.0743450
  78.6033924   9.3729750  36.3660187  79.4911880   9.2918895  35.1424482
  76.2811015  17.6190687  32.4817255  76.7449360  17.8978390  31.6921878
  76.0167813  16.7174131  32.2990346  73.1735096  17.1662168  35.4197019
  73.7436453  17.5949437  34.7814503  73.7643208  16.8844753  36.1181204
  75.2179901  13.7413839  29.2906821  75.9203944  14.1934883  29.7580747
  74.8860529  13.0997658  29.9186714  73.6660262  12.3325596  43.6658030
  73.0358923  13.0141877  43.8993427  73.5596350  12.2208677  42.7211168
  68.9605235  11.9997392  34.5923954  68.1704289  12.2554920  34.1164065
  69.4516482  12.8145730  34.6975995  82.9769044  19.3402631  37.3429235
  83.7986488  18.9382818  37.0611917  82.9731447  19.2370865  38.2945351
  70.9119980  12.3641971  31.5507431  70.1151143  12.4760665  32.0690927
  70.6845572  12.7028623  30.6848321  76.7425648  18.8886674  39.4989946
  76.8070080  19.3507081  40.3348117  76.0336572  18.2584039  39.6272255
  67.2442938  12.2527882  37.0238945  67.4950976  13.1374892  37.2896521
  67.7802486  12.0732484  36.2514037  91.0675037  15.6841379  33.6914206
  90.3138746  15.1148778  33.5358211  91.2022579  15.6504044  34.6384841
  76.4573665  20.5554782  29.3668926  76.3219340  21.4006317  29.7953774
  76.9983478  20.7574059  28.6034860  72.9441005   6.6346362  46.0283281
  72.5507951   6.0812560  46.7030925  73.7607145   6.9456940  46.4189799
  69.9103063  18.0730220  29.9396851  70.4227583  18.8673470  30.0902416
  70.5625776  17.3756510  29.8730452  71.7197947  21.1895976  32.0219604
  71.8964576  22.1113941  31.8340588  72.5154781  20.8754395  32.4513984
  75.8608966   8.0504241  43.6203538  76.6018679   8.6511394  43.5408000
  76.0926889   7.3081878  43.0621580  71.0050304  13.2360608  41.8981767
  70.8903819  12.3345865  42.1988866  70.1494822  13.4824305  41.5466584
  78.0842142  21.1778348  43.4969268  77.6405996  20.3914727  43.1790172
  78.7459355  21.3657499  42.8313159  72.8429263  22.7074150  38.0229946
  73.3936688  22.5791213  37.2506940  72.0040739  23.0069039  37.6724839
  80.1823380  21.4581148  41.5250669  80.1641855  22.2790029  41.0330938
  81.1043300  21.3335223  41.7500810  76.6396434  18.9725278  42.3674178
  77.1724771  18.2113566  42.1373486  76.1110515  18.6798929  43.1098332
  79.8066129   4.0785344  37.8967819  79.4630398   4.9686985  37.8206930
  80.1745092   3.8887001  37.0337404  67.8751980  16.4018874  30.7156421
  68.7127202  16.8115882  30.4990129  68.0530247  15.4618316  30.6856615
  79.7716412  14.0693955  26.4040254  79.2563035  14.8398559  26.6428642
  79.4993720  13.3959091  27.0273316  77.3563523   8.9143656  31.4625493
  76.5005119   8.5250506  31.2831131  77.7690474   8.9935616  30.6025278
  78.8862669   6.4489999  35.8617053  78.3827465   6.4120134  35.0484858
  79.1793276   7.3582741  35.9213709  75.1305555   6.5328728  34.8683234
  75.9958552   6.3371537  34.5089124  75.1983064   6.3039080  35.7952591
  84.7450686  16.8226309  28.3393428  83.9680129  16.4837469  27.8948590
  85.4242167  16.8278933  27.6648393  79.5602715  11.9421047  28.2300036
  79.2552850  12.2567196  29.0810179  80.5133157  12.0202467  28.2727369
  78.0049147  18.1011270  29.8792990  77.4770508  17.3664030  29.5666227
  77.5036649  18.8785946  29.6332958  82.9841993  16.2960291  34.9960036
  82.3265667  16.9859552  35.0840165  83.7882392  16.6856723  35.3394022
  72.7367874   8.7630936  32.2399601  73.3111626   8.5406118  31.5072794
  73.3238857   8.8319631  32.9928202  81.7947451  14.6504663  33.0463978
  82.3079333  15.2834655  33.5485687  82.4448675  14.0505859  32.6807338
  73.0637461  10.7935397  26.2595486  72.2274774  11.1310084  26.5804761
  72.9242231  10.6584377  25.3222623  75.0390542   5.6372185  30.9674671
  74.3854954   5.3221202  30.3431285  74.9971016   5.0147926  31.6934493
  76.1501747  15.9191480  22.8827963  75.2428809  15.6880734  23.0819112
  76.6472779  15.1229100  23.0701944  79.0569826  24.6288988  25.8024649
  78.3831524  24.9320684  26.4109607  79.4435648  25.4318068  25.4530106
  78.2728282  12.1254119  35.2922318  77.3550844  12.3469066  35.1344006
  78.6888426  12.2000429  34.4334025  79.0563330  13.5245535  30.4224998
  79.8035149  14.0366932  30.1132120  79.3254920  13.2029587  31.2829392
  77.3289980  16.0204075  27.4051953  76.4201200  15.7363108  27.5024422
  77.3585064  16.4403154  26.5455260  82.5609248  19.6310665  31.1743120
  82.1071575  18.7901575  31.2308311  81.9303214  20.2672063  31.5117900
  81.5042167  10.5602651  32.4043788  80.7664924  10.0480037  32.7354030
  81.7568941  10.1203032  31.5927065  81.0042187  21.4687161  32.1092938
  81.2965161  22.0292219  31.3905304  81.5140807  21.7615722  32.8646097
  67.8978151  13.7409589  31.3867155  67.7002550  13.1478950  30.6618221
  67.3424815  13.4361800  32.1043094  75.8774874  13.6332696  33.5061748
  75.9323484  12.6806532  33.4304225  75.0666076  13.7892135  33.9903046
  77.0266068  17.5612819  24.7440031  76.5885498  16.8448678  24.2845669
  77.7676509  17.7888934  24.1825123  73.8167234  12.2509756  31.2652127
  73.0035100  12.5503926  31.6717319  74.3126228  11.8565444  31.9826609
  75.9675812  22.2467513  33.1986392  75.9251991  22.4728359  32.2694924
  76.8838511  22.0130887  33.3472193  79.4141446  12.7151580  40.0967021
  79.7690834  12.9423053  40.9561487  80.0613577  13.0469957  39.4744276
  85.1439183  15.8370016  30.8016350  85.0057081  16.0271612  29.8737539
  84.7875402  16.5989399  31.2584401  73.3081309   9.8228111  36.8813362
  73.9480688   9.6816870  36.1836325  72.4758840   9.5362625  36.5051964
  85.1708562  17.9046543  35.8127621  85.6045069  17.8121832  36.6610675
  85.8840143  17.8804043  35.1747637  74.0841613  19.1230542  32.9948354
  74.8782211  18.6280862  32.7930929  73.3733305  18.5948405  32.6316060
  78.9036457  21.5048637  37.3460722  78.9573480  22.0739573  38.1138438
  78.0351239  21.6750522  36.9814759  70.3924376  13.2673623  29.0708107
  69.4621964  13.2058079  29.2878069  70.4881848  12.7449576  28.2744748
  70.3109925   9.7928436  31.6586349  70.5716743  10.7073769  31.5495509
  71.1327098   9.3252879  31.8082961  71.7834851  11.2066193  38.8285173
  72.4557904  10.9983555  38.1797822  70.9564637  11.0088279  38.3890405
  86.0324112  17.9470244  38.3460507  86.2260002  18.8516054  38.5919782
  85.9324730  17.4877663  39.1799092  77.6860423   7.8328134  40.8450834
  77.0388338   8.5318084  40.7515310  78.4561438   8.2664278  41.2127082
  81.0939221  18.0976986  43.9201387  80.9424727  17.8687538  43.0031471
  81.0843900  19.0547588  43.9332732  77.8624557  15.6708899  38.9047654
  78.7916617  15.8220059  38.7316621  77.4415587  15.7592920  38.0496300
  76.6612889  19.6959564  36.6746191  76.5223975  19.3278348  37.5472130
  75.8727485  20.2107203  36.5030149  77.2561041  24.7968660  28.0171728
  77.4312797  24.3256703  28.8317351  76.5693829  25.4234426  28.2452989
  78.2118104  19.0741166  34.0635029  77.8767937  19.0341936  34.9592679
  77.7122050  18.4085882  33.5905439  72.1862348  14.4808796  39.5887610
  72.0482146  13.7489035  40.1899149  73.0967271  14.3917696  39.3071798
  81.1477296  16.4197201  24.3372089  80.5306466  15.6944029  24.2405142
  80.6793784  17.1806561  23.9939163  74.8144649  14.1928756  39.0771290
  75.5244267  13.5521948  39.0357908  74.7713957  14.4441650  39.9997471
  73.5273583  11.1793973  40.8966929  72.9910940  10.7284712  41.5488526
  72.9390291  11.3139882  40.1537394  71.8222126  27.9458023  34.7911588
  72.0618724  28.5776547  35.4690607  70.9791323  27.5946063  35.0776947
  72.9375842  10.6382625  23.4593393  72.0605308  10.5171426  23.0955640
  73.4133595   9.8468703  23.2072282  82.8048835  19.0935693  40.2291849
  81.9175613  18.7561615  40.3518248  83.3747386  18.3618724  40.4660614
  64.4577982  15.4259785  33.5534900  65.1449022  15.1121515  32.9655916
  64.3026110  16.3301149  33.2802152  69.2612704  10.3149981  37.9819924
  69.1770893   9.7075651  37.2470334  68.4395410  10.8058999  37.9829420
  76.3349988  23.7537145  37.1953092  76.2620159  24.5592117  37.7072397
  75.8927381  23.9529111  36.3701113  76.1239768  22.9908915  30.7055914
  75.3407290  23.5330595  30.7994138  76.8232513  23.5082895  31.1050155
  79.4336418   8.8003545  33.3490119  79.9305117   8.0473507  33.0291189
  78.6623399   8.8367861  32.7833328  87.2866175  14.5043910  34.9908411
  87.2756051  15.3868626  34.6202344  86.4183555  14.1515461  34.7962948
  78.7948672  23.6523979  39.3511251  79.5076644  24.2871444  39.2787152
  78.3038700  23.7487845  38.5351253  80.5166198  17.5575232  30.9228542
  79.5822477  17.6776694  30.7533247  80.6942867  16.6547699  30.6588552
  76.0171386  10.9420928  33.0761804  75.6469174  10.3891968  33.7642709
  76.5130479  10.3379061  32.5236804  83.9038750  13.3992551  31.4578577
  84.3699202  14.2320543  31.3838879  84.3546250  12.9337533  32.1623835
  73.8460585  21.4018423  40.1716822  74.5470045  22.0354906  40.3246216
  73.3755700  21.7433154  39.4112461  81.9714981  19.7436373  28.4564729
  82.2474825  19.6292967  29.3658603  81.1019480  19.3453857  28.4176902
  81.8755413   5.7673138  35.4969478  80.9618492   5.9977365  35.6651685
  82.3048514   5.8511582  36.3483510  81.6461871  13.9563030  37.9969372
  80.9933321  14.2038938  37.3421825  82.0242251  13.1427168  37.6631849
  78.6069045  23.9922723  32.0997542  78.7891439  23.1744379  32.5625295
  79.4302031  24.2090416  31.6622432  78.9411210  22.9190908  29.3612591
  79.4698977  22.4083363  28.7482753  79.2039430  22.6033439  30.2258124
  77.6949444  14.6982841  44.4835409  77.0190081  14.5976971  45.1537784
  78.5177078  14.5422055  44.9471406  69.4428303  20.9354778  37.1047924
  70.0281740  20.1898466  37.2375828  69.2453142  21.2458734  37.9884588
  72.2966958  23.9706025  32.1210367  71.6277334  24.4552153  31.6374407
  72.1579828  24.2175246  33.0353745  64.0345958  13.5060378  35.8252367
  64.0730057  12.9723969  36.6189486  63.5286251  12.9795583  35.2063345
  71.4136720   8.3524918  39.3214910  71.4778047   9.2139749  38.9092307
  71.3503840   7.7398920  38.5887268  70.8888993  10.4248051  42.9687944
  71.5161032  10.0425128  43.5825468  70.0316912  10.2062253  43.3343636
  67.6654535  12.2324480  28.9006299  67.9607977  11.3235159  28.8473352
  66.7642571  12.2112220  28.5787301  71.1948782  10.3080477  34.8833847
  70.4735368  10.9216444  34.7441321  71.9842038  10.8438242  34.8050493
  73.9975096   7.6434903  41.1574499  74.5209498   7.8897200  41.9200808
  73.7787429   8.4754938  40.7377636  69.3942377   9.9138578  29.0245624
  69.0655083   9.0335957  28.8420730  69.7481748   9.8586246  29.9122013
  78.6421956  21.5493481  33.5340609  78.4946918  20.6210188  33.7148180
  79.4675449  21.5713571  33.0497685  72.5084200  10.2011548  29.3921102
  72.8480273  10.7297469  28.6699710  72.9556321  10.5391954  30.1679668
  75.2027641   8.5848598  38.8424170  74.8624461   7.7856411  39.2444850
  74.4966647   8.8850309  38.2701003  75.8544113   5.6697911  37.2951493
  76.6770182   5.1958389  37.1730383  76.0982176   6.4488394  37.7950179
  74.4952347   8.6986169  27.5914394  75.2160710   9.0767422  27.0878111
  73.8717651   9.4175046  27.6949372  78.6383470   9.4031318  28.5272727
  78.8547085  10.2855956  28.2261555  78.1577537   9.0117532  27.7978369
  73.3782692  12.3617031  35.1043471  73.2327272  12.6757334  35.9967753
  72.9007895  12.9801932  34.5514370  75.2379074   9.3519579  35.1524361
  75.2240643   8.4560673  34.8156659  75.9551503   9.3590243  35.7862647
  77.0905205   9.7856920  37.1977488  76.8322983  10.7073990  37.1961819
  76.5590246   9.3887354  37.8877952  82.0351394  22.8907707  29.9767574
  82.2088271  22.3254129  29.2241426  82.5280285  23.6908602  29.7947064
  67.8528354  14.9022376  38.0431132  67.3081822  15.6782184  38.1751407
  68.7307704  15.2493180  37.8850254  74.6415970   8.2333960  30.4211931
  74.7631882   7.3050606  30.6202819  74.3518013   8.2472646  29.5090246
  77.5107161   5.9188870  33.5578651  77.5328858   5.9828203  32.6030630
  77.9275220   5.0793379  33.7519157  87.8890785  15.6544130  31.5957873
  88.3321931  14.9051455  31.1976997  87.0117295  15.6454266  31.2131605
  83.0226566  22.2074471  27.0764472  83.7177471  22.8281164  27.2951787
  83.3649717  21.3569822  27.3516850  68.6394376  14.0292272  40.9361289
  67.8976112  14.1774907  41.5225920  68.3187120  14.2900538  40.0728039
  84.9217990  19.6574177  28.6051803  85.4469314  19.9961449  27.8801123
  84.8340342  18.7221192  28.4214937  76.6058650  25.7246160  32.9647056
  76.1663641  25.2322539  33.6579913  77.3566767  25.1819128  32.7239131
  69.0850989  21.9157701  32.9671684  69.9109009  21.6161473  32.5870328
  68.7345041  21.1465323  33.4161473  74.0532522  21.2684169  35.0369358
  73.4312532  20.6054874  34.7371585  74.7237389  21.2945301  34.3543005
  67.2859594  19.8344027  33.9260618  66.4491503  19.4066202  33.7444619
  67.2583240  20.0276471  34.8631409  74.1257050   9.7465957  44.6301864
  74.1745205  10.6228080  44.2479633  74.6679564   9.2043350  44.0573507
  84.7309771  17.1399547  41.2235729  84.7807776  16.9749554  42.1651252
  84.6223694  16.2726806  40.8333610  73.6146029  19.8188092  28.5127818
  73.7634150  20.5023557  27.8594491  74.4212473  19.7993182  29.0277274
  82.0213533  13.1230475  42.5395036  82.9223396  12.9836940  42.2479034
  82.0961508  13.2884929  43.4793213  76.3556338  10.4997329  41.3848222
  75.4859648  10.7930895  41.1130811  76.5915819  11.0837774  42.1055486
  86.2327968  19.5596488  41.4677751  85.9412776  19.9226469  42.3041212
  85.6200099  18.8463496  41.2891083  87.4323650  17.1249368  33.9880321
  88.2670541  17.5639172  34.1517881  87.5682779  16.6488021  33.1688567
  84.4815156  14.6829103  39.9357809  84.9569277  14.8756749  39.1276660
  83.5580721  14.7388289  39.6901192  71.3698662  15.8453270  29.5188887
  71.1244704  14.9415600  29.7169097  71.5394577  15.8470420  28.5768365
  79.0595372   6.7176946  38.9013643  79.5777316   7.4537973  38.5760131
  78.7050505   7.0240940  39.7360402  70.6394310  11.5781628  27.0175049
  69.9463555  11.6525983  26.3615084  70.3946062  10.8141971  27.5396565
  77.1141435  22.3136223  25.9839566  76.5415402  22.9326410  25.5310037
  77.6874229  22.8635584  26.5179487  83.1816825  11.5594863  38.1686114
  84.1334248  11.6592961  38.1898338  83.0120275  10.7673131  38.6784199
  81.2031204   8.6450446  38.3545515  80.6081136   8.9255459  37.6592004
  80.9180901   9.1344347  39.1262256  80.3338695  22.5973373  27.1148148
  81.2669368  22.5318935  27.3181023  80.2461908  23.4329640  26.6562680
  82.9626711  21.9139243  24.0752095  82.8840343  21.5799107  24.9687853
  83.7836378  22.4061011  24.0743568  85.6604903  14.7800983  37.2828414
  85.6281223  13.8416983  37.4688098  86.2705526  14.8585019  36.5494239
  77.4988233  13.6497036  23.3255618  78.4447338  13.5203244  23.3944036
  77.1202478  12.9111697  23.8025046  85.8099391  11.5712026  37.3286697
  85.2938440  10.7870483  37.1416626  86.6939340  11.2430743  37.4933217
  83.4710118   5.3153042  33.2882510  83.2734939   5.0068130  34.1725842
  84.0809824   6.0414680  33.4180440  91.4781452  15.8416989  36.4234451
  92.2084841  15.5802278  36.9842154  90.8688398  15.1045711  36.4636519
  89.5596750  13.9824852  37.0208902  88.8329913  13.8480817  36.4125394
  89.1444036  14.2901681  37.8265620  77.3826926  17.7014782  44.7856275
  78.3029935  17.8793381  44.9796322  77.3476509  16.7570827  44.6335974
  75.6831151  11.5747012  23.2610503  74.7762606  11.2780125  23.3373217
  75.9607132  11.2776830  22.3944790  66.6009091  12.8953375  33.7109550
  66.2811875  12.0418684  33.4183924  66.0542519  13.1101953  34.4667517
  70.3788998  15.6115816  37.4279056  70.5975008  16.5432924  37.4467090
  70.7914772  15.2523791  38.2133860  77.2993216   6.1183902  29.4154745
  76.4893945   5.7730987  29.7909991  77.9877633   5.8091445  30.0042356
  79.2283765   5.1961948  31.0379041  79.7814803   5.6157402  31.6969064
  79.4653851   4.2697697  31.0801997  75.2516864  11.1849022  46.8181805
  75.1513591  12.1343379  46.7493896  75.0338406  10.8567261  45.9457875
  74.4529935   8.4333947  23.4022482  75.3149099   8.7588845  23.6618300
  74.6380279   7.6465443  22.8895548  66.4697351  16.5156287  35.6802671
  65.7760822  16.1010240  35.1672626  67.2170342  16.5576823  35.0836090
  82.6062572   7.3062474  30.5457705  82.0261241   7.9647278  30.1635758
  82.3398504   6.4839818  30.1345123  81.0566138   6.7067531  32.7479026
  81.5565916   6.8184066  31.9393345  81.7001746   6.4028584  33.3879834
  75.1148134  14.6146161  45.6346867  74.6315216  15.4146521  45.8410756
  75.2009073  14.6254106  44.6814311  68.3834093  16.4474541  33.5568686
  68.3604782  16.5462228  32.6050569  68.6934730  17.2939691  33.8785852
  71.0421471  18.5050696  37.6715301  71.9964725  18.4734638  37.6045232
  70.8433995  18.0441319  38.4865526  71.6320853  17.0751812  40.2386098
  72.4513742  17.5695890  40.2620936  71.9057661  16.1583780  40.2103666
  81.3887450   9.4662564  29.6014054  80.5013305   9.7512215  29.3834248
  81.8041439   9.3056327  28.7541331  84.7401986   9.4909085  33.3168393
  85.5162376   9.9805537  33.5893010  84.0150120   9.9167139  33.7740262
  87.1774544  10.2036704  34.3742334  87.7719035   9.9632440  33.6635642
  87.2501128   9.4843835  35.0015870  69.3971700  24.0470315  34.6885498
  69.2626168  23.2870716  34.1223496  68.9803762  24.7711215  34.2214287
  80.5330663  19.2307239  23.6962074  81.2366513  19.4357241  24.3119729
  79.8093312  19.7984001  23.9611157  81.3628473  14.9817100  29.8164344
  81.3063675  15.4385651  28.9771976  81.9156816  14.2207785  29.6387187
  85.1733279  10.7706832  30.6414463  84.9170214  10.3703467  31.4722671
  84.5486147  11.4850626  30.5164603  89.4845617  13.5102905  33.1485755
  88.9245175  13.5796094  33.9217317  88.8789121  13.3343890  32.4285251
  72.5540826  24.9439632  34.9003941  72.4373210  25.8885065  34.7982631
  71.7333272  24.6413194  35.2889740  82.4417361  19.6689768  25.7460534
  83.2762964  19.2370966  25.5638009  82.2801703  19.4971782  26.6737428
  82.0963253  16.1721881  27.1116873  82.0412057  16.0066153  26.1705317
  81.4709308  16.8797914  27.2679063  66.8855768  11.4089946  40.9378295
  67.5314631  10.8988900  41.4265520  66.6772919  12.1458627  41.5121721
  79.4109160  18.4770793  46.4370436  80.2800320  18.6511445  46.0757071
  78.9315911  19.2965210  46.3146165  75.4059378   5.6729990  26.6902191
  75.3938048   6.6171830  26.8470462  76.2982800   5.4900136  26.3961653
  75.3348942  24.3498881  34.7769948  74.3844573  24.3500742  34.6634320
  75.6381428  23.6031615  34.2605983  71.2253259   8.5557563  45.0353310
  72.0884720   8.1994367  45.2456634  70.6518669   8.2171457  45.7228714
  83.2433343  32.7482428  27.4775725  84.0164219  32.2011415  27.3388601
  83.5958742  33.6126678  27.6890187  85.5799621  28.9075094  25.1094175
  85.8325142  28.3856616  24.3477638  84.6424180  28.7441240  25.2120859
  96.0251331  27.8486106  33.8201897  96.7576503  27.2785323  34.0539727
  95.2690687  27.4607706  34.2608403  85.2995910  30.8103200  27.3118550
  85.1832168  30.1348104  27.9799635  85.4098170  30.3235574  26.4950703
  87.2832938  25.3003247  26.0126588  87.4507340  26.1683484  26.3797059
  87.0930107  25.4630529  25.0887877  92.9607225  28.2282378  27.8253589
  93.8725081  28.4609765  27.6501286  92.4516872  28.8119422  27.2628668
 101.9068792  31.0133297  33.6914206 101.1532500  30.4440695  33.5358211
 102.0416333  30.9795962  34.6384841  90.6459883  19.4077261  37.8967819
  90.3024153  20.2978903  37.8206930  91.0138846  19.2178919  37.0337404
  90.6110166  29.3985872  26.4040254  90.0956790  30.1690477  26.6428642
  90.3387475  28.7251009  27.0273316  89.7256424  21.7781916  35.8617053
  89.2221219  21.7412052  35.0484858  90.0187031  22.6874659  35.9213709
  85.9699310  21.8620646  34.8683234  86.8352306  21.6663455  34.5089124
  86.0376819  21.6330998  35.7952591  95.5844440  32.1518227  28.3393428
  94.8073883  31.8129387  27.8948590  96.2635921  32.1570850  27.6648393
  83.5761629  24.0922854  32.2399601  84.1505381  23.8698036  31.5072794
  84.1632611  24.1611549  32.9928202  83.9031216  26.1227315  26.2595486
  83.0668528  26.4602002  26.5804761  83.7635986  25.9876295  25.3222623
  85.8784296  20.9664103  30.9674671  85.2248709  20.6513120  30.3431285
  85.8364771  20.3439843  31.6934493  86.9895501  31.2483398  22.8827963
  86.0822563  31.0172652  23.0819112  87.4866533  30.4521017  23.0701944
  88.1683735  31.3495993  27.4051953  87.2594954  31.0655026  27.5024422
  88.1978819  31.7695072  26.5455260  92.4447549  18.6670820  32.9985557
  92.7506426  17.8068184  32.7111472  93.1700154  19.2588441  32.7984551
  87.8659823  32.8904737  24.7440031  87.4279252  32.1740596  24.2845669
  88.6070263  33.1180851  24.1825123  95.9832937  31.1661934  30.8016350
  95.8450836  31.3563530  29.8737539  95.6269156  31.9281316  31.2584401
  81.2318131  28.5965541  29.0708107  80.3015719  28.5349996  29.2878069
  81.3275603  28.0741494  28.2744748  81.1503680  25.1220354  31.6586349
  81.4110497  26.0365687  31.5495509  81.9720852  24.6544796  31.8082961
  91.9871050  31.7489118  24.3372089  91.3700221  31.0235946  24.2405142
  91.5187539  32.5098479  23.9939163  83.7769596  25.9674543  23.4593393
  82.8999062  25.8463343  23.0955640  84.2527349  25.1760621  23.2072282
  98.1259930  29.8335828  34.9908411  98.1149806  30.7160543  34.6202344
  97.2577309  29.4807379  34.7962948  94.7432504  28.7284469  31.4578577
  95.2092956  29.5612460  31.3838879  95.1940005  28.2629450  32.1623835
  92.7149167  21.0965056  35.4969478  91.8012247  21.3269283  35.6651685
  93.1442268  21.1803500  36.3483510  78.5048290  27.5616398  28.9006299
  78.8001731  26.6527076  28.8473352  77.6036326  27.5404137  28.5787301
  80.2336132  25.2430495  29.0245624  79.9048838  24.3627874  28.8420730
  80.5875502  25.1878164  29.9122013  83.3477955  25.5303465  29.3921102
  83.6874027  26.0589387  28.6699710  83.7950075  25.8683871  30.1679668
  86.6937867  20.9989828  37.2951493  87.5163937  20.5250307  37.1730383
  86.9375931  21.7780312  37.7950179  85.3346102  24.0278087  27.5914394
  86.0554464  24.4059340  27.0878111  84.7111406  24.7466964  27.6949372
  85.4809725  23.5625877  30.4211931  85.6025636  22.6342523  30.6202819
  85.1911767  23.5764563  29.5090246  88.3500915  21.2480788  33.5578651
  88.3722612  21.3120121  32.6030630  88.7668974  20.4085296  33.7519157
  98.7284540  30.9836047  31.5957873  99.1715686  30.2343373  31.1976997
  97.8511050  30.9746184  31.2131605  93.8620321  37.5366389  27.0764472
  94.5571226  38.1573081  27.2951787  94.2043471  36.6861740  27.3516850
  81.4788064  26.9073545  27.0175049  80.7857309  26.9817900  26.3615084
  81.2339816  26.1433889  27.5396565  90.1501721  18.4669147  34.4214539
  90.4303475  17.7992336  35.0474966  90.9352328  18.6598242  33.9089203
  93.8020466  37.2431161  24.0752095  93.7234097  36.9091025  24.9687853
  94.6230133  37.7352929  24.0743568  88.3381988  28.9788953  23.3255618
  89.2841093  28.8495161  23.3944036  87.9596233  28.2403615  23.8025046
  96.6493146  26.9003944  37.3286697  96.1332194  26.1162400  37.1416626
  97.5333094  26.5722660  37.4933217  94.3103872  20.6444959  33.2882510
  94.1128694  20.3360047  34.1725842  94.9203578  21.3706598  33.4180440
 102.3175207  31.1708907  36.4234451 103.0478595  30.9094195  36.9842154
 101.7082152  30.4337629  36.4636519  86.5224905  26.9038930  23.2610503
  85.6156360  26.6072042  23.3373217  86.8000886  26.6068748  22.3944790
  88.1386971  21.4475819  29.4154745  87.3287699  21.1022904  29.7909991
  88.8271388  21.1383363  30.0042356  90.0677519  20.5253866  31.0379041
  90.6208558  20.9449320  31.6969064  90.3047605  19.5989614  31.0801997
  85.2923690  23.7625865  23.4022482  86.1542854  24.0880763  23.6618300
  85.4774034  22.9757361  22.8895548  93.4456326  22.6354391  30.5457705
  92.8654995  23.2939195  30.1635758  93.1792259  21.8131736  30.1345123
  91.8959893  22.0359449  32.7479026  92.3959671  22.1475984  31.9393345
  92.5395500  21.7320502  33.3879834  95.5795740  24.8201003  33.3168393
  96.3556130  25.3097455  33.5893010  94.8543874  25.2459057  33.7740262
  98.0168299  25.5328622  34.3742334  98.6112790  25.2924358  33.6635642
  98.0894883  24.8135752  35.0015870  91.3724418  34.5599156  23.6962074
  92.0760268  34.7649159  24.3119729  90.6487066  35.1275918  23.9611157
  96.0127034  26.0998749  30.6414463  95.7563968  25.6995385  31.4722671
  95.3879902  26.8142543  30.5164603 100.3239372  28.8394823  33.1485755
  99.7638930  28.9088012  33.9217317  99.7182875  28.6635807  32.4285251
  93.2811115  34.9981686  25.7460534  94.1156719  34.5662884  25.5638009
  93.1195458  34.8263699  26.6737428  92.9357007  31.5013799  27.1116873
  92.8805811  31.3358070  26.1705317  92.3103062  32.2089832  27.2679063
  86.2453133  21.0021908  26.6902191  86.2331802  21.9463748  26.8470462
  87.1376555  20.8192053  26.3961653  90.0605252  17.5964684  30.9448128
  89.2937648  17.0423171  31.0904811  90.4715957  17.6686553  31.8062280
 101.9095390  45.5151337  35.8415711 102.5473800  45.3958084  35.1379051
 101.7916233  46.4632181  35.9003663  98.7185096  45.4678765  35.7777235
  98.3803608  45.3519829  34.8897770  99.5874865  45.0669930  35.7578241
  94.5771912  47.3214241  31.7674126  94.0136777  47.2304178  30.9990414
  94.4624307  46.5014146  32.2476619  99.2004879  46.6213616  41.7363441
  99.1893520  46.2266415  40.8643944  99.3625519  45.8879689  42.3297212
  92.1236344  48.8165433  34.6058347  92.9157636  48.4756257  34.1904646
  92.3632994  48.9260408  35.5260500 100.1571471  50.9885209  27.0788591
  99.5059451  51.5739289  26.6922605 100.9515834  51.5191404  27.1383629
  94.0827098  48.0774346  27.4775725  94.8557974  47.5303333  27.3388601
  94.4352497  48.9418595  27.6890187  95.9212141  49.4050728  40.6842625
  95.6302007  50.3096359  40.5689291  96.5569125  49.4467256  41.3986694
  96.8468347  46.7827577  37.2743984  97.4431920  46.5583599  36.5600947
  96.9043319  46.0412322  37.8769432  96.4193376  44.2367012  25.1094175
  96.6718896  43.7148533  24.3477638  95.4817935  44.0733158  25.2120859
 101.4636659  43.2402790  32.9168919 102.2499748  42.8222214  32.5659336
 101.7275363  44.1448883  33.0850567 101.6346736  48.6775641  27.6157575
 100.9992569  48.7510267  28.3278480 101.3044142  49.2669240  26.9376655
 106.8645086  43.1778024  33.8201897 107.5970258  42.6077240  34.0539727
 106.1084441  42.7899624  34.2608403  96.1389665  46.1395118  27.3118550
  96.0225923  45.4640021  27.9799635  96.2491924  45.6527492  26.4950703
  98.4821205  45.6005265  31.0165240  98.1179413  45.0735886  31.7278161
  99.3388321  45.2103734  30.8431725 104.3870506  36.8899598  38.2796506
 104.0553831  37.7595009  38.0557721 103.7916119  36.5735882  38.9590536
  98.1226692  40.6295165  26.0126588  98.2901095  41.4975401  26.3797059
  97.9323862  40.7922447  25.0887877 100.8802026  49.0912144  37.6792418
 100.5802749  49.9937183  37.5708226 100.5353085  48.8244327  38.5313571
  94.3314507  45.5425941  33.7129123  93.4065004  45.4102155  33.9206815
  94.5798920  46.3220160  34.2099065 104.2799169  41.6094684  35.3589856
 103.3716047  41.5410092  35.0648617 104.2286765  42.0866629  36.1871681
  98.1015913  43.0852822  26.9973255  97.9815539  43.5309873  27.8358735
  97.4068502  43.4338140  26.4386793  95.8622805  55.8556464  30.6463386
  95.7846835  56.8064289  30.7251867  95.2584449  55.5102337  31.3038312
 106.1460816  39.8111122  37.1367730 105.5035196  40.1043656  36.4907524
 105.6415744  39.6964043  37.9420926 103.8000979  43.5574296  27.8253589
 104.7118836  43.7901682  27.6501286 103.2910627  44.1411340  27.2628668
  96.6086407  45.8369783  42.8642720  97.3501092  46.3754827  42.5877544
  95.9023393  46.4636072  43.0214272 102.0841747  47.9798923  41.4614881
 102.4925103  47.5381334  40.7169514 101.3619009  47.4051551  41.7149074
 102.4070562  48.5400114  35.2167170 101.7779424  48.7045828  34.5143238
 102.0196224  48.9541724  35.9878134 106.2859794  49.4754552  32.5711534
 105.6010832  49.8553453  32.0208567 106.3703643  50.0849879  33.3043482
 103.5410725  47.1214511  39.1706878 103.7527621  47.7646271  38.4941259
 103.4940474  46.2876827  38.7028808  97.9598524  48.2774522  32.4817255
  98.4236869  48.5562225  31.6921878  97.6955322  47.3757967  32.2990346
  94.8522605  47.8246004  35.4197019  95.4223962  48.2533272  34.7814503
  95.4430717  47.5428588  36.1181204  96.8967410  44.3997674  29.2906821
  97.5991453  44.8518718  29.7580747  96.5648038  43.7581493  29.9186714
 104.6556553  49.9986466  37.3429235 105.4773997  49.5966654  37.0611917
 104.6518956  49.8954700  38.2945351  98.4213157  49.5470510  39.4989946
  98.4857589  50.0090917  40.3348117  97.7124081  48.9167875  39.6272255
 112.7462546  46.3425215  33.6914206 111.9926255  45.7732613  33.5358211
 112.8810087  46.3087879  34.6384841  98.1361174  51.2138617  29.3668926
  98.0006849  52.0590153  29.7953774  98.6770987  51.4157895  28.6034860
  91.5890572  48.7314055  29.9396851  92.1015092  49.5257305  30.0902416
  92.2413285  48.0340346  29.8730452  93.3985456  51.8479811  32.0219604
  93.5752085  52.7697776  31.8340588  94.1942290  51.5338231  32.4513984
  99.7629651  51.8362184  43.4969268  99.3193505  51.0498562  43.1790172
 100.4246864  52.0241334  42.8313159  94.5216772  53.3657985  38.0229946
  95.0724197  53.2375049  37.2506940  93.6828248  53.6652874  37.6724839
 101.8610889  52.1164984  41.5250669 101.8429364  52.9373865  41.0330938
 102.7830809  51.9919059  41.7500810  98.3183943  49.6309113  42.3674178
  98.8512280  48.8697401  42.1373486  97.7898024  49.3382765  43.1098332
  89.5539488  47.0602709  30.7156421  90.3914711  47.4699718  30.4990129
  89.7317756  46.1202152  30.6856615 101.4503921  44.7277790  26.4040254
 100.9350544  45.4982395  26.6428642 101.1781229  44.0542926  27.0273316
  99.0351032  39.5727491  31.4625493  98.1792628  39.1834341  31.2831131
  99.4477983  39.6519452  30.6025278 106.4238195  47.4810145  28.3393428
 105.6467638  47.1421304  27.8948590 107.1029676  47.4862768  27.6648393
 101.2390224  42.6004882  28.2300036 100.9340359  42.9151031  29.0810179
 102.1920666  42.6786302  28.2727369  99.6836656  48.7595105  29.8792990
  99.1558017  48.0247865  29.5666227  99.1824158  49.5369782  29.6332958
 104.6629502  46.9544126  34.9960036 104.0053176  47.6443387  35.0840165
 105.4669901  47.3440558  35.3394022 103.4734960  45.3088499  33.0463978
 103.9866842  45.9418491  33.5485687 104.1236184  44.7089694  32.6807338
  94.7424970  41.4519233  26.2595486  93.9062283  41.7893919  26.5804761
  94.6029740  41.3168213  25.3222623  97.8289256  46.5775316  22.8827963
  96.9216318  46.3464569  23.0819112  98.3260288  45.7812935  23.0701944
 100.7357335  55.2872823  25.8024649 100.0619033  55.5904520  26.4109607
 101.1223157  56.0901903  25.4530106  99.9515791  42.7837954  35.2922318
  99.0338353  43.0052901  35.1344006 100.3675935  42.8584265  34.4334025
 100.7350839  44.1829370  30.4224998 101.4822658  44.6950767  30.1132120
 101.0042429  43.8613423  31.2829392  99.0077489  46.6787911  27.4051953
  98.0988709  46.3946943  27.5024422  99.0372573  47.0986989  26.5455260
 104.2396757  50.2894500  31.1743120 103.7859084  49.4485410  31.2308311
 103.6090723  50.9255898  31.5117900 103.1829676  41.2186486  32.4043788
 102.4452433  40.7063872  32.7354030 103.4356450  40.7786868  31.5927065
 102.6829696  52.1270997  32.1092938 102.9752670  52.6876054  31.3905304
 103.1928316  52.4199558  32.8646097 103.2841304  33.9962738  32.9985557
 103.5900180  33.1360102  32.7111472 104.0093908  34.5880358  32.7984551
  97.5562383  44.2916531  33.5061748  97.6110993  43.3390368  33.4304225
  96.7453585  44.4475970  33.9903046  98.7053577  48.2196654  24.7440031
  98.2673007  47.5032513  24.2845669  99.4464018  48.4472769  24.1825123
  95.4954743  42.9093591  31.2652127  94.6822609  43.2087762  31.6717319
  95.9913737  42.5149280  31.9826609  97.6463321  52.9051348  33.1986392
  97.6039500  53.1312194  32.2694924  98.5626020  52.6714722  33.3472193
 101.0928955  43.3735415  40.0967021 101.4478343  43.6006889  40.9561487
 101.7401086  43.7053792  39.4744276 106.8226692  46.4953851  30.8016350
 106.6844590  46.6855447  29.8737539 106.4662911  47.2573234  31.2584401
 106.8496071  48.5630378  35.8127621 107.2832578  48.4705667  36.6610675
 107.5627652  48.5387879  35.1747637  95.7629122  49.7814377  32.9948354
  96.5569720  49.2864697  32.7930929  95.0520814  49.2532240  32.6316060
 100.5823966  52.1632472  37.3460722 100.6360989  52.7323409  38.1138438
  99.7138748  52.3334357  36.9814759  92.0711885  43.9257459  29.0708107
  91.1409473  43.8641914  29.2878069  92.1669357  43.4033411  28.2744748
 107.7111621  48.6054079  38.3460507 107.9047511  49.5099889  38.5919782
 107.6112239  48.1461498  39.1799092 102.7726730  48.7560822  43.9201387
 102.6212236  48.5271373  43.0031471 102.7631409  49.7131423  43.9332732
  99.5412066  46.3292734  38.9047654 100.4704126  46.4803894  38.7316621
  99.1203096  46.4176755  38.0496300  98.3400398  50.3543399  36.6746191
  98.2011484  49.9862183  37.5472130  97.5514994  50.8691038  36.5030149
  98.9348550  55.4552495  28.0171728  99.1100306  54.9840539  28.8317351
  98.2481338  56.0818262  28.2452989  99.8905613  49.7325002  34.0635029
  99.5555446  49.6925772  34.9592679  99.3909559  49.0669718  33.5905439
 102.8264805  47.0781036  24.3372089 102.2093975  46.3527864  24.2405142
 102.3581293  47.8390396  23.9939163 104.4818936  51.7879944  41.9977869
 104.4231482  51.1039164  41.3308452 104.8838455  52.5298934  41.5458495
  93.5009635  58.6041858  34.7911588  93.7406233  59.2360382  35.4690607
  92.6578832  58.2529898  35.0776947  94.6163351  41.2966460  23.4593393
  93.7392817  41.1755261  23.0955640  95.0921104  40.5052539  23.2072282
 104.4836344  49.7519528  40.2291849 103.5963122  49.4145450  40.3518248
 105.0534895  49.0202559  40.4660614  98.0137497  54.4120981  37.1953092
  97.9407668  55.2175952  37.7072397  97.5714890  54.6112946  36.3701113
  97.8027277  53.6492751  30.7055914  97.0194799  54.1914431  30.7994138
  98.5020022  54.1666730  31.1050155 101.1123927  39.4587380  33.3490119
 101.6092626  38.7057342  33.0291189 100.3410908  39.4951697  32.7833328
 108.9653684  45.1627746  34.9908411 108.9543560  46.0452461  34.6202344
 108.0971064  44.8099296  34.7962948 100.4736181  54.3107815  39.3511251
 101.1864153  54.9455279  39.2787152  99.9826209  54.4071681  38.5351253
 102.1953707  48.2159067  30.9228542 101.2609986  48.3360530  30.7533247
 102.3730376  47.3131534  30.6588552  97.6958895  41.6004763  33.0761804
  97.3256683  41.0475803  33.7642709  98.1917988  40.9962897  32.5236804
 105.5826259  44.0576387  31.4578577 106.0486711  44.8904378  31.3838879
 106.0333759  43.5921368  32.1623835  95.5248094  52.0602258  40.1716822
  96.2257554  52.6938741  40.3246216  95.0543209  52.4016990  39.4112461
 103.6502490  50.4020208  28.4564729 103.9262334  50.2876802  29.3658603
 102.7806989  50.0037693  28.4176902 103.5542922  36.4256974  35.4969478
 102.6406001  36.6561200  35.6651685 103.9836023  36.5095418  36.3483510
 103.3249380  44.6146866  37.9969372 102.6720830  44.8622773  37.3421825
 103.7029760  43.8011004  37.6631849 100.2856554  54.6506559  32.0997542
 100.4678948  53.8328215  32.5625295 101.1089540  54.8674251  31.6622432
 100.6198719  53.5774744  29.3612591 101.1486486  53.0667198  28.7482753
 100.8826939  53.2617274  30.2258124  99.3736953  45.3566677  44.4835409
  98.6977590  45.2560806  45.1537784 100.1964587  45.2005890  44.9471406
  91.1215812  51.5938613  37.1047924  91.7069249  50.8482301  37.2375828
  90.9240651  51.9042570  37.9884588  93.9754467  54.6289861  32.1210367
  93.3064843  55.1135988  31.6374407  93.8367337  54.8759081  33.0353745
  98.1159736  56.6633604  38.7193025  98.6678044  56.8265226  39.4842110
  98.4565929  57.2538042  38.0473050 102.9670610  51.4894862  44.5741679
 103.5110514  52.1024820  44.0796634 102.3857455  52.0474440  45.0908692
 101.2528123  54.6115580  35.7056707 101.1279263  53.8105319  35.1967653
 101.9107214  55.1061773  35.2170677 103.3163032  52.4124600  37.3336257
 102.3693367  52.2929951  37.2614584 103.6645805  51.5247098  37.4162519
 100.3209465  52.2077316  33.5340609 100.1734427  51.2794023  33.7148180
 101.1462958  52.2297407  33.0497685  94.1871709  40.8595383  29.3921102
  94.5267782  41.3881304  28.6699710  94.6343830  41.1975789  30.1679668
 103.9243587  53.0305875  34.6205482 104.8490134  52.8248736  34.4829933
 103.7558890  52.7822276  35.5294824  96.1739856  39.3570005  27.5914394
  96.8948219  39.7351257  27.0878111  95.5505160  40.0758881  27.6949372
 100.3170979  40.0615154  28.5272727 100.5334594  40.9439791  28.2261555
  99.8365046  39.6701367  27.7978369 103.7138903  53.5491542  29.9767574
 103.8875780  52.9837965  29.2241426 104.2067794  54.3492437  29.7947064
 109.5678294  46.3127965  31.5957873 110.0109440  45.5635290  31.1976997
 108.6904804  46.3038101  31.2131605 104.7014075  52.8658306  27.0764472
 105.3964980  53.4864999  27.2951787 105.0437226  52.0153658  27.3516850
 106.6005499  50.3158012  28.6051803 107.1256823  50.6545285  27.8801123
 106.5127851  49.3805027  28.4214937  98.2625547  54.2292086  40.7341679
  98.5712674  53.9841232  41.6064379  99.0601029  54.4338724  40.2460550
  98.2846159  56.3829995  32.9647056  97.8451150  55.8906374  33.6579913
  99.0354276  55.8402963  32.7239131  90.7638498  52.5741536  32.9671684
  91.5896518  52.2745308  32.5870328  90.4132550  51.8049159  33.4161473
  95.7320031  51.9268004  35.0369358  95.1100041  51.2638709  34.7371585
  96.4024898  51.9529136  34.3543005  88.9647103  50.4927863  33.9260618
  88.1279012  50.0650037  33.7444619  88.9370749  50.6860306  34.8631409
 106.2899405  50.9490916  43.9103001 105.4994948  50.9315054  43.3707500
 106.0532759  51.4879209  44.6652037 106.4097280  47.7983382  41.2235729
 106.4595285  47.6333389  42.1651252 106.3011203  46.9310641  40.8333610
  95.2933538  50.4771928  28.5127818  95.4421659  51.1607392  27.8594491
  96.0999982  50.4577018  29.0277274 103.7001042  43.7814310  42.5395036
 104.6010905  43.6420775  42.2479034 103.7749017  43.9468765  43.4793213
 107.9115476  50.2180323  41.4677751 107.6200285  50.5810304  42.3041212
 107.2987608  49.5047332  41.2891083 109.1111159  47.7833203  33.9880321
 109.9458050  48.2223007  34.1517881 109.2470288  47.3071856  33.1688567
 106.1602665  45.3412938  39.9357809 106.6356786  45.5340584  39.1276660
 105.2368230  45.3972124  39.6901192  93.0486171  46.5037105  29.5188887
  92.8032213  45.5999435  29.7169097  93.2182086  46.5054256  28.5768365
  92.3181819  42.2365463  27.0175049  91.6251064  42.3109818  26.3615084
  92.0733571  41.4725807  27.5396565  98.7928944  52.9720058  25.9839566
  98.2202911  53.5910245  25.5310037  99.3661738  53.5219420  26.5179487
 104.8604334  42.2178698  38.1686114 105.8121757  42.3176796  38.1898338
 104.6907784  41.4256967  38.6784199 102.0126204  53.2557208  27.1148148
 102.9456877  53.1902770  27.3181023 101.9249416  54.0913475  26.6562680
 104.6414220  52.5723079  24.0752095 104.5627852  52.2382942  24.9687853
 105.4623887  53.0644847  24.0743568 107.3392412  45.4384818  37.2828414
 107.3068732  44.5000819  37.4688098 107.9493035  45.5168855  36.5494239
  99.1775742  44.3080871  23.3255618 100.1234847  44.1787079  23.3944036
  98.7989987  43.5695533  23.8025046 107.4886900  42.2295861  37.3286697
 106.9725949  41.4454318  37.1416626 108.3726849  41.9014578  37.4933217
 105.1497627  35.9736877  33.2882510 104.9522448  35.6651965  34.1725842
 105.7597332  36.6998516  33.4180440 113.1568961  46.5000825  36.4234451
 113.8872350  46.2386113  36.9842154 112.5475907  45.7629547  36.4636519
 111.2384258  44.6408687  37.0208902 110.5117422  44.5064652  36.4125394
 110.8231545  44.9485516  37.8265620  99.0614435  48.3598617  44.7856275
  99.9817444  48.5377216  44.9796322  99.0264018  47.4154662  44.6335974
  97.3618660  42.2330847  23.2610503  96.4550115  41.9363960  23.3373217
  97.6394641  41.9360665  22.3944790 100.9071274  35.8545784  31.0379041
 101.4602312  36.2741237  31.6969064 101.1441360  34.9281532  31.0801997
  96.1317444  39.0917782  23.4022482  96.9936608  39.4172681  23.6618300
  96.3167788  38.3049278  22.8895548 104.2850081  37.9646309  30.5457705
 103.7048750  38.6231113  30.1635758 104.0186013  37.1423654  30.1345123
 102.7353647  37.3651367  32.7479026 103.2353425  37.4767901  31.9393345
 103.3789255  37.0612419  33.3879834  96.7935643  45.2729996  45.6346867
  96.3102725  46.0730356  45.8410756  96.8796582  45.2837941  44.6814311
  90.0621602  47.1058376  33.5568686  90.0392291  47.2046063  32.6050569
  90.3722239  47.9523527  33.8785852  92.7208980  49.1634531  37.6715301
  93.6752234  49.1318473  37.6045232  92.5221504  48.7025155  38.4865526
 103.0674959  40.1246399  29.6014054 102.1800814  40.4096050  29.3834248
 103.4828948  39.9640163  28.7541331 106.4189495  40.1492920  33.3168393
 107.1949885  40.6389373  33.5893010 105.6937629  40.5750975  33.7740262
 108.8562053  40.8620540  34.3742334 109.4506544  40.6216275  33.6635642
 108.9288637  40.1427670  35.0015870  91.0759209  54.7054150  34.6885498
  90.9413677  53.9454551  34.1223496  90.6591271  55.4295050  34.2214287
 102.2118172  49.8891074  23.6962074 102.9154022  50.0941076  24.3119729
 101.4880821  50.4567836  23.9611157 103.0415982  45.6400935  29.8164344
 102.9851184  46.0969487  28.9771976 103.5944325  44.8791620  29.6387187
 106.8520788  41.4290667  30.6414463 106.5957723  41.0287303  31.4722671
 106.2273656  42.1434461  30.5164603 111.1633126  44.1686740  33.1485755
 110.6032684  44.2379930  33.9217317 110.5576630  43.9927725  32.4285251
  94.2328335  55.6023467  34.9003941  94.1160719  56.5468900  34.7982631
  93.4120781  55.2997029  35.2889740 104.1204870  50.3273603  25.7460534
 104.9550473  49.8954802  25.5638009 103.9589212  50.1555617  26.6737428
 103.7750762  46.8305717  27.1116873 103.7199565  46.6649988  26.1705317
 103.1496817  47.5381749  27.2679063 101.0896669  49.1354628  46.4370436
 101.9587829  49.3095281  46.0757071 100.6103420  49.9549045  46.3146165
  97.0846887  36.3313826  26.6902191  97.0725557  37.2755665  26.8470462
  97.9770309  36.1483971  26.3961653  95.2582849  56.2551729  38.1159869
  96.1610096  56.2875340  38.4326364  95.0320219  55.3252180  38.1306205
  97.0136451  55.0082716  34.7769948  96.0632082  55.0084578  34.6634320
  97.3168937  54.2615450  34.2605983 100.8999007  32.9256602  30.9448128
 100.1331402  32.3715089  31.0904811 101.3109712  32.9978471  31.8062280
 112.7489145  60.8443254  35.8415711 113.3867555  60.7250002  35.1379051
 112.6309987  61.7924098  35.9003663 109.5578851  60.7970682  35.7777235
 109.2197362  60.6811747  34.8897770 110.4268619  60.3961848  35.7578241
 105.4165667  62.6506159  31.7674126 104.8530532  62.5596096  30.9990414
 105.3018062  61.8306063  32.2476619 110.0398634  61.9505534  41.7363441
 110.0287275  61.5558332  40.8643944 110.2019273  61.2171607  42.3297212
 102.9630099  64.1457350  34.6058347 103.7551390  63.8048175  34.1904646
 103.2026749  64.2552325  35.5260500 110.9965225  66.3177127  27.0788591
 110.3453205  66.9031207  26.6922605 111.7909588  66.8483321  27.1383629
 104.9220852  63.4066264  27.4775725 105.6951728  62.8595251  27.3388601
 105.2746251  64.2710513  27.6890187 106.7605895  64.7342646  40.6842625
 106.4695761  65.6388277  40.5689291 107.3962879  64.7759174  41.3986694
 107.6862102  62.1119494  37.2743984 108.2825674  61.8875517  36.5600947
 107.7437073  61.3704240  37.8769432 107.2587130  59.5658930  25.1094175
 107.5112651  59.0440451  24.3477638 106.3211689  59.4025075  25.2120859
 112.3030413  58.5694708  32.9168919 113.0893502  58.1514131  32.5659336
 112.5669117  59.4740800  33.0850567 112.4740490  64.0067558  27.6157575
 111.8386323  64.0802185  28.3278480 112.1437897  64.5961157  26.9376655
 117.7038840  58.5069941  33.8201897 118.4364012  57.9369158  34.0539727
 116.9478196  58.1191542  34.2608403 106.9783419  61.4687036  27.3118550
 106.8619677  60.7931939  27.9799635 107.0885679  60.9819410  26.4950703
 109.3214960  60.9297183  31.0165240 108.9573167  60.4027804  31.7278161
 110.1782076  60.5395652  30.8431725 115.2264261  52.2191515  38.2796506
 114.8947585  53.0886926  38.0557721 114.6309874  51.9027799  38.9590536
 108.9620447  55.9587083  26.0126588 109.1294849  56.8267319  26.3797059
 108.7717616  56.1214364  25.0887877 111.7195780  64.4204061  37.6792418
 111.4196503  65.3229100  37.5708226 111.3746840  64.1536245  38.5313571
 105.1708262  60.8717858  33.7129123 104.2458758  60.7394072  33.9206815
 105.4192675  61.6512078  34.2099065 115.1192924  56.9386602  35.3589856
 114.2109801  56.8702010  35.0648617 115.0680520  57.4158547  36.1871681
 108.9409668  58.4144740  26.9973255 108.8209293  58.8601791  27.8358735
 108.2462256  58.7630058  26.4386793 102.5317073  60.5151132  34.5472912
 102.6609454  60.7685611  35.4612324 101.8514524  61.1078840  34.2277567
 106.7016560  71.1848382  30.6463386 106.6240590  72.1356207  30.7251867
 106.0978203  70.8394254  31.3038312 109.1933790  58.3576247  43.3024753
 108.4167124  58.9170167  43.2927618 109.8324353  58.8433030  43.8239623
 116.9854570  55.1403040  37.1367730 116.3428951  55.4335573  36.4907524
 116.4809499  55.0255960  37.9420926 114.6394734  58.8866213  27.8253589
 115.5512590  59.1193600  27.6501286 114.1304381  59.4703257  27.2628668
 107.4480162  61.1661701  42.8642720 108.1894846  61.7046745  42.5877544
 106.7417147  61.7927989  43.0214272 112.9235502  63.3090841  41.4614881
 113.3318858  62.8673252  40.7169514 112.2012763  62.7343469  41.7149074
 109.2766572  58.2463448  38.8348438 110.1227767  58.6702861  38.9783087
 109.2165209  57.5897072  39.5287002 113.2464316  63.8692032  35.2167170
 112.6173179  64.0337746  34.5143238 112.8589978  64.2833641  35.9878134
 117.1253548  64.8046470  32.5711534 116.4404586  65.1845371  32.0208567
 117.2097397  65.4141796  33.3043482 112.4266017  55.9067816  40.4929612
 112.1826949  56.6609877  39.9563888 112.7025948  56.2853164  41.3276859
 114.3804480  62.4506429  39.1706878 114.5921375  63.0938188  38.4941259
 114.3334228  61.6168745  38.7028808 111.9830709  55.0624249  36.0743450
 111.1215188  55.3605503  36.3660187 112.0093143  55.2794648  35.1424482
 108.7992278  63.6066440  32.4817255 109.2630624  63.8854143  31.6921878
 108.5349076  62.7049884  32.2990346 105.6916359  63.1537921  35.4197019
 106.2617716  63.5825190  34.7814503 106.2824471  62.8720506  36.1181204
 107.7361164  59.7289592  29.2906821 108.4385208  60.1810636  29.7580747
 107.4041793  59.0873411  29.9186714 106.1841526  58.3201349  43.6658030
 105.5540186  59.0017630  43.8993427 106.0777614  58.2084430  42.7211168
 101.4786498  57.9873145  34.5923954 100.6885552  58.2430673  34.1164065
 101.9697746  58.8021483  34.6975995 115.4950308  65.3278384  37.3429235
 116.3167751  64.9258571  37.0611917 115.4912711  65.2246618  38.2945351
 103.4301244  58.3517724  31.5507431 102.6332407  58.4636418  32.0690927
 103.2026836  58.6904376  30.6848321 109.2606911  64.8762427  39.4989946
 109.3251344  65.3382835  40.3348117 108.5517835  64.2459792  39.6272255
  99.7624201  58.2403635  37.0238945 100.0132240  59.1250645  37.2896521
 100.2983750  58.0608237  36.2514037 108.9754929  66.5430535  29.3668926
 108.8400604  67.3882070  29.7953774 109.5164741  66.7449812  28.6034860
 105.4622268  52.6222115  46.0283281 105.0689214  52.0688313  46.7030925
 106.2788409  52.9332693  46.4189799 102.4284326  64.0605973  29.9396851
 102.9408847  64.8549223  30.0902416 103.0807039  63.3632263  29.8730452
 104.2379211  67.1771729  32.0219604 104.4145839  68.0989694  31.8340588
 105.0336044  66.8630148  32.4513984 108.3790229  54.0379994  43.6203538
 109.1199943  54.6387147  43.5408000 108.6108152  53.2957632  43.0621580
 103.5231567  59.2236361  41.8981767 103.4085083  58.3221618  42.1988866
 102.6676085  59.4700058  41.5466584 110.6023405  67.1654101  43.4969268
 110.1587259  66.3790480  43.1790172 111.2640619  67.3533252  42.8313159
 105.3610526  68.6949903  38.0229946 105.9117951  68.5666966  37.2506940
 104.5222002  68.9944792  37.6724839 112.7004643  67.4456901  41.5250669
 112.6823119  68.2665782  41.0330938 113.6224563  67.3210976  41.7500810
 109.1577697  64.9601031  42.3674178 109.6906034  64.1989319  42.1373486
 108.6291779  64.6674683  43.1098332 112.3247392  50.0661097  37.8967819
 111.9811662  50.9562738  37.8206930 112.6926355  49.8762754  37.0337404
 100.3933243  62.3894627  30.7156421 101.2308465  62.7991635  30.4990129
 100.5711511  61.4494069  30.6856615 112.2897675  60.0569708  26.4040254
 111.7744299  60.8274312  26.6428642 112.0174984  59.3834844  27.0273316
 109.8744786  54.9019409  31.4625493 109.0186382  54.5126259  31.2831131
 110.2871738  54.9811369  30.6025278 111.4043933  52.4365752  35.8617053
 110.9008728  52.3995887  35.0484858 111.6974540  53.3458495  35.9213709
 107.6486819  52.5204482  34.8683234 108.5139815  52.3247290  34.5089124
 107.7164328  52.2914833  35.7952591 117.2631949  62.8102062  28.3393428
 116.4861392  62.4713222  27.8948590 117.9423430  62.8154686  27.6648393
 112.0783978  57.9296800  28.2300036 111.7734114  58.2442949  29.0810179
 113.0314420  58.0078220  28.2727369 110.5230410  64.0887023  29.8792990
 109.9951772  63.3539783  29.5666227 110.0217913  64.8661700  29.6332958
 115.5023256  62.2836044  34.9960036 114.8446931  62.9735305  35.0840165
 116.3063655  62.6732476  35.3394022 105.2549138  54.7506689  32.2399601
 105.8292890  54.5281871  31.5072794 105.8420120  54.8195384  32.9928202
 114.3128715  60.6380416  33.0463978 114.8260597  61.2710408  33.5485687
 114.9629939  60.0381612  32.6807338 105.5818725  56.7811150  26.2595486
 104.7456037  57.1185837  26.5804761 105.4423494  56.6460130  25.3222623
 107.5571805  51.6247938  30.9674671 106.9036218  51.3096956  30.3431285
 107.5152280  51.0023679  31.6934493 108.6683010  61.9067233  22.8827963
 107.7610072  61.6756487  23.0819112 109.1654042  61.1104853  23.0701944
 111.5751089  70.6164741  25.8024649 110.9012788  70.9196437  26.4109607
 111.9616911  71.4193821  25.4530106 110.7909546  58.1129872  35.2922318
 109.8732107  58.3344819  35.1344006 111.2069689  58.1876182  34.4334025
 111.5744594  59.5121288  30.4224998 112.3216413  60.0242685  30.1132120
 111.8436183  59.1905340  31.2829392 109.8471244  62.0079828  27.4051953
 108.9382463  61.7238861  27.5024422 109.8766328  62.4278907  26.5455260
 115.0790511  65.6186418  31.1743120 114.6252838  64.7777328  31.2308311
 114.4484478  66.2547816  31.5117900 114.0223431  56.5478404  32.4043788
 113.2846188  56.0355790  32.7354030 114.2750204  56.1078785  31.5927065
 113.5223450  67.4562914  32.1092938 113.8146425  68.0167972  31.3905304
 114.0322071  67.7491475  32.8646097 114.1235058  49.3254656  32.9985557
 114.4293935  48.4652019  32.7111472 114.8487663  49.9172276  32.7984551
 100.4159414  59.7285342  31.3867155 100.2183814  59.1354703  30.6618221
  99.8606078  59.4237553  32.1043094 108.3956138  59.6208449  33.5061748
 108.4504748  58.6682285  33.4304225 107.5847340  59.7767888  33.9903046
 109.5447332  63.5488572  24.7440031 109.1066761  62.8324431  24.2845669
 110.2857772  63.7764687  24.1825123 106.3348498  58.2385509  31.2652127
 105.5216363  58.5379679  31.6717319 106.8307492  57.8441197  31.9826609
 108.4857076  68.2343266  33.1986392 108.4433254  68.4604112  32.2694924
 109.4019774  68.0006640  33.3472193 111.9322709  58.7027333  40.0967021
 112.2872097  58.9298806  40.9561487 112.5794841  59.0345710  39.4744276
 117.6620446  61.8245769  30.8016350 117.5238345  62.0147365  29.8737539
 117.3056665  62.5865152  31.2584401 105.8262572  55.8103864  36.8813362
 106.4661952  55.6692623  36.1836325 104.9940103  55.5238378  36.5051964
 117.6889826  63.8922296  35.8127621 118.1226333  63.7997585  36.6610675
 118.4021407  63.8679796  35.1747637 106.6022876  65.1106295  32.9948354
 107.3963475  64.6156615  32.7930929 105.8914569  64.5824158  32.6316060
 111.4217721  67.4924390  37.3460722 111.4754743  68.0615326  38.1138438
 110.5532502  67.6626275  36.9814759 102.9105640  59.2549376  29.0708107
 101.9803228  59.1933832  29.2878069 103.0063112  58.7325329  28.2744748
 102.8291189  55.7804189  31.6586349 103.0898006  56.6949522  31.5495509
 103.6508361  55.3128632  31.8082961 104.3016114  57.1941946  38.8285173
 104.9739168  56.9859308  38.1797822 103.4745901  56.9964032  38.3890405
 118.5505376  63.9345997  38.3460507 118.7441266  64.8391807  38.5919782
 118.4505994  63.4753416  39.1799092 110.2041686  53.8203887  40.8450834
 109.5569601  54.5193837  40.7515310 110.9742702  54.2540031  41.2127082
 113.6120484  64.0852739  43.9201387 113.4605991  63.8563291  43.0031471
 113.6025164  65.0423341  43.9332732 110.3805821  61.6584652  38.9047654
 111.3097881  61.8095812  38.7316621 109.9596851  61.7468673  38.0496300
 109.1794152  65.6835317  36.6746191 109.0405238  65.3154101  37.5472130
 108.3908749  66.1982956  36.5030149 109.7742304  70.7844413  28.0171728
 109.9494060  70.3132456  28.8317351 109.0875092  71.4110179  28.2452989
 110.7299368  65.0616919  34.0635029 110.3949200  65.0217689  34.9592679
 110.2303313  64.3961635  33.5905439 104.7043611  60.4684549  39.5887610
 104.5663409  59.7364788  40.1899149 105.6148535  60.3793449  39.3071798
 113.6658559  62.4072954  24.3372089 113.0487730  61.6819782  24.2405142
 113.1975048  63.1682314  23.9939163 107.3325912  60.1804509  39.0771290
 108.0425531  59.5397701  39.0357908 107.2895220  60.4317403  39.9997471
 115.3212691  67.1171862  41.9977869 115.2625237  66.4331082  41.3308452
 115.7232209  67.8590852  41.5458495 106.0454846  57.1669727  40.8966929
 105.5092203  56.7160465  41.5488526 105.4571555  57.3015635  40.1537394
 104.3403390  73.9333776  34.7911588 104.5799988  74.5652300  35.4690607
 103.4972586  73.5821816  35.0776947 105.4557105  56.6258378  23.4593393
 104.5786571  56.5047179  23.0955640 105.9314858  55.8344456  23.2072282
 115.3230098  65.0811446  40.2291849 114.4356877  64.7437368  40.3518248
 115.8928649  64.3494477  40.4660614  96.9759245  61.4135538  33.5534900
  97.6630285  61.0997268  32.9655916  96.8207374  62.3176902  33.2802152
 101.7793967  56.3025734  37.9819924 101.6952156  55.6951404  37.2470334
 100.9576674  56.7934753  37.9829420 108.8531251  69.7412898  37.1953092
 108.7801423  70.5467870  37.7072397 108.4108645  69.9404864  36.3701113
 108.6421031  68.9784668  30.7055914 107.8588553  69.5206348  30.7994138
 109.3413776  69.4958648  31.1050155 111.9517681  54.7879298  33.3490119
 112.4486381  54.0349260  33.0291189 111.1804663  54.8243614  32.7833328
 119.8047439  60.4919663  34.9908411 119.7937315  61.3744379  34.6202344
 118.9364818  60.1391214  34.7962948 111.3129935  69.6399732  39.3511251
 112.0257907  70.2747197  39.2787152 110.8219964  69.7363598  38.5351253
 113.0347462  63.5450985  30.9228542 112.1003741  63.6652447  30.7533247
 113.2124130  62.6423452  30.6588552 108.5352650  56.9296681  33.0761804
 108.1650437  56.3767721  33.7642709 109.0311742  56.3254814  32.5236804
 116.4220013  59.3868304  31.4578577 116.8880465  60.2196296  31.3838879
 116.8727514  58.9213286  32.1623835 106.3641849  67.3894176  40.1716822
 107.0651308  68.0230659  40.3246216 105.8936964  67.7308907  39.4112461
 114.4896244  65.7312126  28.4564729 114.7656088  65.6168720  29.3658603
 113.6200743  65.3329610  28.4176902 114.3936676  51.7548891  35.4969478
 113.4799756  51.9853118  35.6651685 114.8229777  51.8387335  36.3483510
 114.1643135  59.9438783  37.9969372 113.5114585  60.1914691  37.3421825
 114.5423514  59.1302921  37.6631849 111.1250308  69.9798476  32.0997542
 111.3072703  69.1620132  32.5625295 111.9483294  70.1966169  31.6622432
 111.4592474  68.9066662  29.3612591 111.9880240  68.3959116  28.7482753
 111.7220693  68.5909192  30.2258124 110.2130708  60.6858594  44.4835409
 109.5371345  60.5852724  45.1537784 111.0358341  60.5297808  44.9471406
 101.9609567  66.9230531  37.1047924 102.5463003  66.1774219  37.2375828
 101.7634405  67.2334488  37.9884588 104.8148222  69.9581778  32.1210367
 104.1458597  70.4427906  31.6374407 104.6761092  70.2050999  33.0353745
  96.5527221  59.4936131  35.8252367  96.5911321  58.9599722  36.6189486
  96.0467514  58.9671337  35.2063345 108.9553490  71.9925522  38.7193025
 109.5071798  72.1557143  39.4842110 109.2959684  72.5829960  38.0473050
 103.9317984  54.3400672  39.3214910 103.9959310  55.2015502  38.9092307
 103.8685104  53.7274673  38.5887268 103.4070256  56.4123804  42.9687944
 104.0342295  56.0300881  43.5825468 102.5498175  56.1938006  43.3343636
 113.8064365  66.8186779  44.5741679 114.3504269  67.4316737  44.0796634
 113.2251210  67.3766358  45.0908692 100.1835799  58.2200233  28.9006299
 100.4789240  57.3110912  28.8473352  99.2823835  58.1987973  28.5787301
 112.0921878  69.9407497  35.7056707 111.9673017  69.1397237  35.1967653
 112.7500969  70.4353691  35.2170677 103.7130046  56.2956230  34.8833847
 102.9916632  56.9092197  34.7441321 104.5023302  56.8313995  34.8050493
 114.1556786  67.7416517  37.3336257 113.2087122  67.6221869  37.2614584
 114.5039559  66.8539015  37.4162519 106.5156359  53.6310656  41.1574499
 107.0390761  53.8772953  41.9200808 106.2968693  54.4630691  40.7377636
 101.9123641  55.9014331  29.0245624 101.5836347  55.0211710  28.8420730
 102.2663011  55.8462000  29.9122013 111.1603219  67.5369234  33.5340609
 111.0128182  66.6085941  33.7148180 111.9856713  67.5589324  33.0497685
 105.0265464  56.1887301  29.3921102 105.3661536  56.7173222  28.6699710
 105.4737584  56.5267707  30.1679668 114.7637341  68.3597792  34.6205482
 115.6883889  68.1540654  34.4829933 114.5952645  68.1114193  35.5294824
 107.7208904  54.5724351  38.8424170 107.3805725  53.7732164  39.2444850
 107.0147911  54.8726062  38.2701003 108.3725376  51.6573664  37.2951493
 109.1951446  51.1834142  37.1730383 108.6163440  52.4364148  37.7950179
 107.0133611  54.6861922  27.5914394 107.7341973  55.0643175  27.0878111
 106.3898915  55.4050799  27.6949372 111.1564734  55.3907071  28.5272727
 111.3728348  56.2731709  28.2261555 110.6758801  54.9993285  27.7978369
 105.8963955  58.3492784  35.1043471 105.7508536  58.6633087  35.9967753
 105.4189159  58.9677685  34.5514370 107.7560338  55.3395332  35.1524361
 107.7421907  54.4436426  34.8156659 108.4732766  55.3465996  35.7862647
 109.6086469  55.7732673  37.1977488 109.3504246  56.6949743  37.1961819
 109.0771509  55.3763107  37.8877952 114.5532657  68.8783460  29.9767574
 114.7269535  68.3129882  29.2241426 115.0461549  69.6784355  29.7947064
 100.3709617  60.8898129  38.0431132  99.8263085  61.6657937  38.1751407
 101.2488967  61.2368933  37.8850254 107.1597234  54.2209713  30.4211931
 107.2813145  53.2926359  30.6202819 106.8699276  54.2348399  29.5090246
 110.0288424  51.9064623  33.5578651 110.0510121  51.9703956  32.6030630
 110.4456483  51.0669132  33.7519157 120.4072049  61.6419883  31.5957873
 120.8503195  60.8927208  31.1976997 119.5298559  61.6330019  31.2131605
 115.5407830  68.1950224  27.0764472 116.2358735  68.8156917  27.2951787
 115.8830980  67.3445575  27.3516850 101.1575639  60.0168025  40.9361289
 100.4157375  60.1650660  41.5225920 100.8368383  60.2776291  40.0728039
 117.4399253  65.6449930  28.6051803 117.9650577  65.9837202  27.8801123
 117.3521606  64.7096945  28.4214937 109.1019302  69.5584003  40.7341679
 109.4106428  69.3133150  41.6064379 109.8994784  69.7630642  40.2460550
 109.1239914  71.7121913  32.9647056 108.6844904  71.2198292  33.6579913
 109.8748031  71.1694881  32.7239131 101.6032253  67.9033454  32.9671684
 102.4290273  67.6037226  32.5870328 101.2526305  67.1341076  33.4161473
 106.5713786  67.2559922  35.0369358 105.9493795  66.5930627  34.7371585
 107.2418653  67.2821054  34.3543005  99.8040858  65.8219780  33.9260618
  98.9672766  65.3941955  33.7444619  99.7764503  66.0152224  34.8631409
 106.6438313  55.7341710  44.6301864 106.6926469  56.6103833  44.2479633
 107.1860828  55.1919103  44.0573507 117.1293159  66.2782833  43.9103001
 116.3388703  66.2606972  43.3707500 116.8926514  66.8171127  44.6652037
 117.2491034  63.1275300  41.2235729 117.2989039  62.9625307  42.1651252
 117.1404957  62.2602559  40.8333610 106.1327293  65.8063845  28.5127818
 106.2815413  66.4899310  27.8594491 106.9393736  65.7868935  29.0277274
 114.5394797  59.1106228  42.5395036 115.4404659  58.9712693  42.2479034
 114.6142771  59.2760683  43.4793213 108.8737602  56.4873082  41.3848222
 108.0040911  56.7806648  41.1130811 109.1097082  57.0713527  42.1055486
 118.7509231  65.5472241  41.4677751 118.4594039  65.9102222  42.3041212
 118.1381362  64.8339249  41.2891083 119.9504913  63.1125121  33.9880321
 120.7851805  63.5514925  34.1517881 120.0864042  62.6363774  33.1688567
 116.9996419  60.6704856  39.9357809 117.4750541  60.8632502  39.1276660
 116.0761985  60.7264042  39.6901192 103.8879926  61.8329023  29.5188887
 103.6425968  60.9291353  29.7169097 104.0575840  61.8346173  28.5768365
 111.5776636  52.7052699  38.9013643 112.0958580  53.4413726  38.5760131
 111.2231768  53.0116693  39.7360402 103.1575573  57.5657381  27.0175049
 102.4644818  57.6401736  26.3615084 102.9127325  56.8017724  27.5396565
 111.8289230  49.1252982  34.4214539 112.1090984  48.4576171  35.0474966
 112.6139837  49.3182078  33.9089203 109.6322698  68.3011976  25.9839566
 109.0596665  68.9202163  25.5310037 110.2055492  68.8511337  26.5179487
 115.6998088  57.5470616  38.1686114 116.6515511  57.6468714  38.1898338
 115.5301539  56.7548884  38.6784199 113.7212468  54.6326199  38.3545515
 113.1262400  54.9131212  37.6592004 113.4362164  55.1220100  39.1262256
 112.8519958  68.5849126  27.1148148 113.7850631  68.5194688  27.3181023
 112.7643171  69.4205393  26.6562680 115.4807975  67.9014996  24.0752095
 115.4021606  67.5674860  24.9687853 116.3017642  68.3936764  24.0743568
 118.1786166  60.7676736  37.2828414 118.1462486  59.8292736  37.4688098
 118.7886790  60.8460772  36.5494239 110.0169497  59.6372789  23.3255618
 110.9628602  59.5078997  23.3944036 109.6383742  58.8987450  23.8025046
 118.3280654  57.5587779  37.3286697 117.8119703  56.7746236  37.1416626
 119.2120603  57.2306496  37.4933217 115.9891381  51.3028795  33.2882510
 115.7916203  50.9943883  34.1725842 116.5991087  52.0290433  33.4180440
 109.9008189  63.6890535  44.7856275 110.8211199  63.8669134  44.9796322
 109.8657772  62.7446580  44.6335974 108.2012414  57.5622765  23.2610503
 107.2943869  57.2655878  23.3373217 108.4788395  57.2652583  22.3944790
  99.1190354  58.8829128  33.7109550  98.7993139  58.0294437  33.4183924
  98.5723783  59.0977707  34.4667517 102.8970262  61.5991569  37.4279056
 103.1156272  62.5308677  37.4467090 103.3096036  61.2399544  38.2133860
 109.8174480  52.1059655  29.4154745 109.0075208  51.7606740  29.7909991
 110.5058897  51.7967198  30.0042356 111.7465028  51.1837701  31.0379041
 112.2996067  51.6033155  31.6969064 111.9835114  50.2573450  31.0801997
 107.7698127  57.1724775  46.8181805 107.6694854  58.1219132  46.7493896
 107.5519669  56.8443014  45.9457875 106.9711199  54.4209700  23.4022482
 107.8330363  54.7464598  23.6618300 107.1561543  53.6341196  22.8895548
  98.9878614  62.5032040  35.6802671  98.2942086  62.0885993  35.1672626
  99.7351605  62.5452576  35.0836090 115.1243835  53.2938227  30.5457705
 114.5442504  53.9523031  30.1635758 114.8579768  52.4715571  30.1345123
 113.5747401  52.6943284  32.7479026 114.0747180  52.8059819  31.9393345
 114.2183009  52.3904337  33.3879834 107.6329397  60.6021914  45.6346867
 107.1496479  61.4022274  45.8410756 107.7190336  60.6129859  44.6814311
 100.9015357  62.4350294  33.5568686 100.8786045  62.5337981  32.6050569
 101.2115993  63.2815444  33.8785852 103.5602735  64.4926449  37.6715301
 104.5145988  64.4610391  37.6045232 103.3615258  64.0317072  38.4865526
 104.1502117  63.0627565  40.2386098 104.9695006  63.5571643  40.2620936
 104.4238925  62.1459533  40.2103666 113.9068713  55.4538317  29.6014054
 113.0194568  55.7387968  29.3834248 114.3222702  55.2932080  28.7541331
 117.2583249  55.4784838  33.3168393 118.0343639  55.9681290  33.5893010
 116.5331383  55.9042892  33.7740262 119.6955808  56.1912457  34.3742334
 120.2900299  55.9508193  33.6635642 119.7682392  55.4719588  35.0015870
 101.9152964  70.0346068  34.6885498 101.7807432  69.2746469  34.1223496
 101.4985026  70.7586968  34.2214287 113.0511927  65.2182992  23.6962074
 113.7547777  65.4232994  24.3119729 112.3274575  65.7859754  23.9611157
 113.8809737  60.9692853  29.8164344 113.8244938  61.4261404  28.9771976
 114.4338079  60.2083538  29.6387187 117.6914543  56.7582585  30.6414463
 117.4351477  56.3579220  31.4722671 117.0667411  57.4726379  30.5164603
 105.0722089  70.9315385  34.9003941 104.9554474  71.8760818  34.7982631
 104.2514536  70.6288947  35.2889740 114.9598624  65.6565521  25.7460534
 115.7944228  65.2246719  25.5638009 114.7982967  65.4847535  26.6737428
 114.6144516  62.1597634  27.1116873 114.5593320  61.9941906  26.1705317
 113.9890571  62.8673667  27.2679063  99.4037031  57.3965699  40.9378295
 100.0495895  56.8864653  41.4265520  99.1954182  58.1334380  41.5121721
 111.9290423  64.4646546  46.4370436 112.7981583  64.6387198  46.0757071
 111.4497175  65.2840963  46.3146165 107.9240642  51.6605743  26.6902191
 107.9119311  52.6047583  26.8470462 108.8164064  51.4775889  26.3961653
 106.0976604  71.5843647  38.1159869 107.0003850  71.6167257  38.4326364
 105.8713974  70.6544098  38.1306205 107.8530206  70.3374634  34.7769948
 106.9025837  70.3376495  34.6634320 108.1562692  69.5907368  34.2605983
 111.7392761  48.2548520  30.9448128 110.9725157  47.7007007  31.0904811
 112.1503466  48.3270389  31.8062280 103.7434522  54.5433316  45.0353310
 104.6065984  54.1870120  45.2456634 103.1699933  54.2047210  45.7228714
 120.3972605  76.1262600  35.7777235 120.0591117  76.0103665  34.8897770
 121.2662374  75.7253765  35.7578241 116.2559421  77.9798077  31.7674126
 115.6924286  77.8888013  30.9990414 116.1411816  77.1597981  32.2476619
 120.8792388  77.2797452  41.7363441 120.8681029  76.8850250  40.8643944
 121.0413028  76.5463524  42.3297212 113.8023853  79.4749268  34.6058347
 114.5945145  79.1340093  34.1904646 114.0420503  79.5844243  35.5260500
 115.7614607  78.7358181  27.4775725 116.5345483  78.1887168  27.3388601
 116.1140006  79.6002431  27.6890187 117.5999650  80.0634564  40.6842625
 117.3089515  80.9680194  40.5689291 118.2356634  80.1051091  41.3986694
 118.5255856  77.4411412  37.2743984 119.1219429  77.2167435  36.5600947
 118.5830828  76.6996158  37.8769432 118.0980885  74.8950847  25.1094175
 118.3506405  74.3732369  24.3477638 117.1605444  74.7316993  25.2120859
 117.8177174  76.7978953  27.3118550 117.7013432  76.1223857  27.9799635
 117.9279433  76.3111327  26.4950703 120.1608714  76.2589101  31.0165240
 119.7966922  75.7319722  31.7278161 121.0175830  75.8687570  30.8431725
 119.8014201  71.2879000  26.0126588 119.9688604  72.1559237  26.3797059
 119.6111370  71.4506282  25.0887877 116.0102016  76.2009776  33.7129123
 115.0852513  76.0685990  33.9206815 116.2586429  76.9803995  34.2099065
 119.7803422  73.7436658  26.9973255 119.6603047  74.1893708  27.8358735
 119.0856011  74.0921975  26.4386793 113.3710827  75.8443050  34.5472912
 113.5003208  76.0977528  35.4612324 112.6908278  76.4370758  34.2277567
 117.5410314  86.5140299  30.6463386 117.4634344  87.4648125  30.7251867
 116.9371958  86.1686172  31.3038312 120.0327544  73.6868165  43.3024753
 119.2560878  74.2462085  43.2927618 120.6718107  74.1724948  43.8239623
 118.2873916  76.4953618  42.8642720 119.0288601  77.0338662  42.5877544
 117.5810902  77.1219907  43.0214272 120.1160326  73.5755366  38.8348438
 120.9621521  73.9994779  38.9783087 120.0558964  72.9188990  39.5287002
 119.6386033  78.9358357  32.4817255 120.1024378  79.2146060  31.6921878
 119.3742831  78.0341802  32.2990346 116.5310114  78.4829839  35.4197019
 117.1011471  78.9117107  34.7814503 117.1218226  78.2012424  36.1181204
 118.5754919  75.0581510  29.2906821 119.2778962  75.5102553  29.7580747
 118.2435547  74.4165329  29.9186714 117.0235280  73.6493266  43.6658030
 116.3933941  74.3309547  43.8993427 116.9171368  73.5376348  42.7211168
 112.3180253  73.3165062  34.5923954 111.5279307  73.5722591  34.1164065
 112.8091500  74.1313400  34.6975995 114.2694998  73.6809642  31.5507431
 113.4726161  73.7928336  32.0690927 114.0420590  74.0196294  30.6848321
 120.1000666  80.2054345  39.4989946 120.1645098  80.6674752  40.3348117
 119.3911590  79.5751710  39.6272255 110.6017956  73.5695553  37.0238945
 110.8525994  74.4542563  37.2896521 111.1377504  73.3900154  36.2514037
 119.8148683  81.8722452  29.3668926 119.6794358  82.7173988  29.7953774
 120.3558496  82.0741730  28.6034860 116.3016023  67.9514032  46.0283281
 115.9082969  67.3980231  46.7030925 117.1182163  68.2624611  46.4189799
 113.2678081  79.3897890  29.9396851 113.7802601  80.1841141  30.0902416
 113.9200794  78.6924181  29.8730452 115.0772965  82.5063647  32.0219604
 115.2539594  83.4281611  31.8340588 115.8729799  82.1922066  32.4513984
 119.2183984  69.3671911  43.6203538 119.9593697  69.9679065  43.5408000
 119.4501907  68.6249549  43.0621580 114.3625322  74.5528279  41.8981767
 114.2478837  73.6513536  42.1988866 113.5069840  74.7991975  41.5466584
 116.2004281  84.0241821  38.0229946 116.7511706  83.8958884  37.2506940
 115.3615757  84.3236710  37.6724839 119.9971452  80.2892948  42.3674178
 120.5299789  79.5281237  42.1373486 119.4685533  79.9966600  43.1098332
 111.2326997  77.7186545  30.7156421 112.0702219  78.1283553  30.4990129
 111.4105265  76.7785987  30.6856615 120.7138541  70.2311326  31.4625493
 119.8580137  69.8418177  31.2831131 121.1265492  70.3103287  30.6025278
 118.4880573  67.8496399  34.8683234 119.3533570  67.6539208  34.5089124
 118.5558082  67.6206751  35.7952591 121.3624165  79.4178941  29.8792990
 120.8345526  78.6831700  29.5666227 120.8611667  80.1953617  29.6332958
 116.0942892  70.0798607  32.2399601 116.6686644  69.8573789  31.5072794
 116.6813875  70.1487302  32.9928202 116.4212479  72.1103068  26.2595486
 115.5849792  72.4477755  26.5804761 116.2817249  71.9752048  25.3222623
 118.3965560  66.9539856  30.9674671 117.7429972  66.6388873  30.3431285
 118.3546034  66.3315596  31.6934493 119.5076765  77.2359151  22.8827963
 118.6003827  77.0048405  23.0819112 120.0047797  76.4396770  23.0701944
 120.6864998  77.3371746  27.4051953 119.7776217  77.0530779  27.5024422
 120.7160082  77.7570825  26.5455260 111.2553169  75.0577260  31.3867155
 111.0577568  74.4646621  30.6618221 110.6999833  74.7529470  32.1043094
 119.2349892  74.9500367  33.5061748 119.2898502  73.9974203  33.4304225
 118.4241094  75.1059806  33.9903046 120.3841086  78.8780490  24.7440031
 119.9460516  78.1616349  24.2845669 121.1251527  79.1056604  24.1825123
 117.1742252  73.5677426  31.2652127 116.3610118  73.8671597  31.6717319
 117.6701246  73.1733115  31.9826609 119.3250830  83.5635183  33.1986392
 119.2827009  83.7896030  32.2694924 120.2413529  83.3298558  33.3472193
 116.6656327  71.1395782  36.8813362 117.3055706  70.9984541  36.1836325
 115.8333857  70.8530295  36.5051964 117.4416631  80.4398212  32.9948354
 118.2357229  79.9448532  32.7930929 116.7308323  79.9116075  32.6316060
 113.7499394  74.5841294  29.0708107 112.8196982  74.5225749  29.2878069
 113.8456866  74.0617247  28.2744748 113.6684943  71.1096107  31.6586349
 113.9291761  72.0241440  31.5495509 114.4902116  70.6420549  31.8082961
 115.1409869  72.5233864  38.8285173 115.8132922  72.3151226  38.1797822
 114.3139655  72.3255950  38.3890405 120.0187907  81.0127234  36.6746191
 119.8798993  80.6446019  37.5472130 119.2302503  81.5274874  36.5030149
 120.6136059  86.1136331  28.0171728 120.7887815  85.6424374  28.8317351
 119.9268847  86.7402097  28.2452989 121.5693122  80.3908837  34.0635029
 121.2342955  80.3509607  34.9592679 121.0697068  79.7253553  33.5905439
 115.5437366  75.7976467  39.5887610 115.4057164  75.0656706  40.1899149
 116.4542289  75.7085367  39.3071798 118.1719667  75.5096426  39.0771290
 118.8819285  74.8689618  39.0357908 118.1288975  75.7609321  39.9997471
 116.8848601  72.4961644  40.8966929 116.3485958  72.0452383  41.5488526
 116.2965309  72.6307553  40.1537394 115.1797144  89.2625693  34.7911588
 115.4193742  89.8944218  35.4690607 114.3366341  88.9113734  35.0776947
 116.2950860  71.9550296  23.4593393 115.4180326  71.8339096  23.0955640
 116.7708613  71.1636374  23.2072282 107.8153000  76.7427455  33.5534900
 108.5024040  76.4289185  32.9655916 107.6601128  77.6468820  33.2802152
 112.6187722  71.6317652  37.9819924 112.5345911  71.0243321  37.2470334
 111.7970428  72.1226670  37.9829420 119.6925006  85.0704816  37.1953092
 119.6195177  85.8759787  37.7072397 119.2502399  85.2696782  36.3701113
 119.4814786  84.3076586  30.7055914 118.6982307  84.8498266  30.7994138
 120.1807531  84.8250566  31.1050155 119.3746404  72.2588598  33.0761804
 119.0044192  71.7059639  33.7642709 119.8705497  71.6546732  32.5236804
 117.2035603  82.7186093  40.1716822 117.9045063  83.3522576  40.3246216
 116.7330718  83.0600825  39.4112461 112.8003321  82.2522448  37.1047924
 113.3856758  81.5066136  37.2375828 112.6028160  82.5626405  37.9884588
 115.6541976  85.2873696  32.1210367 114.9852352  85.7719823  31.6374407
 115.5154846  85.5342916  33.0353745 107.3920976  74.8228049  35.8252367
 107.4305075  74.2891639  36.6189486 106.8861269  74.2963254  35.2063345
 119.7947245  87.3217439  38.7193025 120.3465553  87.4849061  39.4842110
 120.1353438  87.9121877  38.0473050 114.7711738  69.6692589  39.3214910
 114.8353065  70.5307420  38.9092307 114.7078858  69.0566591  38.5887268
 114.2464011  71.7415722  42.9687944 114.8736049  71.3592799  43.5825468
 113.3891930  71.5229924  43.3343636 111.0229553  73.5492151  28.9006299
 111.3182994  72.6402829  28.8473352 110.1217589  73.5279890  28.5787301
 114.5523800  71.6248147  34.8833847 113.8310386  72.2384115  34.7441321
 115.3417056  72.1605912  34.8050493 117.3550114  68.9602574  41.1574499
 117.8784516  69.2064870  41.9200808 117.1362447  69.7922609  40.7377636
 112.7517395  71.2306248  29.0245624 112.4230101  70.3503627  28.8420730
 113.1056766  71.1753917  29.9122013 115.8659218  71.5179218  29.3921102
 116.2055291  72.0465140  28.6699710 116.3131339  71.8559624  30.1679668
 118.5602659  69.9016269  38.8424170 118.2199479  69.1024082  39.2444850
 117.8541665  70.2017980  38.2701003 119.2119131  66.9865581  37.2951493
 120.0345200  66.5126060  37.1730383 119.4557194  67.7656065  37.7950179
 117.8527365  70.0153840  27.5914394 118.5735728  70.3935093  27.0878111
 117.2292669  70.7342717  27.6949372 116.7357710  73.6784702  35.1043471
 116.5902290  73.9925005  35.9967753 116.2582913  74.2969602  34.5514370
 118.5954092  70.6687250  35.1524361 118.5815661  69.7728343  34.8156659
 119.3126521  70.6757914  35.7862647 120.4480223  71.1024590  37.1977488
 120.1898001  72.0241661  37.1961819 119.9165264  70.7055025  37.8877952
 111.2103372  76.2190046  38.0431132 110.6656840  76.9949854  38.1751407
 112.0882722  76.5660851  37.8850254 117.9990988  69.5501630  30.4211931
 118.1206900  68.6218277  30.6202819 117.7093031  69.5640316  29.5090246
 120.8682179  67.2356541  33.5578651 120.8903876  67.2995874  32.6030630
 121.2850238  66.3961049  33.7519157 111.9969394  75.3459943  40.9361289
 111.2551130  75.4942578  41.5225920 111.6762138  75.6068208  40.0728039
 119.9413056  84.8875921  40.7341679 120.2500183  84.6425068  41.6064379
 120.7388538  85.0922559  40.2460550 119.9633668  87.0413831  32.9647056
 119.5238659  86.5490209  33.6579913 120.7141785  86.4986798  32.7239131
 112.4426007  83.2325371  32.9671684 113.2684027  82.9329143  32.5870328
 112.0920059  82.4632994  33.4161473 117.4107540  82.5851840  35.0369358
 116.7887550  81.9222545  34.7371585 118.0812407  82.6112972  34.3543005
 110.6434612  81.1511698  33.9260618 109.8066521  80.7233872  33.7444619
 110.6158258  81.3444141  34.8631409 117.4832068  71.0633628  44.6301864
 117.5320223  71.9395751  44.2479633 118.0254582  70.5211021  44.0573507
 116.9721047  81.1355763  28.5127818 117.1209168  81.8191227  27.8594491
 117.7787491  81.1160853  29.0277274 119.7131356  71.8165000  41.3848222
 118.8434666  72.1098566  41.1130811 119.9490837  72.4005445  42.1055486
 114.7273680  77.1620941  29.5188887 114.4819722  76.2583271  29.7169097
 114.8969595  77.1638091  28.5768365 113.9969328  72.8949298  27.0175049
 113.3038573  72.9693653  26.3615084 113.7521080  72.1309642  27.5396565
 120.4716453  83.6303893  25.9839566 119.8990420  84.2494081  25.5310037
 121.0449247  84.1803255  26.5179487 119.0406169  72.8914683  23.2610503
 118.1337624  72.5947795  23.3373217 119.3182150  72.5944501  22.3944790
 109.9584109  74.2121046  33.7109550 109.6386893  73.3586354  33.4183924
 109.4117537  74.4269624  34.4667517 113.7364016  76.9283487  37.4279056
 113.9550026  77.8600595  37.4467090 114.1489790  76.5691461  38.2133860
 120.6568234  67.4351572  29.4154745 119.8468963  67.0898657  29.7909991
 121.3452651  67.1259116  30.0042356 118.6091882  72.5016693  46.8181805
 118.5088609  73.4511050  46.7493896 118.3913424  72.1734932  45.9457875
 117.8104953  69.7501618  23.4022482 118.6724117  70.0756516  23.6618300
 117.9955297  68.9633114  22.8895548 109.8272369  77.8323958  35.6802671
 109.1335840  77.4177910  35.1672626 110.5745360  77.8744494  35.0836090
 118.4723152  75.9313832  45.6346867 117.9890234  76.7314192  45.8410756
 118.5584091  75.9421776  44.6814311 111.7409111  77.7642211  33.5568686
 111.7179800  77.8629899  32.6050569 112.0509748  78.6107362  33.8785852
 114.3996489  79.8218366  37.6715301 115.3539743  79.7902309  37.6045232
 114.2009013  79.3608990  38.4865526 114.9895871  78.3919482  40.2386098
 115.8088760  78.8863561  40.2620936 115.2632679  77.4751451  40.2103666
 112.7546718  85.3637986  34.6885498 112.6201186  84.6038387  34.1223496
 112.3378780  86.0878886  34.2214287 115.9115844  86.2607303  34.9003941
 115.7948228  87.2052735  34.7982631 115.0908290  85.9580864  35.2889740
 110.2430786  72.7257616  40.9378295 110.8889649  72.2156570  41.4265520
 110.0347937  73.4626298  41.5121721 118.7634396  66.9897661  26.6902191
 118.7513066  67.9339501  26.8470462 119.6557818  66.8067806  26.3961653
 116.9370358  86.9135565  38.1159869 117.8397605  86.9459175  38.4326364
 116.7107728  85.9836016  38.1306205 118.6923960  85.6666551  34.7769948
 117.7419591  85.6668413  34.6634320 118.9956446  84.9199286  34.2605983
 114.5828277  69.8725233  45.0353310 115.4459738  69.5162038  45.2456634
 114.0093687  69.5339128  45.7228714 118.6546754  92.0719373  33.5534900
 119.3417794  91.7581103  32.9655916 118.4994883  92.9760738  33.2802152
 118.2314730  90.1519966  35.8252367 118.2698830  89.6183557  36.6189486
 117.7255023  89.6255172  35.2063345 121.4828367  96.4803616  33.9260618
 120.6460275  96.0525790  33.7444619 121.4552012  96.6736059  34.8631409
 120.7977863  89.5412964  33.7109550 120.4780648  88.6878272  33.4183924
 120.2511292  89.7561542  34.4667517 120.6666123  93.1615875  35.6802671
 119.9729595  92.7469828  35.1672626 121.4139114  93.2036412  35.0836090
  74.1835298   2.2034751  17.3708693  74.1059327   3.1542576  17.4497173
  73.5796941   1.8580624  18.0283619  71.8222127   4.9520145  21.5156895
  72.0618726   5.5838670  22.1935913  70.9791324   4.6008185  21.8022254
  72.2966960   0.9768148  18.8455673  71.6277335   1.4614275  18.3619713
  72.1579829   1.2237368  19.7599052  76.4372228   3.0111891  25.4438332
  76.9890536   3.1743513  26.2087417  76.7778422   3.6016329  24.7718356
  69.3971701   1.0532438  21.4130805  69.2626169   0.2932839  20.8468803
  68.9803764   1.7773338  20.9459594  72.5540827   1.9501755  21.6249248
  72.4373211   2.8947187  21.5227938  71.7333274   1.6475316  22.0135047
  73.5795341   2.6030017  24.8405176  74.4822588   2.6353627  25.1571671
  73.3532711   1.6730468  24.8551512  87.8791343   7.1448970  22.5022542
  87.5409855   7.0290034  21.6143077  88.7481111   6.7440135  22.4823548
  83.7378159   8.9984446  18.4919433  83.1743024   8.9074383  17.7235721
  83.6230554   8.1784351  18.9721925  88.3611126   8.2983821  28.4608747
  88.3499767   7.9036620  27.5889251  88.5231766   7.5649894  29.0542519
  81.2842591  10.4935638  21.3303653  82.0763883  10.1526462  20.9149953
  81.5239241  10.6030613  22.2505807  89.3177718  12.6655414  13.8033898
  88.6665697  13.2509494  13.4167911  90.1122080  13.1961609  13.8628935
  83.2433345   9.7544551  14.2021032  84.0164221   9.2073538  14.0633908
  83.5958744  10.6188800  14.4135493  85.0818387  11.0820933  27.4087931
  84.7908253  11.9866564  27.2934598  85.7175372  11.1237461  28.1232001
  86.0074594   8.4597782  23.9989291  86.6038166   8.2353804  23.2846254
  86.0649566   7.7182527  24.6014739  85.2995911   7.8165323  14.0363857
  85.1832169   7.1410226  14.7044941  85.4098171   7.3297697  13.2196010
  87.6427452   7.2775470  17.7410546  87.2785659   6.7506091  18.4523468
  88.4994568   6.8873939  17.5677032  90.0408272  10.7682349  24.4037725
  89.7408995  11.6707388  24.2953532  89.6959332  10.5014532  25.2558878
  83.4920754   7.2196146  20.4374429  82.5671250   7.0872360  20.6452121
  83.7405167   7.9990365  20.9344372  80.8529565   6.8629419  21.2718219
  80.9821946   7.1163898  22.1857630  80.1727016   7.4557127  20.9522874
  85.0229052  17.5326669  17.3708693  84.9453082  18.4834494  17.4497173
  84.4190696  17.1872542  18.0283619  85.7692654   7.5139988  29.5888027
  86.5107339   8.0525032  29.3122850  85.0629640   8.1406277  29.7459578
  91.2447994   9.6569128  28.1860188  91.6531350   9.2151539  27.4414820
  90.5225255   9.0821756  28.4394381  91.5676809  10.2170319  21.9412477
  90.9385671  10.3816033  21.2388545  91.1802471  10.6311928  22.7123441
  95.4466040  11.1524757  19.2956841  94.7617079  11.5323658  18.7453874
  95.5309890  11.7620083  20.0288789  92.7016972   8.7984716  25.8952184
  92.9133867   9.4416476  25.2186565  92.6546720   7.9647032  25.4274114
  87.1204770   9.9544727  19.2062562  87.5843116  10.2332430  18.4167185
  86.8561569   9.0528172  19.0235653  84.0128851   9.5016209  22.1442325
  84.5830209   9.9303477  21.5059810  84.6036963   9.2198793  22.8426511
  79.7998990   4.3351432  21.3169261  79.0098044   4.5908961  20.8409371
  80.2910238   5.1499770  21.4221301  93.8162800  11.6756671  24.0674542
  94.6380244  11.2736859  23.7857223  93.8125203  11.5724905  25.0190657
  81.7513736   4.6996011  18.2752738  80.9544899   4.8114706  18.7936233
  81.5239328   5.0382664  17.4093628  87.5819403  11.2240715  26.2235252
  87.6463836  11.6861122  27.0593424  86.8730327  10.5938079  26.3517562
  78.0836693   4.5881922  23.7484252  78.3344732   5.4728932  24.0141828
  78.6196242   4.4086524  22.9759343  87.2967421  12.8908822  16.0914232
  87.1613096  13.7360358  16.5199080  87.8377234  13.0928100  15.3280166
  80.7496818  10.4084260  16.6642158  81.2621339  11.2027510  16.8147722
  81.4019531   9.7110550  16.5975759  82.5591703  13.5250016  18.7464911
  82.7358332  14.4467981  18.5585895  83.3548537  13.2108436  19.1759291
  81.8444060   5.5714648  28.6227074  81.7297575   4.6699905  28.9234173
  80.9888577   5.8178345  28.2711890  88.9235897  13.5132389  30.2214575
  88.4799752  12.7268767  29.9035479  89.5853111  13.7011539  29.5558465
  83.6823019  15.0428190  24.7475253  84.2330444  14.9145253  23.9752247
  82.8434495  15.3423079  24.3970146  91.0217136  13.7935188  28.2495976
  91.0035611  14.6144069  27.7576245  91.9437056  13.6689264  28.4746117
  87.4790190  11.3079318  29.0919484  88.0118526  10.5467606  28.8618792
  86.9504271  11.0152970  29.8343639  78.7145735   8.7372914  17.4401728
  79.5520957   9.1469923  17.2235436  78.8924003   7.7972357  17.4101922
  88.8442902  10.4365310  16.6038296  88.3164264   9.7018070  16.2911534
  88.3430405  11.2139987  16.3578265  93.8235748   8.6314331  21.7205343
  93.1659423   9.3213592  21.8085471  94.6276148   9.0210763  22.0639329
  89.8963581  16.9643028  12.5269955  89.2225280  17.2674725  13.1354913
  90.2829403  17.7672108  12.1775412  93.4003003  11.9664705  17.8988427
  92.9465331  11.1255615  17.9553617  92.7696970  12.6026103  18.2363207
  91.8435943  13.8041202  18.8338245  92.1358917  14.3646259  18.1150611
  92.3534563  14.0969763  19.5891404  78.7371906   6.0763630  18.1112462
  78.5396306   5.4832990  17.3863528  78.1818570   5.7715840  18.8288400
  86.8069568  14.5821553  19.9231698  86.7645747  14.8082399  18.9940230
  87.7232267  14.3484927  20.0717499  96.0102318  10.2400583  22.5372928
  96.4438825  10.1475872  23.3855982  96.7233899  10.2158084  21.8992944
  84.9235369  11.4584582  19.7193661  85.7175967  10.9634902  19.5176236
  84.2127061  10.9302445  19.3561367  89.7430213  13.8402677  24.0706029
  89.7967235  14.4093614  24.8383744  88.8744994  14.0104562  23.7060066
  81.2318132   5.6027664  15.7953414  80.3015720   5.5412119  16.0123376
  81.3275604   5.0803616  14.9990055  96.8717868  10.2824284  25.0705813
  97.0653758  11.1870094  25.3165088  96.7718486   9.8231703  25.9044398
  91.9332976  10.4331027  30.6446694  91.7818483  10.2041578  29.7276778
  91.9237656  11.3901628  30.6578039  88.7018313   8.0062939  25.6292960
  89.6310373   8.1574099  25.4561928  88.2809343   8.0946960  24.7741607
  87.5006645  12.0313604  23.3991498  87.3617730  11.6632388  24.2717436
  86.7121241  12.5461243  23.2275456  88.0954797  17.1322700  14.7417035
  88.2706552  16.6610743  15.5562657  87.4087585  17.7588466  14.9698295
  89.0511860  11.4095207  20.7880336  88.7161692  11.3695976  21.6837986
  88.5515805  10.7439922  20.3150746  83.0256104   6.8162837  26.3132917
  82.8875902   6.0843075  26.9144456  83.9361027   6.7271737  26.0317105
  85.6538404   6.5282796  25.8016597  86.3638023   5.8875988  25.7603215
  85.6107713   6.7795691  26.7242777  93.6425183  13.4650149  28.7223176
  93.5837729  12.7809369  28.0553759  94.0444701  14.2069139  28.2703802
  82.6615882  20.2812063  21.5156895  82.9012480  20.9130587  22.1935913
  81.8185078  19.9300103  21.8022254  93.6442590  11.4289733  26.9537156
  92.7569369  11.0915655  27.0763554  94.2141141  10.6972764  27.1905921
  75.2971737   7.7613825  20.2780207  75.9842777   7.4475555  19.6901222
  75.1419866   8.6655190  20.0047458  87.1743744  16.0891185  23.9198399
  87.1013915  16.8946157  24.4317703  86.7321137  16.2883151  23.0946420
  86.9633523  15.3262956  17.4301220  86.1801045  15.8684636  17.5239445
  87.6626269  15.8436935  17.8295461  89.6342427  15.9878020  26.0756557
  90.3470399  16.6225484  26.0032459  89.1432456  16.0841886  25.2596559
  91.3559954   9.8929272  17.6473849  90.4216233  10.0130735  17.4778553
  91.5336623   8.9901739  17.3833859  84.6854341  13.7372463  26.8962128
  85.3863800  14.3708946  27.0491522  84.2149456  14.0787195  26.1357767
  89.4462801  16.3276764  18.8242849  89.6285195  15.5098420  19.2870601
  90.2695787  16.5444456  18.3867739  89.7804966  15.2544949  16.0857897
  90.3092733  14.7437403  15.4728059  90.0433186  14.9387479  16.9503430
  88.5343200   7.0336881  31.2080716  87.8583837   6.9331011  31.8783091
  89.3570834   6.8776095  31.6716713  80.2822059  13.2708818  23.8293231
  80.8675496  12.5252506  23.9621135  80.0846897  13.5812775  24.7129895
  83.1360714  16.3060065  18.8455673  82.4671089  16.7906193  18.3619713
  82.9973584  16.5529286  19.7599052  74.8739714   5.8414418  22.5497674
  74.9123813   5.3078009  23.3434792  74.3680006   5.3149624  21.9308651
  87.2765983  18.3403809  25.4438332  87.8284291  18.5035430  26.2087417
  87.6172176  18.9308247  24.7718356  92.1276857  13.1665066  31.2986986
  92.6716761  13.7795025  30.8041941  91.5463702  13.7244645  31.8153999
  78.5048291   4.5678520  15.6251605  78.8001732   3.6589199  15.5718659
  77.6036327   4.5466260  15.3032608  90.4134370  16.2885784  22.4302014
  90.2885509  15.4875524  21.9212959  91.0713461  16.7831978  21.9415984
  92.4769278  14.0894805  24.0581564  91.5299614  13.9700156  23.9859891
  92.8252051  13.2017303  24.1407825  89.4815712  13.8847521  20.2585916
  89.3340674  12.9564228  20.4393486  90.3069205  13.9067611  19.7742991
  93.0849833  14.7076079  21.3450789  94.0096381  14.5018941  21.2075240
  92.9165137  14.4592481  22.2540130  92.8745150  15.2261747  16.7012880
  93.0482027  14.6608169  15.9486733  93.3674041  16.0262642  16.5192370
  78.6922109   7.2376416  24.7676439  78.1475578   8.0136224  24.8996713
  79.5701459   7.5847221  24.6095561  79.4788131   6.3646312  27.6606596
  78.7369867   6.5128948  28.2471226  79.1580876   6.6254578  26.7973345
  87.4231794  15.9062291  27.4586986  87.7318920  15.6611437  28.3309686
  88.2207276  16.1108929  26.9705856  87.4452406  18.0600200  19.6892363
  87.0057396  17.5676579  20.3825219  88.1960523  17.5173168  19.4484438
  79.9244745  14.2511741  19.6916991  80.7502765  13.9515513  19.3115634
  79.5738797  13.4819363  20.1406779  84.8926278  13.6038209  21.7614664
  84.2706287  12.9408914  21.4616892  85.5631145  13.6299341  21.0788312
  78.1253350  12.1698067  20.6505924  77.2885258  11.7420242  20.4689925
  78.0976996  12.3630511  21.5876715  95.4505651  12.6261121  30.6348307
  94.6601195  12.6085259  30.0952807  95.2139006  13.1649414  31.3897344
  84.4539785  12.1542133  15.2373125  84.6027905  12.8377597  14.5839798
  85.2606229  12.1347223  15.7522580  97.0721723  11.8950528  28.1923057
  96.7806532  12.2580509  29.0286518  96.4593855  11.1817537  28.0136389
  82.2092418   8.1807310  16.2434194  81.9638460   7.2769640  16.4414404
  82.3788333   8.1824461  15.3013672  87.9535191  14.6490263  12.7084872
  87.3809158  15.2680450  12.2555344  88.5267984  15.1989625  13.2424794
  88.2220682  10.0368822  31.5101582  89.1423691  10.2147421  31.7041628
  88.1870265   9.0924867  31.3581281  77.4402847   5.2307416  20.4354856
  77.1205631   4.3772724  20.1429230  76.8936275   5.4455994  21.1912824
  81.2182754   7.9469857  24.1524363  81.4368764   8.8786964  24.1712397
  81.6308528   7.5877831  24.9379167  77.3091107   8.8510327  22.4047978
  76.6154578   8.4364280  21.8917932  78.0564098   8.8930864  21.8081397
  85.9541890   6.9500201  32.3592173  85.4708971   7.7500561  32.5656062
  86.0402829   6.9608146  31.4059617  79.2227849   8.7828581  20.2813993
  79.1998537   8.8816268  19.3295876  79.5328486   9.6293732  20.6031159
  81.8815227  10.8404736  24.3960607  82.8358481  10.8088678  24.3290539
  81.6827751  10.3795360  25.2110833  82.4714609   9.4105852  26.9631405
  83.2907498   9.9049931  26.9866242  82.7451417   8.4937820  26.9348972
  80.2365456  16.3824355  21.4130805  80.1019924  15.6224756  20.8468803
  79.8197518  17.1065255  20.9459594  83.3934582  17.2793672  21.6249248
  83.2766966  18.2239105  21.5227938  82.5727028  16.9767234  22.0135047
  77.7249523   3.7443986  27.6623602  78.3708387   3.2342940  28.1510827
  77.5166675   4.4812667  28.2367027  90.2502916  10.8124833  33.1615742
  91.1194075  10.9865486  32.8002377  89.7709667  11.6319250  33.0391472
  84.4189096  17.9321934  24.8405176  85.3216343  17.9645545  25.1571671
  84.1926466  17.0022385  24.8551512  86.1742698  16.6852921  21.5015255
  85.2238329  16.6854782  21.3879627  86.4775184  15.9385655  20.9851289
 101.9095391  22.5213459  22.5661017 102.5473801  22.4020207  21.8624357
 101.7916234  23.4694303  22.6248969  98.7185098  22.4740887  22.5022542
  98.3803609  22.3581952  21.6143077  99.5874866  22.0732052  22.4823548
  94.5771913  24.3276364  18.4919433  94.0136778  24.2366301  17.7235721
  94.4624308  23.5076268  18.9721925  99.2004881  23.6275739  28.4608747
  99.1893521  23.2328537  27.5889251  99.3625520  22.8941812  29.0542519
  92.1236345  25.8227555  21.3303653  92.9157637  25.4818380  20.9149953
  92.3632995  25.9322530  22.2505807 100.1571472  27.9947331  13.8033898
  99.5059452  28.5801412  13.4167911 100.9515835  28.5253526  13.8628935
  94.0827099  25.0836469  14.2021032  94.8557975  24.5365456  14.0633908
  94.4352498  25.9480718  14.4135493  95.9212142  26.4112851  27.4087931
  95.6302008  27.3158482  27.2934598  96.5569126  26.4529378  28.1232001
  96.8468349  23.7889699  23.9989291  97.4431921  23.5645722  23.2846254
  96.9043320  23.0474445  24.6014739  96.1389666  23.1457241  14.0363857
  96.0225924  22.4702144  14.7044941  96.2491926  22.6589615  13.2196010
  98.4821207  22.6067388  17.7410546  98.1179414  22.0798009  18.4523468
  99.3388323  22.2165857  17.5677032 104.3870507  13.8961720  25.0041812
 104.0553832  14.7657131  24.7803027 103.7916121  13.5798004  25.6835843
 100.8802027  26.0974266  24.4037725 100.5802750  26.9999305  24.2953532
 100.5353086  25.8306450  25.2558878  94.3314508  22.5488063  20.4374429
  93.4065005  22.4164277  20.6452121  94.5798922  23.3282282  20.9344372
 104.2799171  18.6156807  22.0835162 103.3716048  18.5472215  21.7893923
 104.2286766  19.0928751  22.9116988  91.6923319  22.1921337  21.2718219
  91.8215701  22.4455816  22.1857630  91.0120771  22.7849045  20.9522874
  95.8622807  32.8618587  17.3708693  95.7846836  33.8126412  17.4497173
  95.2584450  32.5164459  18.0283619  98.3540036  20.0346452  30.0270060
  97.5773371  20.5940372  30.0172924  98.9930599  20.5203235  30.5484930
  96.6086409  22.8431906  29.5888027  97.3501093  23.3816949  29.3122850
  95.9023394  23.4698194  29.7459578 102.0841748  24.9861046  28.1860188
 102.4925104  24.5443457  27.4414820 101.3619010  24.4113673  28.4394381
  98.4372818  19.9233653  25.5593745  99.2834014  20.3473066  25.7028394
  98.3771456  19.2667277  26.2532308 102.4070563  25.5462237  21.9412477
 101.7779425  25.7107951  21.2388545 102.0196225  25.9603846  22.7123441
 106.2859795  26.4816674  19.2956841 105.6010833  26.8615576  18.7453874
 106.3703644  27.0912001  20.0288789 101.5872264  17.5838021  27.2174919
 101.3433196  18.3380082  26.6809194 101.8632194  17.9623369  28.0522166
 103.5410727  24.1276633  25.8952184 103.7527622  24.7708393  25.2186565
 103.4940475  23.2938950  25.4274114  97.9598525  25.2836645  19.2062562
  98.4236870  25.5624348  18.4167185  97.6955323  24.3820089  19.0235653
  94.8522606  24.8308126  22.1442325  95.4223963  25.2595395  21.5059810
  95.4430718  24.5490711  22.8426511  96.8967411  21.4059797  16.0152127
  97.5991454  21.8580841  16.4826054  96.5648039  20.7643616  16.6432020
  95.3447772  19.9971554  30.3903337  94.7146433  20.6787835  30.6238733
  95.2383860  19.8854635  29.4456475  90.6392745  19.6643350  21.3169261
  89.8491799  19.9200878  20.8409371  91.1303992  20.4791688  21.4221301
 104.6556554  27.0048589  24.0674542 105.4773998  26.6028776  23.7857223
 104.6518957  26.9016823  25.0190657  92.5907490  20.0287929  18.2752738
  91.7938654  20.1406623  18.7936233  92.3633083  20.3674581  17.4093628
  98.4213158  26.5532632  26.2235252  98.4857590  27.0153039  27.0593424
  97.7124082  25.9229997  26.3517562  88.9230448  19.9173840  23.7484252
  89.1738486  20.8020850  24.0141828  89.4589996  19.7378442  22.9759343
  98.1361176  28.2200740  16.0914232  98.0006850  29.0652275  16.5199080
  98.6770988  28.4220017  15.3280166  94.6228515  14.2992320  32.7528588
  94.2295461  13.7458518  33.4276232  95.4394656  14.6102898  33.1435105
  91.5890573  25.7376178  16.6642158  92.1015094  26.5319428  16.8147722
  92.2413286  25.0402468  16.5975759  93.3985458  28.8541934  18.7464911
  93.5752086  29.7759899  18.5585895  94.1942291  28.5400353  19.1759291
  97.5396476  15.7150199  30.3448844  98.2806190  16.3157352  30.2653307
  97.7714399  14.9727836  29.7866887  92.6837814  20.9006566  28.6227074
  92.5691329  19.9991823  28.9234173  91.8282332  21.1470263  28.2711890
  99.7629652  28.8424306  30.2214575  99.3193506  28.0560685  29.9035479
 100.4246866  29.0303457  29.5558465  94.5216773  30.3720108  24.7475253
  95.0724198  30.2437171  23.9752247  93.6828249  30.6714997  24.3970146
 101.8610890  29.1227106  28.2495976 101.8429365  29.9435987  27.7576245
 102.7830810  28.9981181  28.4746117  98.3183944  26.6371236  29.0919484
  98.8512281  25.8759524  28.8618792  97.7898025  26.3444887  29.8343639
  89.5539490  24.0664832  17.4401728  90.3914712  24.4761840  17.2235436
  89.7317757  23.1264274  17.4101922 100.5650180  14.1135957  22.5862359
 100.0614975  14.0766092  21.7730164 100.8580786  15.0228699  22.6459016
  96.8093065  14.1974686  21.5928541  97.6746062  14.0017495  21.2334430
  96.8770574  13.9685038  22.5197898  99.6836657  25.7657228  16.6038296
  99.1558018  25.0309988  16.2911534  99.1824160  26.5431904  16.3578265
 104.6629503  23.9606249  21.7205343 104.0053177  24.6505510  21.8085471
 105.4669902  24.3502681  22.0639329  94.4155384  16.4276894  18.9644908
  94.9899136  16.2052076  18.2318101  95.0026367  16.4965589  19.7173509
 100.7357336  32.2934946  12.5269955 100.0619035  32.5966642  13.1354913
 101.1223158  33.0964026  12.1775412 104.2396758  27.2956623  17.8988427
 103.7859085  26.4547533  17.9553617 103.6090725  27.9318021  18.2363207
 102.6829697  29.1333119  18.8338245 102.9752672  29.6938177  18.1150611
 103.1928318  29.4261680  19.5891404  89.5765661  21.4055547  18.1112462
  89.3790061  20.8124908  17.3863528  89.0212325  21.1007758  18.8288400
  97.5562385  21.2978654  20.2307055  97.6110994  20.3452490  20.1549531
  96.7453587  21.4538093  20.7148353  95.4954744  19.9155714  17.9897434
  94.6822610  20.2149884  18.3962626  95.9913739  19.5211402  18.7071916
  97.6463322  29.9113470  19.9231698  97.6039501  30.1374317  18.9940230
  98.5626021  29.6776845  20.0717499 101.0928956  20.3797538  26.8212327
 101.4478344  20.6069011  27.6806793 101.7401087  20.7115915  26.1989583
  94.9868819  17.4874069  23.6058669  95.6268199  17.3462828  22.9081632
  94.1546350  17.2008582  23.2297270 106.8496073  25.5692501  22.5372928
 107.2832579  25.4767790  23.3855982 107.5627653  25.5450001  21.8992944
  95.7629123  26.7876500  19.7193661  96.5569722  26.2926820  19.5176236
  95.0520816  26.2594363  19.3561367 100.5823968  29.1694595  24.0706029
 100.6360990  29.7385531  24.8383744  99.7138749  29.3396480  23.7060066
  92.0711887  20.9319581  15.7953414  91.1409475  20.8704037  16.0123376
  92.1669359  20.4095534  14.9990055  91.9897436  17.4574394  18.3831655
  92.2504253  18.3719727  18.2740816  92.8114608  16.9898837  18.5328268
  93.4622361  18.8712151  25.5530480  94.1345414  18.6629513  24.9043129
  92.6352148  18.6734237  25.1135712 107.7111622  25.6116202  25.0705813
 107.9047512  26.5162012  25.3165088 107.6112240  25.1523621  25.9044398
  99.3647933  15.4974092  27.5696141  98.7175848  16.1964042  27.4760617
 100.1348948  15.9310236  27.9372389 102.7726731  25.7622944  30.6446694
 102.6212237  25.5333496  29.7276778 102.7631410  26.7193546  30.6578039
  99.5412067  23.3354857  25.6292960 100.4704127  23.4866017  25.4561928
  99.1203097  23.4238878  24.7741607  98.3400399  27.3605521  23.3991498
  98.2011485  26.9924306  24.2717436  97.5514995  27.8753161  23.2275456
  98.9348551  32.4614618  14.7417035  99.1100307  31.9902661  15.5562657
  98.2481339  33.0880384  14.9698295  99.8905614  26.7387124  20.7880336
  99.5555447  26.6987894  21.6837986  99.3909560  26.0731840  20.3150746
  93.8649858  22.1454754  26.3132917  93.7269656  21.4134993  26.9144456
  94.7754782  22.0563654  26.0317105  96.4932159  21.8574714  25.8016597
  97.2031777  21.2167906  25.7603215  96.4501467  22.1087608  26.7242777
 104.4818938  28.7942067  28.7223176 104.4231484  28.1101287  28.0553759
 104.8838456  29.5361057  28.2703802  95.2061093  18.8439931  27.6212236
  94.6698450  18.3930670  28.2733832  94.6177801  18.9785840  26.8782700
  93.5009636  35.6103981  21.5156895  93.7406235  36.2422505  22.1935913
  92.6578833  35.2592021  21.8022254 104.4836345  26.7581651  26.9537156
 103.5963124  26.4207573  27.0763554 105.0534896  26.0264682  27.1905921
  86.1365492  23.0905743  20.2780207  86.8236532  22.7767473  19.6901222
  85.9813621  23.9947107  20.0047458  90.9400214  17.9795939  24.7065231
  90.8558403  17.3721609  23.9715641  90.1182921  18.4704957  24.7074727
  98.0137498  31.4183103  23.9198399  97.9407670  32.2238075  24.4317703
  97.5714891  31.6175069  23.0946420  97.8027278  30.6554873  17.4301220
  97.0194800  31.1976553  17.5239445  98.5020023  31.1728853  17.8295461
 100.4736182  31.3169937  26.0756557 101.1864154  31.9517402  26.0032459
  99.9826210  31.4133803  25.2596559 102.1953709  25.2221190  17.6473849
 101.2609987  25.3422652  17.4778553 102.3730377  24.3193657  17.3833859
  97.6958897  18.6066886  19.8007110  97.3256684  18.0537926  20.4888016
  98.1917989  18.0025019  19.2482110  95.5248095  29.0664381  26.8962128
  96.2257555  29.7000864  27.0491522  95.0543210  29.4079112  26.1357767
 103.3249381  21.6208988  24.7214679 102.6720832  21.8684896  24.0667131
 103.7029761  20.8073126  24.3877156 100.2856555  31.6568681  18.8242849
 100.4678950  30.8390337  19.2870601 101.1089541  31.8736374  18.3867739
 100.6198721  30.5836866  16.0857897 101.1486487  30.0729321  15.4728059
 100.8826940  30.2679397  16.9503430  99.3736954  22.3628799  31.2080716
  98.6977591  22.2622928  31.8783091 100.1964588  22.2068013  31.6716713
  91.1215813  28.6000736  23.8293231  91.7069250  27.8544424  23.9621135
  90.9240652  28.9104692  24.7129895  93.9754469  31.6351983  18.8455673
  93.3064844  32.1198111  18.3619713  93.8367338  31.8821204  19.7599052
  85.7133468  21.1706336  22.5497674  85.7517568  20.6369927  23.3434792
  85.2073761  20.6441541  21.9308651  98.1159737  33.6695727  25.4438332
  98.6678045  33.8327348  26.2087417  98.4565931  34.2600164  24.7718356
  93.0924230  16.0170876  26.0460216  93.1565557  16.8785707  25.6337614
  93.0291351  15.4044878  25.3132575  92.5676503  18.0894009  29.6933251
  93.1948542  17.7071086  30.3070775  91.7104422  17.8708211  30.0588943
 102.9670611  28.4956984  31.2986986 103.5110515  29.1086942  30.8041941
 102.3857456  29.0536563  31.8153999  89.3442046  19.8970438  15.6251605
  89.6395487  18.9881116  15.5718659  88.4430081  19.8758178  15.3032608
 101.2528124  31.6177702  22.4302014 101.1279264  30.8167442  21.9212959
 101.9107216  32.1123896  21.9415984  92.8736293  17.9726435  21.6079154
  92.1522878  18.5862402  21.4686627  93.6629548  18.5084199  21.5295800
 103.3163033  29.4186722  24.0581564 102.3693368  29.2992073  23.9859891
 103.6645806  28.5309220  24.1407825  95.6762606  15.3080861  27.8819806
  96.1997008  15.5543158  28.6446115  95.4574939  16.1400896  27.4622943
  91.0729887  17.5784536  15.7490931  90.7442593  16.6981915  15.5666036
  91.4269258  17.5232204  16.6367320 100.3209466  29.2139438  20.2585916
 100.1734429  28.2856146  20.4393486 101.1462960  29.2359529  19.7742991
  94.1871710  17.8657506  16.1166408  94.5267783  18.3943427  15.3945017
  94.6343831  18.2037912  16.8924975 103.9243588  30.0367997  21.3450789
 104.8490135  29.8310859  21.2075240 103.7558891  29.7884398  22.2540130
  96.8815151  16.2494556  25.5669476  96.5411972  15.4502369  25.9690156
  96.1754158  16.5496267  24.9946309  97.5331623  13.3343869  24.0196799
  98.3557692  12.8604347  23.8975690  97.7769687  14.1134352  24.5195486
  95.0570202  20.0262989  21.8288778  94.9114783  20.3403292  22.7213059
  94.5795405  20.6447890  21.2759677  96.9166585  17.0165537  21.8769667
  96.9028153  16.1206631  21.5401965  97.6339013  17.0236201  22.5107954
  98.7692715  17.4502878  23.9222795  98.5110493  18.3719948  23.9207125
  98.2377756  17.0533312  24.6123259 103.7138904  30.5553665  16.7012880
 103.8875782  29.9900087  15.9486733 104.2067795  31.3554560  16.5192370
  89.5315864  22.5668334  24.7676439  88.9869332  23.3428142  24.8996713
  90.4095214  22.9139138  24.6095561  90.3181886  21.6938230  27.6606596
  89.5763622  21.8420865  28.2471226  89.9974630  21.9546496  26.7973345
  98.2625548  31.2354208  27.4586986  98.5712675  30.9903355  28.3309686
  99.0601031  31.4400847  26.9705856  98.2846161  33.3892118  19.6892363
  97.8451151  32.8968497  20.3825219  99.0354277  32.8465086  19.4484438
  90.7638500  29.5803659  19.6916991  91.5896519  29.2807431  19.3115634
  90.4132552  28.8111281  20.1406779  95.7320033  28.9330127  21.7614664
  95.1100042  28.2700832  21.4616892  96.4024900  28.9591259  21.0788312
  88.9647105  27.4989985  20.6505924  88.1279013  27.0712160  20.4689925
  88.9370750  27.6922429  21.5876715  95.8044560  17.4111915  31.3547170
  95.8532716  18.2874038  30.9724940  96.3467074  16.8689308  30.7818813
 106.2899406  27.9553038  30.6348307 105.4994950  27.9377177  30.0952807
 106.0532760  28.4941332  31.3897344 106.4097281  24.8045505  27.9481036
 106.4595286  24.6395512  28.8896559 106.3011204  23.9372764  27.5578917
  95.2933540  27.4834050  15.2373125  95.4421660  28.1669515  14.5839798
  96.0999983  27.4639140  15.7522580 103.7001043  20.7876433  29.2640343
 104.6010906  20.6482897  28.9724340 103.7749018  20.9530887  30.2038520
  98.0343849  18.1643287  28.1093529  97.1647158  18.4576853  27.8376117
  98.2703329  18.7483732  28.8300793 107.9115478  27.2242446  28.1923057
 107.6200286  27.5872427  29.0286518 107.2987609  26.5109454  28.0136389
 106.1602666  22.3475061  26.6603115 106.6356788  22.5402707  25.8521967
 105.2368231  22.4034247  26.4146499  93.0486173  23.5099228  16.2434194
  92.8032215  22.6061558  16.4414404  93.2182087  23.5116378  15.3013672
 100.7382882  14.3822904  25.6258949 101.2564826  15.1183931  25.3005438
 100.3838015  14.6886898  26.4605708  92.3181820  19.2427585  13.7420355
  91.6251065  19.3171940  13.0860391  92.0733572  18.4787929  14.2641872
  98.7928945  29.9782181  12.7084872  98.2202912  30.5972368  12.2555344
  99.3661739  30.5281542  13.2424794 104.8604335  19.2240821  24.8931421
 105.8121758  19.3238918  24.9143645 104.6907785  18.4319089  25.4029505
 102.8818714  16.3096404  25.0790822 102.2868647  16.5901417  24.3837311
 102.5968411  16.7990305  25.8507563 107.3392413  22.4446941  24.0073721
 107.3068733  21.5062941  24.1933404 107.9493036  22.5230977  23.2739546
  99.0614436  25.3660740  31.5101582  99.9817446  25.5439339  31.7041628
  99.0264019  24.4216785  31.3581281  88.2796601  20.5599333  20.4354856
  87.9599386  19.7064641  20.1429230  87.7330029  20.7747911  21.1912824
  92.0576509  23.2761774  24.1524363  92.2762518  24.2078882  24.1712397
  92.4702283  22.9169749  24.9379167  96.9304374  18.8494980  33.5427112
  96.8301101  19.7989337  33.4739203  96.7125916  18.5213219  32.6703182
  88.1484861  24.1802245  22.4047978  87.4548333  23.7656198  21.8917932
  88.8957852  24.2222781  21.8081397  96.7935644  22.2792119  32.3592173
  96.3102726  23.0792479  32.5656062  96.8796583  22.2900064  31.4059617
  90.0621604  24.1120499  20.2813993  90.0392292  24.2108186  19.3295876
  90.3722240  24.9585649  20.6031159  92.7208982  26.1696654  24.3960607
  93.6752235  26.1380596  24.3290539  92.5221505  25.7087277  25.2110833
  93.3108364  24.7397770  26.9631405  94.1301253  25.2341848  26.9866242
  93.5845171  23.8229738  26.9348972  91.0759210  31.7116273  21.4130805
  90.9413678  30.9516674  20.8468803  90.6591273  32.4357173  20.9459594
  94.2328336  32.6085590  21.6249248  94.1160720  33.5531023  21.5227938
  93.4120782  32.3059152  22.0135047  88.5643278  19.0735903  27.6623602
  89.2102142  18.5634857  28.1510827  88.3560429  19.8104585  28.2367027
 101.0896670  26.1416751  33.1615742 101.9587830  26.3157403  32.8002377
 100.6103422  26.9611168  33.0391472  95.2582850  33.2613852  24.8405176
  96.1610097  33.2937462  25.1571671  95.0320220  32.3314303  24.8551512
  97.0136452  32.0144839  21.5015255  96.0632083  32.0146700  21.3879627
  97.3168939  31.2677573  20.9851289  92.9040769  16.2203521  31.7598616
  93.7672230  15.8640325  31.9701941  92.3306180  15.8817415  32.4474020
 112.7489146  37.8505377  22.5661017 113.3867556  37.7312124  21.8624357
 112.6309989  38.7986221  22.6248969 109.5578852  37.8032805  22.5022542
 109.2197364  37.6873870  21.6143077 110.4268620  37.4023970  22.4823548
 105.4165668  39.6568281  18.4919433 104.8530533  39.5658218  17.7235721
 105.3018063  38.8368186  18.9721925 110.0398635  38.9567657  28.4608747
 110.0287276  38.5620455  27.5889251 110.2019275  38.2233729  29.0542519
 102.9630100  41.1519473  21.3303653 103.7551392  40.8110298  20.9149953
 103.2026750  41.2614448  22.2505807 110.9965227  43.3239249  13.8033898
 110.3453206  43.9093330  13.4167911 111.7909589  43.8545444  13.8628935
 104.9220854  40.4128386  14.2021032 105.6951730  39.8657373  14.0633908
 105.2746253  41.2772636  14.4135493 106.7605896  41.7404769  27.4087931
 106.4695762  42.6450399  27.2934598 107.3962881  41.7821296  28.1232001
 107.6862103  39.1181617  23.9989291 108.2825675  38.8937639  23.2846254
 107.7437075  38.3766363  24.6014739 106.9783420  38.4749158  14.0363857
 106.8619678  37.7994062  14.7044941 107.0885680  37.9881532  13.2196010
 109.3214961  37.9359305  17.7410546 108.9573168  37.4089926  18.4523468
 110.1782077  37.5457775  17.5677032 115.2264262  29.2253638  25.0041812
 114.8947587  30.0949049  24.7803027 114.6309875  28.9089922  25.6835843
 111.7195781  41.4266184  24.4037725 111.4196504  42.3291223  24.2953532
 111.3746841  41.1598367  25.2558878 105.1708263  37.8779981  20.4374429
 104.2458759  37.7456195  20.6452121 105.4192676  38.6574200  20.9344372
 115.1192925  33.9448724  22.0835162 114.2109802  33.8764133  21.7893923
 115.0680521  34.4220669  22.9116988 102.5317074  37.5213254  21.2718219
 102.6609455  37.7747733  22.1857630 101.8514525  38.1140962  20.9522874
 106.7016561  48.1910504  17.3708693 106.6240591  49.1418329  17.4497173
 106.0978205  47.8456377  18.0283619 109.1933791  35.3638370  30.0270060
 108.4167125  35.9232290  30.0172924 109.8324354  35.8495153  30.5484930
 107.4480163  38.1723823  29.5888027 108.1894848  38.7108867  29.3122850
 106.7417149  38.7990112  29.7459578 112.9235503  40.3152964  28.1860188
 113.3318859  39.8735374  27.4414820 112.2012764  39.7405591  28.4394381
 109.2766573  35.2525570  25.5593745 110.1227768  35.6764984  25.7028394
 109.2165211  34.5959195  26.2532308 113.2464318  40.8754154  21.9412477
 112.6173180  41.0399868  21.2388545 112.8589980  41.2895764  22.7123441
 117.1253549  41.8108592  19.2956841 116.4404588  42.1907493  18.7453874
 117.2097399  42.4203919  20.0288789 112.4266018  32.9129939  27.2174919
 112.1826950  33.6671999  26.6809194 112.7025949  33.2915286  28.0522166
 114.3804481  39.4568551  25.8952184 114.5921376  40.1000311  25.2186565
 114.3334229  38.6230868  25.4274114 111.9830710  32.0686372  22.7988756
 111.1215189  32.3667625  23.0905494 112.0093145  32.2856771  21.8669789
 108.7992279  40.6128562  19.2062562 109.2630625  40.8916265  18.4167185
 108.5349078  39.7112007  19.0235653 105.6916360  40.1600044  22.1442325
 106.2617718  40.5887312  21.5059810 106.2824472  39.8782629  22.8426511
 107.7361165  36.7351715  16.0152127 108.4385209  37.1872758  16.4826054
 107.4041794  36.0935534  16.6432020 106.1841527  35.3263471  30.3903337
 105.5540188  36.0079752  30.6238733 106.0777615  35.2146553  29.4456475
 101.4786499  34.9935267  21.3169261 100.6885553  35.2492796  20.8409371
 101.9697747  35.8083605  21.4221301 115.4950309  42.3340507  24.0674542
 116.3167753  41.9320694  23.7857223 115.4912712  42.2308741  25.0190657
 103.4301245  35.3579847  18.2752738 102.6332408  35.4698541  18.7936233
 103.2026837  35.6966499  17.4093628 109.2606912  41.8824550  26.2235252
 109.3251345  42.3444957  27.0593424 108.5517836  41.2521915  26.3517562
  99.7624202  35.2465758  23.7484252 100.0132241  36.1312768  24.0141828
 100.2983751  35.0670359  22.9759343 108.9754930  43.5492657  16.0914232
 108.8400605  44.3944193  16.5199080 109.5164743  43.7511935  15.3280166
 105.4622270  29.6284237  32.7528588 105.0689215  29.0750436  33.4276232
 106.2788410  29.9394816  33.1435105 102.4284327  41.0668095  16.6642158
 102.9408848  41.8611346  16.8147722 103.0807040  40.3694386  16.5975759
 104.2379212  44.1833852  18.7464911 104.4145841  45.1051816  18.5585895
 105.0336046  43.8692271  19.1759291 108.3790231  31.0442116  30.3448844
 109.1199944  31.6449269  30.2653307 108.6108154  30.3019754  29.7866887
 103.5231569  36.2298484  28.6227074 103.4085084  35.3283741  28.9234173
 102.6676086  36.4762180  28.2711890 110.6023406  44.1716224  30.2214575
 110.1587261  43.3852602  29.9035479 111.2640620  44.3595374  29.5558465
 105.3610528  45.7012025  24.7475253 105.9117953  45.5729089  23.9752247
 104.5222004  46.0006914  24.3970146 112.7004645  44.4519024  28.2495976
 112.6823120  45.2727905  27.7576245 113.6224565  44.3273099  28.4746117
 109.1577699  41.9663153  29.0919484 109.6906035  41.2051441  28.8618792
 108.6291780  41.6736805  29.8343639 100.3933244  39.3956750  17.4401728
 101.2308466  39.8053758  17.2235436 100.5711512  38.4556192  17.4101922
 111.4043934  29.4427874  22.5862359 110.9008730  29.4058010  21.7730164
 111.6974541  30.3520617  22.6459016 107.6486820  29.5266604  21.5928541
 108.5139817  29.3309413  21.2334430 107.7164329  29.2976956  22.5197898
 110.5230411  41.0949146  16.6038296 109.9951773  40.3601905  16.2911534
 110.0217914  41.8723822  16.3578265 115.5023257  39.2898166  21.7205343
 114.8446932  39.9797428  21.8085471 116.3063657  39.6794598  22.0639329
 105.2549139  31.7568812  18.9644908 105.8292891  31.5343994  18.2318101
 105.8420121  31.8257507  19.7173509 111.5751090  47.6226863  12.5269955
 110.9012789  47.9258560  13.1354913 111.9616912  48.4255944  12.1775412
 110.7909547  35.1191994  22.0167625 109.8732108  35.3406941  21.8589313
 111.2069691  35.1938305  21.1579332 115.0790512  42.6248540  17.8988427
 114.6252840  41.7839450  17.9553617 114.4484479  43.2609939  18.2363207
 113.5223452  44.4625037  18.8338245 113.8146426  45.0230094  18.1150611
 114.0322072  44.7553598  19.5891404 100.4159415  36.7347465  18.1112462
 100.2183815  36.1416826  17.3863528  99.8606079  36.4299675  18.8288400
 108.3956139  36.6270571  20.2307055 108.4504749  35.6744408  20.1549531
 107.5847341  36.7830011  20.7148353 106.3348499  35.2447631  17.9897434
 105.5216364  35.5441802  18.3962626 106.8307493  34.8503320  18.7071916
 108.4857077  45.2405388  19.9231698 108.4433256  45.4666234  18.9940230
 109.4019776  45.0068763  20.0717499 111.9322711  35.7089456  26.8212327
 112.2872098  35.9360929  27.6806793 112.5794842  36.0407833  26.1989583
 105.8262574  32.8165987  23.6058669 106.4661953  32.6754746  22.9081632
 104.9940104  32.5300500  23.2297270 117.6889827  40.8984419  22.5372928
 118.1226334  40.8059708  23.3855982 118.4021408  40.8741919  21.8992944
 106.6022878  42.1168417  19.7193661 107.3963476  41.6218737  19.5176236
 105.8914570  41.5886280  19.3561367 111.4217722  44.4986513  24.0706029
 111.4754744  45.0677449  24.8383744 110.5532503  44.6688398  23.7060066
 102.9105641  36.2611499  15.7953414 101.9803229  36.1995954  16.0123376
 103.0063113  35.7387452  14.9990055 102.8291190  32.7866312  18.3831655
 103.0898007  33.7011645  18.2740816 103.6508362  32.3190754  18.5328268
 104.3016115  34.2004069  25.5530480 104.9739169  33.9921431  24.9043129
 103.4745902  34.0026155  25.1135712 118.5505377  40.9408119  25.0705813
 118.7441267  41.8453930  25.3165088 118.4505995  40.4815538  25.9044398
 110.2041687  30.8266010  27.5696141 109.5569603  31.5255959  27.4760617
 110.9742703  31.2602154  27.9372389 113.6120485  41.0914862  30.6446694
 113.4605992  40.8625414  29.7276778 113.6025165  42.0485463  30.6578039
 110.3805822  38.6646775  25.6292960 111.3097882  38.8157934  25.4561928
 109.9596852  38.7530796  24.7741607 109.1794154  42.6897439  23.3991498
 109.0405239  42.3216224  24.2717436 108.3908750  43.2045079  23.2275456
 109.7742306  47.7906536  14.7417035 109.9494061  47.3194579  15.5562657
 109.0875094  48.4172302  14.9698295 110.7299369  42.0679042  20.7880336
 110.3949201  42.0279812  21.6837986 110.2303314  41.4023758  20.3150746
 104.7043613  37.4746672  26.3132917 104.5663411  36.7426911  26.9144456
 105.6148536  37.3855572  26.0317105 107.3325913  37.1866631  25.8016597
 108.0425532  36.5459823  25.7603215 107.2895222  37.4379526  26.7242777
 115.3212692  44.1233985  28.7223176 115.2625238  43.4393205  28.0553759
 115.7232210  44.8652975  28.2703802 106.0454847  34.1731849  27.6212236
 105.5092204  33.7222588  28.2733832 105.4571556  34.3077758  26.8782700
 104.3403391  50.9395898  21.5156895 104.5799989  51.5714423  22.1935913
 103.4972587  50.5883938  21.8022254 115.3230099  42.0873569  26.9537156
 114.4356878  41.7499490  27.0763554 115.8928650  41.3556600  27.1905921
  96.9759246  38.4197660  20.2780207  97.6630286  38.1059390  19.6901222
  96.8207375  39.3239025  20.0047458 101.7793969  33.3087857  24.7065231
 101.6952157  32.7013526  23.9715641 100.9576675  33.7996875  24.7074727
 108.8531253  46.7475021  23.9198399 108.7801424  47.5529992  24.4317703
 108.4108646  46.9466987  23.0946420 108.6421032  45.9846791  17.4301220
 107.8588554  46.5268471  17.5239445 109.3413778  46.5020771  17.8295461
 111.3129936  46.6461855  26.0756557 112.0257908  47.2809320  26.0032459
 110.8219965  46.7425721  25.2596559 113.0347463  40.5513108  17.6473849
 112.1003742  40.6714570  17.4778553 113.2124132  39.6485574  17.3833859
 108.5352651  33.9358803  19.8007110 108.1650439  33.3829844  20.4888016
 109.0311744  33.3316937  19.2482110 106.3641850  44.3956298  26.8962128
 107.0651309  45.0292781  27.0491522 105.8936965  44.7371030  26.1357767
 114.1643136  36.9500906  24.7214679 113.5114586  37.1976813  24.0667131
 114.5423516  36.1365044  24.3877156 111.1250310  46.9860599  18.8242849
 111.3072704  46.1682255  19.2870601 111.9483296  47.2028291  18.3867739
 111.4592475  45.9128784  16.0857897 111.9880242  45.4021239  15.4728059
 111.7220695  45.5971314  16.9503430 110.2130709  37.6920717  31.2080716
 109.5371346  37.5914846  31.8783091 111.0358343  37.5359931  31.6716713
 101.9609568  43.9292653  23.8293231 102.5463005  43.1836341  23.9621135
 101.7634406  44.2396610  24.7129895 104.8148223  46.9643901  18.8455673
 104.1458598  47.4490028  18.3619713 104.6761093  47.2113121  19.7599052
  96.5527223  36.4998254  22.5497674  96.5911322  35.9661844  23.3434792
  96.0467515  35.9733459  21.9308651 108.9553492  48.9987644  25.4438332
 109.5071800  49.1619266  26.2087417 109.2959685  49.5892082  24.7718356
 103.9317985  31.3462794  26.0460216 103.9959311  32.2077625  25.6337614
 103.8685105  30.7336796  25.3132575 103.4070257  33.4185927  29.6933251
 104.0342296  33.0363004  30.3070775 102.5498176  33.2000129  30.0588943
 113.8064366  43.8248902  31.2986986 114.3504270  44.4378860  30.8041941
 113.2251211  44.3828480  31.8153999 100.1835800  35.2262356  15.6251605
 100.4789241  34.3173034  15.5718659  99.2823836  35.2050095  15.3032608
 112.0921879  46.9469620  22.4302014 111.9673018  46.1459360  21.9212959
 112.7500970  47.4415813  21.9415984 103.7130047  33.3018352  21.6079154
 102.9916633  33.9154320  21.4686627 104.5023303  33.8376117  21.5295800
 114.1556787  44.7478640  24.0581564 113.2087123  44.6283991  23.9859891
 114.5039560  43.8601138  24.1407825 106.5156361  30.6372779  27.8819806
 107.0390763  30.8835075  28.6446115 106.2968694  31.4692814  27.4622943
 101.9123642  32.9076453  15.7490931 101.5836348  32.0273832  15.5666036
 102.2663012  32.8524122  16.6367320 111.1603221  44.5431356  20.2585916
 111.0128183  43.6148064  20.4393486 111.9856714  44.5651447  19.7742991
 105.0265465  33.1949423  16.1166408 105.3661537  33.7235344  15.3945017
 105.4737585  33.5329829  16.8924975 114.7637342  45.3659915  21.3450789
 115.6883890  45.1602776  21.2075240 114.5952646  45.1176316  22.2540130
 107.7208906  31.5786474  25.5669476 107.3805726  30.7794287  25.9690156
 107.0147912  31.8788185  24.9946309 108.3725378  28.6635786  24.0196799
 109.1951447  28.1896265  23.8975690 108.6163441  29.4426270  24.5195486
 105.8963956  35.3554907  21.8288778 105.7508537  35.6695210  22.7213059
 105.4189160  35.9739807  21.2759677 107.7560339  32.3457455  21.8769667
 107.7421908  31.4498548  21.5401965 108.4732767  32.3528119  22.5107954
 109.6086470  32.7794795  23.9222795 109.3504248  33.7011866  23.9207125
 109.0771510  32.3825230  24.6123259 114.5532659  45.8845582  16.7012880
 114.7269536  45.3192005  15.9486733 115.0461550  46.6846477  16.5192370
 100.3709618  37.8960251  24.7676439  99.8263087  38.6720059  24.8996713
 101.2488968  38.2431056  24.6095561 101.1575640  37.0230148  27.6606596
 100.4157376  37.1712783  28.2471226 100.8368385  37.2838413  26.7973345
 109.1019303  46.5646126  27.4586986 109.4106429  46.3195273  28.3309686
 109.8994785  46.7692764  26.9705856 109.1239915  48.7184036  19.6892363
 108.6844905  48.2260414  20.3825219 109.8748032  48.1757003  19.4484438
 101.6032254  44.9095576  19.6916991 102.4290274  44.6099348  19.3115634
 101.2526306  44.1403199  20.1406779 106.5713787  44.2622045  21.7614664
 105.9493796  43.5992750  21.4616892 107.2418654  44.2883177  21.0788312
  99.8040859  42.8281903  20.6505924  98.9672767  42.4004077  20.4689925
  99.7764504  43.0214346  21.5876715 106.6438315  32.7403833  31.3547170
 106.6926470  33.6165955  30.9724940 107.1860829  32.1981226  30.7818813
 117.1293160  43.2844956  30.6348307 116.3388704  43.2669095  30.0952807
 116.8926515  43.8233250  31.3897344 117.2491035  40.1337422  27.9481036
 117.2989040  39.9687430  28.8896559 117.1404959  39.2664681  27.5578917
 106.1327294  42.8125968  15.2373125 106.2815414  43.4961432  14.5839798
 106.9393738  42.7931058  15.7522580 114.5394798  36.1168350  29.2640343
 115.4404661  35.9774815  28.9724340 114.6142772  36.2822805  30.2038520
 108.8737603  33.4935205  28.1093529 108.0040913  33.7868771  27.8376117
 109.1097083  34.0775650  28.8300793 118.7509232  42.5534364  28.1923057
 118.4594041  42.9164344  29.0286518 118.1381364  41.8401372  28.0136389
 116.9996420  37.6766978  26.6603115 117.4750542  37.8694625  25.8521967
 116.0761986  37.7326164  26.4146499 103.8879927  38.8391146  16.2434194
 103.6425969  37.9353476  16.4414404 104.0575842  38.8408296  15.3013672
 111.5776637  29.7114822  25.6258949 112.0958581  30.4475849  25.3005438
 111.2231770  30.0178815  26.4605708 103.1575575  34.5719503  13.7420355
 102.4644820  34.6463858  13.0860391 102.9127327  33.8079847  14.2641872
 109.6322700  45.3074098  12.7084872 109.0596667  45.9264286  12.2555344
 110.2055493  45.8573460  13.2424794 115.6998089  34.5532738  24.8931421
 116.6515512  34.6530836  24.9143645 115.5301540  33.7611007  25.4029505
 113.7212469  31.6388322  25.0790822 113.1262401  31.9193334  24.3837311
 113.4362166  32.1282223  25.8507563 118.1786167  37.7738858  24.0073721
 118.1462487  36.8354859  24.1933404 118.7886791  37.8522895  23.2739546
 109.9008191  40.6952657  31.5101582 110.8211200  40.8731256  31.7041628
 109.8657774  39.7508703  31.3581281  99.1190356  35.8891251  20.4354856
  98.7993140  35.0356559  20.1429230  98.5723784  36.1039829  21.1912824
 102.8970263  38.6053692  24.1524363 103.1156273  39.5370800  24.1712397
 103.3096037  38.2461666  24.9379167 107.7698129  34.1786898  33.5427112
 107.6694855  35.1281255  33.4739203 107.5519671  33.8505137  32.6703182
  98.9878616  39.5094162  22.4047978  98.2942087  39.0948115  21.8917932
  99.7351607  39.5514699  21.8081397 107.6329399  37.6084037  32.3592173
 107.1496480  38.4084397  32.5656062 107.7190338  37.6191981  31.4059617
 100.9015358  39.4412416  20.2813993 100.8786046  39.5400103  19.3295876
 101.2115995  40.2877567  20.6031159 103.5602736  41.4988571  24.3960607
 104.5145990  41.4672514  24.3290539 103.3615260  41.0379195  25.2110833
 104.1502118  40.0689687  26.9631405 104.9695007  40.5633766  26.9866242
 104.4238926  39.1521655  26.9348972 101.9152965  47.0408191  21.4130805
 101.7807433  46.2808592  20.8468803 101.4985027  47.7649091  20.9459594
 105.0722091  47.9377508  21.6249248 104.9554475  48.8822940  21.5227938
 104.2514537  47.6351069  22.0135047  99.4037032  34.4027821  27.6623602
 100.0495896  33.8926775  28.1510827  99.1954184  35.1396503  28.2367027
 111.9290425  41.4708669  33.1615742 112.7981584  41.6449321  32.8002377
 111.4497176  42.2903085  33.0391472 106.0976605  48.5905770  24.8405176
 107.0003852  48.6229380  25.1571671 105.8713975  47.6606221  24.8551512
 107.8530207  47.3436756  21.5015255 106.9025838  47.3438618  21.3879627
 108.1562693  46.5969491  20.9851289 103.7434523  31.5495438  31.7598616
 104.6065985  31.1932243  31.9701941 103.1699934  31.2109333  32.4474020
 120.3972607  53.1324723  22.5022542 120.0591118  53.0165787  21.6143077
 121.2662375  52.7315888  22.4823548 116.2559422  54.9860199  18.4919433
 115.6924287  54.8950136  17.7235721 116.1411817  54.1660104  18.9721925
 120.8792390  54.2859574  28.4608747 120.8681030  53.8912373  27.5889251
 121.0413029  53.5525647  29.0542519 113.8023854  56.4811391  21.3303653
 114.5945146  56.1402215  20.9149953 114.0420504  56.5906366  22.2505807
 115.7614608  55.7420304  14.2021032 116.5345484  55.1949291  14.0633908
 116.1140007  56.6064553  14.4135493 117.5999651  57.0696686  27.4087931
 117.3089517  57.9742317  27.2934598 118.2356635  57.1113214  28.1232001
 118.5255858  54.4473535  23.9989291 119.1219430  54.2229557  23.2846254
 118.5830829  53.7058280  24.6014739 117.8177175  53.8041076  14.0363857
 117.7013433  53.1285979  14.7044941 117.9279435  53.3173450  13.2196010
 120.1608716  53.2651223  17.7410546 119.7966923  52.7381844  18.4523468
 121.0175832  52.8749692  17.5677032 116.0102017  53.2071899  20.4374429
 115.0852514  53.0748113  20.6452121 116.2586431  53.9866118  20.9344372
 113.3710828  52.8505172  21.2718219 113.5003210  53.1039651  22.1857630
 112.6908280  53.4432880  20.9522874 117.5410316  63.5202422  17.3708693
 117.4634345  64.4710247  17.4497173 116.9371959  63.1748295  18.0283619
 120.0327545  50.6930288  30.0270060 119.2560879  51.2524208  30.0172924
 120.6718108  51.1787070  30.5484930 118.2873918  53.5015741  29.5888027
 119.0288602  54.0400785  29.3122850 117.5810903  54.1282030  29.7459578
 120.1160327  50.5817488  25.5593745 120.9621523  51.0056902  25.7028394
 120.0558965  49.9251112  26.2532308 119.6386034  55.9420480  19.2062562
 120.1024379  56.2208183  18.4167185 119.3742832  55.0403925  19.0235653
 116.5310115  55.4891962  22.1442325 117.1011472  55.9179230  21.5059810
 117.1218227  55.2074546  22.8426511 118.5754920  52.0643632  16.0152127
 119.2778963  52.5164676  16.4826054 118.2435548  51.4227451  16.6432020
 117.0235281  50.6555389  30.3903337 116.3933942  51.3371670  30.6238733
 116.9171369  50.5438471  29.4456475 112.3180254  50.3227185  21.3169261
 111.5279308  50.5784714  20.8409371 112.8091501  51.1375523  21.4221301
 114.2694999  50.6871764  18.2752738 113.4726163  50.7990459  18.7936233
 114.0420591  51.0258417  17.4093628 120.1000667  57.2116468  26.2235252
 120.1645099  57.6736875  27.0593424 119.3911591  56.5813832  26.3517562
 110.6017957  50.5757676  23.7484252 110.8525995  51.4604685  24.0141828
 111.1377505  50.3962277  22.9759343 119.8148685  58.8784575  16.0914232
 119.6794359  59.7236111  16.5199080 120.3558497  59.0803853  15.3280166
 116.3016024  44.9576155  32.7528588 115.9082970  44.4042353  33.4276232
 117.1182165  45.2686733  33.1435105 113.2678082  56.3960013  16.6642158
 113.7802603  57.1903263  16.8147722 113.9200795  55.6986304  16.5975759
 115.0772967  59.5125769  18.7464911 115.2539595  60.4343734  18.5585895
 115.8729800  59.1984189  19.1759291 119.2183985  46.3734034  30.3448844
 119.9593699  46.9741187  30.2653307 119.4501908  45.6311672  29.7866887
 114.3625323  51.5590401  28.6227074 114.2478838  50.6575658  28.9234173
 113.5069841  51.8054098  28.2711890 116.2004282  61.0303943  24.7475253
 116.7511707  60.9021007  23.9752247 115.3615758  61.3298832  24.3970146
 119.9971453  57.2955071  29.0919484 120.5299790  56.5343359  28.8618792
 119.4685534  57.0028723  29.8343639 111.2326999  54.7248667  17.4401728
 112.0702221  55.1345676  17.2235436 111.4105266  53.7848110  17.4101922
 118.4880574  44.8558522  21.5928541 119.3533571  44.6601330  21.2334430
 118.5558083  44.6268874  22.5197898 121.3624166  56.4241063  16.6038296
 120.8345527  55.6893823  16.2911534 120.8611669  57.2015740  16.3578265
 116.0942893  47.0860730  18.9644908 116.6686645  46.8635911  18.2318101
 116.6813876  47.1549424  19.7173509 111.2553170  52.0639383  18.1112462
 111.0577570  51.4708743  17.3863528 110.6999834  51.7591593  18.8288400
 119.2349894  51.9562489  20.2307055 119.2898503  51.0036326  20.1549531
 118.4241096  52.1121928  20.7148353 117.1742253  50.5739549  17.9897434
 116.3610119  50.8733719  18.3962626 117.6701248  50.1795238  18.7071916
 119.3250831  60.5697306  19.9231698 119.2827010  60.7958152  18.9940230
 120.2413530  60.3360680  20.0717499 116.6656328  48.1457904  23.6058669
 117.3055708  48.0046664  22.9081632 115.8333859  47.8592418  23.2297270
 117.4416632  57.4460335  19.7193661 118.2357231  56.9510655  19.5176236
 116.7308324  56.9178198  19.3561367 113.7499396  51.5903417  15.7953414
 112.8196984  51.5287872  16.0123376 113.8456868  51.0679369  14.9990055
 113.6684945  48.1158229  18.3831655 113.9291762  49.0303563  18.2740816
 114.4902117  47.6482672  18.5328268 115.1409870  49.5295987  25.5530480
 115.8132923  49.3213349  24.9043129 114.3139656  49.3318073  25.1135712
 120.0187908  58.0189357  23.3991498 119.8798994  57.6508141  24.2717436
 119.2302504  58.5336996  23.2275456 120.6136060  63.1198453  14.7417035
 120.7887816  62.6486497  15.5562657 119.9268848  63.7464220  14.9698295
 121.5693123  57.3970960  20.7880336 121.2342956  57.3571730  21.6837986
 121.0697069  56.7315675  20.3150746 115.5437367  52.8038590  26.3132917
 115.4057165  52.0718828  26.9144456 116.4542291  52.7147490  26.0317105
 118.1719668  52.5158549  25.8016597 118.8819286  51.8751741  25.7603215
 118.1288976  52.7671444  26.7242777 116.8848602  49.5023767  27.6212236
 116.3485959  49.0514505  28.2733832 116.2965310  49.6369676  26.8782700
 115.1797145  66.2687816  21.5156895 115.4193744  66.9006340  22.1935913
 114.3366342  65.9175856  21.8022254 107.8153001  53.7489578  20.2780207
 108.5024041  53.4351308  19.6901222 107.6601130  54.6530943  20.0047458
 112.6187723  48.6379774  24.7065231 112.5345912  48.0305444  23.9715641
 111.7970429  49.1288793  24.7074727 119.6925007  62.0766939  23.9198399
 119.6195179  62.8821910  24.4317703 119.2502400  62.2758904  23.0946420
 119.4814787  61.3138709  17.4301220 118.6982309  61.8560389  17.5239445
 120.1807532  61.8312688  17.8295461 119.3746406  49.2650721  19.8007110
 119.0044193  48.7121761  20.4888016 119.8705498  48.6608854  19.2482110
 117.2035604  59.7248216  26.8962128 117.9045064  60.3584699  27.0491522
 116.7330719  60.0662948  26.1357767 112.8003322  59.2584571  23.8293231
 113.3856759  58.5128259  23.9621135 112.6028161  59.5688528  24.7129895
 115.6541978  62.2935818  18.8455673 114.9852353  62.7781946  18.3619713
 115.5154847  62.5405039  19.7599052 107.3920977  51.8290171  22.5497674
 107.4305077  51.2953762  23.3434792 106.8861270  51.3025377  21.9308651
 119.7947246  64.3279562  25.4438332 120.3465554  64.4911183  26.2087417
 120.1353440  64.9184000  24.7718356 114.7711739  46.6754712  26.0460216
 114.8353066  47.5369543  25.6337614 114.7078860  46.0628713  25.3132575
 114.2464012  48.7477844  29.6933251 114.8736051  48.3654922  30.3070775
 113.3891931  48.5292046  30.0588943 111.0229555  50.5554273  15.6251605
 111.3182996  49.6464952  15.5718659 110.1217590  50.5342013  15.3032608
 114.5523802  48.6310270  21.6079154 113.8310387  49.2446238  21.4686627
 115.3417057  49.1668035  21.5295800 117.3550115  45.9664697  27.8819806
 117.8784517  46.2126993  28.6446115 117.1362448  46.7984731  27.4622943
 112.7517396  48.2368371  15.7490931 112.4230102  47.3565750  15.5666036
 113.1056767  48.1816040  16.6367320 115.8659219  48.5241341  16.1166408
 116.2055292  49.0527262  15.3945017 116.3131340  48.8621747  16.8924975
 118.5602660  46.9078392  25.5669476 118.2199481  46.1086205  25.9690156
 117.8541666  47.2080102  24.9946309 119.2119132  43.9927704  24.0196799
 120.0345201  43.5188182  23.8975690 119.4557196  44.7718188  24.5195486
 116.7357711  50.6846825  21.8288778 116.5902292  50.9987128  22.7213059
 116.2582914  51.3031725  21.2759677 118.5954094  47.6749373  21.8769667
 118.5815662  46.7790466  21.5401965 119.3126522  47.6820036  22.5107954
 120.4480224  48.1086713  23.9222795 120.1898002  49.0303784  23.9207125
 119.9165265  47.7117147  24.6123259 111.2103373  53.2252169  24.7676439
 110.6656841  54.0011977  24.8996713 112.0882723  53.5722974  24.6095561
 111.9969395  52.3522065  27.6606596 111.2551131  52.5004701  28.2471226
 111.6762139  52.6130331  26.7973345 119.9413057  61.8938044  27.4586986
 120.2500184  61.6487190  28.3309686 120.7388539  62.0984682  26.9705856
 119.9633670  64.0475953  19.6892363 119.5238660  63.5552332  20.3825219
 120.7141786  63.5048921  19.4484438 112.4426008  60.2387494  19.6916991
 113.2684028  59.9391266  19.3115634 112.0920060  59.4695116  20.1406779
 117.4107542  59.5913962  21.7614664 116.7887551  58.9284667  21.4616892
 118.0812409  59.6175094  21.0788312 110.6434614  58.1573821  20.6505924
 109.8066522  57.7295995  20.4689925 110.6158259  58.3506264  21.5876715
 117.4832069  48.0695750  31.3547170 117.5320225  48.9457873  30.9724940
 118.0254583  47.5273143  30.7818813 116.9721049  58.1417886  15.2373125
 117.1209169  58.8253350  14.5839798 117.7787492  58.1222976  15.7522580
 119.7131358  48.8227123  28.1093529 118.8434667  49.1160689  27.8376117
 119.9490838  49.4067568  28.8300793 114.7273682  54.1683063  16.2434194
 114.4819723  53.2645393  16.4414404 114.8969596  54.1700214  15.3013672
 113.9969329  49.9011421  13.7420355 113.3038574  49.9755776  13.0860391
 113.7521081  49.1371764  14.2641872 120.4716454  60.6366016  12.7084872
 119.8990421  61.2556203  12.2555344 121.0449248  61.1865378  13.2424794
 109.9584110  51.2183169  20.4354856 109.6386894  50.3648477  20.1429230
 109.4117538  51.4331747  21.1912824 113.7364018  53.9345610  24.1524363
 113.9550027  54.8662717  24.1712397 114.1489792  53.5753584  24.9379167
 118.6091883  49.5078815  33.5427112 118.5088610  50.4573172  33.4739203
 118.3913425  49.1797054  32.6703182 109.8272370  54.8386080  22.4047978
 109.1335842  54.4240033  21.8917932 110.5745361  54.8806617  21.8081397
 118.4723153  52.9375954  32.3592173 117.9890235  53.7376314  32.5656062
 118.5584092  52.9483899  31.4059617 111.7409113  54.7704334  20.2813993
 111.7179801  54.8692021  19.3295876 112.0509749  55.6169485  20.6031159
 114.3996491  56.8280489  24.3960607 115.3539744  56.7964431  24.3290539
 114.2009014  56.3671113  25.2110833 114.9895873  55.3981605  26.9631405
 115.8088762  55.8925684  26.9866242 115.2632680  54.4813573  26.9348972
 112.7546719  62.3700108  21.4130805 112.6201187  61.6100509  20.8468803
 112.3378782  63.0941008  20.9459594 115.9115845  63.2669425  21.6249248
 115.7948229  64.2114858  21.5227938 115.0908291  62.9642987  22.0135047
 110.2430787  49.7319739  27.6623602 110.8889651  49.2218693  28.1510827
 110.0347938  50.4688420  28.2367027 116.9370359  63.9197687  24.8405176
 117.8397606  63.9521298  25.1571671 116.7107729  62.9898138  24.8551512
 118.6923961  62.6728674  21.5015255 117.7419592  62.6730535  21.3879627
 118.9956447  61.9261408  20.9851289 114.5828278  46.8787356  31.7598616
 115.4459739  46.5224161  31.9701941 114.0093689  46.5401251  32.4474020
 118.6546755  69.0781496  20.2780207 119.3417795  68.7643226  19.6901222
 118.4994884  69.9822860  20.0047458 118.2314732  67.1582089  22.5497674
 118.2698831  66.6245680  23.3434792 117.7255024  66.6317294  21.9308651
 121.4828368  73.4865738  20.6505924 120.6460276  73.0587913  20.4689925
 121.4552013  73.6798182  21.5876715 120.7977865  66.5475086  20.4354856
 120.4780649  65.6940394  20.1429230 120.2511293  66.7623664  21.1912824
 120.6666125  70.1677998  22.4047978 119.9729596  69.7531951  21.8917932
 121.4139116  70.2098534  21.8081397   4.3524995  54.0071178 100.0687670
   3.5988703  53.4378576  99.9131675   4.4872536  53.9733843 101.0158305
   0.7173608  55.4479167 100.3653785   1.5520499  55.8868971 100.5291345
   0.8532736  54.9717820  99.5462030   4.7631410  54.1646788 102.8007915
   5.4934799  53.9032076 103.3615618   4.1538356  53.4275510 102.8409983
   2.8446707  52.3054651 103.3982366   2.1179871  52.1710616 102.7898857
   2.4293994  52.6131479 104.2039084   0.4624502  48.5266503 100.7515797
   1.0568993  48.2862239 100.0409106   0.5351086  47.8073633 101.3789334
   2.7695575  51.8332704  99.5259219   2.2095133  51.9025893 100.2990781
   2.1639078  51.6573688  98.8058715   4.3551593  68.5089218 102.2189174
   4.9930003  68.3895965 101.5152514   4.2372436  69.4570062 102.2777126
   1.1641300  68.4616646 102.1550699   0.8259811  68.3457710 101.2671234
   2.0331068  68.0607811 102.1351705   2.6027674  73.9823090  93.4562055
   1.9515654  74.5677170  93.0696069   3.3972037  74.5129285  93.5157092
   3.9092862  66.2340671  99.2942382   4.6955951  65.8160095  98.9432799
   4.1731566  67.1386764  99.4624031   4.0802939  71.6713522  93.9931039
   3.4448772  71.7448148  94.7051944   3.7500346  72.2607121  93.3150118
   9.3101289  66.1715905 100.1975361  10.0426461  65.6015121 100.4313190
   8.5540645  65.7837505 100.6381866   0.9277409  68.5943146  97.3938703
   0.5635616  68.0673767  98.1051625   1.7844525  68.2041615  97.2205189
   6.8326709  59.8837479 104.6569969   6.5010034  60.7532890 104.4331184
   6.2372323  59.5673763 105.3364000   3.3258229  72.0850025 104.0565882
   3.0258952  72.9875064 103.9481689   2.9809288  71.8182208 104.9087035
   6.7255373  64.6032565 101.7363319   5.8172250  64.5347973 101.4422080
   6.6742968  65.0804510 102.5645145   8.5917019  62.8049003 103.5141193
   7.9491399  63.0981536 102.8680988   8.0871948  62.6901924 104.3194390
   6.2457183  66.5512177  94.2027053   7.1575039  66.7839563  94.0274750
   5.7366830  67.1349221  93.6402131   0.8829020  65.9109411 105.2121902
   1.7290216  66.3348825 105.3556551   0.8227658  65.2543035 105.9060465
   4.8526765  71.5337995 101.5940634   4.2235628  71.6983709 100.8916702
   4.4652427  71.9479605 102.3651598   8.7315997  72.4692433  98.9484998
   8.0467035  72.8491334  98.3982031   8.8159846  73.0787759  99.6816946
   4.0328466  63.5713779 106.8703076   3.7889398  64.3255840 106.3337351
   4.3088396  63.9499127 107.7050323   5.9866929  70.1152392 105.5480341
   6.1983824  70.7584152 104.8714722   5.9396677  69.2814708 105.0802271
   3.5893158  62.7270212 102.4516914   2.7277637  63.0251466 102.7433651
   3.6155592  62.9440611 101.5197946   7.1012757  72.9924347 103.7202699
   7.9230200  72.5904535 103.4385380   7.0975159  72.8892581 104.6718815
  15.1918750  69.3363096 100.0687670  14.4382458  68.7670494  99.9131675
  15.3266291  69.3025760 101.0158305   0.5817378  74.2076498  95.7442390
   0.4463052  75.0528034  96.1727237   1.1227190  74.4095776  94.9808323
   3.9309841  57.7307060 104.2741283   3.5874111  58.6208702 104.1980394
   4.2988804  57.5408718 103.4110868   3.8960124  67.7215671  92.7813718
   3.3806747  68.4920276  93.0202106   3.6237432  67.0480807  93.4046780
   1.4807235  62.5665372  97.8398957   0.6248831  62.1772222  97.6604595
   1.8934187  62.6457333  96.9798742   3.0106382  60.1011715 102.2390516
   2.5071177  60.0641850 101.4258322   3.3036988  61.0104458 102.2987173
   8.8694398  70.4748026  94.7166892   8.0923841  70.1359185  94.2722054
   9.5485879  70.4800649  94.0421857   3.6846427  65.5942763  94.6073499
   3.3796563  65.9088912  95.4583643   4.6376869  65.6724183  94.6500832
   2.1292859  71.7532986  96.2566453   1.6014221  71.0185746  95.9439691
   1.6280362  72.5307663  96.0106422   7.1085705  69.9482007 101.3733500
   6.4509379  70.6381268 101.4613628   7.9126104  70.3378439 101.7167486
   5.9191164  68.3026380  99.4237441   6.4323046  68.9356371  99.9259151
   6.5692388  67.7027575  99.0580801   3.1813538  78.2810704  92.1798112
   2.5075237  78.5842401  92.7883070   3.5679360  79.0839784  91.8303570
   2.3971995  65.7775835 101.6695782   1.4794556  65.9990782 101.5117470
   2.8132138  65.8522146 100.8107489   3.1807042  67.1767251  96.7998462
   3.9278861  67.6888648  96.4905584   3.4498632  66.8551304  97.6602856
   1.4533693  69.6725792  93.7825416   0.5444912  69.3884824  93.8797886
   1.4828776  70.0924870  92.9228723   6.6852960  73.2832381  97.5516584
   6.2315287  72.4423291  97.6081774   6.0546927  73.9193779  97.8891364
   5.6285880  64.2124367  98.7817251   4.8908636  63.7001753  99.1127494
   5.8812653  63.7724749  97.9700528   5.1285899  75.1208878  98.4866402
   5.4208874  75.6813935  97.7678768   5.6384520  75.4137439  99.2419561
   5.7297507  56.9900619  99.3759021   6.0356384  56.1297983  99.0884936
   6.4550112  57.5818239  99.1758015   1.1509780  71.2134535  91.1213495
   0.7129210  70.4970394  90.6619132   1.8920221  71.4410650  90.5598586
   3.5385158  66.3673296 106.4740485   3.8934546  66.5944770 107.3334950
   4.1857289  66.6991673 105.8517740   9.2682895  69.4891732  97.1789814
   9.1300794  69.6793328  96.2511003   8.9119114  70.2511115  97.6357865
   9.2952275  71.5568259 102.1901085   9.7288781  71.4643548 103.0384139
  10.0083855  71.5325760 101.5521101  10.1567824  71.5991960 104.7233970
  10.3503714  72.5037770 104.9693245  10.0568442  71.1399379 105.5572555
   1.8104135  61.4849851 107.2224298   1.1632050  62.1839800 107.1288774
   2.5805150  61.9185994 107.5900546   1.9868269  69.3230615 105.2821118
   2.9160329  69.4741775 105.1090085   1.5659299  69.4114636 104.4269764
   1.3804753  78.4490376  94.3945192   1.5556509  77.9778420  95.2090814
   0.6937541  79.0756143  94.6226452   2.3361816  72.7262883 100.4408493
   2.0011649  72.6863653 101.3366143   1.8365762  72.0607598  99.9678903
   5.2721008  70.0718917  90.7145553   4.6550179  69.3465745  90.6178605
   4.8037496  70.8328277  90.3712627   6.9292547  72.7457409 106.6065313
   6.0419326  72.4083331 106.7291711   7.4991098  72.0140440 106.8434078
   3.5580130  62.4525261  99.7263583   4.0548830  61.6995223  99.4064653
   2.7867112  62.4889578  99.1606792  11.4109887  68.1565627 101.3681874
  11.3999764  69.0390342 100.9975807  10.5427267  67.8037177 101.1736411
   4.6409911  71.2096948  97.3002006   3.7066189  71.3298411  97.1306710
   4.8186579  70.3069415  97.0362016   8.0282462  67.0514268  97.8352040
   8.4942914  67.8842259  97.7612343   8.4789963  66.5859249  98.5397299
   6.0958693  73.3958089  94.8338192   6.3718537  73.2814683  95.7432066
   5.2263192  72.9975574  94.7950365   5.9999125  59.4194855 101.8742942
   5.0862205  59.6499081 102.0425149   6.4292226  59.5033299 102.7256974
   5.7705583  67.6084746 104.3742836   5.1177034  67.8560654 103.7195288
   6.1485963  66.7948885 104.0405313   2.7312757  77.6444440  98.4771006
   2.9135152  76.8266096  98.9398758   3.5545743  77.8612132  98.0395896
   3.0654923  76.5712625  95.7386054   3.5942689  76.0605079  95.1256217
   3.3283142  76.2555155  96.6031587   3.6984326  77.6053461 102.0830171
   3.5735466  76.8043200 101.5741116   4.3563418  78.0999654 101.5944141
   5.7619235  75.4062481 103.7109721   4.8149570  75.2867832 103.6388048
   6.1102008  74.5184979 103.7935982   2.7665668  75.2015197  99.9114073
   2.6190631  74.2731904 100.0921643   3.5919162  75.2235288  99.4271148
   6.3699790  76.0243756 100.9978946   7.2946337  75.8186617 100.8603397
   6.2015093  75.7760157 101.9068287   2.7627182  63.0553034  94.9046190
   2.9790797  63.9377672  94.6035019   2.2821250  62.6639248  94.1751832
   1.2148917  63.4378636 103.5750952   0.9566695  64.3595707 103.5735282
   0.6833958  63.0409070 104.2651416   6.1595106  76.5429423  96.3541037
   6.3331984  75.9775845  95.6014890   6.6523997  77.3430318  96.1720527
   1.6350873  59.5710586  99.9352115   1.6572570  59.6349919  98.9804094
   2.0518932  58.7315095 100.1292621  12.0134497  69.3065846  97.9731337
  12.4565643  68.5573171  97.5750460  11.1361008  69.2975982  97.5905069
   7.1470279  75.8596187  93.4537936   7.8421183  76.4802880  93.6725250
   7.4893429  75.0091539  93.7290314   9.0461702  73.3095893  94.9825266
   9.5713026  73.6483166  94.2574586   8.9584054  72.3742908  94.7988401
   8.8553483  70.7921263 107.6009193   8.9051488  70.6271270 108.5424716
   8.7467406  69.9248522 107.2107074   6.1457245  66.7752191 108.9168500
   7.0467108  66.6358656 108.6252497   6.2205220  66.9406646 109.8566677
  10.3571680  73.2118204 107.8451214  10.0656488  73.5748185 108.6814675
   9.7443811  72.4985213 107.6664547  11.5567362  70.7771084 100.3653785
  12.3914253  71.2160888 100.5291345  11.6926491  70.3009737  99.5462030
   8.6058868  68.3350819 106.3131272   9.0812990  68.5278465 105.5050124
   7.6824433  68.3910005 106.0674656   3.1839085  60.3698663 105.2787106
   3.7021028  61.1059690 104.9533595   2.8294217  60.6762656 106.1133865
   3.4351679  56.7898945 100.7988003   3.7153432  56.1222134 101.4248430
   4.2202286  56.9828041 100.2862667   1.2385147  75.9657939  92.3613029
   0.6659114  76.5848126  91.9083501   1.8117941  76.5157301  92.8952951
   7.3060537  65.2116579 104.5459578   8.2577960  65.3114677 104.5671802
   7.1363987  64.4194848 105.0557662   5.3274916  62.2972162 104.7318979
   4.7324849  62.5777175 104.0365468   5.0424613  62.7866063 105.5035720
   4.4582407  76.2495089  93.4921612   5.3913080  76.1840651  93.6954487
   4.3705620  77.0851356  93.0336144   7.0870424  75.5660960  90.4525559
   7.0084055  75.2320823  91.3461317   7.9080090  76.0582727  90.4517031
   9.7848615  68.4322699 103.6601878   9.7524935  67.4938700 103.8461562
  10.3949238  68.5106736 102.9267703   1.6231946  67.3018752  89.7029082
   2.5691050  67.1724960  89.7717500   1.2446191  66.5633414  90.1798510
   9.9343103  65.2233742 103.7060161   9.4182152  64.4392199 103.5190090
  10.8183052  64.8952459 103.8706680   7.5953830  58.9674758  99.6655974
   7.3978651  58.6589846 100.5499306   8.2053536  59.6936397  99.7953903
  15.6025165  69.4938706 102.8007915  16.3328553  69.2323994 103.3615618
  14.9932110  68.7567428 102.8409983  13.6840462  67.6346568 103.3982366
  12.9573625  67.5002533 102.7898857  13.2687749  67.9423397 104.2039084
   1.4236929  59.7705618  95.7928208   0.6137657  59.4252703  96.1683454
   2.1121345  59.4613162  96.3815820   3.3527477  58.8483665  97.4152505
   3.9058515  59.2679118  98.0742528   3.5897563  57.9219413  97.4575461
   6.7306284  60.9584190  96.9231169   6.1504953  61.6168994  96.5409222
   6.4642217  60.1361535  96.5118587   5.1809850  60.3589248  99.1252490
   5.6809629  60.4705782  98.3166808   5.8245458  60.0550300  99.7653298
   5.5131162  63.1184280  95.9787517   4.6257017  63.4033931  95.7607712
   5.9285151  62.9578044  95.1314794   8.8645698  63.1430801  99.6941857
   9.6406088  63.6327254  99.9666474   8.1393832  63.5688855 100.1513726
  11.3018257  63.8558420 100.7515797  11.8962748  63.6154156 100.0409106
  11.3744840  63.1365551 101.3789334   4.6574375  72.8828955  90.0735537
   5.3610226  73.0878957  90.6893193   3.9337024  73.4505717  90.3384621
   5.4872186  68.6338816  96.1937808   5.4307387  69.0907368  95.3545440
   6.0400528  67.8729501  96.0160650   9.2976992  64.4228548  97.0187927
   9.0413926  64.0225184  97.8496135   8.6729860  65.1372342  96.8938066
  13.6089329  67.1624621  99.5259219  13.0488887  67.2317811 100.2990781
  13.0032833  66.9865606  98.8058715   6.5661073  73.3211484  92.1233997
   7.4006677  72.8892683  91.9411472   6.4045416  73.1493498  93.0510892
   6.2206965  69.8243597  93.4890337   6.1655769  69.6587869  92.5478781
   5.5953020  70.5319630  93.6452527   3.3455210  55.9194483  97.3221592
   2.5787606  55.3652970  97.4678274   3.7565915  55.9916352  98.1835744
  15.1945348  83.8381135 102.2189174  15.8323758  83.7187883 101.5152514
  15.0766191  84.7861979 102.2777126  12.0035054  83.7908563 102.1550699
  11.6653566  83.6749628 101.2671234  12.8724822  83.3899728 102.1351705
   7.8621870  85.6444040  98.1447590   7.2986735  85.5533977  97.3763878
   7.7474265  84.8243944  98.6250082  13.4421429  89.3115007  93.4562055
  12.7909408  89.8969088  93.0696069  14.2365791  89.8421202  93.5157092
   7.3677056  86.4004145  93.8549189   8.1407932  85.8533132  93.7162065
   7.7202455  87.2648394  94.0663651  10.1318305  85.1057375 103.6517448
  10.7281877  84.8813398 102.9374411  10.1893277  84.3642121 104.2542896
   9.7043334  82.5596811  91.4867639   9.9568854  82.0378332  90.7251102
   8.7667893  82.3962956  91.5894323  14.7486616  81.5632589  99.2942382
  15.5349706  81.1452012  98.9432799  15.0125321  82.4678681  99.4624031
  14.9196694  87.0005439  93.9931039  14.2842527  87.0740066  94.7051944
  14.5894100  87.5899038  93.3150118  20.1495044  81.5007822 100.1975361
  20.8820215  80.9307039 100.4313190  19.3934399  81.1129423 100.6381866
   9.4239622  84.4624917  93.6892014   9.3075880  83.7869820  94.3573098
   9.5341882  83.9757291  92.8724167  11.7671163  83.9235064  97.3938703
  11.4029370  83.3965685  98.1051625  12.6238279  83.5333533  97.2205189
  17.6720464  75.2129396 104.6569969  17.3403789  76.0824807 104.4331184
  17.0766077  74.8965680 105.3364000  11.4076650  78.9524964  92.3900052
  11.5751053  79.8205200  92.7570523  11.2173819  79.1152245  91.4661341
  14.1651983  87.4141942 104.0565882  13.8652706  88.3166981 103.9481689
  13.8203043  87.1474126 104.9087035   7.6164465  83.8655739 100.0902587
   6.6914961  83.7331953 100.2980278   7.8648878  84.6449959 100.5872529
  17.5649127  79.9324483 101.7363319  16.6566005  79.8639891 101.4422080
  17.5136723  80.4096428 102.5645145  11.3865871  81.4082621  93.3746719
  11.2665496  81.8539672  94.2132199  10.6918459  81.7567939  92.8160257
   9.1472763  94.1786263  97.0236850   9.0696793  95.1294088  97.1025330
   8.5434407  93.8332135  97.6811776  19.4310774  78.1340921 103.5141193
  18.7885154  78.4273454 102.8680988  18.9265702  78.0193841 104.3194390
  17.0850937  81.8804094  94.2027053  17.9968793  82.1131481  94.0274750
  16.5760584  82.4641138  93.6402131  11.7222775  81.2401329 105.2121902
  12.5683970  81.6640742 105.3556551  11.6621413  80.5834953 105.9060465
  15.6920520  86.8629913 101.5940634  15.0629382  87.0275627 100.8916702
  15.3046182  87.2771522 102.3651598  19.5709751  87.7984350  98.9484998
  18.8860790  88.1783252  98.3982031  19.6553601  88.4079677  99.6816946
  14.8722220  78.9005697 106.8703076  14.6283152  79.6547758 106.3337351
  15.1482151  79.2791045 107.7050323  16.8260683  85.4444310 105.5480341
  17.0377578  86.0876069 104.8714722  16.7790431  84.6106626 105.0802271
  14.4286912  78.0562130 102.4516914  13.5671391  78.3543384 102.7433651
  14.4549347  78.2732529 101.5197946  11.2448481  86.6004321  98.8590719
  11.7086827  86.8792024  98.0695342  10.9805280  85.6987765  98.6763810
   8.1372563  86.1475802 101.7970482   8.7073920  86.5763071 101.1587967
   8.7280674  85.8658387 102.4954668  10.1817368  82.7227473  95.6680284
  10.8841411  83.1748517  96.1354211   9.8497996  82.0811292  96.2960177
   3.9242701  80.9811026 100.9697418   3.1341755  81.2368554 100.4937529
   4.4153949  81.7959364 101.0749458  17.9406511  88.3216265 103.7202699
  18.7623955  87.9196452 103.4385380  17.9368914  88.2184499 104.6718815
   5.8757447  81.3455605  97.9280895   5.0788610  81.4574299  98.4464390
   5.6483039  81.6842257  97.0621785  26.0312504  84.6655013 100.0687670
  25.2776212  84.0962411  99.9131675  26.1660045  84.6317678 101.0158305
  11.4211132  89.5368416  95.7442390  11.2856807  90.3819951  96.1727237
  11.9620945  89.7387693  94.9808323   4.8740530  87.0543854  96.3170315
   5.3865050  87.8487104  96.4675879   5.5263242  86.3570144  96.2503916
   6.6835414  90.1709610  98.3993068   6.8602043  91.0927575  98.2114052
   7.4792248  89.8568029  98.8287448  14.7703596  73.0598978 104.2741283
  14.4267865  73.9500619 104.1980394  15.1382558  72.8700635 103.4110868
   2.8389446  85.3832508  97.0929885   3.6764668  85.7929516  96.8763593
   3.0167714  84.4431950  97.0630079  14.7353878  83.0507589  92.7813718
  14.2200502  83.8212193  93.0202106  14.4631187  82.3772725  93.4046780
  12.3200989  77.8957289  97.8398957  11.4642586  77.5064140  97.6604595
  12.7327941  77.9749250  96.9798742  13.8500136  75.4303633 102.2390516
  13.3464932  75.3933768 101.4258322  14.1430743  76.3396375 102.2987173
  10.0943022  75.5142362 101.2456698  10.9596019  75.3185171 100.8862587
  10.1620531  75.2852714 102.1726055  19.7088153  85.8039943  94.7166892
  18.9317595  85.4651103  94.2722054  20.3879634  85.8092567  94.0421857
  14.5240182  80.9234681  94.6073499  14.2190317  81.2380830  95.4583643
  15.4770624  81.0016101  94.6500832  12.9686613  87.0824904  96.2566453
  12.4407975  86.3477664  95.9439691  12.4674116  87.8599580  96.0106422
  17.9479459  85.2773925 101.3733500  17.2903134  85.9673186 101.4613628
  18.7519859  85.6670357 101.7167486   7.7005341  77.7444570  98.6173065
   8.2749093  77.5219752  97.8846258   8.2876323  77.8133265  99.3701666
  16.7584918  83.6318297  99.4237441  17.2716800  84.2648289  99.9259151
  17.4086142  83.0319493  99.0580801   8.0274928  79.7749031  92.6368950
   7.1912240  80.1123718  92.9578225   7.8879698  79.6398011  91.6996087
  10.0028009  74.6185819  97.3448134   9.3492421  74.3034836  96.7204749
   9.9608483  73.9961560  98.0707957  11.1139214  84.9005114  89.2601426
  10.2066275  84.6694368  89.4592575  11.6110246  84.1042734  89.4475408
  14.0207292  93.6102622  92.1798112  13.3468991  93.9134318  92.7883070
  14.4073114  94.4131702  91.8303570  13.2365749  81.1067753 101.6695782
  12.3188310  81.3282700 101.5117470  13.6525893  81.1814063 100.8107489
  14.0200797  82.5059169  96.7998462  14.7672616  83.0180566  96.4905584
  14.2892386  82.1843221  97.6602856  12.2927447  85.0017709  93.7825416
  11.3838666  84.7176742  93.8797886  12.3222531  85.4216788  92.9228723
  17.5246714  88.6124299  97.5516584  17.0709042  87.7715209  97.6081774
  16.8940681  89.2485697  97.8891364  16.4679634  79.5416285  98.7817251
  15.7302391  79.0293671  99.1127494  16.7206408  79.1016666  97.9700528
  15.9679654  90.4500795  98.4866402  16.2602628  91.0105853  97.7678768
  16.4778274  90.7429356  99.2419561  16.5691261  72.3192537  99.3759021
  16.8750138  71.4589900  99.0884936  17.2943866  72.9110157  99.1758015
   2.8615617  82.7223223  97.7640619   2.6640017  82.1292584  97.0391685
   2.3062281  82.4175434  98.4816557  10.8412341  82.6146330  99.8835212
  10.8960951  81.6620166  99.8077688  10.0303543  82.7705769 100.3676510
  11.9903535  86.5426453  91.1213495  11.5522965  85.8262312  90.6619132
  12.7313976  86.7702568  90.5598586   8.7804701  81.2323390  97.6425591
   7.9672567  81.5317560  98.0490783   9.2763695  80.8379078  98.3600073
  10.9313279  91.2281147  99.5759855  10.8889458  91.4541993  98.6468387
  11.8475978  90.9944521  99.7245656  14.3778913  81.6965214 106.4740485
  14.7328300  81.9236687 107.3334950  15.0251044  82.0283591 105.8517740
  20.1076650  84.8183650  97.1789814  19.9694548  85.0085246  96.2511003
  19.7512868  85.5803033  97.6357865   8.2718776  78.8041745 103.2586826
   8.9118155  78.6630504 102.5609789   7.4396306  78.5176259 102.8825428
  20.1346029  86.8860177 102.1901085  20.5682536  86.7935466 103.0384139
  20.8477610  86.8617677 101.5521101   9.0479080  88.1044176  99.3721818
   9.8419678  87.6094496  99.1704393   8.3370772  87.5762039  99.0089524
   5.3561843  82.2487257  95.4481571   4.4259431  82.1871713  95.6651533
   5.4519315  81.7263210  94.6518212   5.2747392  78.7742070  98.0359812
   5.5354209  79.6887403  97.9268973   6.0964565  78.3066513  98.1856425
  20.9961579  86.9283878 104.7233970  21.1897469  87.8329688 104.9693245
  20.8962197  86.4691297 105.5572555  12.6497890  76.8141768 107.2224298
  12.0025805  77.5131718 107.1288774  13.4198905  77.2477912 107.5900546
  12.8262024  84.6522533 105.2821118  13.7554084  84.8033693 105.1090085
  12.4053054  84.7406554 104.4269764  12.2198508  93.7782294  94.3945192
  12.3950263  93.3070337  95.2090814  11.5331296  94.4048060  94.6226452
  13.1755571  88.0554800 100.4408493  12.8405403  88.0155570 101.3366143
  12.6759516  87.3899516  99.9678903  16.1114762  85.4010835  90.7145553
  15.4943933  84.6757663  90.6178605  15.6431251  86.1620195  90.3712627
   7.9013308  79.6196259  89.8366857   7.0242775  79.4985060  89.4729104
   8.3771061  78.8282337  89.5845746  17.7686301  88.0749327 106.6065313
  16.8813080  87.7375249 106.7291711  18.3384852  87.3432358 106.8434078
  11.0877234  91.9722549  97.0829377  10.3044756  92.5144229  97.1767602
  11.7869980  92.4896529  97.4823619  14.3973885  77.7817179  99.7263583
  14.8942584  77.0287141  99.4064653  13.6260866  77.8181495  99.1606792
  22.2503642  83.4857544 101.3681874  22.2393518  84.3682260 100.9975807
  21.3821021  83.1329095 101.1736411  15.4803665  86.5388866  97.3002006
  14.5459944  86.6590328  97.1306710  15.6580334  85.6361333  97.0362016
  10.9808853  79.9234562  99.4535267  10.6106641  79.3705602 100.1416173
  11.4767946  79.3192695  98.9010267  18.8676217  82.3806185  97.8352040
  19.3336669  83.2134177  97.7612343  19.3183717  81.9151167  98.5397299
  16.9352448  88.7250006  94.8338192  17.2112292  88.6106601  95.7432066
  16.0656946  88.3267491  94.7950365  16.8392879  74.7486772 101.8742942
  15.9255959  74.9790999 102.0425149  17.2685981  74.8325216 102.7256974
  16.6099338  82.9376664 104.3742836  15.9570788  83.1852572 103.7195288
  16.9879718  82.1240802 104.0405313  13.5706512  92.9736357  98.4771006
  13.7528906  92.1558013  98.9398758  14.3939498  93.1904050  98.0395896
  13.9048677  91.9004542  95.7386054  14.4336444  91.3896997  95.1256217
  14.1676897  91.5847073  96.6031587   6.3774187  77.3338552 105.6988373
   6.4415513  78.1953383 105.2865771   6.3141307  76.7212554 104.9660732
   2.6292002  81.2138114  95.2779763   2.9245443  80.3048793  95.2246816
   1.7280038  81.1925854  94.9560765  14.5378081  92.9345378 102.0830171
  14.4129220  92.1335118 101.5741116  15.1957172  93.4291572 101.5944141
   6.1586249  79.2894111 101.2607311   5.4372835  79.9030078 101.1214784
   6.9479505  79.8251876 101.1823957  16.6012989  90.7354398 103.7109721
  15.6543325  90.6159749 103.6388048  16.9495762  89.8476896 103.7935982
   8.9612563  76.6248537 107.5347963   9.4846965  76.8710834 108.2974272
   8.7424896  77.4568572 107.1151100   4.3579844  78.8952212  95.4019088
   4.0292550  78.0149591  95.2194194   4.7119214  78.8399880  96.2895477
  13.6059423  90.5307114  99.9114073  13.4584385  89.6023822 100.0921643
  14.4312916  90.5527205  99.4271148   7.4721667  79.1825182  95.7694565
   7.8117739  79.7111103  95.0473174   7.9193787  79.5205588  96.5453132
  17.2093545  91.3535673 100.9978946  18.1340092  91.1478535 100.8603397
  17.0408848  91.1052074 101.9068287  10.1665108  77.5662232 105.2197633
   9.8261928  76.7670045 105.6218313   9.4604114  77.8663943 104.6474467
  10.8181580  74.6511545 103.6724956  11.6407649  74.1772023 103.5503847
  11.0619643  75.4302028 104.1723643   9.4589814  77.6799803  93.9687858
  10.1798177  78.0581056  93.4651575   8.8355118  78.3988680  94.0722836
  13.6020937  78.3844952  94.9046190  13.8184551  79.2669590  94.6035019
  13.1215004  77.9931166  94.1751832   8.3420158  81.3430665 101.4816935
   8.1964739  81.6570968 102.3741217   7.8645362  81.9615566 100.9287834
  10.2016541  78.3333213 101.5297825  10.1878110  77.4374307 101.1930123
  10.9188969  78.3403877 102.1636111  12.0542672  78.7670554 103.5750952
  11.7960450  79.6887624 103.5735282  11.5227712  78.3700988 104.2651416
  16.9988861  91.8721341  96.3541037  17.1725738  91.3067763  95.6014890
  17.4917752  92.6722236  96.1720527   9.6053437  77.2147594  96.7985395
   9.7269348  76.2864240  96.9976282   9.3155480  77.2286280  95.8863710
  12.4744628  74.9002504  99.9352115  12.4966324  74.9641837  98.9804094
  12.8912687  74.0607013 100.1292621  22.8528252  84.6357764  97.9731337
  23.2959398  83.8865089  97.5750460  21.9754762  84.6267900  97.5905069
  17.9864033  91.1888105  93.4537936  18.6814938  91.8094798  93.6725250
  18.3287183  90.3383456  93.7290314  19.8855456  88.6387811  94.9825266
  20.4106780  88.9775083  94.2574586  19.7977809  87.7034826  94.7988401
  19.6947237  86.1213181 107.6009193  19.7445242  85.9563188 108.5424716
  19.5861161  85.2540440 107.2107074   8.5783496  88.8001726  94.8901282
   8.7271617  89.4837191  94.2367955   9.3849940  88.7806816  95.4050738
  16.9851000  82.1044109 108.9168500  17.8860863  81.9650574 108.6252497
  17.0598974  82.2698563 109.8566677  11.3193805  79.4810963 107.7621686
  10.4497115  79.7744529 107.4904275  11.5553286  80.0651408 108.4828950
  21.1965434  88.5410122 107.8451214  20.9050243  88.9040103 108.6814675
  20.5837566  87.8277130 107.6664547  22.3961117  86.1063002 100.3653785
  23.2308008  86.5452806 100.5291345  22.5320245  85.6301655  99.5462030
  19.4452623  83.6642737 106.3131272  19.9206744  83.8570383 105.5050124
  18.5218188  83.7201923 106.0674656   6.3336129  84.8266904  95.8962351
   6.0882171  83.9229234  96.0942561   6.5032044  84.8284054  94.9541829
  14.0232839  75.6990580 105.2787106  14.5414783  76.4351607 104.9533595
  13.6687972  76.0054574 106.1133865   5.6031777  80.5595262  93.3948512
   4.9101022  80.6339617  92.7388548   5.3583529  79.7955605  93.9170029
  14.2745433  72.1190863 100.7988003  14.5547187  71.4514052 101.4248430
  15.0596040  72.3119958 100.2862667  12.0778902  91.2949857  92.3613029
  11.5052869  91.9140044  91.9083501  12.6511695  91.8449218  92.8952951
  18.1454292  80.5408497 104.5459578  19.0971714  80.6406595 104.5671802
  17.9757742  79.7486765 105.0557662  16.1668671  77.6264080 104.7318979
  15.5718603  77.9069093 104.0365468  15.8818368  78.1157981 105.5035720
  15.2976161  91.5787007  93.4921612  16.2306835  91.5132569  93.6954487
  15.2099374  92.4143274  93.0336144  17.9264178  90.8952877  90.4525559
  17.8477810  90.5612741  91.3461317  18.7473845  91.3874645  90.4517031
  20.6242369  83.7614617 103.6601878  20.5918689  82.8230617 103.8461562
  21.2342993  83.8398653 102.9267703  12.4625700  82.6310670  89.7029082
  13.4084805  82.5016878  89.7717500  12.0839945  81.8925331  90.1798510
  20.7736858  80.5525660 103.7060161  20.2575906  79.7684117 103.5190090
  21.6576806  80.2244377 103.8706680  18.4347585  74.2966676  99.6655974
  18.2372406  73.9881764 100.5499306  19.0447290  75.0228314  99.7953903
  26.4418919  84.8230623 102.8007915  27.1722308  84.5615912 103.3615618
  25.8325865  84.0859345 102.8409983  24.5234216  82.9638486 103.3982366
  23.7967380  82.8294451 102.7898857  24.1081503  83.2715315 104.2039084
  10.6468617  80.5560646  89.6383967   9.7400073  80.2593759  89.7146681
  10.9244598  80.2590464  88.7718253  12.2630683  75.0997536  95.7928208
  11.4531411  74.7544621  96.1683454  12.9515100  74.7905079  96.3815820
  14.1921231  74.1775582  97.4152505  14.7452270  74.5971036  98.0742528
  14.4291318  73.2511331  97.4575461   9.4167402  77.4147581  89.7795946
  10.2786566  77.7402479  90.0391764   9.6017746  76.6279077  89.2669012
  17.5700038  76.2876108  96.9231169  16.9898707  76.9460912  96.5409222
  17.3035971  75.4653452  96.5118587  16.0203605  75.6881165  99.1252490
  16.5203383  75.7997700  98.3166808  16.6639213  75.3842218  99.7653298
  16.3524916  78.4476198  95.9787517  15.4650771  78.7325849  95.7607712
  16.7678906  78.2869961  95.1314794  19.7039453  78.4722719  99.6941857
  20.4799843  78.9619171  99.9666474  18.9787587  78.8980773 100.1513726
  22.1412011  79.1850338 100.7515797  22.7356502  78.9446074 100.0409106
  22.2138595  78.4657469 101.3789334  15.4968130  88.2120873  90.0735537
  16.2003980  88.4170875  90.6893193  14.7730779  88.7797635  90.3384621
  16.3265940  83.9630734  96.1937808  16.2701142  84.4199285  95.3545440
  16.8794283  83.2021418  96.0160650  20.1370746  79.7520466  97.0187927
  19.8807680  79.3517101  97.8496135  19.5123614  80.4664260  96.8938066
  24.4483084  82.4916539  99.5259219  23.8882642  82.5609728 100.2990781
  23.8426587  82.3157524  98.8058715  17.4054827  88.6503402  92.1233997
  18.2400431  88.2184600  91.9411472  17.2439170  88.4785416  93.0510892
  17.0600719  85.1535515  93.4890337  17.0049523  84.9879787  92.5478781
  16.4346775  85.8611548  93.6452527  10.3696845  74.6543624  93.0675655
  10.3575515  75.5985464  93.2243926  11.2620267  74.4713770  92.7735116
  14.1848964  71.2486401  97.3221592  13.4181360  70.6944887  97.4678274
  14.5959669  71.3208270  98.1835744  26.0339102  99.1673053 102.2189174
  26.6717512  99.0479800 101.5152514  25.9159945 100.1153897 102.2777126
  22.8428809  99.1200481 102.1550699  22.5047320  99.0041546 101.2671234
  23.7118577  98.7191646 102.1351705  18.7015624 100.9735957  98.1447590
  18.1380490 100.8825894  97.3763878  18.5868019 100.1535862  98.6250082
  24.2815183 104.6406925  93.4562055  23.6303163 105.2261006  93.0696069
  25.0759546 105.1713120  93.5157092  18.2070810 101.7296062  93.8549189
  18.9801686 101.1825049  93.7162065  18.5596209 102.5940312  94.0663651
  20.9712060 100.4349293 103.6517448  21.5675632 100.2105316 102.9374411
  21.0287031  99.6934039 104.2542896  20.5437088  97.8888728  91.4867639
  20.7962609  97.3670250  90.7251102  19.6061647  97.7254874  91.5894323
  25.5880371  96.8924507  99.2942382  26.3743460  96.4743930  98.9432799
  25.8519075  97.7970599  99.4624031  25.7590448 102.3297357  93.9931039
  25.1236281 102.4031984  94.7051944  25.4287855 102.9190956  93.3150118
  30.9888798  96.8299740 100.1975361  31.7213970  96.2598957 100.4313190
  30.2328154  96.4421340 100.6381866  20.2633377  99.7916834  93.6892014
  20.1469635  99.1161738  94.3573098  20.3735637  99.3049208  92.8724167
  22.6064918  99.2526981  97.3938703  22.2423125  98.7257602  98.1051625
  23.4632034  98.8625451  97.2205189  28.5114218  90.5421314 104.6569969
  28.1797543  91.4116725 104.4331184  27.9159832  90.2257598 105.3364000
  22.2470405  94.2816881  92.3900052  22.4144807  95.1497118  92.7570523
  22.0567574  94.4444163  91.4661341  25.0045738 102.7433860 104.0565882
  24.7046461 103.6458899 103.9481689  24.6596797 102.4766043 104.9087035
  18.4558219  99.1947657 100.0902587  17.5308716  99.0623871 100.2980278
  18.7042633  99.9741876 100.5872529  28.4042882  95.2616400 101.7363319
  27.4959759  95.1931809 101.4422080  28.3530477  95.7388345 102.5645145
  22.2259626  96.7374539  93.3746719  22.1059251  97.1831589  94.2132199
  21.5312214  97.0859856  92.8160257  19.9866518 109.5078180  97.0236850
  19.9090547 110.4586006  97.1025330  19.3828161 109.1624053  97.6811776
  30.2704528  93.4632839 103.5141193  29.6278908  93.7565372 102.8680988
  29.7659457  93.3485759 104.3194390  27.9244692  97.2096012  94.2027053
  28.8362548  97.4423399  94.0274750  27.4154339  97.7933056  93.6402131
  22.5616529  96.5693246 105.2121902  23.4077725  96.9932660 105.3556551
  22.5015167  95.9126871 105.9060465  26.5314274 102.1921830 101.5940634
  25.9023136 102.3567544 100.8916702  26.1439936 102.6063440 102.3651598
  30.4103506 103.1276268  98.9484998  29.7254544 103.5075170  98.3982031
  30.4947355 103.7371595  99.6816946  25.7115975  94.2297615 106.8703076
  25.4676907  94.9839675 106.3337351  25.9875905  94.6082962 107.7050323
  27.6654438 100.7736227 105.5480341  27.8771333 101.4167987 104.8714722
  27.6184186  99.9398544 105.0802271  25.2680667  93.3854048 102.4516914
  24.4065146  93.6835301 102.7433651  25.2943101  93.6024447 101.5197946
  22.0842236 101.9296238  98.8590719  22.5480581 102.2083941  98.0695342
  21.8199034 101.0279683  98.6763810  18.9766317 101.4767720 101.7970482
  19.5467674 101.9054988 101.1587967  19.5674429 101.1950305 102.4954668
  21.0211122  98.0519391  95.6680284  21.7235165  98.5040434  96.1354211
  20.6891750  97.4103210  96.2960177  14.7636456  96.3102943 100.9697418
  13.9735510  96.5660472 100.4937529  15.2547703  97.1251281 101.0749458
  28.7800266 103.6508183 103.7202699  29.6017709 103.2488370 103.4385380
  28.7762668 103.5476417 104.6718815  16.7151201  96.6747523  97.9280895
  15.9182365  96.7866217  98.4464390  16.4876794  97.0134175  97.0621785
  36.8706259  99.9946931 100.0687670  36.1169967  99.4254329  99.9131675
  37.0053800  99.9609596 101.0158305  22.2604887 104.8660333  95.7442390
  22.1250561 105.7111869  96.1727237  22.8014699 105.0679611  94.9808323
  15.7134284 102.3835771  96.3170315  16.2258805 103.1779022  96.4675879
  16.3656997 101.6862062  96.2503916  17.5229169 105.5001528  98.3993068
  17.6995797 106.4219492  98.2114052  18.3186002 105.1859947  98.8287448
  25.6097350  88.3890895 104.2741283  25.2661620  89.2792537 104.1980394
  25.9776313  88.1992553 103.4110868  13.6783201 100.7124426  97.0929885
  14.5158423 101.1221434  96.8763593  13.8561468  99.7723868  97.0630079
  25.5747633  98.3799506  92.7813718  25.0594256  99.1504111  93.0202106
  25.3024941  97.7064643  93.4046780  23.1594744  93.2249207  97.8398957
  22.3036340  92.8356058  97.6604595  23.5721696  93.3041168  96.9798742
  24.6893891  90.7595550 102.2390516  24.1858686  90.7225686 101.4258322
  24.9824497  91.6688293 102.2987173  20.9336776  90.8434280 101.2456698
  21.7989773  90.6477089 100.8862587  21.0014285  90.6144632 102.1726055
  30.5481907 101.1331861  94.7166892  29.7711350 100.7943021  94.2722054
  31.2273388 101.1384484  94.0421857  25.3633936  96.2526598  94.6073499
  25.0584072  96.5672748  95.4583643  26.3164378  96.3308018  94.6500832
  23.8080368 102.4116822  96.2566453  23.2801729 101.6769581  95.9439691
  23.3067871 103.1891498  96.0106422  28.7873214 100.6065842 101.3733500
  28.1296888 101.2965104 101.4613628  29.5913613 100.9962274 101.7167486
  18.5399096  93.0736488  98.6173065  19.1142847  92.8511670  97.8846258
  19.1270078  93.1425183  99.3701666  27.5978673  98.9610215  99.4237441
  28.1110554  99.5940207  99.9259151  28.2479897  98.3611410  99.0580801
  18.8668683  95.1040949  92.6368950  18.0305995  95.4415636  92.9578225
  18.7273452  94.9689929  91.6996087  20.8421763  89.9477737  97.3448134
  20.1886176  89.6326754  96.7204749  20.8002237  89.3253477  98.0707957
  21.9532968 100.2297032  89.2601426  21.0460030  99.9986286  89.4592575
  22.4504000  99.4334651  89.4475408  24.8601047 108.9394539  92.1798112
  24.1862746 109.2426236  92.7883070  25.2466869 109.7423620  91.8303570
  24.0759504  96.4359671 101.6695782  23.1582065  96.6574618 101.5117470
  24.4919647  96.5105981 100.8107489  24.8594551  97.8351086  96.7998462
  25.6066370  98.3472483  96.4905584  25.1286141  97.5135139  97.6602856
  23.1321202 100.3309627  93.7825416  22.2232421 100.0468660  93.8797886
  23.1616285 100.7508705  92.9228723  28.3640469 103.9416216  97.5516584
  27.9102796 103.1007126  97.6081774  27.7334436 104.5777615  97.8891364
  27.3073389  94.8708202  98.7817251  26.5696145  94.3585589  99.1127494
  27.5600162  94.4308584  97.9700528  26.8073408 105.7792713  98.4866402
  27.0996383 106.3397770  97.7678768  27.3172029 106.0721274  99.2419561
  27.4085016  87.6484454  99.3759021  27.7143893  86.7881818  99.0884936
  28.1337621  88.2402075  99.1758015  13.7009372  98.0515141  97.7640619
  13.5033772  97.4584502  97.0391685  13.1456036  97.7467351  98.4816557
  21.6806096  97.9438248  99.8835212  21.7354705  96.9912084  99.8077688
  20.8697298  98.0997687 100.3676510  22.8297289 101.8718371  91.1213495
  22.3916719 101.1554230  90.6619132  23.5707730 102.0994485  90.5598586
  19.6198455  96.5615307  97.6425591  18.8066321  96.8609478  98.0490783
  20.1157450  96.1670996  98.3600073  21.7707033 106.5573064  99.5759855
  21.7283212 106.7833911  98.6468387  22.6869732 106.3236439  99.7245656
  25.2172667  97.0257132 106.4740485  25.5722055  97.2528605 107.3334950
  25.8644798  97.3575509 105.8517740  30.9470404 100.1475568  97.1789814
  30.8088303 100.3377164  96.2511003  30.5906623 100.9094950  97.6357865
  19.1112530  94.1333663 103.2586826  19.7511910  93.9922422 102.5609789
  18.2790061  93.8468176 102.8825428  30.9739784 102.2152095 102.1901085
  31.4076290 102.1227384 103.0384139  31.6871364 102.1909595 101.5521101
  19.8872834 103.4336093  99.3721818  20.6813433 102.9386413  99.1704393
  19.1764527 102.9053956  99.0089524  16.1955598  97.5779175  95.4481571
  15.2653186  97.5163630  95.6651533  16.2913070  97.0555128  94.6518212
  16.1141147  94.1033988  98.0359812  16.3747964  95.0179321  97.9268973
  16.9358319  93.6358430  98.1856425  31.8355333 102.2575795 104.7233970
  32.0291223 103.1621606 104.9693245  31.7355951 101.7983214 105.5572555
  23.4891644  92.1433686 107.2224298  22.8419559  92.8423636 107.1288774
  24.2592659  92.5769830 107.5900546  23.6655778  99.9814451 105.2821118
  24.5947838 100.1325610 105.1090085  23.2446808 100.0698472 104.4269764
  23.0592262 109.1074212  94.3945192  23.2344018 108.6362255  95.2090814
  22.3725050 109.7339978  94.6226452  24.0149325 103.3846718 100.4408493
  23.6799158 103.3447488 101.3366143  23.5153271 102.7191434  99.9678903
  26.9508517 100.7302752  90.7145553  26.3337688 100.0049580  90.6178605
  26.4825005 101.4912113  90.3712627  18.7407063  94.9488177  89.8366857
  17.8636529  94.8276977  89.4729104  19.2164816  94.1574255  89.5845746
  28.6080056 103.4041245 106.6065313  27.7206835 103.0667166 106.7291711
  29.1778607 102.6724276 106.8434078  21.9270989 107.3014467  97.0829377
  21.1438511 107.8436147  97.1767602  22.6263734 107.8188447  97.4823619
  25.2367639  93.1109096  99.7263583  25.7336339  92.3579059  99.4064653
  24.4654621  93.1473413  99.1606792  33.0897396  98.8149462 101.3681874
  33.0787273  99.6974177 100.9975807  32.2214776  98.4621013 101.1736411
  26.3197420 101.8680784  97.3002006  25.3853698 101.9882246  97.1306710
  26.4974088 100.9653250  97.0362016  21.8202608  95.2526479  99.4535267
  21.4500395  94.6997520 100.1416173  22.3161700  94.6484613  98.9010267
  29.7069971  97.7098103  97.8352040  30.1730423  98.5426094  97.7612343
  30.1577472  97.2443084  98.5397299  27.7746202 104.0541924  94.8338192
  28.0506046 103.9398519  95.7432066  26.9050701 103.6559409  94.7950365
  27.6786634  90.0778690 101.8742942  26.7649714  90.3082917 102.0425149
  28.1079735  90.1617134 102.7256974  27.4493092  98.2668582 104.3742836
  26.7964543  98.5144489 103.7195288  27.8273472  97.4532720 104.0405313
  24.4100266 108.3028275  98.4771006  24.5922661 107.4849931  98.9398758
  25.2333252 108.5195967  98.0395896  24.7442432 107.2296460  95.7386054
  25.2730198 106.7188915  95.1256217  25.0070651 106.9138990  96.6031587
  17.2167941  92.6630470 105.6988373  17.2809268  93.5245301 105.2865771
  17.1535062  92.0504472 104.9660732  13.4685757  96.5430032  95.2779763
  13.7639198  95.6340710  95.2246816  12.5673792  96.5217771  94.9560765
  25.3771835 108.2637296 102.0830171  25.2522975 107.4627036 101.5741116
  26.0350927 108.7583489 101.5944141  16.9980004  94.6186028 101.2607311
  16.2766589  95.2321996 101.1214784  17.7873259  95.1543793 101.1823957
  27.4406744 106.0646316 103.7109721  26.4937079 105.9451667 103.6388048
  27.7889517 105.1768814 103.7935982  19.8006317  91.9540455 107.5347963
  20.3240719  92.2002751 108.2974272  19.5818650  92.7860490 107.1151100
  15.1973598  94.2244129  95.4019088  14.8686304  93.3441508  95.2194194
  15.5512969  94.1691798  96.2895477  24.4453177 105.8599032  99.9114073
  24.2978140 104.9315740 100.0921643  25.2706671 105.8819123  99.4271148
  18.3115421  94.5117099  95.7694565  18.6511494  95.0403021  95.0473174
  18.7587542  94.8497505  96.5453132  28.0487299 106.6827591 100.9978946
  28.9733846 106.4770452 100.8603397  27.8802602 106.4343992 101.9068287
  21.0058862  92.8954150 105.2197633  20.6655683  92.0961963 105.6218313
  20.2997869  93.1955861 104.6474467  21.6575334  89.9803462 103.6724956
  22.4801403  89.5063941 103.5503847  21.9013398  90.7593946 104.1723643
  20.2983569  93.0091721  93.9687858  21.0191931  93.3872974  93.4651575
  19.6748873  93.7280598  94.0722836  24.4414691  93.7136870  94.9046190
  24.6578306  94.5961508  94.6035019  23.9608759  93.3223083  94.1751832
  19.1813913  96.6722583 101.4816935  19.0358494  96.9862886 102.3741217
  18.7039116  97.2907483 100.9287834  21.0410296  93.6625131 101.5297825
  21.0271864  92.7666224 101.1930123  21.7582724  93.6695795 102.1636111
  22.8936426  94.0962471 103.5750952  22.6354204  95.0179542 103.5735282
  22.3621467  93.6992906 104.2651416  27.8382615 107.2013258  96.3541037
  28.0119493 106.6359681  95.6014890  28.3311506 108.0014153  96.1720527
  20.4447192  92.5439511  96.7985395  20.5663103  91.6156157  96.9976282
  20.1549234  92.5578197  95.8863710  23.3138382  90.2294422  99.9352115
  23.3360079  90.2933755  98.9804094  23.7306441  89.3898930 100.1292621
  33.6922006  99.9649681  97.9731337  34.1353152  99.2157006  97.5750460
  32.8148517  99.9559818  97.5905069  28.8257788 106.5180023  93.4537936
  29.5208692 107.1386715  93.6725250  29.1680938 105.6675374  93.7290314
  30.7249211 103.9679728  94.9825266  31.2500535 104.3067001  94.2574586
  30.6371563 103.0326744  94.7988401  30.5340992 101.4505098 107.6009193
  30.5838997 101.2855106 108.5424716  30.4254915 100.5832357 107.2107074
  19.4177251 104.1293644  94.8901282  19.5665371 104.8129108  94.2367955
  20.2243694 104.1098734  95.4050738  27.8244754  97.4336026 108.9168500
  28.7254617  97.2942491 108.6252497  27.8992729  97.5990481 109.8566677
  22.1587560  94.8102881 107.7621686  21.2890869  95.1036447 107.4904275
  22.3947040  95.3943326 108.4828950  32.0359189 103.8702040 107.8451214
  31.7443997 104.2332020 108.6814675  31.4231320 103.1569048 107.6664547
  33.2354871 101.4354920 100.3653785  34.0701762 101.8744724 100.5291345
  33.3714000 100.9593573  99.5462030  30.2846377  98.9934654 106.3131272
  30.7600499  99.1862301 105.5050124  29.3611942  99.0493840 106.0674656
  17.1729884 100.1558822  95.8962351  16.9275926  99.2521152  96.0942561
  17.3425798 100.1575972  94.9541829  24.8626593  91.0282498 105.2787106
  25.3808537  91.7643525 104.9533595  24.5081726  91.3346491 106.1133865
  16.4425531  95.8887179  93.3948512  15.7494776  95.9631534  92.7388548
  16.1977283  95.1247523  93.9170029  25.1139188  87.4482781 100.7988003
  25.3940941  86.7805970 101.4248430  25.8989795  87.6411876 100.2862667
  22.9172656 106.6241774  92.3613029  22.3446623 107.2431962  91.9083501
  23.4905450 107.1741136  92.8952951  28.9848046  95.8700415 104.5459578
  29.9365469  95.9698512 104.5671802  28.8151496  95.0778683 105.0557662
  27.0062425  92.9555998 104.7318979  26.4112358  93.2361010 104.0365468
  26.7212122  93.4449899 105.5035720  26.1369916 106.9078925  93.4921612
  27.0700589 106.8424486  93.6954487  26.0493129 107.7435191  93.0336144
  28.7657933 106.2244795  90.4525559  28.6871564 105.8904659  91.3461317
  29.5867599 106.7166563  90.4517031  31.4636124  99.0906534 103.6601878
  31.4312444  98.1522535 103.8461562  32.0736747  99.1690571 102.9267703
  23.3019455  97.9602587  89.7029082  24.2478559  97.8308795  89.7717500
  22.9233700  97.2217249  90.1798510  31.6130612  95.8817578 103.7060161
  31.0969661  95.0976034 103.5190090  32.4970561  95.5536294 103.8706680
  29.2741339  89.6258593  99.6655974  29.0766160  89.3173681 100.5499306
  29.8841045  90.3520232  99.7953903  37.2812674 100.1522541 102.8007915
  38.0116062  99.8907829 103.3615618  36.6719619  99.4151263 102.8409983
  35.3627971  98.2930404 103.3982366  34.6361134  98.1586369 102.7898857
  34.9475258  98.6007232 104.2039084  21.4862372  95.8852564  89.6383967
  20.5793827  95.5885676  89.7146681  21.7638353  95.5882382  88.7718253
  23.1024438  90.4289453  95.7928208  22.2925166  90.0836538  96.1683454
  23.7908854  90.1196997  96.3815820  25.0314986  89.5067500  97.4152505
  25.5846024  89.9262954  98.0742528  25.2685072  88.5803248  97.4575461
  20.2561156  92.7439499  89.7795946  21.1180320  93.0694397  90.0391764
  20.4411501  91.9570995  89.2669012  28.4093793  91.6168025  96.9231169
  27.8292462  92.2752829  96.5409222  28.1429726  90.7945370  96.5118587
  26.8597359  91.0173083  99.1252490  27.3597138  91.1289617  98.3166808
  27.5032967  90.7134136  99.7653298  27.1918671  93.7768116  95.9787517
  26.3044526  94.0617766  95.7607712  27.6072660  93.6161879  95.1314794
  30.5433207  93.8014637  99.6941857  31.3193597  94.2911089  99.9666474
  29.8181341  94.2272691 100.1513726  32.9805766  94.5142256 100.7515797
  33.5750256  94.2737992 100.0409106  33.0532349  93.7949386 101.3789334
  26.3361884 103.5412790  90.0735537  27.0397735 103.7462793  90.6893193
  25.6124533 104.1089552  90.3384621  27.1659695  99.2922652  96.1937808
  27.1094896  99.7491203  95.3545440  27.7188037  98.5313336  96.0160650
  30.9764501  95.0812383  97.0187927  30.7201435  94.6809019  97.8496135
  30.3517369  95.7956177  96.8938066  35.2876838  97.8208457  99.5259219
  34.7276396  97.8901646 100.2990781  34.6820342  97.6449441  98.8058715
  28.2448582 103.9795320  92.1233997  29.0794186 103.5476518  91.9411472
  28.0832925 103.8077333  93.0510892  27.8994474 100.4827433  93.4890337
  27.8443278 100.3171704  92.5478781  27.2740529 101.1903466  93.6452527
  21.2090599  89.9835542  93.0675655  21.1969269  90.9277382  93.2243926
  22.1014021  89.8005687  92.7735116  25.0242719  86.5778318  97.3221592
  24.2575115  86.0236805  97.4678274  25.4353424  86.6500187  98.1835744
  36.8732857 114.4964971 102.2189174  37.5111267 114.3771718 101.5152514
  36.7553700 115.4445815 102.2777126  33.6822563 114.4492399 102.1550699
  33.3441075 114.3333463 101.2671234  34.5512331 114.0483564 102.1351705
  31.3830843 113.2180646  91.4867639  31.6356363 112.6962167  90.7251102
  30.4455402 113.0546792  91.5894323  36.4274125 112.2216424  99.2942382
  37.2137215 111.8035848  98.9432799  36.6912830 113.1262517  99.4624031
  41.8282553 112.1591658 100.1975361  42.5607724 111.5890874 100.4313190
  41.0721908 111.7713258 100.6381866  33.4458672 114.5818899  97.3938703
  33.0816879 114.0549520  98.1051625  34.3025788 114.1917368  97.2205189
  39.3507973 105.8713232 104.6569969  39.0191298 106.7408643 104.4331184
  38.7553586 105.5549516 105.3364000  33.0864159 109.6108799  92.3900052
  33.2538562 110.4789035  92.7570523  32.8961328 109.7736081  91.4661341
  39.2436636 110.5908318 101.7363319  38.3353514 110.5223726 101.4422080
  39.1924232 111.0680263 102.5645145  33.0653380 112.0666456  93.3746719
  32.9453005 112.5123507  94.2132199  32.3705968 112.4151774  92.8160257
  41.1098283 108.7924756 103.5141193  40.4672663 109.0857290 102.8680988
  40.6053211 108.6777677 104.3194390  38.7638446 112.5387930  94.2027053
  39.6756302 112.7715316  94.0274750  38.2548093 113.1224974  93.6402131
  33.4010284 111.8985164 105.2121902  34.2471479 112.3224578 105.3556551
  33.3408922 111.2418788 105.9060465  36.5509729 109.5589533 106.8703076
  36.3070661 110.3131593 106.3337351  36.8269660 109.9374880 107.7050323
  38.5048192 116.1028145 105.5480341  38.7165087 116.7459905 104.8714722
  38.4577940 115.2690461 105.0802271  36.1074421 108.7145966 102.4516914
  35.2458900 109.0127219 102.7433651  36.1336856 108.9316364 101.5197946
  31.8604876 113.3811308  95.6680284  32.5628920 113.8332352  96.1354211
  31.5285505 112.7395127  96.2960177  25.6030210 111.6394861 100.9697418
  24.8129264 111.8952390 100.4937529  26.0941458 112.4543199 101.0749458
  27.5544956 112.0039440  97.9280895  26.7576119 112.1158135  98.4464390
  27.3270548 112.3426093  97.0621785  47.7100013 115.3238849 100.0687670
  46.9563721 114.7546247  99.9131675  47.8447554 115.2901513 101.0158305
  36.4491105 103.7182813 104.2741283  36.1055374 104.6084455 104.1980394
  36.8170067 103.5284471 103.4110868  36.4141387 113.7091424  92.7813718
  35.8988011 114.4796029  93.0202106  36.1418696 113.0356560  93.4046780
  33.9988498 108.5541125  97.8398957  33.1430095 108.1647975  97.6604595
  34.4115450 108.6333086  96.9798742  35.5287645 106.0887468 102.2390516
  35.0252441 106.0517603 101.4258322  35.8218252 106.9980211 102.2987173
  31.7730531 106.1726198 101.2456698  32.6383528 105.9769007 100.8862587
  31.8408040 105.9436550 102.1726055  41.3875662 116.4623779  94.7166892
  40.6105104 116.1234938  94.2722054  42.0667142 116.4676402  94.0421857
  36.2027691 111.5818516  94.6073499  35.8977826 111.8964665  95.4583643
  37.1558133 111.6599936  94.6500832  39.6266968 115.9357760 101.3733500
  38.9690643 116.6257021 101.4613628  40.4307368 116.3254192 101.7167486
  29.3792850 108.4028406  98.6173065  29.9536602 108.1803587  97.8846258
  29.9663832 108.4717100  99.3701666  38.4372427 114.2902133  99.4237441
  38.9504309 114.9232124  99.9259151  39.0873651 113.6903328  99.0580801
  29.7062437 110.4332867  92.6368950  28.8699749 110.7707553  92.9578225
  29.5667207 110.2981847  91.6996087  31.6815518 105.2769655  97.3448134
  31.0279930 104.9618672  96.7204749  31.6395992 104.6545395  98.0707957
  34.9153258 111.7651588 101.6695782  33.9975819 111.9866535 101.5117470
  35.3313402 111.8397899 100.8107489  35.6988306 113.1643004  96.7998462
  36.4460125 113.6764401  96.4905584  35.9679895 112.8427057  97.6602856
  38.1467143 110.2000120  98.7817251  37.4089900 109.6877506  99.1127494
  38.3993917 109.7600502  97.9700528  38.2478770 102.9776372  99.3759021
  38.5537647 102.1173736  99.0884936  38.9731375 103.5693992  99.1758015
  32.5199850 113.2730165  99.8835212  32.5748460 112.3204002  99.8077688
  31.7091052 113.4289604 100.3676510  30.4592210 111.8907225  97.6425591
  29.6460076 112.1901396  98.0490783  30.9551204 111.4962914  98.3600073
  36.0566422 112.3549049 106.4740485  36.4115809 112.5820523 107.3334950
  36.7038553 112.6867426 105.8517740  41.7864159 115.4767485  97.1789814
  41.6482057 115.6669081  96.2511003  41.4300377 116.2386868  97.6357865
  29.9506285 109.4625580 103.2586826  30.5905664 109.3214340 102.5609789
  29.1183815 109.1760094 102.8825428  41.8133538 117.5444012 102.1901085
  42.2470045 117.4519301 103.0384139  42.5265119 117.5201513 101.5521101
  27.0349352 112.9071093  95.4481571  26.1046940 112.8455548  95.6651533
  27.1306824 112.3847045  94.6518212  26.9534901 109.4325905  98.0359812
  27.2141718 110.3471239  97.9268973  27.7752073 108.9650348  98.1856425
  42.6749088 117.5867713 104.7233970  42.8684978 118.4913523 104.9693245
  42.5749706 117.1275132 105.5572555  34.3285399 107.4725604 107.2224298
  33.6813314 108.1715553 107.1288774  35.0986414 107.9061747 107.5900546
  34.5049533 115.3106368 105.2821118  35.4341593 115.4617528 105.1090085
  34.0840563 115.3990389 104.4269764  37.7902271 116.0594670  90.7145553
  37.1731442 115.3341498  90.6178605  37.3218760 116.8204030  90.3712627
  29.5800817 110.2780094  89.8366857  28.7030284 110.1568895  89.4729104
  30.0558570 109.4866173  89.5845746  36.0761393 108.4401014  99.7263583
  36.5730093 107.6870976  99.4064653  35.3048375 108.4765331  99.1606792
  43.9291151 114.1441380 101.3681874  43.9181027 115.0266095 100.9975807
  43.0608530 113.7912930 101.1736411  32.6596362 110.5818397  99.4535267
  32.2894150 110.0289437 100.1416173  33.1555455 109.9776531  98.9010267
  40.5463726 113.0390021  97.8352040  41.0124178 113.8718012  97.7612343
  40.9971226 112.5735002  98.5397299  38.5180388 105.4070608 101.8742942
  37.6043468 105.6374834 102.0425149  38.9473490 105.4909052 102.7256974
  38.2886847 113.5960500 104.3742836  37.6358297 113.8436407 103.7195288
  38.6667227 112.7824638 104.0405313  28.0561696 107.9922388 105.6988373
  28.1203022 108.8537219 105.2865771  27.9928816 107.3796389 104.9660732
  24.3079511 111.8721949  95.2779763  24.6032952 110.9632628  95.2246816
  23.4067547 111.8509689  94.9560765  27.8373758 109.9477946 101.2607311
  27.1160344 110.5613914 101.1214784  28.6267014 110.4835711 101.1823957
  30.6400072 107.2832373 107.5347963  31.1634474 107.5294669 108.2974272
  30.4212405 108.1152407 107.1151100  26.0367353 109.5536047  95.4019088
  25.7080059 108.6733426  95.2194194  26.3906723 109.4983716  96.2895477
  29.1509176 109.8409017  95.7694565  29.4905248 110.3694938  95.0473174
  29.5981296 110.1789423  96.5453132  31.8452617 108.2246068 105.2197633
  31.5049437 107.4253881 105.6218313  31.1391623 108.5247778 104.6474467
  32.4969089 105.3095380 103.6724956  33.3195158 104.8355858 103.5503847
  32.7407152 106.0885864 104.1723643  31.1377323 108.3383639  93.9687858
  31.8585686 108.7164891  93.4651575  30.5142627 109.0572515  94.0722836
  35.2808446 109.0428787  94.9046190  35.4972060 109.9253425  94.6035019
  34.8002513 108.6515001  94.1751832  30.0207667 112.0014501 101.4816935
  29.8752248 112.3154804 102.3741217  29.5432871 112.6199401 100.9287834
  31.8804050 108.9917049 101.5297825  31.8665619 108.0958142 101.1930123
  32.5976478 108.9987712 102.1636111  33.7330181 109.4254389 103.5750952
  33.4747959 110.3471460 103.5735282  33.2015221 109.0284823 104.2651416
  31.2840946 107.8731429  96.7985395  31.4056857 106.9448075  96.9976282
  30.9942989 107.8870115  95.8863710  34.1532137 105.5586339  99.9352115
  34.1753833 105.6225673  98.9804094  34.5700196 104.7190848 100.1292621
  44.5315761 115.2941599  97.9731337  44.9746907 114.5448924  97.5750460
  43.6542271 115.2851735  97.5905069  41.3734746 116.7797016 107.6009193
  41.4232751 116.6147023 108.5424716  41.2648670 115.9124275 107.2107074
  38.6638509 112.7627944 108.9168500  39.5648372 112.6234409 108.6252497
  38.7386483 112.9282399 109.8566677  32.9981314 110.1394799 107.7621686
  32.1284624 110.4328365 107.4904275  33.2340795 110.7235244 108.4828950
  44.0748626 116.7646837 100.3653785  44.9095517 117.2036641 100.5291345
  44.2107754 116.2885490  99.5462030  41.1240131 114.3226572 106.3131272
  41.5994253 114.5154218 105.5050124  40.2005697 114.3785758 106.0674656
  35.7020348 106.3574416 105.2787106  36.2202292 107.0935443 104.9533595
  35.3475481 106.6638409 106.1133865  27.2819286 111.2179097  93.3948512
  26.5888531 111.2923452  92.7388548  27.0371038 110.4539441  93.9170029
  35.9532942 102.7774698 100.7988003  36.2334696 102.1097887 101.4248430
  36.7383549 102.9703794 100.2862667  39.8241800 111.1992332 104.5459578
  40.7759223 111.2990430 104.5671802  39.6545251 110.4070601 105.0557662
  37.8456180 108.2847915 104.7318979  37.2506112 108.5652928 104.0365468
  37.5605877 108.7741816 105.5035720  42.3029878 114.4198452 103.6601878
  42.2706198 113.4814453 103.8461562  42.9130502 114.4982489 102.9267703
  34.1413209 113.2894505  89.7029082  35.0872314 113.1600713  89.7717500
  33.7627454 112.5509167  90.1798510  42.4524367 111.2109495 103.7060161
  41.9363415 110.4267952 103.5190090  43.3364315 110.8828212 103.8706680
  40.1135094 104.9550511  99.6655974  39.9159915 104.6465599 100.5499306
  40.7234799 105.6812150  99.7953903  48.1206428 115.4814459 102.8007915
  48.8509817 115.2199747 103.3615618  47.5113374 114.7443181 102.8409983
  46.2021725 113.6222321 103.3982366  45.4754889 113.4878286 102.7898857
  45.7869012 113.9299150 104.2039084  32.3256126 111.2144481  89.6383967
  31.4187582 110.9177594  89.7146681  32.6032107 110.9174299  88.7718253
  33.9418192 105.7581371  95.7928208  33.1318920 105.4128456  96.1683454
  34.6302609 105.4488915  96.3815820  35.8708740 104.8359418  97.4152505
  36.4239779 105.2554871  98.0742528  36.1078827 103.9095166  97.4575461
  31.0954911 108.0731416  89.7795946  31.9574075 108.3986315  90.0391764
  31.2805255 107.2862912  89.2669012  39.2487547 106.9459943  96.9231169
  38.6686216 107.6044747  96.5409222  38.9823480 106.1237288  96.5118587
  37.6991114 106.3465001  99.1252490  38.1990892 106.4581535  98.3166808
  38.3426722 106.0426053  99.7653298  38.0312425 109.1060033  95.9787517
  37.1438280 109.3909684  95.7607712  38.4466414 108.9453797  95.1314794
  41.3826962 109.1306554  99.6941857  42.1587352 109.6203007  99.9666474
  40.6575096 109.5564608 100.1513726  43.8199520 109.8434174 100.7515797
  44.4144011 109.6029909 100.0409106  43.8926104 109.1241304 101.3789334
  38.0053449 114.6214569  96.1937808  37.9488651 115.0783121  95.3545440
  38.5581792 113.8605254  96.0160650  41.8158255 110.4104301  97.0187927
  41.5595189 110.0100937  97.8496135  41.1911123 111.1248095  96.8938066
  46.1270593 113.1500374  99.5259219  45.5670151 113.2193564 100.2990781
  45.5214096 112.9741359  98.8058715  38.7388228 115.8119351  93.4890337
  38.6837032 115.6463622  92.5478781  38.1134284 116.5195383  93.6452527
  32.0484354 105.3127460  93.0675655  32.0363024 106.2569299  93.2243926
  32.9407776 105.1297605  92.7735116  35.8636473 101.9070236  97.3221592
  35.0968869 101.3528723  97.4678274  36.2747178 101.9792105  98.1835744
  47.2884859 119.0474731 104.2741283  46.9449129 119.9376372 104.1980394
  47.6563822 118.8576388 103.4110868  49.0872525 118.3068290  99.3759021
  49.3931402 117.4465653  99.0884936  49.8125130 118.8985910  99.1758015
  46.7926697 118.1066616 100.7988003  47.0728450 117.4389805 101.4248430
  47.5777304 118.2995712 100.2862667  50.9528848 120.2842429  99.6655974
  50.7553669 119.9757517 100.5499306  51.5628554 121.0104067  99.7953903
  46.7030228 117.2362154  97.3221592  45.9362624 116.6820641  97.4678274
  47.1140933 117.3084023  98.1835744   4.3524996  31.0133301  86.7932977
   3.5988705  30.4440699  86.6376981   4.4872538  30.9795965  87.7403612
   0.7173609  32.4541289  87.0899091   1.5520500  32.8931093  87.2536652
   0.8532738  31.9779942  86.2707337   4.7631411  31.1708911  89.5253221
   5.4934800  30.9094199  90.0860925   4.1538357  30.4337633  89.5655289
   2.8446709  29.3116773  90.1227672   2.1179872  29.1772738  89.5144164
   2.4293995  29.6193602  90.9284390   0.4624503  25.5328625  87.4761104
   1.0568994  25.2924361  86.7654412   0.5351087  24.8135756  88.1034640
   2.7695576  28.8394826  86.2504525   2.2095134  28.9088016  87.0236087
   2.1639080  28.6635811  85.5304021   4.3551595  45.5151340  88.9434481
   4.9930005  45.3958088  88.2397821   4.2372438  46.4632184  89.0022433
   1.1641301  45.4678768  88.8796006   0.8259812  45.3519833  87.9916540
   2.0331069  45.0669933  88.8597012   1.6461084  46.6213620  94.8382211
   1.6349725  46.2266418  93.9662715   1.8081723  45.8879693  95.4315983
   2.6027675  50.9885212  80.1807361   1.9515655  51.5739293  79.7941375
   3.3972038  51.5191407  80.2402399   3.9092863  43.2402794  86.0187689
   4.6955952  42.8222217  85.6678106   4.1731567  44.1448886  86.1869337
   4.0802941  48.6775644  80.7176346   3.4448773  48.7510271  81.4297250
   3.7500347  49.2669243  80.0395425   9.3101290  43.1778027  86.9220667
  10.0426462  42.6077244  87.1558497   8.5540646  42.7899628  87.3627173
   0.9277410  45.6005269  84.1184010   0.5635617  45.0735890  84.8296931
   1.7844526  45.2103738  83.9450495   6.8326711  36.8899601  91.3815276
   6.5010035  37.7595012  91.1576491   6.2372324  36.5735885  92.0609306
   3.3258230  49.0912147  90.7811189   3.0258953  49.9937186  90.6726996
   2.9809290  48.8244331  91.6332342   6.7255374  41.6094688  88.4608626
   5.8172251  41.5410096  88.1667387   6.6742970  42.0866632  89.2890452
   8.5917020  39.8111126  90.2386500   7.9491401  40.1043659  89.5926295
   8.0871949  39.6964046  91.0439697   6.2457184  43.5574299  80.9272359
   7.1575040  43.7901686  80.7520057   5.7366831  44.1411343  80.3647438
   4.5297952  47.9798927  94.5633652   4.9381308  47.5381337  93.8188284
   3.8075213  47.4051554  94.8167845   0.8829022  42.9171534  91.9367209
   1.7290217  43.3410947  92.0801858   0.8227659  42.2605158  92.6305772
   4.8526766  48.5400118  88.3185941   4.2235629  48.7045832  87.6162009
   4.4652428  48.9541727  89.0896905   8.7315998  49.4754555  85.6730305
   8.0467036  49.8553457  85.1227338   8.8159848  50.0849882  86.4062252
   4.0328467  40.5775902  93.5948382   3.7889399  41.3317963  93.0582658
   4.3088398  40.9561250  94.4295630   5.9866930  47.1214514  92.2725648
   6.1983825  47.7646274  91.5960029   5.9396678  46.2876831  91.8047578
   3.5893159  39.7332335  89.1762220   2.7277638  40.0313589  89.4678958
   3.6155593  39.9502734  88.2443253   7.1012758  49.9986470  90.4448005
   7.9230202  49.5966657  90.1630687   7.0975161  49.8954704  91.3964121
  15.1918751  46.3425218  86.7932977  14.4382459  45.7732616  86.6376981
  15.3266292  46.3087883  87.7403612   0.5817379  51.2138621  82.4687696
   0.4463054  52.0590156  82.8972544   1.1227191  51.4157898  81.7053630
   2.2085855  51.8362187  96.5988038   1.7649709  51.0498566  96.2808943
   2.8703069  52.0241338  95.9331929   4.3067093  52.1164987  94.6269440
   4.2885569  52.9373868  94.1349709   5.2287013  51.9919062  94.8519581
   3.9309842  34.7369183  90.9986590   3.5874112  35.6270824  90.9225700
   4.2988805  34.5470840  90.1356175   3.8960125  44.7277794  79.5059025
   3.3806749  45.4982398  79.7447412   3.6237434  44.0542930  80.1292086
   1.4807236  39.5727494  84.5644263   0.6248833  39.1834345  84.3849902
   1.8934188  39.6519455  83.7044049   3.0106383  37.1073838  88.9635823
   2.5071178  37.0703973  88.1503628   3.3036990  38.0166580  89.0232480
   8.8694399  47.4810148  81.4412198   8.0923842  47.1421308  80.9967360
   9.5485880  47.4862771  80.7667163   3.6846428  42.6004886  81.3318806
   3.3796564  42.9151035  82.1828949   4.6376870  42.6786306  81.3746139
   2.1292860  48.7595109  82.9811760   1.6014222  48.0247869  82.6684997
   1.6280363  49.5369785  82.7351728   7.1085706  46.9544130  88.0978806
   6.4509381  47.6443391  88.1858935   7.9126105  47.3440561  88.4412793
   5.9191165  45.3088502  86.1482748   6.4323047  45.9418494  86.6504458
   6.5692389  44.7089698  85.7826108   3.1813539  55.2872827  78.9043419
   2.5075238  55.5904523  79.5128377   3.5679361  56.0901907  78.5548876
   2.3971996  42.7837958  88.3941089   1.4794557  43.0052905  88.2362777
   2.8132140  42.8584268  87.5352796   3.1807044  44.1829373  83.5243769
   3.9278863  44.6950771  83.2150891   3.4498633  43.8613426  84.3848162
   1.4533694  46.6787914  80.5070723   0.5444913  46.3946947  80.6043193
   1.4828778  47.0986993  79.6474030   6.6852961  50.2894504  84.2761891
   6.2315288  49.4485414  84.3327081   6.0546928  50.9255902  84.6136671
   5.6285881  41.2186490  85.5062558   4.8908638  40.7063876  85.8372801
   5.8812654  40.7786871  84.6945835   5.1285900  52.1271000  85.2111709
   5.4208875  52.6876057  84.4924074   5.6384521  52.4199561  85.9664868
   5.7297508  33.9962742  86.1004327   6.0356385  33.1360105  85.8130242
   6.4550113  34.5880362  85.9003321   1.1509782  48.2196658  77.8458802
   0.7129212  47.5032517  77.3864439   1.8920222  48.4472773  77.2843893
   3.5385159  43.3735419  93.1985791   3.8934547  43.6006892  94.0580257
   4.1857291  43.7053796  92.5763046   9.2682896  46.4953855  83.9035120
   9.1300795  46.6855451  82.9756309   8.9119115  47.2573238  84.3603171
   9.2952276  48.5630382  88.9146392   9.7288783  48.4705671  89.7629446
  10.0083857  48.5387882  88.2766408   3.0280171  52.1632476  90.4479492
   3.0817193  52.7323412  91.2157208   2.1594952  52.3334361  90.0833529
  10.1567826  48.6054083  91.4479277  10.3503716  49.5099893  91.6938552
  10.0568444  48.1461502  92.2817862   1.8104136  38.4911973  93.9469604
   1.1632051  39.1901923  93.8534081   2.5805152  38.9248117  94.3145853
   5.2182934  48.7560825  97.0220158   5.0668441  48.5271377  96.1050241
   5.2087614  49.7131427  97.0351503   1.9868271  46.3292738  92.0066424
   2.9160331  46.4803898  91.8335391   1.5659301  46.4176759  91.1515071
   1.3804754  55.4552499  81.1190498   1.5556510  54.9840542  81.9336121
   0.6937542  56.0818265  81.3471759   2.3361818  49.7325005  87.1653800
   2.0011650  49.6925775  88.0611449   1.8365763  49.0669721  86.6924210
   5.2721009  47.0781039  77.4390859   4.6550180  46.3527868  77.3423912
   4.8037498  47.8390400  77.0957933   6.9275141  51.7879948  95.0996640
   6.8687687  51.1039168  94.4327223   7.3294659  52.5298938  94.6477266
   6.9292548  49.7519532  93.3310619   6.0419327  49.4145454  93.4537018
   7.4991099  49.0202563  93.5679385   3.5580131  39.4587384  86.4508889
   4.0548831  38.7057346  86.1309960   2.7867113  39.4951700  85.8852099
  11.4109889  45.1627749  88.0927181  11.3999765  46.0452465  87.7221114
  10.5427268  44.8099300  87.8981718   2.9192385  54.3107818  92.4530021
   3.6320357  54.9455283  92.3805923   2.4282414  54.4071684  91.6370023
   4.6409912  48.2159071  84.0247313   3.7066191  48.3360533  83.8552017
   4.8186580  47.3131538  83.7607323   8.0282463  44.0576390  84.5597347
   8.4942916  44.8904382  84.4857650   8.4789964  43.5921372  85.2642605
   6.0958694  50.4020211  81.5583499   6.3718538  50.2876806  82.4677373
   5.2263193  50.0037696  81.5195672   5.9999126  36.4256977  88.5988248
   5.0862206  36.6561204  88.7670455   6.4292228  36.5095421  89.4502281
   5.7705585  44.6146869  91.0988142   5.1177035  44.8622777  90.4440595
   6.1485964  43.8011007  90.7650620   2.7312758  54.6506562  85.2016313
   2.9135153  53.8328218  85.6644065   3.5545744  54.8674255  84.7641203
   3.0654924  53.5774747  82.4631361   3.5942690  53.0667202  81.8501523
   3.3283144  53.2617278  83.3276894   1.8193158  45.3566680  97.5854179
   1.1433795  45.2560809  98.2556555   2.6420791  45.2005894  98.0490177
   0.5615940  56.6633608  91.8211795   1.1134249  56.8265229  92.5860881
   0.9022134  57.2538045  91.1491820   5.4126815  51.4894865  97.6760450
   5.9566719  52.1024823  97.1815405   4.8313660  52.0474444  98.1927463
   3.6984328  54.6115583  88.8075478   3.5735467  53.8105323  88.2986423
   4.3563419  55.1061776  88.3189448   5.7619236  52.4124603  90.4355028
   4.8149572  52.2929954  90.3633354   6.1102009  51.5247101  90.5181289
   2.7665669  52.2077319  86.6359380   2.6190632  51.2794027  86.8166950
   3.5919163  52.2297410  86.1516455   6.3699791  53.0305878  87.7224253
   7.2946339  52.8248739  87.5848704   6.2015095  52.7822279  88.6313594
   2.7627184  40.0615157  81.6291497   2.9790798  40.9439795  81.3280325
   2.2821251  39.6701370  80.8997139   1.2148919  40.4440758  90.2996259
   0.9566697  41.3657829  90.2980589   0.6833959  40.0471193  90.9896723
   6.1595107  53.5491546  83.0786344   6.3331985  52.9837968  82.3260197
   6.6523999  54.3492440  82.8965834   1.6350874  36.5772709  86.6597421
   1.6572571  36.6412042  85.7049401   2.0518933  35.7377218  86.8537927
  12.0134499  46.3127969  84.6976644  12.4565645  45.5635294  84.2995767
  11.1361009  46.3038105  84.3150376   7.1470280  52.8658310  80.1783242
   7.8421185  53.4865003  80.3970557   7.4893430  52.0153661  80.4535620
   9.0461703  50.3158016  81.7070573   9.5713027  50.6545288  80.9819893
   8.9584056  49.3805031  81.5233708   0.7081752  54.2292089  93.8360450
   1.0168878  53.9841236  94.7083149   1.5057234  54.4338728  93.3479320
   8.7355609  50.9490919  97.0121771   7.9451153  50.9315058  96.4726270
   8.4988964  51.4879213  97.7670808   8.8553484  47.7983386  94.3254500
   8.9051489  47.6333393  95.2670022   8.7467408  46.9310645  93.9352380
   6.1457247  43.7814314  95.6413806   7.0467109  43.6420778  95.3497804
   6.2205221  43.9468768  96.5811984  10.3571681  50.2180327  94.5696521
  10.0656489  50.5810308  95.4059982   9.7443812  49.5047335  94.3909853
  11.5567363  47.7833207  87.0899091  12.3914255  48.2223011  87.2536652
  11.6926492  47.3071860  86.2707337   8.6058869  45.3412942  93.0376579
   9.0812991  45.5340588  92.2295431   7.6824435  45.3972128  92.7919963
   3.1839086  37.3760785  92.0032413   3.7021030  38.1121812  91.6778902
   2.8294219  37.6824779  92.8379172   3.4351680  33.7961068  87.5233310
   3.7153434  33.1284257  88.1493736   4.2202287  33.9890163  87.0107973
   1.2385148  52.9720062  79.0858336   0.6659116  53.5910249  78.6328808
   1.8117942  53.5219423  79.6198258   7.3060538  42.2178702  91.2704885
   8.2577961  42.3176799  91.2917109   7.1363989  41.4256970  91.7802969
   5.3274918  39.3034285  91.4564286   4.7324850  39.5839298  90.7610774
   5.0424614  39.7928186  92.2281027   4.4582408  53.2557212  80.2166918
   5.3913081  53.1902773  80.4199794   4.3705621  54.0913479  79.7581451
   7.0870425  52.5723082  77.1770866   7.0084056  52.2382946  78.0706624
   7.9080092  53.0644850  77.1762338   9.7848616  45.4384821  90.3847184
   9.7524936  44.5000822  90.5706868  10.3949240  45.5168858  89.6513009
   1.6231947  44.3080874  76.4274388   2.5691052  44.1787083  76.4962806
   1.2446192  43.5695536  76.9043817   9.9343105  42.2295865  90.4305468
   9.4182153  41.4454322  90.2435396  10.8183053  41.9014582  90.5951987
   7.5953831  35.9736880  86.3901280   7.3978653  35.6651969  87.2744612
   8.2053537  36.6998519  86.5199210  15.6025166  46.5000828  89.5253221
  16.3328554  46.2386116  90.0860925  14.9932111  45.7629550  89.5655289
  13.6840463  44.6408691  90.1227672  12.9573627  44.5064656  89.5144164
  13.2687750  44.9485520  90.9284390   1.5070639  48.3598621  97.8875045
   2.4273649  48.5377220  98.0815092   1.4720222  47.4154666  97.7354745
   1.4236930  36.7767741  82.5173515   0.6137658  36.4314826  82.8928761
   2.1121347  36.4675284  83.1061127   3.3527478  35.8545787  84.1397812
   3.9058517  36.2741241  84.7987835   3.5897564  34.9281535  84.1820768
   6.7306285  37.9646313  83.6476476   6.1504954  38.6231117  83.2654528
   6.4642218  37.1423657  83.2363893   5.1809852  37.3651370  85.8497796
   5.6809630  37.4767905  85.0412115   5.8245459  37.0612423  86.4898605
   5.5131163  40.1246403  82.7032824   4.6257018  40.4096054  82.4853019
   5.9285152  39.9640166  81.8560101   8.8645699  40.1492924  86.4187163
   9.6406089  40.6389376  86.6911780   8.1393834  40.5750978  86.8759033
  11.3018258  40.8620543  87.4761104  11.8962749  40.6216279  86.7654412
  11.3744842  40.1427674  88.1034640   4.6574377  49.8891078  76.7980844
   5.3610227  50.0941080  77.4138500   3.9337025  50.4567839  77.0629928
   5.4872187  45.6400939  82.9183114   5.4307388  46.0969490  82.0790747
   6.0400529  44.8791623  82.7405957   9.2976993  41.4290671  83.7433234
   9.0413927  41.0287306  84.5741441   8.6729861  42.1434465  83.6183373
  13.6089331  44.1686744  86.2504525  13.0488889  44.2379933  87.0236087
  13.0032834  43.9927729  85.5304021   6.5661074  50.3273607  78.8479304
   7.4006678  49.8954805  78.6656779   6.4045417  50.1555620  79.7756199
   6.2206966  46.8305720  80.2135643   6.1655770  46.6649991  79.2724088
   5.5953022  47.5381753  80.3697833   3.5352873  49.1354632  99.5389206
   4.4044033  49.3095284  99.1775841   3.0559625  49.9549049  99.4164936
   3.3455211  32.9256606  84.0466899   2.5787607  32.3715092  84.1923581
   3.7565916  32.9978474  84.9081050  15.1945349  60.8443258  88.9434481
  15.8323759  60.7250005  88.2397821  15.0766192  61.7924102  89.0022433
  12.0035055  60.7970686  88.8796006  11.6653567  60.6811751  87.9916540
  12.8724824  60.3961851  88.8597012   7.8621871  62.6506162  84.8692897
   7.2986736  62.5596099  84.1009184   7.7474266  61.8306067  85.3495389
  12.4854838  61.9505538  94.8382211  12.4743479  61.5558336  93.9662715
  12.6475478  61.2171610  95.4315983   5.4086303  64.1457354  87.7077117
   6.2007595  63.8048179  87.2923416   5.6482953  64.2552329  88.6279270
  13.4421430  66.3177130  80.1807361  12.7909410  66.9031211  79.7941375
  14.2365793  66.8483325  80.2402399   7.3677057  63.4066267  80.5794496
   8.1407933  62.8595254  80.4407372   7.7202456  64.2710517  80.7908957
   9.2062100  64.7342650  93.7861395   8.9151966  65.6388280  93.6708061
   9.8419084  64.7759177  94.5005465  10.1318306  62.1119498  90.3762755
  10.7281879  61.8875520  89.6619718  10.1893278  61.3704244  90.9788203
   9.7043335  59.5658933  78.2112946   9.9568856  59.0440455  77.4496409
   8.7667894  59.4025079  78.3139629  14.7486618  58.5694712  86.0187689
  15.5349707  58.1514135  85.6678106  15.0125322  59.4740804  86.1869337
  14.9196695  64.0067562  80.7176346  14.2842528  64.0802189  81.4297250
  14.5894101  64.5961161  80.0395425  20.1495045  58.5069945  86.9220667
  20.8820217  57.9369162  87.1558497  19.3934400  58.1191545  87.3627173
   9.4239624  61.4687039  80.4137321   9.3075882  60.7931943  81.0818405
   9.5341883  60.9819413  79.5969474  11.7671165  60.9297186  84.1184010
  11.4029372  60.4027807  84.8296931  12.6238280  60.5395655  83.9450495
  17.6720465  52.2191519  91.3815276  17.3403790  53.0886930  91.1576491
  17.0766079  51.9027803  92.0609306  11.4076651  55.9587086  79.1145358
  11.5751054  56.8267323  79.4815829  11.2173821  56.1214368  78.1906648
  14.1651985  64.4204065  90.7811189  13.8652708  65.3229104  90.6726996
  13.8203044  64.1536248  91.6332342   7.6164466  60.8717862  86.8147893
   6.6914963  60.7394076  87.0225585   7.8648879  61.6512081  87.3117836
  17.5649128  56.9386605  88.4608626  16.6566006  56.8702014  88.1667387
  17.5136724  57.4158550  89.2890452  11.3865872  58.4144744  80.0992025
  11.2665498  58.8601794  80.9377506  10.6918461  58.7630061  79.5405563
   4.9773277  60.5151135  87.6491682   5.1065658  60.7685614  88.5631094
   4.2970728  61.1078843  87.3296337   9.1472764  71.1848385  83.7482156
   9.0696794  72.1356210  83.8270637   8.5434408  70.8394258  84.4057083
  11.6389994  58.3576251  96.4043523  10.8623328  58.9170171  96.3946388
  12.2780557  58.8433034  96.9258393  19.4310775  55.1403044  90.2386500
  18.7885155  55.4335577  89.5926295  18.9265703  55.0255964  91.0439697
  17.0850939  58.8866217  80.9272359  17.9968795  59.1193604  80.7520057
  16.5760586  59.4703261  80.3647438   9.8936367  61.1661704  95.9661490
  10.6351051  61.7046748  95.6896314   9.1873352  61.7927993  96.1233042
  15.3691706  63.3090845  94.5633652  15.7775062  62.8673255  93.8188284
  14.6468968  62.7343472  94.8167845  11.7222776  58.2463451  91.9367209
  12.5683971  58.6702865  92.0801858  11.6621414  57.5897076  92.6305772
  15.6920521  63.8692035  88.3185941  15.0629383  64.0337749  87.6162009
  15.3046183  64.2833645  89.0896905  19.5709753  64.8046473  85.6730305
  18.8860791  65.1845374  85.1227338  19.6553602  65.4141800  86.4062252
  14.8722222  55.9067820  93.5948382  14.6283153  56.6609880  93.0582658
  15.1482152  56.2853167  94.4295630  16.8260684  62.4506432  92.2725648
  17.0377580  63.0938192  91.5960029  16.7790433  61.6168749  91.8047578
  14.4286913  55.0624253  89.1762220  13.5671392  55.3605506  89.4678958
  14.4549348  55.2794652  88.2443253  11.2448483  63.6066443  85.5836026
  11.7086828  63.8854146  84.7940648  10.9805281  62.7049888  85.4009117
   8.1372564  63.1537925  88.5215789   8.7073921  63.5825193  87.8833274
   8.7280676  62.8720510  89.2199975  10.1817369  59.7289596  82.3925591
  10.8841412  60.1810639  82.8599517   9.8497997  59.0873415  83.0205484
   8.6297730  58.3201352  96.7676800   7.9996391  59.0017633  97.0012197
   8.5233818  58.2084434  95.8229939   3.9242703  57.9873148  87.6942725
   3.1341757  58.2430677  87.2182835   4.4153950  58.8021486  87.7994765
  17.9406512  65.3278388  90.4448005  18.7623956  64.9258575  90.1630687
  17.9368915  65.2246622  91.3964121   5.8757448  58.3517728  84.6526201
   5.0788611  58.4636422  85.1709697   5.6483040  58.6904380  83.7867092
  11.7063116  64.8762431  92.6008716  11.7707548  65.3382838  93.4366888
  10.9974040  64.2459796  92.7291026   2.2080406  58.2403639  90.1257715
   2.4588444  59.1250649  90.3915291   2.7439954  58.0608240  89.3532807
  26.0312505  61.6717136  86.7932977  25.2776214  61.1024534  86.6376981
  26.1660047  61.6379801  87.7403612  11.4211133  66.5430538  82.4687696
  11.2856808  67.3882074  82.8972544  11.9620946  66.7449816  81.7053630
   7.9078473  52.6222118  99.1302051   7.5145419  52.0688317  99.8049696
   8.7244613  52.9332697  99.5208569   4.8740531  64.0605976  83.0415621
   5.3865051  64.8549227  83.1921186   5.5263244  63.3632267  82.9749223
   6.6835415  67.1771733  85.1238374   6.8602044  68.0989697  84.9359358
   7.4792249  66.8630152  85.5532754  10.8246434  54.0379997  96.7222308
  11.5656147  54.6387150  96.6426770  11.0564357  53.2957635  96.1640351
   5.9687772  59.2236365  95.0000538   5.8541287  58.3221622  95.3007637
   5.1132290  59.4700061  94.6485354  13.0479610  67.1654105  96.5988038
  12.6043464  66.3790483  96.2808943  13.7096823  67.3533255  95.9331929
   7.8066731  68.6949906  91.1248717   8.3574156  68.5666970  90.3525711
   6.9678207  68.9944795  90.7743610  15.1460848  67.4456905  94.6269440
  15.1279323  68.2665786  94.1349709  16.0680768  67.3210980  94.8519581
  11.6033902  64.9601034  95.4692948  12.1362239  64.1989322  95.2392256
  11.0747983  64.6674686  96.2117102  14.7703597  50.0661100  90.9986590
  14.4267866  50.9562742  90.9225700  15.1382560  49.8762758  90.1356175
   2.8389448  62.3894631  83.8175192   3.6764670  62.7991639  83.6008900
   3.0167715  61.4494073  83.7875386  14.7353880  60.0569711  79.5059025
  14.2200503  60.8274316  79.7447412  14.4631188  59.3834847  80.1292086
  12.3200991  54.9019412  84.5644263  11.4642587  54.5126262  84.3849902
  12.7327942  54.9811373  83.7044049  13.8500137  52.4365755  88.9635823
  13.3464933  52.3995891  88.1503628  14.1430744  53.3458498  89.0232480
  10.0943023  52.5204485  87.9702005  10.9596020  52.3247294  87.6107894
  10.1620532  52.2914837  88.8971361  19.7088154  62.8102066  81.4412198
  18.9317597  62.4713225  80.9967360  20.3879635  62.8154689  80.7667163
  14.5240183  57.9296803  81.3318806  14.2190318  58.2442953  82.1828949
  15.4770625  58.0078223  81.3746139  12.9686615  64.0887027  82.9811760
  12.4407976  63.3539786  82.6684997  12.4674117  64.8661703  82.7351728
  17.9479461  62.2836047  88.0978806  17.2903135  62.9735309  88.1858935
  18.7519860  62.6732479  88.4412793   7.7005342  54.7506693  85.3418371
   8.2749094  54.5281875  84.6091564   8.2876325  54.8195388  86.0946973
  16.7584920  60.6380420  86.1482748  17.2716801  61.2710412  86.6504458
  17.4086143  60.0381615  85.7826108   8.0274929  56.7811154  79.3614257
   7.1912242  57.1185841  79.6823531   7.8879699  56.6460134  78.4241394
  10.0028010  51.6247942  84.0693441   9.3492422  51.3096959  83.4450056
   9.9608484  51.0023682  84.7953264  11.1139215  61.9067237  75.9846733
  10.2066277  61.6756490  76.1837882  11.6110247  61.1104856  76.1720715
  14.0207294  70.6164744  78.9043419  13.3468993  70.9196441  79.5128377
  14.4073116  71.4193825  78.5548876  13.2365750  58.1129875  88.3941089
  12.3188312  58.3344822  88.2362777  13.6525894  58.1876186  87.5352796
  14.0200798  59.5121291  83.5243769  14.7672617  60.0242688  83.2150891
  14.2892388  59.1905344  84.3848162  12.2927448  62.0079832  80.5070723
  11.3838668  61.7238865  80.6043193  12.3222532  62.4278910  79.6474030
  17.5246716  65.6186421  84.2761891  17.0709043  64.7777331  84.3327081
  16.8940682  66.2547820  84.6136671  16.4679635  56.5478407  85.5062558
  15.7302392  56.0355794  85.8372801  16.7206409  56.1078789  84.6945835
  15.9679655  67.4562918  85.2111709  16.2602629  68.0167975  84.4924074
  16.4778276  67.7491479  85.9664868  16.5691263  49.3254659  86.1004327
  16.8750139  48.4652023  85.8130242  17.2943867  49.9172280  85.9003321
   2.8615619  59.7285346  84.4885925   2.6640019  59.1354707  83.7636992
   2.3062283  59.4237556  85.2061864  10.8412342  59.6208452  86.6080518
  10.8960952  58.6682289  86.5322995  10.0303544  59.7767892  87.0921817
  11.9903536  63.5488576  77.8458802  11.5522966  62.8324434  77.3864439
  12.7313977  63.7764690  77.2843893   8.7804702  58.2385512  84.3670897
   7.9672568  58.5379683  84.7736089   9.2763696  57.8441201  85.0845380
  10.9313280  68.2343269  86.3005162  10.8889459  68.4604115  85.3713694
  11.8475979  68.0006644  86.4490963  14.3778914  58.7027337  93.1985791
  14.7328302  58.9298810  94.0580257  15.0251045  59.0345713  92.5763046
  20.1076651  61.8245773  83.9035120  19.9694549  62.0147369  82.9756309
  19.7512870  62.5865155  84.3603171   8.2718777  55.8103868  89.9832132
   8.9118156  55.6692627  89.2855096   7.4396308  55.5238381  89.6070734
  20.1346030  63.8922300  88.9146392  20.5682537  63.7997589  89.7629446
  20.8477611  63.8679800  88.2766408   9.0479081  65.1106298  86.0967125
   9.8419679  64.6156618  85.8949700   8.3370773  64.5824161  85.7334830
  13.8673925  67.4924394  90.4479492  13.9210948  68.0615330  91.2157208
  12.9988707  67.6626279  90.0833529   5.3561844  59.2549380  82.1726877
   4.4259432  59.1933835  82.3896840   5.4519316  58.7325333  81.3763519
   5.2747393  55.7804193  84.7605119   5.5354211  56.6949526  84.6514280
   6.0964566  55.3128635  84.9101732   6.7472319  57.1941950  91.9303944
   7.4195372  56.9859312  91.2816592   5.9202105  56.9964036  91.4909176
  20.9961580  63.9346000  91.4479277  21.1897470  64.8391811  91.6938552
  20.8962198  63.4753419  92.2817862  12.6497891  53.8203891  93.9469604
  12.0025806  54.5193840  93.8534081  13.4198906  54.2540035  94.3145853
  16.0576689  64.0852743  97.0220158  15.9062195  63.8563295  96.1050241
  16.0481368  65.0423344  97.0351503  12.8262025  61.6584656  92.0066424
  13.7554085  61.8095815  91.8335391  12.4053055  61.7468677  91.1515071
  11.6250357  65.6835320  89.7764962  11.4861443  65.3154105  90.6490900
  10.8364953  66.1982960  89.6048920  12.2198509  70.7844417  81.1190498
  12.3950265  70.3132460  81.9336121  11.5331297  71.4110183  81.3471759
  13.1755572  65.0616923  87.1653800  12.8405405  65.0217693  88.0611449
  12.6759518  64.3961639  86.6924210   7.1499816  60.4684553  92.6906381
   7.0119614  59.7364792  93.2917920   8.0604739  60.3793453  92.4090568
  16.1114764  62.4072957  77.4390859  15.4943934  61.6819785  77.3423912
  15.6431252  63.1682317  77.0957933   9.7782117  60.1804512  92.1790060
  10.4881735  59.5397704  92.1376679   9.7351425  60.4317407  93.1016241
  17.7668895  67.1171866  95.0996640  17.7081442  66.4331086  94.4327223
  18.1688414  67.8590856  94.6477266   8.4911051  57.1669730  93.9985700
   7.9548408  56.7160469  94.6507296   7.9027759  57.3015639  93.2556164
   6.7859594  73.9333779  87.8930358   7.0256192  74.5652304  88.5709377
   5.9428791  73.5821819  88.1795718   7.9013310  56.6258381  76.5612163
   7.0242776  56.5047182  76.1974410   8.3771063  55.8344460  76.3091052
  17.7686303  65.0811449  93.3310619  16.8813081  64.7437371  93.4537018
  18.3384854  64.3494481  93.5679385   4.2250172  56.3025738  91.0838694
   4.1408361  55.6951407  90.3489104   3.4032878  56.7934756  91.0848191
  11.2987456  69.7412902  90.2971862  11.2257628  70.5467873  90.8091167
  10.8564849  69.9404868  89.4719884  11.0877236  68.9784672  83.8074684
  10.3044758  69.5206352  83.9012909  11.7869981  69.4958651  84.2068925
  14.3973886  54.7879301  86.4508889  14.8942585  54.0349264  86.1309960
  13.6260867  54.8243618  85.8852099  22.2503643  60.4919667  88.0927181
  22.2393519  61.3744382  87.7221114  21.3821023  60.1391218  87.8981718
  13.7586140  69.6399736  92.4530021  14.4714112  70.2747201  92.3805923
  13.2676168  69.7363602  91.6370023  15.4803666  63.5450989  84.0247313
  14.5459945  63.6652451  83.8552017  15.6580335  62.6423455  83.7607323
  10.9808855  56.9296684  86.1780574  10.6106642  56.3767725  86.8661480
  11.4767947  56.3254818  85.6255574  18.8676218  59.3868308  84.5597347
  19.3336670  60.2196299  84.4857650  19.3183718  58.9213289  85.2642605
   8.8098053  67.3894179  93.2735592   9.5107513  68.0230662  93.4264986
   8.3393168  67.7308911  92.5131231  16.9352449  65.7312129  81.5583499
  17.2112293  65.6168724  82.4677373  16.0656948  65.3329614  81.5195672
  16.8392881  51.7548895  88.5988248  15.9255960  51.9853122  88.7670455
  17.2685982  51.8387339  89.4502281  16.6099339  59.9438787  91.0988142
  15.9570789  60.1914694  90.4440595  16.9879719  59.1302925  90.7650620
  13.5706513  69.9798480  85.2016313  13.7528907  69.1620136  85.6644065
  14.3939499  70.1966172  84.7641203  13.9048678  68.9066665  82.4631361
  14.4336445  68.3959120  81.8501523  14.1676898  68.5909195  83.3276894
  12.6586912  60.6858598  97.5854179  11.9827549  60.5852727  98.2556555
  13.4814546  60.5297812  98.0490177   4.4065771  66.9230534  90.2066695
   4.9919208  66.1774222  90.3394599   4.2090610  67.2334491  91.0903359
   7.2604426  69.9581782  85.2229137   6.5914802  70.4427909  84.7393177
   7.1217296  70.2051002  86.1372516  11.4009695  71.9925525  91.8211795
  11.9528003  72.1557147  92.5860881  11.7415888  72.5829963  91.1491820
   6.3774188  54.3400675  92.4233680   6.4415515  55.2015506  92.0111078
   6.3141308  53.7274677  91.6906039   5.8526461  56.4123808  96.0706714
   6.4798500  56.0300885  96.6844239   4.9954380  56.1938010  96.4362407
  16.2520569  66.8186783  97.6760450  16.7960473  67.4316741  97.1815405
  15.6707414  67.3766361  98.1927463   2.6292003  58.2200237  82.0025069
   2.9245445  57.3110915  81.9492123   1.7280039  58.1987976  81.6806072
  14.5378082  69.9407501  88.8075478  14.4129222  69.1397241  88.2986423
  15.1957173  70.4353694  88.3189448   6.1586250  56.2956233  87.9852618
   5.4372836  56.9092201  87.8460091   6.9479506  56.8313998  87.9069264
  16.6012991  67.7416521  90.4355028  15.6543326  67.6221872  90.3633354
  16.9495764  66.8539019  90.5181289   8.9612564  53.6310660  94.2593270
   9.4846966  53.8772956  95.0219579   8.7424897  54.4630695  93.8396407
   4.3579845  55.9014334  82.1264394   4.0292551  55.0211713  81.9439500
   4.7119216  55.8462003  83.0140784  13.6059424  67.5369237  86.6359380
  13.4584386  66.6085945  86.8166950  14.4312917  67.5589328  86.1516455
   7.4721668  56.1887304  82.4939872   7.8117741  56.7173225  81.7718480
   7.9193789  56.5267710  83.2698439  17.2093546  68.3597796  87.7224253
  18.1340093  68.1540657  87.5848704  17.0408849  68.1114197  88.6313594
  10.1665109  54.5724355  91.9442940   9.8261929  53.7732168  92.3463620
   9.4604115  54.8726066  91.3719773  10.8181581  51.6573667  90.3970263
  11.6407650  51.1834146  90.2749153  11.0619644  52.4364151  90.8968949
   9.4589815  54.6861926  80.6933165  10.1798178  55.0643179  80.1896882
   8.8355119  55.4050803  80.7968143  13.6020938  55.3907075  81.6291497
  13.8184553  56.2731713  81.3280325  13.1215005  54.9993288  80.8997139
   8.3420160  58.3492788  88.2062242   8.1964740  58.6633091  89.0986523
   7.8645363  58.9677688  87.6533140  10.2016543  55.3395336  88.2543131
  10.1878111  54.4436429  87.9175429  10.9188971  55.3466000  88.8881417
  12.0542673  55.7732676  90.2996259  11.7960451  56.6949747  90.2980589
  11.5227714  55.3763111  90.9896723  16.9988862  68.8783463  83.0786344
  17.1725740  68.3129886  82.3260197  17.4917753  69.6784358  82.8965834
   2.8165822  60.8898132  91.1449903   2.2719290  61.6657940  91.2770177
   3.6945172  61.2368937  90.9869024   9.6053438  54.2209716  83.5230701
   9.7269350  53.2926362  83.7221589   9.3155481  54.2348402  82.6109017
  12.4744629  51.9064627  86.6597421  12.4966326  51.9703960  85.7049401
  12.8912688  51.0669135  86.8537927  22.8528253  61.6419886  84.6976644
  23.2959399  60.8927211  84.2995767  21.9754763  61.6330023  84.3150376
  17.9864034  68.1950228  80.1783242  18.6814939  68.8156920  80.3970557
  18.3287185  67.3445579  80.4535620   3.6031844  60.0168029  94.0380060
   2.8613580  60.1650664  94.6244690   3.2824588  60.2776294  93.1746809
  19.8855458  65.6449933  81.7070573  20.4106782  65.9837206  80.9819893
  19.7977810  64.7096949  81.5233708  11.5475506  69.5584007  93.8360450
  11.8562633  69.3133154  94.7083149  12.3450988  69.7630645  93.3479320
  11.5696118  71.7121916  86.0665826  11.1301109  71.2198295  86.7598683
  12.3204235  71.1694884  85.8257902   4.0488457  67.9033457  86.0690454
   4.8746477  67.6037229  85.6889098   3.6982509  67.1341080  86.5180243
   9.0169990  67.2559926  88.1388128   8.3950000  66.5930631  87.8390356
   9.6874857  67.2821057  87.4561776   2.2497062  65.8219784  87.0279388
   1.4128971  65.3941958  86.8463389   2.2220708  66.0152227  87.9650179
   9.0894518  55.7341714  97.7320634   9.1382673  56.6103836  97.3498404
   9.6317032  55.1919107  97.1592277  19.5749364  66.2782837  97.0121771
  18.7844907  66.2606976  96.4726270  19.3382718  66.8171131  97.7670808
  19.6947239  63.1275303  94.3254500  19.7445244  62.9625311  95.2670022
  19.5861162  62.2602562  93.9352380   8.5783497  65.8063849  81.6146589
   8.7271618  66.4899313  80.9613261   9.3849941  65.7868939  82.1296044
  16.9851001  59.1106231  95.6413806  17.8860864  58.9712696  95.3497804
  17.0598976  59.2760686  96.5811984  11.3193806  56.4873086  94.4866993
  10.4497116  56.7806652  94.2149581  11.5553287  57.0713531  95.2074256
  21.1965436  65.5472245  94.5696521  20.9050244  65.9102225  95.4059982
  20.5837567  64.8339253  94.3909853  22.3961118  63.1125125  87.0899091
  23.2308009  63.5514929  87.2536652  22.5320247  62.6363778  86.2707337
  19.4452624  60.6704859  93.0376579  19.9206745  60.8632506  92.2295431
  18.5218189  60.7264045  92.7919963   6.3336130  61.8329027  82.6207657
   6.0882172  60.9291357  82.8187868   6.5032045  61.8346177  81.6787135
  14.0232840  52.7052703  92.0032413  14.5414784  53.4413730  91.6778902
  13.6687973  53.0116696  92.8379172   5.6031778  57.5657384  80.1193819
   4.9101023  57.6401739  79.4633855   5.3583530  56.8017728  80.6415336
  14.2745434  49.1252985  87.5233310  14.5547188  48.4576175  88.1493736
  15.0596041  49.3182081  87.0107973  12.0778903  68.3011979  79.0858336
  11.5052870  68.9202166  78.6328808  12.6511697  68.8511341  79.6198258
  18.1454293  57.5470619  91.2704885  19.0971716  57.6468717  91.2917109
  17.9757743  56.7548888  91.7802969  16.1668672  54.6326203  91.4564286
  15.5718604  54.9131215  90.7610774  15.8818369  55.1220104  92.2281027
  15.2976163  68.5849129  80.2166918  16.2306836  68.5194691  80.4199794
  15.2099376  69.4205396  79.7581451  17.9264179  67.9015000  77.1770866
  17.8477811  67.5674863  78.0706624  18.7473846  68.3936768  77.1762338
  20.6242371  60.7676739  90.3847184  20.5918691  59.8292740  90.5706868
  21.2342994  60.8460776  89.6513009  12.4625701  59.6372792  76.4274388
  13.4084806  59.5079000  76.4962806  12.0839946  58.8987454  76.9043817
  20.7736859  57.5587783  90.4305468  20.2575908  56.7746239  90.2435396
  21.6576808  57.2306499  90.5951987  18.4347586  51.3028798  86.3901280
  18.2372407  50.9943886  87.2744612  19.0447292  52.0290437  86.5199210
  26.4418920  61.8292746  89.5253221  27.1722309  61.5678034  90.0860925
  25.8325866  61.0921468  89.5655289  24.5234218  59.9700609  90.1227672
  23.7967381  59.8356574  89.5144164  24.1081504  60.2777437  90.9284390
  12.3464394  63.6890538  97.8875045  13.2667403  63.8669137  98.0815092
  12.3113977  62.7446584  97.7354745  10.6468619  57.5622769  76.3629274
   9.7400074  57.2655881  76.4391987  10.9244600  57.2652587  75.4963560
   1.5646559  58.8829132  86.8128320   1.2449343  58.0294440  86.5202694
   1.0179987  59.0977710  87.5686287   5.3426467  61.5991573  90.5297827
   5.5612476  62.5308681  90.5485860   5.7552240  61.2399547  91.3152630
  12.2630684  52.1059658  82.5173515  11.4531413  51.7606743  82.8928761
  12.9515101  51.7967202  83.1061127  14.1921233  51.1837705  84.1397812
  14.7452271  51.6033158  84.7987835  14.4291319  50.2573453  84.1820768
  10.2154332  57.1724779  99.9200575  10.1151059  58.1219136  99.8512667
   9.9975874  56.8443018  99.0476646   9.4167403  54.4209704  76.5041253
  10.2786567  54.7464602  76.7637070   9.6017747  53.6341200  75.9914319
   1.4334819  62.5032043  88.7821442   0.7398290  62.0885996  88.2691396
   2.1807810  62.5452580  88.1854861  17.5700040  53.2938230  83.6476476
  16.9898709  53.9523034  83.2654528  17.3035972  52.4715575  83.2363893
  16.0203606  52.6943288  85.8497796  16.5203384  52.8059822  85.0412115
  16.6639214  52.3904341  86.4898605  10.0785602  60.6021918  98.7365637
   9.5952684  61.4022278  98.9429526  10.1646541  60.6129862  97.7833081
   3.3471561  62.4350297  86.6587457   3.3242250  62.5337984  85.7069340
   3.6572198  63.2815448  86.9804623   6.0058939  64.4926452  90.7734071
   6.9602193  64.4610395  90.7064002   5.8071463  64.0317076  91.5884297
   6.5958321  63.0627568  93.3404869   7.4151210  63.5571647  93.3639706
   6.8695129  62.1459536  93.3122436  16.3524918  55.4538321  82.7032824
  15.4650773  55.7387971  82.4853019  16.7678907  55.2932084  81.8560101
  19.7039454  55.4784842  86.4187163  20.4799844  55.9681294  86.6911780
  18.9787588  55.9042896  86.8759033  22.1412012  56.1912461  87.4761104
  22.7356503  55.9508197  86.7654412  22.2138596  55.4719591  88.1034640
   4.3609168  70.0346072  87.7904269   4.2263636  69.2746473  87.2242267
   3.9441230  70.7586972  87.3233058  15.4968131  65.2182995  76.7980844
  16.2003981  65.4232998  77.4138500  14.7730780  65.7859757  77.0629928
  16.3265941  60.9692856  82.9183114  16.2701143  61.4261408  82.0790747
  16.8794284  60.2083541  82.7405957  20.1370747  56.7582588  83.7433234
  19.8807682  56.3579224  84.5741441  19.5123615  57.4726382  83.6183373
  24.4483085  59.4978662  86.2504525  23.8882643  59.5671851  87.0236087
  23.8426589  59.3219646  85.5304021   7.5178294  70.9315389  88.0022711
   7.4010678  71.8760821  87.9001402   6.6970740  70.6288950  88.3908511
  17.4054829  65.6565524  78.8479304  18.2400432  65.2246723  78.6656779
  17.2439171  65.4847538  79.7756199  17.0600721  62.1597638  80.2135643
  17.0049525  61.9941909  79.2724088  16.4346776  62.8673671  80.3697833
   1.8493236  57.3965702  94.0397066   2.4952099  56.8864656  94.5284291
   1.6410387  58.1334384  94.6140491  14.3746628  64.4646550  99.5389206
  15.2437788  64.6387202  99.1775841  13.8953379  65.2840966  99.4164936
  10.3696846  51.6605747  79.7920962  10.3575516  52.6047587  79.9489233
  11.2620268  51.4775892  79.4980423   8.5432808  71.5843651  91.2178640
   9.4460055  71.6167261  91.5345135   8.3170178  70.6544102  91.2324976
  10.2986410  70.3374637  87.8788718   9.3482041  70.3376499  87.7653091
  10.6018896  69.5907372  87.3624753  14.1848966  48.2548523  84.0466899
  13.4181361  47.7007010  84.1923581  14.5959671  48.3270392  84.9081050
   6.1890727  54.5433319  98.1372080   7.0522188  54.1870124  98.3475404
   5.6156137  54.2047214  98.8247484  26.0339104  76.1735176  88.9434481
  26.6717514  76.0541923  88.2397821  25.9159947  77.1216020  89.0022433
  22.8428810  76.1262604  88.8796006  22.5047321  76.0103668  87.9916540
  23.7118578  75.7253769  88.8597012  18.7015626  77.9798080  84.8692897
  18.1380491  77.8888017  84.1009184  18.5868021  77.1597985  85.3495389
  23.3248593  77.2797455  94.8382211  23.3137234  76.8850254  93.9662715
  23.4869232  76.5463528  95.4315983  16.2480058  79.4749272  87.7077117
  17.0401349  79.1340096  87.2923416  16.4876708  79.5844247  88.6279270
  24.2815184  81.6469048  80.1807361  23.6303164  82.2323128  79.7941375
  25.0759547  82.1775243  80.2402399  18.2070811  78.7358185  80.5794496
  18.9801687  78.1887172  80.4407372  18.5596210  79.6002434  80.7908957
  20.0455854  80.0634567  93.7861395  19.7545720  80.9680198  93.6708061
  20.6812838  80.1051095  94.5005465  20.9712061  77.4411416  90.3762755
  21.5675633  77.2167438  89.6619718  21.0287032  76.6996161  90.9788203
  20.5437089  74.8950851  78.2112946  20.7962610  74.3732372  77.4496409
  19.6061648  74.7316996  78.3139629  25.5880372  73.8986629  86.0187689
  26.3743461  73.4806053  85.6678106  25.8519076  74.8032722  86.1869337
  25.7590449  79.3359480  80.7176346  25.1236282  79.4094106  81.4297250
  25.4287856  79.9253079  80.0395425  20.2633378  76.7978957  80.4137321
  20.1469636  76.1223860  81.0818405  20.3735638  76.3111331  79.5969474
  22.6064919  76.2589104  84.1184010  22.2423126  75.7319725  84.8296931
  23.4632035  75.8687573  83.9450495  22.2470406  71.2879004  79.1145358
  22.4144808  72.1559240  79.4815829  22.0567575  71.4506285  78.1906648
  25.0045739  79.7495983  90.7811189  24.7046462  80.6521022  90.6726996
  24.6596799  79.4828166  91.6332342  18.4558221  76.2009780  86.8147893
  17.5308717  76.0685994  87.0225585  18.7042634  76.9803999  87.3117836
  22.2259627  73.7436661  80.0992025  22.1059252  74.1893712  80.9377506
  21.5312215  74.0921979  79.5405563  15.8167032  75.8443053  87.6491682
  15.9459413  76.0977532  88.5631094  15.1364483  76.4370761  87.3296337
  19.9866519  86.5140303  83.7482156  19.9090549  87.4648128  83.8270637
  19.3828163  86.1686176  84.4057083  22.4783749  73.6868168  96.4043523
  21.7017083  74.2462089  96.3946388  23.1174312  74.1724951  96.9258393
  27.9244693  74.2158134  80.9272359  28.8362549  74.4485521  80.7520057
  27.4154340  74.7995179  80.3647438  20.7330121  76.4953622  95.9661490
  21.4744805  77.0338666  95.6896314  20.0267106  77.1219911  96.1233042
  26.2085461  78.6382762  94.5633652  26.6168817  78.1965173  93.8188284
  25.4862722  78.0635390  94.8167845  22.5616531  73.5755369  91.9367209
  23.4077726  73.9994783  92.0801858  22.5015168  72.9188993  92.6305772
  26.5314275  79.1983953  88.3185941  25.9023138  79.3629667  87.6162009
  26.1439937  79.6125562  89.0896905  30.4103507  80.1338391  85.6730305
  29.7254545  80.5137292  85.1227338  30.4947357  80.7433717  86.4062252
  27.6654439  77.7798350  92.2725648  27.8771334  78.4230110  91.5960029
  27.6184187  76.9460666  91.8047578  25.2680668  70.3916170  89.1762220
  24.4065147  70.6897424  89.4678958  25.2943102  70.6086569  88.2443253
  22.0842237  78.9358361  85.5836026  22.5480583  79.2146064  84.7940648
  21.8199035  78.0341806  85.4009117  18.9766318  78.4829843  88.5215789
  19.5467675  78.9117111  87.8833274  19.5674430  78.2012427  89.2199975
  21.0211123  75.0581513  82.3925591  21.7235167  75.5102557  82.8599517
  20.6891752  74.4165332  83.0205484  19.4691485  73.6493270  96.7676800
  18.8390145  74.3309551  97.0012197  19.3627573  73.5376352  95.8229939
  14.7636457  73.3165066  87.6942725  13.9735511  73.5722595  87.2182835
  15.2547705  74.1313404  87.7994765  28.7800267  80.6570305  90.4448005
  29.6017710  80.2550492  90.1630687  28.7762670  80.5538539  91.3964121
  16.7151203  73.6809645  84.6526201  15.9182366  73.7928340  85.1709697
  16.4876795  74.0196298  83.7867092  22.5456870  80.2054349  92.6008716
  22.6101303  80.6674756  93.4366888  21.8367794  79.5751713  92.7291026
  13.0474160  73.5695556  90.1257715  13.2982199  74.4542566  90.3915291
  13.5833709  73.3900158  89.3532807  22.2604888  81.8722456  82.4687696
  22.1250563  82.7173992  82.8972544  22.8014700  82.0741734  81.7053630
  18.7472228  67.9514036  99.1302051  18.3539173  67.3980234  99.8049696
  19.5638368  68.2624614  99.5208569  15.7134285  79.3897894  83.0415621
  16.2258806  80.1841144  83.1921186  16.3656998  78.6924184  82.9749223
  17.5229170  82.5063650  85.1238374  17.6995798  83.4281615  84.9359358
  18.3186003  82.1922070  85.5532754  21.6640188  69.3671915  96.7222308
  22.4049902  69.9679068  96.6426770  21.8958111  68.6249553  96.1640351
  16.8081527  74.5528282  95.0000538  16.6935042  73.6513539  95.3007637
  15.9526044  74.7991979  94.6485354  23.8873364  82.4946023  96.5988038
  23.4437218  81.7082401  96.2808943  24.5490578  82.6825173  95.9331929
  18.6460485  84.0241824  91.1248717  19.1967911  83.8958887  90.3525711
  17.8071961  84.3236713  90.7743610  25.9854602  82.7748822  94.6269440
  25.9673078  83.5957703  94.1349709  26.9074522  82.6502898  94.8519581
  22.4427656  80.2892952  95.4692948  22.9755993  79.5281240  95.2392256
  21.9141738  79.9966604  96.2117102  25.6097351  65.3953018  90.9986590
  25.2661621  66.2854660  90.9225700  25.9776314  65.2054676  90.1356175
  13.6783202  77.7186548  83.8175192  14.5158424  78.1283557  83.6008900
  13.8561470  76.7785990  83.7875386  25.5747634  75.3861629  79.5059025
  25.0594258  76.1566234  79.7447412  25.3024943  74.7126765  80.1292086
  23.1594745  70.2311330  84.5644263  22.3036342  69.8418180  84.3849902
  23.5721697  70.3103291  83.7044049  24.6893892  67.7657673  88.9635823
  24.1858687  67.7287808  88.1503628  24.9824499  68.6750416  89.0232480
  20.9336778  67.8496403  87.9702005  21.7989774  67.6539211  87.6107894
  21.0014287  67.6206755  88.8971361  30.5481908  78.1393984  81.4412198
  29.7711351  77.8005143  80.9967360  31.2273389  78.1446607  80.7667163
  25.3633937  73.2588721  81.3318806  25.0584073  73.5734870  82.1828949
  26.3164379  73.3370141  81.3746139  23.8080369  79.4178944  82.9811760
  23.2801731  78.6831704  82.6684997  23.3067872  80.1953621  82.7351728
  28.7873215  77.6127965  88.0978806  28.1296890  78.3027226  88.1858935
  29.5913614  78.0024397  88.4412793  18.5399097  70.0798611  85.3418371
  19.1142849  69.8573792  84.6091564  19.1270079  70.1487305  86.0946973
  27.5978674  75.9672338  86.1482748  28.1110556  76.6002329  86.6504458
  28.2479898  75.3673533  85.7826108  18.8668684  72.1103072  79.3614257
  18.0305996  72.4477758  79.6823531  18.7273454  71.9752052  78.4241394
  20.8421764  66.9539860  84.0693441  20.1886177  66.6388877  83.4450056
  20.8002239  66.3315600  84.7953264  21.9532969  77.2359155  75.9846733
  21.0460031  77.0048408  76.1837882  22.4504001  76.4396774  76.1720715
  24.8601048  85.9456662  78.9043419  24.1862747  86.2488359  79.5128377
  25.2466870  86.7485742  78.5548876  24.0759505  73.4421793  88.3941089
  23.1582066  73.6636740  88.2362777  24.4919648  73.5168104  87.5352796
  24.8594553  74.8413209  83.5243769  25.6066372  75.3534606  83.2150891
  25.1286142  74.5197262  84.3848162  23.1321203  77.3371750  80.5070723
  22.2232422  77.0530782  80.6043193  23.1616287  77.7570828  79.6474030
  28.3640470  80.9478339  84.2761891  27.9102797  80.1069249  84.3327081
  27.7334437  81.5839737  84.6136671  27.3073390  71.8770325  85.5062558
  26.5696147  71.3647711  85.8372801  27.5600163  71.4370707  84.6945835
  26.8073409  82.7854836  85.2111709  27.0996384  83.3459893  84.4924074
  27.3172030  83.0783397  85.9664868  27.4085017  64.6546577  86.1004327
  27.7143894  63.7943940  85.8130242  28.1337622  65.2464197  85.9003321
  13.7009373  75.0577264  84.4885925  13.5033773  74.4646624  83.7636992
  13.1456037  74.7529474  85.2061864  21.6806097  74.9500370  86.6080518
  21.7354707  73.9974207  86.5322995  20.8697299  75.1059809  87.0921817
  22.8297291  78.8780493  77.8458802  22.3916721  78.1616352  77.3864439
  23.5707731  79.1056608  77.2843893  19.6198457  73.5677430  84.3670897
  18.8066322  73.8671600  84.7736089  20.1157451  73.1733119  85.0845380
  21.7707035  83.5635187  86.3005162  21.7283213  83.7896033  85.3713694
  22.6869733  83.3298561  86.4490963  25.2172668  74.0319254  93.1985791
  25.5722056  74.2590727  94.0580257  25.8644800  74.3637631  92.5763046
  30.9470405  77.1537690  83.9035120  30.8088304  77.3439286  82.9756309
  30.5906624  77.9157073  84.3603171  19.1112532  71.1395785  89.9832132
  19.7511911  70.9984544  89.2855096  18.2790062  70.8530299  89.6070734
  19.8872835  80.4398216  86.0967125  20.6813434  79.9448536  85.8949700
  19.1764528  79.9116079  85.7334830  24.7067680  82.8216311  90.4479492
  24.7604702  83.3907248  91.2157208  23.8382461  82.9918196  90.0833529
  16.1955599  74.5841298  82.1726877  15.2653187  74.5225753  82.3896840
  16.2913071  74.0617250  81.3763519  16.1141148  71.1096110  84.7605119
  16.3747965  72.0241444  84.6514280  16.9358320  70.6420553  84.9101732
  17.5866073  72.5233868  91.9303944  18.2589127  72.3151230  91.2816592
  16.7595860  72.3255954  91.4909176  23.4891645  69.1495808  93.9469604
  22.8419560  69.8485758  93.8534081  24.2592661  69.5831952  94.3145853
  26.8970443  79.4144661  97.0220158  26.7455950  79.1855212  96.1050241
  26.8875123  80.3715262  97.0351503  23.6655780  76.9876573  92.0066424
  24.5947840  77.1387733  91.8335391  23.2446810  77.0760594  91.1515071
  22.4644111  81.0127238  89.7764962  22.3255197  80.6446022  90.6490900
  21.6758708  81.5274877  89.6048920  23.0592263  86.1136334  81.1190498
  23.2344019  85.6424377  81.9336121  22.3725051  86.7402100  81.3471759
  24.0149327  80.3908840  87.1653800  23.6799159  80.3509610  88.0611449
  23.5153272  79.7253556  86.6924210  17.9893571  75.7976471  92.6906381
  17.8513368  75.0656709  93.2917920  18.8998494  75.7085371  92.4090568
  26.9508518  77.7364875  77.4390859  26.3337689  77.0111703  77.3423912
  26.4825007  78.4974235  77.0957933  20.6175871  75.5096430  92.1790060
  21.3275490  74.8689622  92.1376679  20.5745179  75.7609325  93.1016241
  28.6062650  82.4463783  95.0996640  28.5475196  81.7623003  94.4327223
  29.0082168  83.1882773  94.6477266  19.3304805  72.4961648  93.9985700
  18.7942162  72.0452386  94.6507296  18.7421514  72.6307557  93.2556164
  17.6253349  89.2625697  87.8930358  17.8649947  89.8944221  88.5709377
  16.7822545  88.9113737  88.1795718  18.7407064  71.9550299  76.5612163
  17.8636530  71.8339100  76.1974410  19.2164817  71.1636377  76.3091052
  28.6080057  80.4103367  93.3310619  27.7206836  80.0729289  93.4537018
  29.1778608  79.6786398  93.5679385  10.2609204  76.7427459  86.6553671
  10.9480244  76.4289189  86.0674686  10.1057333  77.6468824  86.3820922
  15.0643926  71.6317655  91.0838694  14.9802115  71.0243325  90.3489104
  14.2426633  72.1226674  91.0848191  22.1381211  85.0704819  90.2971862
  22.0651382  85.8759791  90.8091167  21.6958604  85.2696785  89.4719884
  21.9270990  84.3076590  83.8074684  21.1438512  84.8498270  83.9012909
  22.6263735  84.8250569  84.2068925  25.2367640  70.1171219  86.4508889
  25.7336340  69.3641181  86.1309960  24.4654622  70.1535536  85.8852099
  24.5979894  84.9691654  92.4530021  25.3107866  85.6039118  92.3805923
  24.1069923  85.0655520  91.6370023  26.3197421  78.8742906  84.0247313
  25.3853700  78.9944369  83.8552017  26.4974089  77.9715373  83.7607323
  21.8202609  72.2588602  86.1780574  21.4500397  71.7059642  86.8661480
  22.3161701  71.6546735  85.6255574  29.7069972  74.7160225  84.5597347
  30.1730425  75.5488217  84.4857650  30.1577473  74.2505207  85.2642605
  19.6491808  82.7186097  93.2735592  20.3501267  83.3522580  93.4264986
  19.1786923  83.0600829  92.5131231  27.7746203  81.0604047  81.5583499
  28.0506047  80.9460641  82.4677373  26.9050702  80.6621532  81.5195672
  27.6786635  67.0840812  88.5988248  26.7649715  67.3145039  88.7670455
  28.1079737  67.1679257  89.4502281  24.4100267  85.3090398  85.2016313
  24.5922662  84.4912054  85.6644065  25.2333253  85.5258090  84.7641203
  24.7442433  84.2358583  82.4631361  25.2730199  83.7251037  81.8501523
  25.0070653  83.9201113  83.3276894  23.4980667  76.0150515  97.5854179
  22.8221304  75.9144645  98.2556555  24.3208300  75.8589729  98.0490177
  15.2459526  82.2522452  90.2066695  15.8312962  81.5066140  90.3394599
  15.0484364  82.5626409  91.0903359  18.0998181  85.2873699  85.2229137
  17.4308556  85.7719827  84.7393177  17.9611051  85.5342920  86.1372516
   9.8377180  74.8228052  88.9271138   9.8761280  74.2891643  89.7208256
   9.3317473  74.2963258  88.3082115  22.2403449  87.3217443  91.8211795
  22.7921757  87.4849064  92.5860881  22.5809643  87.9121881  91.1491820
  17.2167943  69.6692593  92.4233680  17.2809269  70.5307424  92.0111078
  17.1535063  69.0566594  91.6906039  16.6920215  71.7415725  96.0706714
  17.3192254  71.3592803  96.6844239  15.8348134  71.5229927  96.4362407
  27.0914324  82.1478700  97.6760450  27.6354228  82.7608659  97.1815405
  26.5101169  82.7058279  98.1927463  13.4685758  73.5492154  82.0025069
  13.7639199  72.6402833  81.9492123  12.5673794  73.5279894  81.6806072
  25.3771837  85.2699418  88.8075478  25.2522976  84.4689158  88.2986423
  26.0350928  85.7645612  88.3189448  16.9980005  71.6248151  87.9852618
  16.2766591  72.2384119  87.8460091  17.7873261  72.1605916  87.9069264
  27.4406745  83.0708439  90.4355028  26.4937081  82.9513790  90.3633354
  27.7889518  82.1830937  90.5181289  19.8006318  68.9602577  94.2593270
  20.3240720  69.2064874  95.0219579  19.5818652  69.7922612  93.8396407
  15.1973600  71.2306252  82.1264394  14.8686306  70.3503631  81.9439500
  15.5512970  71.1753921  83.0140784  24.4453178  82.8661155  86.6359380
  24.2978141  81.9377862  86.8166950  25.2706672  82.8881245  86.1516455
  18.3115423  71.5179222  82.4939872  18.6511495  72.0465143  81.7718480
  18.7587543  71.8559628  83.2698439  28.0487300  83.6889713  87.7224253
  28.9733848  83.4832575  87.5848704  27.8802604  83.4406115  88.6313594
  21.0058864  69.9016273  91.9442940  20.6655684  69.1024086  92.3463620
  20.2997870  70.2017983  91.3719773  21.6575335  66.9865585  90.3970263
  22.4801405  66.5126063  90.2749153  21.9013399  67.7656069  90.8968949
  20.2983570  70.0153843  80.6933165  21.0191932  70.3935096  80.1896882
  19.6748874  70.7342720  80.7968143  24.4414693  70.7198992  81.6291497
  24.6578307  71.6023630  81.3280325  23.9608760  70.3285206  80.8997139
  19.1813914  73.6784706  88.2062242  19.0358495  73.9925009  89.0986523
  18.7039118  74.2969606  87.6533140  21.0410297  70.6687254  88.2543131
  21.0271866  69.7728347  87.9175429  21.7582725  70.6757917  88.8881417
  22.8936428  71.1024594  90.2996259  22.6354206  72.0241664  90.2980589
  22.3621468  70.7055028  90.9896723  27.8382616  84.2075381  83.0786344
  28.0119494  83.6421803  82.3260197  28.3311508  85.0076276  82.8965834
  13.6559576  76.2190050  91.1449903  13.1113044  76.9949858  91.2770177
  14.5338926  76.5660855  90.9869024  20.4447193  69.5501634  83.5230701
  20.5663104  68.6218280  83.7221589  20.1549235  69.5640320  82.6109017
  23.3138383  67.2356544  86.6597421  23.3360080  67.2995877  85.7049401
  23.7306442  66.3961053  86.8537927  33.6922008  76.9711804  84.6976644
  34.1353154  76.2219129  84.2995767  32.8148518  76.9621940  84.3150376
  28.8257789  83.5242145  80.1783242  29.5208694  84.1448838  80.3970557
  29.1680939  82.6737497  80.4535620  14.4425598  75.3459946  94.0380060
  13.7007334  75.4942582  94.6244690  14.1218342  75.6068212  93.1746809
  30.7249212  80.9741851  81.7070573  31.2500536  81.3129124  80.9819893
  30.6371565  80.0388866  81.5233708  22.3869261  84.8875925  93.8360450
  22.6956387  84.6425071  94.7083149  23.1844743  85.0922563  93.3479320
  22.4089873  87.0413834  86.0665826  21.9694863  86.5490213  86.7598683
  23.1597990  86.4986802  85.8257902  14.8882212  83.2325375  86.0690454
  15.7140232  82.9329147  85.6889098  14.5376264  82.4632997  86.5180243
  19.8563745  82.5851843  88.1388128  19.2343754  81.9222548  87.8390356
  20.5268612  82.6112975  87.4561776  13.0890817  81.1511701  87.0279388
  12.2522725  80.7233876  86.8463389  13.0614462  81.3444145  87.9650179
  19.9288272  71.0633631  97.7320634  19.9776428  71.9395754  97.3498404
  20.4710787  70.5211024  97.1592277  19.4177252  81.1355767  81.6146589
  19.5665372  81.8191231  80.9613261  20.2243695  81.1160857  82.1296044
  22.1587561  71.8165004  94.4866993  21.2890870  72.1098570  94.2149581
  22.3947041  72.4005449  95.2074256  33.2354872  78.4417042  87.0899091
  34.0701764  78.8806846  87.2536652  33.3714001  77.9655695  86.2707337
  17.1729885  77.1620944  82.6207657  16.9275927  76.2583274  82.8187868
  17.3425799  77.1638095  81.6787135  24.8626595  68.0344621  92.0032413
  25.3808539  68.7705648  91.6778902  24.5081728  68.3408614  92.8379172
  16.4425532  72.8949302  80.1193819  15.7494777  72.9693657  79.4633855
  16.1977284  72.1309645  80.6415336  25.1139189  64.4544903  87.5233310
  25.3940943  63.7868092  88.1493736  25.8989796  64.6473999  87.0107973
  22.9172657  83.6303897  79.0858336  22.3446624  84.2494084  78.6328808
  23.4905451  84.1803259  79.6198258  26.1369917  83.9141047  80.2166918
  27.0700590  83.8486609  80.4199794  26.0493130  84.7497314  79.7581451
  28.7657934  83.2306918  77.1770866  28.6871565  82.8966781  78.0706624
  29.5867601  83.7228685  77.1762338  23.3019456  74.9664710  76.4274388
  24.2478561  74.8370918  76.4962806  22.9233701  74.2279372  76.9043817
  29.2741340  66.6320716  86.3901280  29.0766162  66.3235804  87.2744612
  29.8841046  67.3582355  86.5199210  23.1858148  79.0182456  97.8875045
  24.1061158  79.1961055  98.0815092  23.1507731  78.0738501  97.7354745
  21.4862373  72.8914686  76.3629274  20.5793828  72.5947799  76.4391987
  21.7638354  72.5944504  75.4963560  12.4040313  74.2121050  86.8128320
  12.0843098  73.3586358  86.5202694  11.8573742  74.4269628  87.5686287
  16.1820221  76.9283491  90.5297827  16.4006231  77.8600598  90.5485860
  16.5945995  76.5691465  91.3152630  23.1024439  67.4351576  82.5173515
  22.2925167  67.0898661  82.8928761  23.7908856  67.1259120  83.1061127
  25.0314987  66.5129623  84.1397812  25.5846026  66.9325076  84.7987835
  25.2685073  65.5865371  84.1820768  21.0548086  72.5016696  99.9200575
  20.9544813  73.4511053  99.8512667  20.8369628  72.1734935  99.0476646
  20.2561158  69.7501621  76.5041253  21.1180322  70.0756520  76.7637070
  20.4411502  68.9633117  75.9914319  12.2728573  77.8323961  88.7821442
  11.5792045  77.4177914  88.2691396  13.0201564  77.8744498  88.1854861
  28.4093794  68.6230148  83.6476476  27.8292463  69.2814952  83.2654528
  28.1429727  67.8007492  83.2363893  26.8597361  68.0235206  85.8497796
  27.3597139  68.1351740  85.0412115  27.5032968  67.7196258  86.4898605
  20.9179356  75.9313835  98.7365637  20.4346438  76.7314195  98.9429526
  21.0040295  75.9421780  97.7833081  14.1865316  77.7642215  86.6587457
  14.1636004  77.8629902  85.7069340  14.4965952  78.6107366  86.9804623
  16.8452694  79.8218370  90.7734071  17.7995947  79.7902312  90.7064002
  16.6465217  79.3608994  91.5884297  17.4352076  78.3919486  93.3404869
  18.2544965  78.8863565  93.3639706  17.7088884  77.4751454  93.3122436
  27.1918672  70.7830238  82.7032824  26.3044527  71.0679889  82.4853019
  27.6072661  70.6224002  81.8560101  15.2002923  85.3637989  87.7904269
  15.0657391  84.6038390  87.2242267  14.7834985  86.0878889  87.3233058
  26.3361886  80.5474913  76.7980844  27.0397736  80.7524915  77.4138500
  25.6124534  81.1151675  77.0629928  27.1659696  76.2984774  82.9183114
  27.1094897  76.7553326  82.0790747  27.7188038  75.5375459  82.7405957
  30.9764502  72.0874506  83.7433234  30.7201436  71.6871142  84.5741441
  30.3517370  72.8018300  83.6183373  18.3572049  86.2607306  88.0022711
  18.2404433  87.2052739  87.9001402  17.5364495  85.9580868  88.3908511
  28.2448583  80.9857442  78.8479304  29.0794187  80.5538641  78.6656779
  28.0832926  80.8139456  79.7756199  27.8994475  77.4889555  80.2135643
  27.8443279  77.3233827  79.2724088  27.2740531  78.1965588  80.3697833
  12.6886990  72.7257620  94.0397066  13.3345854  72.2156574  94.5284291
  12.4804141  73.4626301  94.6140491  25.2140382  79.7938467  99.5389206
  26.0831542  79.9679120  99.1775841  24.7347134  80.6132884  99.4164936
  21.2090601  66.9897664  79.7920962  21.1969271  67.9339504  79.9489233
  22.1014023  66.8067810  79.4980423  19.3826563  86.9135568  91.2178640
  20.2853809  86.9459179  91.5345135  19.1563933  85.9836019  91.2324976
  21.1380165  85.6666555  87.8788718  20.1875796  85.6668416  87.7653091
  21.4412651  84.9199289  87.3624753  25.0242720  63.5840441  84.0466899
  24.2575116  63.0298928  84.1923581  25.4353425  63.6562310  84.9081050
  17.0284481  69.8725237  98.1372080  17.8915943  69.5162042  98.3475404
  16.4549892  69.5339132  98.8247484  36.8732858  91.5027093  88.9434481
  37.5111268  91.3833841  88.2397821  36.7553701  92.4507937  89.0022433
  33.6822564  91.4554521  88.8796006  33.3441076  91.3395586  87.9916540
  34.5512333  91.0545686  88.8597012  29.5409380  93.3089998  84.8692897
  28.9774245  93.2179935  84.1009184  29.4261775  92.4889902  85.3495389
  34.1642347  92.6089373  94.8382211  34.1530988  92.2142171  93.9662715
  34.3262987  91.8755446  95.4315983  27.0873812  94.8041189  87.7077117
  27.8795104  94.4632014  87.2923416  27.3270462  94.9136164  88.6279270
  35.1208939  96.9760965  80.1807361  34.4696919  97.5615046  79.7941375
  35.9153302  97.5067160  80.2402399  29.0464566  94.0650103  80.5794496
  29.8195442  93.5179090  80.4407372  29.3989965  94.9294352  80.7908957
  30.8849609  95.3926485  93.7861395  30.5939475  96.2972116  93.6708061
  31.5206593  95.4343012  94.5005465  31.8105815  92.7703333  90.3762755
  32.4069388  92.5459356  89.6619718  31.8680787  92.0288079  90.9788203
  31.3830844  90.2242769  78.2112946  31.6356364  89.7024290  77.4496409
  30.4455403  90.0608914  78.3139629  36.4274127  89.2278547  86.0187689
  37.2137216  88.8097970  85.6678106  36.6912831  90.1324639  86.1869337
  36.5984204  94.6651397  80.7176346  35.9630037  94.7386024  81.4297250
  36.2681610  95.2544996  80.0395425  41.8282554  89.1653780  86.9220667
  42.5607726  88.5952997  87.1558497  41.0721909  88.7775381  87.3627173
  31.1027133  92.1270875  80.4137321  30.9863391  91.4515778  81.0818405
  31.2129392  91.6403249  79.5969474  33.4458673  91.5881022  84.1184010
  33.0816881  91.0611643  84.8296931  34.3025789  91.1979491  83.9450495
  39.3507974  82.8775354  91.3815276  39.0191299  83.7470765  91.1576491
  38.7553587  82.5611638  92.0609306  33.0864160  86.6170921  79.1145358
  33.2538563  87.4851158  79.4815829  32.8961330  86.7798203  78.1906648
  35.8439494  95.0787900  90.7811189  35.5440217  95.9812939  90.6726996
  35.4990553  94.8120084  91.6332342  29.2951975  91.5301697  86.8147893
  28.3702472  91.3977911  87.0225585  29.5436388  92.3095916  87.3117836
  39.2436637  87.5970441  88.4608626  38.3353515  87.5285849  88.1667387
  39.1924233  88.0742385  89.2890452  33.0653381  89.0728579  80.0992025
  32.9453007  89.5185630  80.9377506  32.3705970  89.4213897  79.5405563
  26.6560786  91.1734971  87.6491682  26.7853167  91.4269450  88.5631094
  25.9758237  91.7662679  87.3296337  30.8260273 101.8432221  83.7482156
  30.7484303 102.7940046  83.8270637  30.2221917 101.4978093  84.4057083
  33.3177503  89.0160086  96.4043523  32.5410837  89.5754006  96.3946388
  33.9568066  89.5016869  96.9258393  41.1098284  85.7986879  90.2386500
  40.4672664  86.0919412  89.5926295  40.6053212  85.6839799  91.0439697
  38.7638447  89.5450052  80.9272359  39.6756304  89.7777439  80.7520057
  38.2548095  90.1287096  80.3647438  31.5723876  91.8245540  95.9661490
  32.3138560  92.3630583  95.6896314  30.8660861  92.4511828  96.1233042
  37.0479215  93.9674680  94.5633652  37.4562571  93.5257090  93.8188284
  36.3256477  93.3927307  94.8167845  33.4010285  88.9047287  91.9367209
  34.2471480  89.3286700  92.0801858  33.3408923  88.2480911  92.6305772
  37.3708030  94.5275871  88.3185941  36.7416892  94.6921585  87.6162009
  36.9833692  94.9417480  89.0896905  41.2497262  95.4630308  85.6730305
  40.5648300  95.8429210  85.1227338  41.3341111  96.0725635  86.4062252
  36.5509731  86.5651655  93.5948382  36.3070662  87.3193716  93.0582658
  36.8269661  86.9437003  94.4295630  38.5048193  93.1090267  92.2725648
  38.7165089  93.7522027  91.5960029  38.4577942  92.2752584  91.8047578
  36.1074422  85.7208088  89.1762220  35.2458901  86.0189342  89.4678958
  36.1336857  85.9378487  88.2443253  32.9235992  94.2650279  85.5836026
  33.3874337  94.5437982  84.7940648  32.6592790  93.3633723  85.4009117
  29.8160073  93.8121760  88.5215789  30.3861430  94.2409029  87.8833274
  30.4068185  93.5304345  89.2199975  31.8604878  90.3873431  82.3925591
  32.5628921  90.8394475  82.8599517  31.5285506  89.7457250  83.0205484
  30.3085239  88.9785188  96.7676800  29.6783900  89.6601469  97.0012197
  30.2021327  88.8668269  95.8229939  25.6030212  88.6456984  87.6942725
  24.8129266  88.9014512  87.2182835  26.0941459  89.4605322  87.7994765
  39.6194021  95.9862223  90.4448005  40.4411465  95.5842410  90.1630687
  39.6156424  95.8830457  91.3964121  27.5544957  89.0101563  84.6526201
  26.7576120  89.1220257  85.1709697  27.3270549  89.3488215  83.7867092
  33.3850625  95.5346266  92.6008716  33.4495057  95.9966673  93.4366888
  32.6761549  94.9043631  92.7291026  23.8867915  88.8987474  90.1257715
  24.1375953  89.7834484  90.3915291  24.4227463  88.7192076  89.3532807
  47.7100014  92.3300971  86.7932977  46.9563723  91.7608369  86.6376981
  47.8447556  92.2963636  87.7403612  33.0998642  97.2014374  82.4687696
  32.9644317  98.0465909  82.8972544  33.6408455  97.4033651  81.7053630
  26.5528040  94.7189812  83.0415621  27.0652560  95.5133062  83.1921186
  27.2050753  94.0216102  82.9749223  28.3622924  97.8355568  85.1238374
  28.5389553  98.7573533  84.9359358  29.1579758  97.5213987  85.5532754
  27.6475281  89.8820200  95.0000538  27.5328796  88.9805457  95.3007637
  26.7919799  90.1283897  94.6485354  34.7267119  97.8237940  96.5988038
  34.2830973  97.0374319  96.2808943  35.3884332  98.0117091  95.9331929
  29.4854240  99.3533742  91.1248717  30.0361665  99.2250805  90.3525711
  28.6465716  99.6528631  90.7743610  36.8248357  98.1040740  94.6269440
  36.8066832  98.9249621  94.1349709  37.7468277  97.9794815  94.8519581
  33.2821411  95.6184870  95.4692948  33.8149748  94.8573158  95.2392256
  32.7535492  95.3258521  96.2117102  24.5176957  93.0478466  83.8175192
  25.3552179  93.4575474  83.6008900  24.6955224  92.1077908  83.7875386
  36.4141389  90.7153547  79.5059025  35.8988012  91.4858151  79.7447412
  36.1418697  90.0418683  80.1292086  33.9988500  85.5603247  84.5644263
  33.1430096  85.1710098  84.3849902  34.4115451  85.6395208  83.7044049
  31.7730532  83.1788320  87.9702005  32.6383529  82.9831129  87.6107894
  31.8408041  82.9498672  88.8971361  41.3875663  93.4685901  81.4412198
  40.6105106  93.1297061  80.9967360  42.0667144  93.4738524  80.7667163
  36.2027692  88.5880639  81.3318806  35.8977827  88.9026788  82.1828949
  37.1558134  88.6662059  81.3746139  34.6474124  94.7470862  82.9811760
  34.1195485  94.0123622  82.6684997  34.1461626  95.5245538  82.7351728
  39.6266970  92.9419883  88.0978806  38.9690644  93.6319144  88.1858935
  40.4307369  93.3316315  88.4412793  29.3792851  85.4090528  85.3418371
  29.9536603  85.1865710  84.6091564  29.9663834  85.4779223  86.0946973
  38.4372428  91.2964255  86.1482748  38.9504310  91.9294247  86.6504458
  39.0873652  90.6965451  85.7826108  29.7062438  87.4394989  79.3614257
  28.8699751  87.7769676  79.6823531  29.5667208  87.3043969  78.4241394
  31.6815519  82.2831777  84.0693441  31.0279931  81.9680794  83.4450056
  31.6395993  81.6607518  84.7953264  32.7926724  92.5651072  75.9846733
  31.8853786  92.3340326  76.1837882  33.2897756  91.7688692  76.1720715
  35.6994803 101.2748580  78.9043419  35.0256501 101.5780276  79.5128377
  36.0860625 102.0777660  78.5548876  34.9153259  88.7713711  88.3941089
  33.9975821  88.9928658  88.2362777  35.3313403  88.8460021  87.5352796
  35.6988307  90.1705126  83.5243769  36.4460126  90.6826524  83.2150891
  35.9679897  89.8489179  84.3848162  33.9714957  92.6663667  80.5070723
  33.0626177  92.3822700  80.6043193  34.0010041  93.0862746  79.6474030
  39.2034225  96.2770257  84.2761891  38.7496552  95.4361167  84.3327081
  38.5728191  96.9131655  84.6136671  38.1467144  87.2062243  85.5062558
  37.4089901  86.6939629  85.8372801  38.3993918  86.7662624  84.6945835
  37.6467164  98.1146753  85.2111709  37.9390138  98.6751811  84.4924074
  38.1565785  98.4075314  85.9664868  38.2478772  79.9838495  86.1004327
  38.5537648  79.1235858  85.8130242  38.9731376  80.5756115  85.9003321
  24.5403128  90.3869181  84.4885925  24.3427527  89.7938542  83.7636992
  23.9849792  90.0821392  85.2061864  32.5199851  90.2792288  86.6080518
  32.5748461  89.3266124  86.5322995  31.7091053  90.4351727  87.0921817
  33.6691045  94.2072411  77.8458802  33.2310475  93.4908270  77.3864439
  34.4101486  94.4348526  77.2843893  30.4592211  88.8969348  84.3670897
  29.6460077  89.1963518  84.7736089  30.9551205  88.5025036  85.0845380
  32.6100789  98.8927104  86.3005162  32.5676968  99.1187951  85.3713694
  33.5263488  98.6590479  86.4490963  36.0566423  89.3611172  93.1985791
  36.4115811  89.5882645  94.0580257  36.7038554  89.6929549  92.5763046
  41.7864160  92.4829608  83.9035120  41.6482058  92.6731204  82.9756309
  41.4300379  93.2448991  84.3603171  29.9506286  86.4687703  89.9832132
  30.5905665  86.3276462  89.2855096  29.1183817  86.1822216  89.6070734
  41.8133539  94.5506135  88.9146392  42.2470046  94.4581424  89.7629446
  42.5265120  94.5263635  88.2766408  30.7266590  95.7690133  86.0967125
  31.5207188  95.2740454  85.8949700  30.0158282  95.2407997  85.7334830
  35.5461434  98.1508229  90.4479492  35.5998457  98.7199165  91.2157208
  34.6776216  98.3210114  90.0833529  27.0349353  89.9133215  82.1726877
  26.1046941  89.8517671  82.3896840  27.1306825  89.3909168  81.3763519
  26.9534902  86.4388028  84.7605119  27.2141720  87.3533361  84.6514280
  27.7752075  85.9712471  84.9101732  28.4259828  87.8525785  91.9303944
  29.0982881  87.6443147  91.2816592  27.5989614  87.6547871  91.4909176
  42.6749089  94.5929836  91.4479277  42.8684979  95.4975646  91.6938552
  42.5749707  94.1337255  92.2817862  34.3285400  84.4787726  93.9469604
  33.6813315  85.1777676  93.8534081  35.0986415  84.9123870  94.3145853
  37.7364198  94.7436578  97.0220158  37.5849704  94.5147130  96.1050241
  37.7268877  95.7007180  97.0351503  34.5049534  92.3168491  92.0066424
  35.4341594  92.4679651  91.8335391  34.0840564  92.4052512  91.1515071
  33.3037866  96.3419155  89.7764962  33.1648952  95.9737940  90.6490900
  32.5152462  96.8566795  89.6048920  33.8986018 101.4428252  81.1190498
  34.0737774 100.9716295  81.9336121  33.2118806 102.0694018  81.3471759
  34.8543081  95.7200758  87.1653800  34.5192914  95.6801528  88.0611449
  34.3547027  95.0545474  86.6924210  28.8287325  91.1268388  92.6906381
  28.6907123  90.3948627  93.2917920  29.7392248  91.0377288  92.4090568
  37.7902273  93.0656793  77.4390859  37.1731443  92.3403621  77.3423912
  37.3218761  93.8266153  77.0957933  31.4569626  90.8388348  92.1790060
  32.1669244  90.1981540  92.1376679  31.4138934  91.0901242  93.1016241
  39.4456404  97.7755701  95.0996640  39.3868951  97.0914921  94.4327223
  39.8475923  98.5174691  94.6477266  30.1698560  87.8253565  93.9985700
  29.6335917  87.3744304  94.6507296  29.5815268  87.9599474  93.2556164
  28.4647103 104.5917615  87.8930358  28.7043701 105.2236139  88.5709377
  27.6216300 104.2405655  88.1795718  29.5800819  87.2842217  76.5612163
  28.7030285  87.1631018  76.1974410  30.0558572  86.4928295  76.3091052
  39.4473812  95.7395285  93.3310619  38.5600590  95.4021207  93.4537018
  40.0172363  95.0078316  93.5679385  21.1002959  92.0719377  86.6553671
  21.7873999  91.7581107  86.0674686  20.9451087  92.9760741  86.3820922
  25.9037681  86.9609573  91.0838694  25.8195870  86.3535243  90.3489104
  25.0820387  87.4518591  91.0848191  32.9774965 100.3996737  90.2971862
  32.9045137 101.2051709  90.8091167  32.5352358 100.5988703  89.4719884
  32.7664745  99.6368507  83.8074684  31.9832267 100.1790187  83.9012909
  33.4657490 100.1542487  84.2068925  36.0761395  85.4463137  86.4508889
  36.5730094  84.6933099  86.1309960  35.3048376  85.4827453  85.8852099
  43.9291152  91.1503502  88.0927181  43.9181028  92.0328218  87.7221114
  43.0608532  90.7975053  87.8981718  35.4373649 100.2983571  92.4530021
  36.1501621 100.9331036  92.3805923  34.9463677 100.3947437  91.6370023
  37.1591175  94.2034824  84.0247313  36.2247454  94.3236286  83.8552017
  37.3367844  93.3007291  83.7607323  32.6596364  87.5880520  86.1780574
  32.2894151  87.0351560  86.8661480  33.1555456  86.9838653  85.6255574
  40.5463727  90.0452143  84.5597347  41.0124179  90.8780135  84.4857650
  40.9971227  89.5797125  85.2642605  30.4885562  98.0478015  93.2735592
  31.1895022  98.6814498  93.4264986  30.0180677  98.3892746  92.5131231
  38.6139958  96.3895964  81.5583499  38.8899802  96.2752559  82.4677373
  37.7444457  95.9913449  81.5195672  38.5180390  82.4132730  88.5988248
  37.6043469  82.6436957  88.7670455  38.9473491  82.4971174  89.4502281
  38.2886848  90.6022622  91.0988142  37.6358298  90.8498530  90.4440595
  38.6667228  89.7886760  90.7650620  35.2494022 100.6382315  85.2016313
  35.4316416  99.8203971  85.6644065  36.0727008 100.8550008  84.7641203
  35.5836187  99.5650500  82.4631361  36.1123954  99.0542955  81.8501523
  35.8464407  99.2493031  83.3276894  34.3374421  91.3442433  97.5854179
  33.6615058  91.2436562  98.2556555  35.1602055  91.1881647  98.0490177
  26.0853280  97.5814370  90.2066695  26.6706717  96.8358058  90.3394599
  25.8878119  97.8918326  91.0903359  28.9391935 100.6165617  85.2229137
  28.2702311 101.1011745  84.7393177  28.8004805 100.8634838  86.1372516
  20.6770935  90.1519970  88.9271138  20.7155034  89.6183561  89.7208256
  20.1711228  89.6255175  88.3082115  33.0797204 102.6509361  91.8211795
  33.6315512 102.8140982  92.5860881  33.4203397 103.2413798  91.1491820
  28.0561697  84.9984510  92.4233680  28.1203024  85.8599341  92.0111078
  27.9928817  84.3858512  91.6906039  27.5313970  87.0707643  96.0706714
  28.1586009  86.6884720  96.6844239  26.6741889  86.8521845  96.4362407
  37.9308078  97.4770618  97.6760450  38.4747982  98.0900576  97.1815405
  37.3494923  98.0350197  98.1927463  24.3079512  88.8784072  82.0025069
  24.6032954  87.9694750  81.9492123  23.4067548  88.8571812  81.6806072
  36.2165591 100.5991336  88.8075478  36.0916731  99.7981076  88.2986423
  36.8744682 101.0937530  88.3189448  27.8373759  86.9540069  87.9852618
  27.1160345  87.5676036  87.8460091  28.6267015  87.4897833  87.9069264
  38.2800500  98.4000356  90.4355028  37.3330835  98.2805707  90.3633354
  38.6283273  97.5122854  90.5181289  30.6400073  84.2894495  94.2593270
  31.1634475  84.5356792  95.0219579  30.4212406  85.1214530  93.8396407
  26.0367354  86.5598170  82.1264394  25.7080060  85.6795549  81.9439500
  26.3906725  86.5045838  83.0140784  35.2846933  98.1953072  86.6359380
  35.1371895  97.2669780  86.8166950  36.1100426  98.2173163  86.1516455
  29.1509177  86.8471140  82.4939872  29.4905250  87.3757061  81.7718480
  29.5981298  87.1851546  83.2698439  38.8881055  99.0181631  87.7224253
  39.8127602  98.8124493  87.5848704  38.7196358  98.7698032  88.6313594
  31.8452618  85.2308190  91.9442940  31.5049438  84.4316003  92.3463620
  31.1391624  85.5309901  91.3719773  31.1377324  85.3445761  80.6933165
  31.8585687  85.7227014  80.1896882  30.5142628  86.0634638  80.7968143
  35.2808447  86.0490910  81.6291497  35.4972062  86.9315548  81.3280325
  34.8002514  85.6577123  80.8997139  30.0207669  89.0076623  88.2062242
  29.8752249  89.3216926  89.0986523  29.5432872  89.6261524  87.6533140
  31.8804051  85.9979171  88.2543131  31.8665620  85.1020265  87.9175429
  32.5976480  86.0049835  88.8881417  33.7330182  86.4316512  90.2996259
  33.4747960  87.3533582  90.2980589  33.2015223  86.0346946  90.9896723
  38.6776371  99.5367299  83.0786344  38.8513248  98.9713721  82.3260197
  39.1705262 100.3368194  82.8965834  24.4953331  91.5481968  91.1449903
  23.9506799  92.3241776  91.2770177  25.3732681  91.8952772  90.9869024
  31.2840947  84.8793552  83.5230701  31.4056859  83.9510198  83.7221589
  30.9942990  84.8932238  82.6109017  34.1532138  82.5648462  86.6597421
  34.1753835  82.6287795  85.7049401  34.5700197  81.7252971  86.8537927
  44.5315762  92.3003722  84.6976644  44.9746908  91.5511047  84.2995767
  43.6542272  92.2913858  84.3150376  39.6651543  98.8534063  80.1783242
  40.3602448  99.4740756  80.3970557  40.0074694  98.0029414  80.4535620
  25.2819353  90.6751864  94.0380060  24.5401089  90.8234499  94.6244690
  24.9612097  90.9360130  93.1746809  41.5642967  96.3033769  81.7070573
  42.0894291  96.6421041  80.9819893  41.4765319  95.3680784  81.5233708
  33.2263015 100.2167842  93.8360450  33.5350142  99.9716989  94.7083149
  34.0238497 100.4214481  93.3479320  33.2483627 102.3705752  86.0665826
  32.8088618 101.8782131  86.7598683  33.9991744 101.8278720  85.8257902
  25.7275966  98.5617293  86.0690454  26.5533986  98.2621065  85.6889098
  25.3770018  97.7924915  86.5180243  30.6957499  97.9143761  88.1388128
  30.0737509  97.2514466  87.8390356  31.3662366  97.9404893  87.4561776
  23.9284571  96.4803619  87.0279388  23.0916480  96.0525794  86.8463389
  23.9008217  96.6736062  87.9650179  30.7682027  86.3925549  97.7320634
  30.8170182  87.2687672  97.3498404  31.3104541  85.8502942  97.1592277
  41.2536873  96.9366672  97.0121771  40.4632416  96.9190811  96.4726270
  41.0170227  97.4754966  97.7670808  41.3734748  93.7859139  94.3254500
  41.4232753  93.6209146  95.2670022  41.2648671  92.9186398  93.9352380
  30.2571006  96.4647684  81.6146589  30.4059127  97.1483149  80.9613261
  31.0637450  96.4452774  82.1296044  38.6638510  89.7690067  95.6413806
  39.5648373  89.6296531  95.3497804  38.7386485  89.9344521  96.5811984
  32.9981315  87.1456921  94.4866993  32.1284625  87.4390487  94.2149581
  33.2340796  87.7297366  95.2074256  42.8752945  96.2056080  94.5696521
  42.5837753  96.5686061  95.4059982  42.2625076  95.4923088  94.3909853
  44.0748627  93.7708960  87.0899091  44.9095518  94.2098764  87.2536652
  44.2107756  93.2947613  86.2707337  41.1240133  91.3288695  93.0376579
  41.5994254  91.5216341  92.2295431  40.2005698  91.3847881  92.7919963
  28.0123639  92.4912862  82.6207657  27.7669681  91.5875192  82.8187868
  28.1819554  92.4930012  81.6787135  27.2819287  88.2241219  80.1193819
  26.5888532  88.2985574  79.4633855  27.0371039  87.4601563  80.6415336
  35.9532943  79.7836821  87.5233310  36.2334697  79.1160010  88.1493736
  36.7383550  79.9765916  87.0107973  33.7566412  98.9595815  79.0858336
  33.1840379  99.5786002  78.6328808  34.3299206  99.5095176  79.6198258
  39.8241802  88.2054455  91.2704885  40.7759225  88.3052552  91.2917109
  39.6545252  87.4132723  91.7802969  37.8456181  85.2910038  91.4564286
  37.2506113  85.5715051  90.7610774  37.5605878  85.7803939  92.2281027
  36.9763672  99.2432965  80.2166918  37.9094345  99.1778527  80.4199794
  36.8886885 100.0789232  79.7581451  39.6051688  98.5598835  77.1770866
  39.5265320  98.2258699  78.0706624  40.4261355  99.0520603  77.1762338
  42.3029880  91.4260574  90.3847184  42.2706200  90.4876575  90.5706868
  42.9130503  91.5044611  89.6513009  34.1413210  90.2956627  76.4274388
  35.0872315  90.1662836  76.4962806  33.7627455  89.5571289  76.9043817
  42.4524368  88.2171618  90.4305468  41.9363417  87.4330075  90.2435396
  43.3364317  87.8890335  90.5951987  40.1135095  81.9612633  86.3901280
  39.9159916  81.6527722  87.2744612  40.7234801  82.6874272  86.5199210
  48.1206429  92.4876581  89.5253221  48.8509818  92.2261869  90.0860925
  47.5113375  91.7505303  89.5655289  46.2021727  90.6284444  90.1227672
  45.4754890  90.4940409  89.5144164  45.7869013  90.9361273  90.9284390
  34.0251903  94.3474374  97.8875045  34.9454912  94.5252973  98.0815092
  33.9901486  93.4030419  97.7354745  32.3256128  88.2206604  76.3629274
  31.4187583  87.9239717  76.4391987  32.6032109  87.9236422  75.4963560
  23.2434068  89.5412967  86.8128320  22.9236852  88.6878275  86.5202694
  22.6967496  89.7561545  87.5686287  27.0213975  92.2575408  90.5297827
  27.2399985  93.1892516  90.5485860  27.4339749  91.8983383  91.3152630
  33.9418193  82.7643494  82.5173515  33.1318922  82.4190579  82.8928761
  34.6302610  82.4551037  83.1061127  35.8708742  81.8421540  84.1397812
  36.4239780  82.2616994  84.7987835  36.1078828  80.9157288  84.1820768
  31.8941841  87.8308614  99.9200575  31.7938568  88.7802971  99.8512667
  31.6763383  87.5026853  99.0476646  31.0954912  85.0793539  76.5041253
  31.9574076  85.4048437  76.7637070  31.2805256  84.2925035  75.9914319
  23.1122328  93.1615879  88.7821442  22.4185799  92.7469832  88.2691396
  23.8595319  93.2036415  88.1854861  39.2487549  83.9522066  83.6476476
  38.6686218  84.6106870  83.2654528  38.9823481  83.1299410  83.2363893
  37.6991115  83.3527123  85.8497796  38.1990893  83.4643658  85.0412115
  38.3426723  83.0488176  86.4898605  31.7573111  91.2605753  98.7365637
  31.2740193  92.0606113  98.9429526  31.8434050  91.2713698  97.7833081
  25.0259070  93.0934133  86.6587457  25.0029759  93.1921820  85.7069340
  25.3359707  93.9399283  86.9804623  27.6846448  95.1510288  90.7734071
  28.6389702  95.1194230  90.7064002  27.4858972  94.6900911  91.5884297
  28.2745830  93.7211404  93.3404869  29.0938719  94.2155482  93.3639706
  28.5482638  92.8043372  93.3122436  38.0312427  86.1122156  82.7032824
  37.1438282  86.3971807  82.4853019  38.4466416  85.9515919  81.8560101
  41.3826963  86.1368677  86.4187163  42.1587353  86.6265129  86.6911780
  40.6575097  86.5626731  86.8759033  43.8199521  86.8496296  87.4761104
  44.4144012  86.6092032  86.7654412  43.8926105  86.1303427  88.1034640
  26.0396677 100.6929907  87.7904269  25.9051145  99.9330308  87.2242267
  25.6228739 101.4170807  87.3233058  37.1755640  95.8766831  76.7980844
  37.8791490  96.0816833  77.4138500  36.4518289  96.4443592  77.0629928
  38.0053450  91.6276692  82.9183114  37.9488652  92.0845243  82.0790747
  38.5581793  90.8667376  82.7405957  41.8158256  87.4166424  83.7433234
  41.5595191  87.0163059  84.5741441  41.1911124  88.1310218  83.6183373
  46.1270594  90.1562497  86.2504525  45.5670152  90.2255686  87.0236087
  45.5214098  89.9803482  85.5304021  29.1965803 101.5899224  88.0022711
  29.0798187 102.5344657  87.9001402  28.3758249 101.2872786  88.3908511
  39.0842338  96.3149360  78.8479304  39.9187941  95.8830558  78.6656779
  38.9226680  96.1431373  79.7756199  38.7388230  92.8181473  80.2135643
  38.6837034  92.6525745  79.2724088  38.1134285  93.5257506  80.3697833
  23.5280745  88.0549537  94.0397066  24.1739608  87.5448491  94.5284291
  23.3197896  88.7918219  94.6140491  36.0534137  95.1230385  99.5389206
  36.9225297  95.2971037  99.1775841  35.5740888  95.9424802  99.4164936
  32.0484355  82.3189582  79.7920962  32.0363025  83.2631422  79.9489233
  32.9407777  82.1359728  79.4980423  30.2220317 102.2427486  91.2178640
  31.1247564 102.2751096  91.5345135  29.9957687 101.3127937  91.2324976
  31.9773919 100.9958473  87.8788718  31.0269550 100.9960334  87.7653091
  32.2806405 100.2491207  87.3624753  27.8678236  85.2017155  98.1372080
  28.7309697  84.8453959  98.3475404  27.2943646  84.8631049  98.8247484
  47.7126613 106.8319011  88.9434481  48.3505023 106.7125758  88.2397821
  47.5947456 107.7799855  89.0022433  44.5216319 106.7846439  88.8796006
  44.1834830 106.6687504  87.9916540  45.3906087 106.3837604  88.8597012
  40.3803135 108.6381915  84.8692897  39.8168000 108.5471852  84.1009184
  40.2655530 107.8181820  85.3495389  45.0036102 107.9381291  94.8382211
  44.9924743 107.5434089  93.9662715  45.1656741 107.2047363  95.4315983
  37.9267567 110.1333107  87.7077117  38.7188858 109.7923932  87.2923416
  38.1664217 110.2428082  88.6279270  45.9602693 112.3052883  80.1807361
  45.3090673 112.8906964  79.7941375  46.7547056 112.8359078  80.2402399
  39.8858320 109.3942020  80.5794496  40.6589196 108.8471007  80.4407372
  40.2383719 110.2586270  80.7908957  41.7243363 110.7218403  93.7861395
  41.4333229 111.6264033  93.6708061  42.3600347 110.7634930  94.5005465
  42.6499570 108.0995251  90.3762755  43.2463142 107.8751273  89.6619718
  42.7074541 107.3579997  90.9788203  42.2224598 105.5534686  78.2112946
  42.4750119 105.0316208  77.4496409  41.2849157 105.3900832  78.3139629
  47.2667881 104.5570465  86.0187689  48.0530970 104.1389888  85.6678106
  47.5306585 105.4616557  86.1869337  47.4377958 109.9943315  80.7176346
  46.8023791 110.0677942  81.4297250  47.1075365 110.5836914  80.0395425
  52.6676308 104.4945698  86.9220667  53.4001480 103.9244915  87.1558497
  51.9115664 104.1067298  87.3627173  41.9420887 107.4562792  80.4137321
  41.8257145 106.7807696  81.0818405  42.0523147 106.9695166  79.5969474
  44.2852428 106.9172939  84.1184010  43.9210635 106.3903560  84.8296931
  45.1419544 106.5271409  83.9450495  50.1901729  98.2067272  91.3815276
  49.8585053  99.0762683  91.1576491  49.5947342  97.8903556  92.0609306
  43.9257915 101.9462839  79.1145358  44.0932317 102.8143076  79.4815829
  43.7355084 102.1090121  78.1906648  46.6833248 110.4079818  90.7811189
  46.3833971 111.3104857  90.6726996  46.3384308 110.1412001  91.6332342
  40.1345730 106.8593615  86.8147893  39.2096226 106.7269829  87.0225585
  40.3830143 107.6387834  87.3117836  50.0830392 102.9262358  88.4608626
  49.1747269 102.8577767  88.1667387  50.0317988 103.4034303  89.2890452
  43.9047136 104.4020497  80.0992025  43.7846761 104.8477547  80.9377506
  43.2099724 104.7505814  79.5405563  37.4954541 106.5026888  87.6491682
  37.6246922 106.7561367  88.5631094  36.8151992 107.0954596  87.3296337
  41.6654028 117.1724138  83.7482156  41.5878058 118.1231963  83.8270637
  41.0615672 116.8270011  84.4057083  44.1571258 104.3452004  96.4043523
  43.3804592 104.9045924  96.3946388  44.7961821 104.8308787  96.9258393
  51.9492038 101.1278797  90.2386500  51.3066419 101.4211330  89.5926295
  51.4446967 101.0131717  91.0439697  49.6032202 104.8741970  80.9272359
  50.5150058 105.1069357  80.7520057  49.0941849 105.4579014  80.3647438
  42.4117630 107.1537457  95.9661490  43.1532314 107.6922501  95.6896314
  41.7054615 107.7803746  96.1233042  47.8872970 109.2966598  94.5633652
  48.2956326 108.8549008  93.8188284  47.1650231 108.7219225  94.8167845
  44.2404040 104.2339204  91.9367209  45.0865235 104.6578618  92.0801858
  44.1802677 103.5772829  92.6305772  48.2101784 109.8567788  88.3185941
  47.5810647 110.0213502  87.6162009  47.8227446 110.2709398  89.0896905
  52.0891016 110.7922226  85.6730305  51.4042054 111.1721127  85.1227338
  52.1734866 111.4017553  86.4062252  47.3903485 101.8943573  93.5948382
  47.1464417 102.6485633  93.0582658  47.6663416 102.2728920  94.4295630
  49.3441948 108.4382185  92.2725648  49.5558843 109.0813945  91.5960029
  49.2971696 107.6044502  91.8047578  46.9468177 101.0500006  89.1762220
  46.0852656 101.3481259  89.4678958  46.9730611 101.2670405  88.2443253
  43.7629746 109.5942196  85.5836026  44.2268092 109.8729899  84.7940648
  43.4986544 108.6925641  85.4009117  40.6553827 109.1413678  88.5215789
  41.2255184 109.5700946  87.8833274  41.2461939 108.8596263  89.2199975
  42.6998632 105.7165349  82.3925591  43.4022676 106.1686392  82.8599517
  42.3679261 105.0749168  83.0205484  41.1478994 104.3077105  96.7676800
  40.5177654 104.9893386  97.0012197  41.0415082 104.1960187  95.8229939
  36.4423966 103.9748901  87.6942725  35.6523020 104.2306430  87.2182835
  36.9335214 104.7897239  87.7994765  50.4587776 111.3154141  90.4448005
  51.2805219 110.9134328  90.1630687  50.4550179 111.2122375  91.3964121
  38.3938712 104.3393481  84.6526201  37.5969875 104.4512175  85.1709697
  38.1664304 104.6780133  83.7867092  44.2244379 110.8638184  92.6008716
  44.2888812 111.3258591  93.4366888  43.5155303 110.2335549  92.7291026
  34.7261669 104.2279392  90.1257715  34.9769708 105.1126402  90.3915291
  35.2621218 104.0483993  89.3532807  58.5493769 107.6592889  86.7932977
  57.7957477 107.0900287  86.6376981  58.6841310 107.6255554  87.7403612
  43.9392397 112.5306291  82.4687696  43.8038072 113.3757827  82.8972544
  44.4802209 112.7325569  81.7053630  40.4259736  98.6097871  99.1302051
  40.0326682  98.0564070  99.8049696  41.2425877  98.9208450  99.5208569
  37.3921794 110.0481729  83.0415621  37.9046315 110.8424980  83.1921186
  38.0444507 109.3508020  82.9749223  39.2016679 113.1647486  85.1238374
  39.3783307 114.0865450  84.9359358  39.9973512 112.8505905  85.5532754
  43.3427697 100.0255750  96.7222308  44.0837411 100.6262903  96.6426770
  43.5745620  99.2833388  96.1640351  38.4869035 105.2112118  95.0000538
  38.3722551 104.3097375  95.3007637  37.6313553 105.4575814  94.6485354
  45.5660873 113.1529858  96.5988038  45.1224727 112.3666236  96.2808943
  46.2278087 113.3409008  95.9331929  40.3247994 114.6825659  91.1248717
  40.8755420 114.5542723  90.3525711  39.4859470 114.9820548  90.7743610
  47.6642111 113.4332658  94.6269440  47.6460587 114.2541539  94.1349709
  48.5862031 113.3086733  94.8519581  44.1215165 110.9476787  95.4692948
  44.6543502 110.1865075  95.2392256  43.5929247 110.6550439  96.2117102
  47.2884860  96.0536853  90.9986590  46.9449130  96.9438495  90.9225700
  47.6563823  95.8638511  90.1356175  35.3570711 108.3770384  83.8175192
  36.1945933 108.7867392  83.6008900  35.5348979 107.4369826  83.7875386
  47.2535143 106.0445464  79.5059025  46.7381767 106.8150069  79.7447412
  46.9812452 105.3710600  80.1292086  44.8382254 100.8895165  84.5644263
  43.9823851 100.5002016  84.3849902  45.2509206 100.9687126  83.7044049
  46.3681401  98.4241508  88.9635823  45.8646196  98.3871644  88.1503628
  46.6612008  99.3334251  89.0232480  42.6124287  98.5080238  87.9702005
  43.4777283  98.3123047  87.6107894  42.6801796  98.2790590  88.8971361
  52.2269417 108.7977819  81.4412198  51.4498860 108.4588978  80.9967360
  52.9060898 108.8030442  80.7667163  47.0421446 103.9172556  81.3318806
  46.7371582 104.2318706  82.1828949  47.9951888 103.9953976  81.3746139
  45.4867878 110.0762780  82.9811760  44.9589240 109.3415539  82.6684997
  44.9855381 110.8537456  82.7351728  50.4660724 108.2711800  88.0978806
  49.8084399 108.9611062  88.1858935  51.2701123 108.6608232  88.4412793
  40.2186606 100.7382446  85.3418371  40.7930358 100.5157628  84.6091564
  40.8057588 100.8071141  86.0946973  49.2766183 106.6256173  86.1482748
  49.7898065 107.2586165  86.6504458  49.9267407 106.0257368  85.7826108
  40.5456193 102.7686907  79.3614257  39.7093505 103.1061594  79.6823531
  40.4060963 102.6335887  78.4241394  42.5209273  97.6123695  84.0693441
  41.8673686  97.2972712  83.4450056  42.4789748  96.9899435  84.7953264
  43.6320478 107.8942990  75.9846733  42.7247540 107.6632243  76.1837882
  44.1291510 107.0980609  76.1720715  46.5388557 116.6040497  78.9043419
  45.8650256 116.9072194  79.5128377  46.9254379 117.4069578  78.5548876
  45.7547014 104.1005628  88.3941089  44.8369575 104.3220575  88.2362777
  46.1707157 104.1751939  87.5352796  46.5382062 105.4997044  83.5243769
  47.2853881 106.0118441  83.2150891  46.8073651 105.1781097  84.3848162
  44.8108712 107.9955585  80.5070723  43.9019931 107.7114618  80.6043193
  44.8403796 108.4154663  79.6474030  50.0427979 111.6062174  84.2761891
  49.5890306 110.7653084  84.3327081  49.4121946 112.2423573  84.6136671
  48.9860899 102.5354160  85.5062558  48.2483656 102.0231547  85.8372801
  49.2387672 102.0954542  84.6945835  48.4860918 113.4438671  85.2111709
  48.7783893 114.0043728  84.4924074  48.9959539 113.7367232  85.9664868
  49.0872526  95.3130412  86.1004327  49.3931403  94.4527776  85.8130242
  49.8125131  95.9048033  85.9003321  35.3796882 105.7161099  84.4885925
  35.1821282 105.1230460  83.7636992  34.8243546 105.4113309  85.2061864
  43.3593606 105.6084205  86.6080518  43.4142216 104.6558042  86.5322995
  42.5484808 105.7643645  87.0921817  44.5084800 109.5364329  77.8458802
  44.0704230 108.8200187  77.3864439  45.2495240 109.7640443  77.2843893
  41.2985966 104.2261265  84.3670897  40.4853831 104.5255436  84.7736089
  41.7944960 103.8316954  85.0845380  43.4494544 114.2219022  86.3005162
  43.4070722 114.4479868  85.3713694  44.3657242 113.9882397  86.4490963
  46.8960177 104.6903090  93.1985791  47.2509565 104.9174563  94.0580257
  47.5432309 105.0221466  92.5763046  52.6257914 107.8121526  83.9035120
  52.4875813 108.0023122  82.9756309  52.2694133 108.5740908  84.3603171
  40.7900040 101.7979621  89.9832132  41.4299420 101.6568380  89.2855096
  39.9577571 101.5114134  89.6070734  52.6527294 109.8798053  88.9146392
  53.0863801 109.7873342  89.7629446  53.3658875 109.8555553  88.2766408
  41.5660344 111.0982051  86.0967125  42.3600943 110.6032371  85.8949700
  40.8552037 110.5699914  85.7334830  46.3855189 113.4800147  90.4479492
  46.4392211 114.0491083  91.2157208  45.5169970 113.6502032  90.0833529
  37.8743108 105.2425133  82.1726877  36.9440696 105.1809588  82.3896840
  37.9700580 104.7201086  81.3763519  37.7928657 101.7679946  84.7605119
  38.0535474 102.6825279  84.6514280  38.6145829 101.3004388  84.9101732
  39.2653582 103.1817703  91.9303944  39.9376636 102.9735065  91.2816592
  38.4383369 102.9839789  91.4909176  53.5142844 109.9221753  91.4479277
  53.7078734 110.8267564  91.6938552  53.4143462 109.4629172  92.2817862
  45.1679154  99.8079644  93.9469604  44.5207069 100.5069593  93.8534081
  45.9380170 100.2415788  94.3145853  48.5757952 110.0728496  97.0220158
  48.4243459 109.8439048  96.1050241  48.5662632 111.0299097  97.0351503
  45.3443289 107.6460409  92.0066424  46.2735349 107.7971568  91.8335391
  44.9234319 107.7344430  91.1515071  44.1431620 111.6711073  89.7764962
  44.0042706 111.3029858  90.6490900  43.3546217 112.1858713  89.6048920
  44.7379772 116.7720170  81.1190498  44.9131528 116.3008213  81.9336121
  44.0512560 117.3985936  81.3471759  45.6936836 111.0492676  87.1653800
  45.3586668 111.0093446  88.0611449  45.1940781 110.3837392  86.6924210
  39.6681080 106.4560306  92.6906381  39.5300877 105.7240545  93.2917920
  40.5786003 106.3669206  92.4090568  48.6296027 108.3948710  77.4390859
  48.0125198 107.6695538  77.3423912  48.1612516 109.1558070  77.0957933
  42.2963380 106.1680265  92.1790060  43.0062999 105.5273457  92.1376679
  42.2532688 106.4193160  93.1016241  50.2850159 113.1047619  95.0996640
  50.2262705 112.4206839  94.4327223  50.6869677 113.8466609  94.6477266
  41.0092314 103.1545483  93.9985700  40.4729671 102.7036222  94.6507296
  40.4209023 103.2891392  93.2556164  40.4194573 102.6134135  76.5612163
  39.5424039 102.4922935  76.1974410  40.8952326 101.8220213  76.3091052
  50.2867566 111.0687202  93.3310619  49.3994345 110.7313124  93.4537018
  50.8566117 110.3370234  93.5679385  31.9396713 107.4011294  86.6553671
  32.6267753 107.0873024  86.0674686  31.7844842 108.3052659  86.3820922
  36.7431435 102.2901491  91.0838694  36.6589624 101.6827160  90.3489104
  35.9214142 102.7810509  91.0848191  43.8168720 115.7288655  90.2971862
  43.7438891 116.5343626  90.8091167  43.3746113 115.9280621  89.4719884
  43.6058499 114.9660425  83.8074684  42.8226021 115.5082105  83.9012909
  44.3051244 115.4834405  84.2068925  46.9155149 100.7755054  86.4508889
  47.4123849 100.0225017  86.1309960  46.1442131 100.8119371  85.8852099
  54.7684907 106.4795420  88.0927181  54.7574783 107.3620135  87.7221114
  53.9002286 106.1266971  87.8981718  46.2767403 115.6275489  92.4530021
  46.9895375 116.2622954  92.3805923  45.7857432 115.7239355  91.6370023
  47.9984930 109.5326742  84.0247313  47.0641209 109.6528204  83.8552017
  48.1761598 108.6299208  83.7607323  43.4990118 102.9172437  86.1780574
  43.1287906 102.3643478  86.8661480  43.9949210 102.3130571  85.6255574
  51.3857481 105.3744061  84.5597347  51.8517933 106.2072052  84.4857650
  51.8364982 104.9089042  85.2642605  41.3279317 113.3769932  93.2735592
  42.0288776 114.0106415  93.4264986  40.8574432 113.7184664  92.5131231
  49.4533712 111.7187882  81.5583499  49.7293556 111.6044477  82.4677373
  48.5838211 111.3205367  81.5195672  49.3574144  97.7424648  88.5988248
  48.4437224  97.9728875  88.7670455  49.7867245  97.8263092  89.4502281
  49.1280603 105.9314540  91.0988142  48.4752053 106.1790447  90.4440595
  49.5060982 105.1178678  90.7650620  46.0887776 115.9674233  85.2016313
  46.2710171 115.1495889  85.6644065  46.9120762 116.1841925  84.7641203
  46.4229942 114.8942418  82.4631361  46.9517708 114.3834873  81.8501523
  46.6858161 114.5784948  83.3276894  45.1768176 106.6734351  97.5854179
  44.5008813 106.5728480  98.2556555  45.9995809 106.5173565  98.0490177
  36.9247035 112.9106287  90.2066695  37.5100471 112.1649975  90.3394599
  36.7271873 113.2210244  91.0903359  39.7785690 115.9457535  85.2229137
  39.1096065 116.4303662  84.7393177  39.6398560 116.1926755  86.1372516
  31.5164689 105.4811888  88.9271138  31.5548789 104.9475478  89.7208256
  31.0104982 104.9547093  88.3082115  43.9190958 117.9801278  91.8211795
  44.4709266 118.1432900  92.5860881  44.2597152 118.5705716  91.1491820
  38.8955452 100.3276428  92.4233680  38.9596778 101.1891259  92.0111078
  38.8322572  99.7150430  91.6906039  38.3707724 102.3999561  96.0706714
  38.9979763 102.0176638  96.6844239  37.5135643 102.1813763  96.4362407
  48.7701833 112.8062536  97.6760450  49.3141737 113.4192494  97.1815405
  48.1888678 113.3642114  98.1927463  35.1473267 104.2075990  82.0025069
  35.4426708 103.2986668  81.9492123  34.2461303 104.1863729  81.6806072
  47.0559346 115.9283254  88.8075478  46.9310485 115.1272994  88.2986423
  47.7138437 116.4229447  88.3189448  38.6767514 102.2831986  87.9852618
  37.9554100 102.8967954  87.8460091  39.4660770 102.8189751  87.9069264
  49.1194254 113.7292274  90.4355028  48.1724590 113.6097625  90.3633354
  49.4677027 112.8414772  90.5181289  41.4793827  99.6186413  94.2593270
  42.0028229  99.8648709  95.0219579  41.2606161 100.4506448  93.8396407
  36.8761109 101.8890087  82.1264394  36.5473815 101.0087466  81.9439500
  37.2300479 101.8337756  83.0140784  46.1240687 113.5244990  86.6359380
  45.9765650 112.5961698  86.8166950  46.9494181 113.5465081  86.1516455
  39.9902932 102.1763057  82.4939872  40.3299004 102.7048978  81.7718480
  40.4375052 102.5143463  83.2698439  49.7274809 114.3473549  87.7224253
  50.6521357 114.1416410  87.5848704  49.5590113 114.0989950  88.6313594
  42.6846373 100.5600108  91.9442940  42.3443193  99.7607921  92.3463620
  41.9785379 100.8601819  91.3719773  43.3362844  97.6449420  90.3970263
  44.1588914  97.1709899  90.2749153  43.5800908  98.4239904  90.8968949
  41.9771079 100.6737679  80.6933165  42.6979441 101.0518932  80.1896882
  41.3536383 101.3926556  80.7968143  46.1202202 101.3782828  81.6291497
  46.3365816 102.2607466  81.3280325  45.6396269 100.9869041  80.8997139
  40.8601423 104.3368541  88.2062242  40.7146004 104.6508844  89.0986523
  40.3826627 104.9553441  87.6533140  42.7197806 101.3271089  88.2543131
  42.7059375 100.4312182  87.9175429  43.4370234 101.3341753  88.8881417
  44.5723937 101.7608429  90.2996259  44.3141715 102.6825500  90.2980589
  44.0408977 101.3638864  90.9896723  49.5170125 114.8659216  83.0786344
  49.6907003 114.3005639  82.3260197  50.0099017 115.6660111  82.8965834
  35.3347085 106.8773885  91.1449903  34.7900553 107.6533693  91.2770177
  36.2126435 107.2244690  90.9869024  42.1234702 100.2085469  83.5230701
  42.2450613  99.2802115  83.7221589  41.8336744 100.2224155  82.6109017
  44.9925892  97.8940380  86.6597421  45.0147589  97.9579713  85.7049401
  45.4093951  97.0544888  86.8537927  55.3709517 107.6295639  84.6976644
  55.8140663 106.8802964  84.2995767  54.4936027 107.6205776  84.3150376
  50.5045298 114.1825981  80.1783242  51.1996203 114.8032673  80.3970557
  50.8468448 113.3321332  80.4535620  36.1213107 106.0043782  94.0380060
  35.3794843 106.1526417  94.6244690  35.8005851 106.2652047  93.1746809
  52.4036721 111.6325686  81.7070573  52.9288045 111.9712959  80.9819893
  52.3159074 110.6972702  81.5233708  44.0656770 115.5459760  93.8360450
  44.3743896 115.3008907  94.7083149  44.8632252 115.7506398  93.3479320
  44.0877382 117.6997670  86.0665826  43.6482372 117.2074048  86.7598683
  44.8385499 117.1570637  85.8257902  36.5669721 113.8909210  86.0690454
  37.3927741 113.5912982  85.6889098  36.2163773 113.1216833  86.5180243
  41.5351254 113.2435679  88.1388128  40.9131263 112.5806384  87.8390356
  42.2056121 113.2696810  87.4561776  34.7678326 111.8095537  87.0279388
  33.9310234 111.3817711  86.8463389  34.7401971 112.0027980  87.9650179
  41.6075781 101.7217467  97.7320634  41.6563937 102.5979589  97.3498404
  42.1498296 101.1794860  97.1592277  52.0930627 112.2658590  97.0121771
  51.3026171 112.2482729  96.4726270  51.8563982 112.8046884  97.7670808
  52.2128502 109.1151056  94.3254500  52.2626507 108.9501064  95.2670022
  52.1042426 108.2478315  93.9352380  41.0964761 111.7939602  81.6146589
  41.2452881 112.4775066  80.9613261  41.9031204 111.7744692  82.1296044
  49.5032265 105.0981984  95.6413806  50.4042127 104.9588449  95.3497804
  49.5780239 105.2636439  96.5811984  43.8375070 102.4748839  94.4866993
  42.9678379 102.7682405  94.2149581  44.0734550 103.0589284  95.2074256
  53.7146699 111.5347998  94.5696521  53.4231507 111.8977978  95.4059982
  53.1018830 110.8215006  94.3909853  54.9142381 109.1000878  87.0899091
  55.7489273 109.5390682  87.2536652  55.0501510 108.6239531  86.2707337
  51.9633887 106.6580612  93.0376579  52.4388009 106.8508259  92.2295431
  51.0399453 106.7139798  92.7919963  38.8517394 107.8204780  82.6207657
  38.6063436 106.9167110  82.8187868  39.0213308 107.8221930  81.6787135
  46.5414104  98.6928456  92.0032413  47.0596048  99.4289483  91.6778902
  46.1869237  98.9992449  92.8379172  38.1213041 103.5533137  80.1193819
  37.4282286 103.6277492  79.4633855  37.8764793 102.7893481  80.6415336
  46.7926698  95.1128738  87.5233310  47.0728452  94.4451928  88.1493736
  47.5777305  95.3057834  87.0107973  44.5960166 114.2887732  79.0858336
  44.0234133 114.9077920  78.6328808  45.1692960 114.8387094  79.6198258
  50.6635556 103.5346372  91.2704885  51.6152979 103.6344470  91.2917109
  50.4939007 102.7424641  91.7802969  48.6849936 100.6201956  91.4564286
  48.0899868 100.9006968  90.7610774  48.3999632 101.1095857  92.2281027
  47.8157426 114.5724883  80.2166918  48.7488099 114.5070444  80.4199794
  47.7280639 115.4081149  79.7581451  50.4445443 113.8890753  77.1770866
  50.3659074 113.5550616  78.0706624  51.2655110 114.3812521  77.1762338
  53.1423634 106.7552492  90.3847184  53.1099954 105.8168493  90.5706868
  53.7524258 106.8336529  89.6513009  44.9806965 105.6248545  76.4274388
  45.9266070 105.4954753  76.4962806  44.6021210 104.8863207  76.9043817
  53.2918123 103.5463536  90.4305468  52.7757171 102.7621992  90.2435396
  54.1758071 103.2182252  90.5951987  50.9528849  97.2904551  86.3901280
  50.7553671  96.9819639  87.2744612  51.5628555  98.0166190  86.5199210
  58.9600184 107.8168499  89.5253221  59.6903572 107.5553787  90.0860925
  58.3507129 107.0797221  89.5655289  57.0415481 105.9576362  90.1227672
  56.3148645 105.8232327  89.5144164  56.6262768 106.2653190  90.9284390
  44.8645657 109.6766291  97.8875045  45.7848667 109.8544890  98.0815092
  44.8295240 108.7322337  97.7354745  43.1649882 103.5498522  76.3629274
  42.2581337 103.2531634  76.4391987  43.4425863 103.2528340  75.4963560
  34.0827822 104.8704885  86.8128320  33.7630607 104.0170193  86.5202694
  33.5361251 105.0853463  87.5686287  37.8607730 107.5867326  90.5297827
  38.0793740 108.5184434  90.5485860  38.2733504 107.2275300  91.3152630
  44.7811948  98.0935411  82.5173515  43.9712676  97.7482496  82.8928761
  45.4696365  97.7842955  83.1061127  46.7102496  97.1713458  84.1397812
  47.2633535  97.5908911  84.7987835  46.9472582  96.2449206  84.1820768
  42.7335595 103.1600532  99.9200575  42.6332322 104.1094889  99.8512667
  42.5157137 102.8318771  99.0476646  41.9348667 100.4085457  76.5041253
  42.7967831 100.7340355  76.7637070  42.1199011  99.6216953  75.9914319
  33.9516082 108.4907796  88.7821442  33.2579554 108.0761749  88.2691396
  34.6989073 108.5328333  88.1854861  50.0881303  99.2813983  83.6476476
  49.5079972  99.9398787  83.2654528  49.8217236  98.4591328  83.2363893
  48.5384870  98.6819041  85.8497796  49.0384648  98.7935575  85.0412115
  49.1820477  98.3780094  86.4898605  42.5966865 106.5897671  98.7365637
  42.1133947 107.3898031  98.9429526  42.6827804 106.6005615  97.7833081
  35.8652825 108.4226050  86.6587457  35.8423513 108.5213737  85.7069340
  36.1753461 109.2691201  86.9804623  38.5240203 110.4802205  90.7734071
  39.4783456 110.4486148  90.7064002  38.3252726 110.0192829  91.5884297
  39.1139585 109.0503321  93.3404869  39.9332474 109.5447400  93.3639706
  39.3876393 108.1335289  93.3122436  48.8706181 101.4414074  82.7032824
  47.9832036 101.7263724  82.4853019  49.2860170 101.2807837  81.8560101
  52.2220717 101.4660595  86.4187163  52.9981107 101.9557047  86.6911780
  51.4968851 101.8918649  86.8759033  54.6593276 102.1788214  87.4761104
  55.2537767 101.9383950  86.7654412  54.7319860 101.4595344  88.1034640
  48.0149395 111.2058748  76.7980844  48.7185245 111.4108751  77.4138500
  47.2912043 111.7735510  77.0629928  48.8447205 106.9568610  82.9183114
  48.7882406 107.4137161  82.0790747  49.3975547 106.1959294  82.7405957
  52.6552011 102.7458341  83.7433234  52.3988945 102.3454977  84.5741441
  52.0304879 103.4602135  83.6183373  56.9664349 105.4854415  86.2504525
  56.4063907 105.5547604  87.0236087  56.3607852 105.3095399  85.5304021
  49.9236092 111.6441277  78.8479304  50.7581696 111.2122476  78.6656779
  49.7620435 111.4723291  79.7756199  49.5781984 108.1473391  80.2135643
  49.5230788 107.9817662  79.2724088  48.9528039 108.8549424  80.3697833
  34.3674499 103.3841455  94.0397066  35.0133363 102.8740409  94.5284291
  34.1591650 104.1210137  94.6140491  46.8927891 110.4522303  99.5389206
  47.7619051 110.6262955  99.1775841  46.4134643 111.2716719  99.4164936
  42.8878110  97.6481500  79.7920962  42.8756780  98.5923340  79.9489233
  43.7801532  97.4651645  79.4980423  41.0614072 117.5719404  91.2178640
  41.9641318 117.6043014  91.5345135  40.8351442 116.6419855  91.2324976
  42.8167674 116.3250390  87.8788718  41.8663305 116.3252252  87.7653091
  43.1200160 115.5783125  87.3624753  46.7030229  94.2424276  84.0466899
  45.9362625  93.6882763  84.1923581  47.1140934  94.3146145  84.9081050
  38.7071990 100.5309072  98.1372080  39.5703452 100.1745877  98.3475404
  38.1337401 100.1922967  98.8247484  58.5520367 122.1610929  88.9434481
  59.1898777 122.0417676  88.2397821  58.4341210 123.1091773  89.0022433
  55.3610073 122.1138357  88.8796006  55.0228585 121.9979421  87.9916540
  56.2299842 121.7129522  88.8597012  55.8429856 123.2673208  94.8382211
  55.8318497 122.8726007  93.9662715  56.0050496 122.5339281  95.4315983
  53.0618353 120.8826604  78.2112946  53.3143873 120.3608125  77.4496409
  52.1242912 120.7192750  78.3139629  58.1061636 119.8862382  86.0187689
  58.8924725 119.4681806  85.6678106  58.3700340 120.7908475  86.1869337
  63.5070063 119.8237616  86.9220667  64.2395235 119.2536832  87.1558497
  62.7509418 119.4359216  87.3627173  55.1246182 122.2464857  84.1184010
  54.7604390 121.7195478  84.8296931  55.9813298 121.8563326  83.9450495
  61.0295483 113.5359190  91.3815276  60.6978808 114.4054601  91.1576491
  60.4341096 113.2195474  92.0609306  54.7651669 117.2754757  79.1145358
  54.9326072 118.1434993  79.4815829  54.5748839 117.4382039  78.1906648
  60.9224146 118.2554276  88.4608626  60.0141024 118.1869684  88.1667387
  60.8711742 118.7326221  89.2890452  54.7440890 119.7312414  80.0992025
  54.6240516 120.1769465  80.9377506  54.0493479 120.0797732  79.5405563
  54.9965012 119.6743921  96.4043523  54.2198346 120.2337842  96.3946388
  55.6355575 120.1600704  96.9258393  62.7885793 116.4570714  90.2386500
  62.1460173 116.7503247  89.5926295  62.2840721 116.3423635  91.0439697
  60.4425956 120.2033888  80.9272359  61.3543813 120.4361274  80.7520057
  59.9335604 120.7870932  80.3647438  55.0797794 119.5631122  91.9367209
  55.9258989 119.9870536  92.0801858  55.0196432 118.9064746  92.6305772
  58.2297240 117.2235490  93.5948382  57.9858171 117.9777551  93.0582658
  58.5057170 117.6020838  94.4295630  60.1835702 123.7674103  92.2725648
  60.3952598 124.4105863  91.5960029  60.1365451 122.9336419  91.8047578
  57.7861931 116.3791923  89.1762220  56.9246410 116.6773177  89.4678958
  57.8124366 116.5962322  88.2443253  53.5392387 121.0457266  82.3925591
  54.2416430 121.4978310  82.8599517  53.2073015 120.4041085  83.0205484
  51.9872748 119.6369023  96.7676800  51.3571409 120.3185304  97.0012197
  51.8808836 119.5252105  95.8229939  47.2817721 119.3040819  87.6942725
  46.4916775 119.5598348  87.2182835  47.7728968 120.1189157  87.7994765
  49.2332466 119.6685398  84.6526201  48.4363629 119.7804093  85.1709697
  49.0058058 120.0072051  83.7867092  69.3887523 122.9884807  86.7932977
  68.6351232 122.4192205  86.6376981  69.5235064 122.9547471  87.7403612
  51.2653491 113.9389789  99.1302051  50.8720437 113.3855987  99.8049696
  52.0819631 114.2500367  99.5208569  54.1821452 115.3547668  96.7222308
  54.9231165 115.9554821  96.6426770  54.4139375 114.6125306  96.1640351
  58.1278615 111.3828771  90.9986590  57.7842884 112.2730413  90.9225700
  58.4957578 111.1930429  90.1356175  58.0928898 121.3737382  79.5059025
  57.5775521 122.1441987  79.7447412  57.8206206 120.7002518  80.1292086
  55.6776009 116.2187083  84.5644263  54.8217605 115.8293933  84.3849902
  56.0902960 116.2979044  83.7044049  57.2075155 113.7533426  88.9635823
  56.7039951 113.7163561  88.1503628  57.5005762 114.6626169  89.0232480
  53.4518041 113.8372156  87.9702005  54.3171038 113.6414964  87.6107894
  53.5195550 113.6082508  88.8971361  63.0663172 124.1269737  81.4412198
  62.2892615 123.7880896  80.9967360  63.7454653 124.1322360  80.7667163
  57.8815201 119.2464474  81.3318806  57.5765336 119.5610623  82.1828949
  58.8345643 119.3245894  81.3746139  61.3054479 123.6003718  88.0978806
  60.6478153 124.2902979  88.1858935  62.1094878 123.9900150  88.4412793
  51.0580360 116.0674364  85.3418371  51.6324112 115.8449545  84.6091564
  51.6451343 116.1363058  86.0946973  60.1159937 121.9548091  86.1482748
  60.6291819 122.5878082  86.6504458  60.7661161 121.3549286  85.7826108
  51.3849947 118.0978825  79.3614257  50.5487260 118.4353511  79.6823531
  51.2454717 117.9627805  78.4241394  53.3603028 112.9415613  84.0693441
  52.7067440 112.6264630  83.4450056  53.3183502 112.3191353  84.7953264
  56.5940768 119.4297546  88.3941089  55.6763330 119.6512493  88.2362777
  57.0100912 119.5043857  87.5352796  57.3775816 120.8288962  83.5243769
  58.1247635 121.3410359  83.2150891  57.6467406 120.5073015  84.3848162
  59.8254653 117.8646078  85.5062558  59.0877410 117.3523464  85.8372801
  60.0781427 117.4246460  84.6945835  59.9266281 110.6422330  86.1004327
  60.2325157 109.7819694  85.8130242  60.6518885 111.2339950  85.9003321
  54.1987360 120.9376123  86.6080518  54.2535970 119.9849960  86.5322995
  53.3878562 121.0935562  87.0921817  52.1379720 119.5553183  84.3670897
  51.3247586 119.8547353  84.7736089  52.6338714 119.1608872  85.0845380
  57.7353932 120.0195007  93.1985791  58.0903320 120.2466481  94.0580257
  58.3826063 120.3513384  92.5763046  63.4651669 123.1413443  83.9035120
  63.3269567 123.3315039  82.9756309  63.1087888 123.9032826  84.3603171
  51.6293795 117.1271538  89.9832132  52.2693174 116.9860298  89.2855096
  50.7971326 116.8406052  89.6070734  63.4921048 125.2089970  88.9146392
  63.9257555 125.1165259  89.7629446  64.2052629 125.1847471  88.2766408
  48.7136862 120.5717051  82.1726877  47.7834450 120.5101506  82.3896840
  48.8094334 120.0493003  81.3763519  48.6322411 117.0971863  84.7605119
  48.8929229 118.0117197  84.6514280  49.4539584 116.6296306  84.9101732
  50.1047337 118.5109621  91.9303944  50.7770390 118.3026983  91.2816592
  49.2777123 118.3131707  91.4909176  64.3536598 125.2513671  91.4479277
  64.5472488 126.1559481  91.6938552  64.2537216 124.7921090  92.2817862
  56.0072909 115.1371562  93.9469604  55.3600824 115.8361511  93.8534081
  56.7773924 115.5707705  94.3145853  56.1837043 122.9752326  92.0066424
  57.1129103 123.1263486  91.8335391  55.7628073 123.0636347  91.1515071
  59.4689782 123.7240628  77.4390859  58.8518952 122.9987456  77.3423912
  59.0006270 124.4849988  77.0957933  53.1357135 121.4972183  92.1790060
  53.8456753 120.8565375  92.1376679  53.0926443 121.7485078  93.1016241
  51.8486069 118.4837401  93.9985700  51.3123426 118.0328139  94.6507296
  51.2602777 118.6183310  93.2556164  51.2588328 117.9426052  76.5612163
  50.3817794 117.8214853  76.1974410  51.7346081 117.1512130  76.3091052
  47.5825190 117.6193408  91.0838694  47.4983379 117.0119078  90.3489104
  46.7607896 118.1102427  91.0848191  57.7548904 116.1046972  86.4508889
  58.2517603 115.3516934  86.1309960  56.9835885 116.1411289  85.8852099
  65.6078661 121.8087338  88.0927181  65.5968537 122.6912053  87.7221114
  64.7396041 121.4558888  87.8981718  54.3383872 118.2464355  86.1780574
  53.9681660 117.6935395  86.8661480  54.8342965 117.6422488  85.6255574
  62.2251236 120.7035979  84.5597347  62.6911688 121.5363970  84.4857650
  62.6758736 120.2380960  85.2642605  60.1967899 113.0716565  88.5988248
  59.2830978 113.3020792  88.7670455  60.6261000 113.1555010  89.4502281
  59.9674357 121.2606457  91.0988142  59.3145807 121.5082365  90.4440595
  60.3454737 120.4470596  90.7650620  56.0161930 122.0026269  97.5854179
  55.3402567 121.9020398  98.2556555  56.8389564 121.8465482  98.0490177
  49.7349206 115.6568346  92.4233680  49.7990533 116.5183177  92.0111078
  49.6716326 115.0442347  91.6906039  49.2101479 117.7291478  96.0706714
  49.8373517 117.3468556  96.6844239  48.3529398 117.5105680  96.4362407
  45.9867021 119.5367907  82.0025069  46.2820463 118.6278586  81.9492123
  45.0855057 119.5155647  81.6806072  49.5161268 117.6123904  87.9852618
  48.7947854 118.2259872  87.8460091  50.3054524 118.1481669  87.9069264
  52.3187582 114.9478330  94.2593270  52.8421984 115.1940627  95.0219579
  52.0999915 115.7798365  93.8396407  47.7154863 117.2182005  82.1264394
  47.3867569 116.3379384  81.9439500  48.0694234 117.1629674  83.0140784
  50.8296686 117.5054975  82.4939872  51.1692759 118.0340896  81.7718480
  51.2768807 117.8435381  83.2698439  53.5240127 115.8892026  91.9442940
  53.1836947 115.0899839  92.3463620  52.8179133 116.1893736  91.3719773
  54.1756599 112.9741338  90.3970263  54.9982668 112.5001816  90.2749153
  54.4194662 113.7531822  90.8968949  52.8164833 116.0029596  80.6933165
  53.5373196 116.3810849  80.1896882  52.1930137 116.7218473  80.7968143
  56.9595956 116.7074745  81.6291497  57.1759571 117.5899383  81.3280325
  56.4790023 116.3160959  80.8997139  51.6995178 119.6660459  88.2062242
  51.5539758 119.9800762  89.0986523  51.2220381 120.2845359  87.6533140
  53.5591560 116.6563007  88.2543131  53.5453129 115.7604100  87.9175429
  54.2763989 116.6633670  88.8881417  55.4117691 117.0900347  90.2996259
  55.1535469 118.0117418  90.2980589  54.8802732 116.6930781  90.9896723
  52.9628456 115.5377387  83.5230701  53.0844368 114.6094033  83.7221589
  52.6730499 115.5516073  82.6109017  55.8319647 113.2232297  86.6597421
  55.8541344 113.2871630  85.7049401  56.2487706 112.3836806  86.8537927
  66.2103271 122.9587557  84.6976644  66.6534417 122.2094882  84.2995767
  65.3329781 122.9497693  84.3150376  52.4469536 117.0509384  97.7320634
  52.4957691 117.9271507  97.3498404  52.9892050 116.5086777  97.1592277
  63.0522257 124.4442974  94.3254500  63.1020262 124.2792981  95.2670022
  62.9436180 123.5770233  93.9352380  60.3426019 120.4273902  95.6413806
  61.2435882 120.2880367  95.3497804  60.4173994 120.5928357  96.5811984
  54.6768824 117.8040757  94.4866993  53.8072134 118.0974323  94.2149581
  54.9128305 118.3881202  95.2074256  65.7536136 124.4292795  87.0899091
  66.5883027 124.8682599  87.2536652  65.8895265 123.9531448  86.2707337
  62.8027642 121.9872530  93.0376579  63.2781763 122.1800176  92.2295431
  61.8793207 122.0431716  92.7919963  57.3807858 114.0220374  92.0032413
  57.8989802 114.7581401  91.6778902  57.0262991 114.3284367  92.8379172
  48.9606796 118.8825055  80.1193819  48.2676041 118.9569410  79.4633855
  48.7158548 118.1185398  80.6415336  57.6320452 110.4420656  87.5233310
  57.9122206 109.7743845  88.1493736  58.4171059 110.6349752  87.0107973
  61.5029311 118.8638290  91.2704885  62.4546734 118.9636388  91.2917109
  61.3332761 118.0716559  91.7802969  59.5243690 115.9493873  91.4564286
  58.9293622 116.2298886  90.7610774  59.2393387 116.4387774  92.2281027
  63.9817389 122.0844410  90.3847184  63.9493709 121.1460411  90.5706868
  64.5918012 122.1628447  89.6513009  55.8200719 120.9540463  76.4274388
  56.7659824 120.8246671  76.4962806  55.4414964 120.2155125  76.9043817
  64.1311877 118.8755453  90.4305468  63.6150926 118.0913910  90.2435396
  65.0151826 118.5474170  90.5951987  61.7922604 112.6196469  86.3901280
  61.5947425 112.3111557  87.2744612  62.4022309 113.3458108  86.5199210
  69.7993938 123.1460417  89.5253221  70.5297327 122.8845705  90.0860925
  69.1900884 122.4089139  89.5655289  67.8809235 121.2868279  90.1227672
  67.1542399 121.1524244  89.5144164  67.4656522 121.5945108  90.9284390
  54.0043637 118.8790439  76.3629274  53.0975092 118.5823552  76.4391987
  54.2819618 118.5820257  75.4963560  55.6205702 113.4227329  82.5173515
  54.8106431 113.0774414  82.8928761  56.3090119 113.1134873  83.1061127
  57.5496251 112.5005376  84.1397812  58.1027289 112.9200829  84.7987835
  57.7866337 111.5741124  84.1820768  53.5729350 118.4892449  99.9200575
  53.4726077 119.4386806  99.8512667  53.3550892 118.1610688  99.0476646
  52.7742421 115.7377374  76.5041253  53.6361585 116.0632273  76.7637070
  52.9592765 114.9508870  75.9914319  60.9275058 114.6105901  83.6476476
  60.3473727 115.2690705  83.2654528  60.6610990 113.7883245  83.2363893
  59.3778624 114.0110959  85.8497796  59.8778402 114.1227493  85.0412115
  60.0214232 113.7072011  86.4898605  59.7099936 116.7705991  82.7032824
  58.8225791 117.0555642  82.4853019  60.1253925 116.6099755  81.8560101
  63.0614472 116.7952512  86.4187163  63.8374862 117.2848965  86.6911780
  62.3362606 117.2210566  86.8759033  65.4987030 117.5080131  87.4761104
  66.0931521 117.2675867  86.7654412  65.5713614 116.7887262  88.1034640
  59.6840959 122.2860527  82.9183114  59.6276161 122.7429079  82.0790747
  60.2369302 121.5251212  82.7405957  63.4945765 118.0750259  83.7433234
  63.2382700 117.6746895  84.5741441  62.8698633 118.7894053  83.6183373
  67.8058103 120.8146332  86.2504525  67.2457661 120.8839522  87.0236087
  67.2001607 120.6387317  85.5304021  60.4175739 123.4765308  80.2135643
  60.3624542 123.3109580  79.2724088  59.7921794 124.1841341  80.3697833
  45.2068254 118.7133373  94.0397066  45.8527117 118.2032327  94.5284291
  44.9985405 119.4502054  94.6140491  53.7271864 112.9773417  79.7920962
  53.7150534 113.9215257  79.9489233  54.6195286 112.7943563  79.4980423
  57.5423984 109.5716194  84.0466899  56.7756379 109.0174681  84.1923581
  57.9534689 109.6438063  84.9081050  49.5465745 115.8600990  98.1372080
  50.4097206 115.5037795  98.3475404  48.9731155 115.5214885  98.8247484
  68.9672369 126.7120689  90.9986590  68.6236639 127.6022330  90.9225700
  69.3351332 126.5222346  90.1356175  70.7660035 125.9714248  86.1004327
  71.0718912 125.1111611  85.8130242  71.4912640 126.5631868  85.9003321
  68.4714207 125.7712574  87.5233310  68.7515961 125.1035763  88.1493736
  69.2564814 125.9641669  87.0107973  72.6316358 127.9488387  86.3901280
  72.4341180 127.6403475  87.2744612  73.2416064 128.6750025  86.5199210
  68.3817738 124.9008112  84.0466899  67.6150134 124.3466598  84.1923581
  68.7928443 124.9729981  84.9081050   4.3551596  22.5213463  75.6679788
   4.9930006  22.4020210  74.9643128   4.2372439  23.4694307  75.7267740
   1.1641302  22.4740891  75.6041312   0.8259814  22.3581956  74.7161847
   2.0331070  22.0732056  75.5842318   1.6461085  23.6275743  81.5627518
   1.6349726  23.2328541  80.6908021   1.8081725  22.8941815  82.1561289
   2.6027677  27.9947335  66.9052668   1.9515656  28.5801415  66.5186682
   3.3972039  28.5253530  66.9647706   3.9092864  20.2464917  72.7432996
   4.6955954  19.8284340  72.3923413   4.1731569  21.1511009  72.9114644
   4.0802942  25.6837767  67.4421652   3.4448775  25.7572393  68.1542557
   3.7500348  26.2731366  66.7640732   9.3101292  20.1840150  73.6465974
  10.0426463  19.6139367  73.8803804   8.5540647  19.7961750  74.0872480
   0.9277411  22.6067391  70.8429317   0.5635618  22.0798012  71.5542238
   1.7844527  22.2165860  70.6695802   3.3258231  26.0974270  77.5056495
   3.0258955  26.9999309  77.3972303   2.9809291  25.8306453  78.3577648
   6.7255375  18.6156810  75.1853933   5.8172253  18.5472219  74.8912694
   6.6742971  19.0928755  76.0135758   8.5917022  16.8173249  76.9631807
   7.9491402  17.1105782  76.3171601   8.0871950  16.7026169  77.7685003
   6.2457185  20.5636422  67.6517666   7.1575041  20.7963808  67.4765363
   5.7366832  21.1473466  67.0892745   4.5297953  24.9861050  81.2878959
   4.9381309  24.5443460  80.5433591   3.8075214  24.4113677  81.5413151
   0.8829023  19.9233656  78.6612515   1.7290218  20.3473070  78.8047164
   0.8227661  19.2667281  79.3551079   4.8526768  25.5462240  75.0431247
   4.2235630  25.7107954  74.3407315   4.4652430  25.9603850  75.8142211
   8.7315999  26.4816678  72.3975611   8.0467038  26.8615579  71.8472644
   8.8159849  27.0912005  73.1307559   4.0328468  17.5838025  80.3193689
   3.7889400  18.3380085  79.7827965   4.3088399  17.9623372  81.1540936
   5.9866931  24.1276637  78.9970955   6.1983826  24.7708397  78.3205336
   5.9396679  23.2938954  78.5292885   3.5893160  16.7394458  75.9007527
   2.7277639  17.0375711  76.1924264   3.6155595  16.9564857  74.9688559
   7.1012759  27.0048592  77.1693312   7.9230203  26.6028780  76.8875994
   7.0975162  26.9016827  78.1209428  15.1918752  23.3487341  73.5178283
  14.4382460  22.7794739  73.3622288  15.3266293  23.3150005  74.4648918
   0.5817380  28.2200743  69.1933003   0.4463055  29.0652279  69.6217851
   1.1227193  28.4220021  68.4298937   2.2085857  28.8424310  83.3233345
   1.7649711  28.0560688  83.0054249   2.8703070  29.0303460  82.6577236
   4.3067095  29.1227110  81.3514746   4.2885570  29.9435991  80.8595015
   5.2287015  28.9981185  81.5764887   3.8960126  21.7339916  66.2304331
   3.3806750  22.5044521  66.4692719   3.6237435  21.0605052  66.8537393
   8.8694401  24.4872271  68.1657505   8.0923843  24.1483430  67.7212667
   9.5485882  24.4924894  67.4912470   3.6846430  19.6067008  68.0564113
   3.3796565  19.9213158  68.9074256   4.6376872  19.6848428  68.0991446
   2.1292861  25.7657232  69.7057067   1.6014223  25.0309991  69.3930304
   1.6280364  26.5431908  69.4597035   7.1085707  23.9606252  74.8224113
   6.4509382  24.6505514  74.9104242   7.9126107  24.3502684  75.1658099
   5.9191166  22.3150625  72.8728055   6.4323048  22.9480617  73.3749764
   6.5692390  21.7151820  72.5071415   3.1813541  32.2934949  65.6288726
   2.5075239  32.5966646  66.2373684   3.5679362  33.0964029  65.2794183
   2.3971997  19.7900080  75.1186395   1.4794559  20.0115027  74.9608083
   2.8132141  19.8646391  74.2598102   3.1807045  21.1891496  70.2489075
   3.9278864  21.7012893  69.9396197   3.4498634  20.8675549  71.1093469
   1.4533695  23.6850037  67.2316030   0.5444914  23.4009070  67.3288499
   1.4828779  24.1049115  66.3719337   6.6852962  27.2956626  71.0007197
   6.2315290  26.4547536  71.0572388   6.0546929  27.9318025  71.3381977
   5.6285882  18.2248612  72.2307865   4.8908639  17.7125999  72.5618107
   5.8812656  17.7848994  71.4191142   5.1285902  29.1333123  71.9357015
   5.4208876  29.6938180  71.2169381   5.6384522  29.4261684  72.6910175
   1.1509783  25.2258780  64.5704108   0.7129213  24.5094639  64.1109746
   1.8920224  25.4534895  64.0089200   3.5385161  20.3797542  79.9231098
   3.8934548  20.6069015  80.7825564   4.1857292  20.7115918  79.3008353
   9.2682898  23.5015977  70.6280427   9.1300796  23.6917573  69.7001616
   8.9119116  24.2635360  71.0848478   9.2952277  25.5692504  75.6391698
   9.7288784  25.4767794  76.4874752  10.0083858  25.5450005  75.0011714
   3.0280172  29.1694599  77.1724799   3.0817194  29.7385535  77.9402515
   2.1594954  29.3396484  76.8078836  10.1567827  25.6116205  78.1724584
  10.3503717  26.5162016  78.4183859  10.0568445  25.1523624  79.0063169
   5.2182935  25.7622948  83.7465464   5.0668442  25.5333500  82.8295548
   5.2087615  26.7193549  83.7596809   1.9868272  23.3354861  78.7311731
   2.9160332  23.4866020  78.5580698   1.5659302  23.4238881  77.8760377
   1.3804756  32.4614622  67.8435805   1.5556511  31.9902665  68.6581428
   0.6937544  33.0880388  68.0717066   2.3361819  26.7387128  73.8899106
   2.0011651  26.6987898  74.7856756   1.8365765  26.0731844  73.4169516
   5.2721010  24.0843162  64.1636166   4.6550181  23.3589990  64.0669219
   4.8037499  24.8452522  63.8203240   6.9275142  28.7942070  81.8241946
   6.8687688  28.1101291  81.1572529   7.3294661  29.5361060  81.3722572
   6.9292549  26.7581654  80.0555926   6.0419328  26.4207576  80.1782325
   7.4991100  26.0264686  80.2924691   3.5580133  16.4649506  73.1754196
   4.0548832  15.7119469  72.8555266   2.7867114  16.5013823  72.6097405
  11.4109890  22.1689872  74.8172488  11.3999766  23.0514587  74.4466421
  10.5427269  21.8161423  74.6227025   2.9192386  31.3169941  79.1775328
   3.6320359  31.9517406  79.1051229   2.4282415  31.4133807  78.3615330
   4.6409913  25.2221193  70.7492619   3.7066192  25.3422656  70.5797324
   4.8186582  24.3193660  70.4852629   8.0282465  21.0638513  71.2842654
   8.4942917  21.8966504  71.2102956   8.4789965  20.5983494  71.9887912
   6.0958696  27.4082334  68.2828806   6.3718540  27.2938929  69.1922680
   5.2263194  27.0099819  68.2440979   5.7705586  21.6208992  77.8233449
   5.1177036  21.8684899  77.1685902   6.1485966  20.8073130  77.4895926
   2.7312760  31.6568685  71.9261619   2.9135154  30.8390341  72.3889372
   3.5545746  31.8736377  71.4886509   3.0654925  30.5836870  69.1876668
   3.5942692  30.0729325  68.5746830   3.3283145  30.2679400  70.0522201
   1.8193159  22.3628803  84.3099486   1.1433796  22.2622932  84.9801861
   2.6420793  22.2068016  84.7735483   0.5615942  33.6695730  78.5457102
   1.1134250  33.8327352  79.3106187   0.9022135  34.2600168  77.8737127
   5.4126816  28.4956988  84.4005756   5.9566720  29.1086946  83.9060711
   4.8313661  29.0536566  84.9172769   3.6984329  31.6177706  75.5320784
   3.5735468  30.8167446  75.0231730   4.3563420  32.1123899  75.0434754
   5.7619237  29.4186726  77.1600334   4.8149573  29.2992077  77.0878661
   6.1102010  28.5309224  77.2426596   2.7665671  29.2139442  73.3604686
   2.6190633  28.2856149  73.5412257   3.5919164  29.2359533  72.8761762
   6.3699793  30.0368001  74.4469559   7.2946340  29.8310862  74.3094010
   6.2015096  29.7884402  75.3558901   6.1595109  30.5553668  69.8031651
   6.3331986  29.9900091  69.0505503   6.6524000  31.3554563  69.6211141
  12.0134500  23.3190091  71.4221950  12.4565646  22.5697416  71.0241074
  11.1361010  23.3100227  71.0395682   7.1470281  29.8720433  66.9028549
   7.8421186  30.4927125  67.1215864   7.4893431  29.0215784  67.1780927
   9.0461704  27.3220138  68.4315880   9.5713028  27.6607411  67.7065200
   8.9584057  26.3867153  68.2479014   0.7081753  31.2354212  80.5605756
   1.0168879  30.9903359  81.4328456   1.5057235  31.4400850  80.0724627
   8.7355610  27.9553042  83.7367078   7.9451154  27.9377181  83.1971577
   8.4988965  28.4941335  84.4916114   8.8553485  24.8045508  81.0499806
   8.9051490  24.6395516  81.9915329   8.7467409  23.9372767  80.6597687
   6.1457248  20.7876436  82.3659113   7.0467111  20.6482901  82.0743111
   6.2205222  20.9530891  83.3057290  10.3571682  27.2242450  81.2941828
  10.0656491  27.5872430  82.1305289   9.7443814  26.5109458  81.1155160
  11.5567365  24.7895329  73.8144398  12.3914256  25.2285134  73.9781958
  11.6926493  24.3133983  72.9952644   8.6058871  22.3475064  79.7621886
   9.0812992  22.5402711  78.9540737   7.6824436  22.4034250  79.5165269
   1.2385150  29.9782184  65.8103643   0.6659117  30.5972371  65.3574114
   1.8117943  30.5281546  66.3443565   7.3060540  19.2240824  77.9950191
   8.2577962  19.3238922  78.0162415   7.1363990  18.4319093  78.5048276
   5.3274919  16.3096408  78.1809592   4.7324851  16.5901420  77.4856081
   5.0424616  16.7990309  78.9526333   4.4582409  30.2619334  66.9412225
   5.3913083  30.1964896  67.1445100   4.3705622  31.0975601  66.4826757
   7.0870426  29.5785205  63.9016172   7.0084058  29.2445068  64.7951930
   7.9080093  30.0706973  63.9007645   9.7848617  22.4446944  77.1092491
   9.7524937  21.5062945  77.2952175  10.3949241  22.5230981  76.3758316
   1.6231948  21.3142997  63.1519695   2.5691053  21.1849205  63.2208113
   1.2446193  20.5757659  63.6289123   9.9343106  19.2357987  77.1550774
   9.4182154  18.4516444  76.9680703  10.8183054  18.9076704  77.3197294
  15.6025167  23.5062951  76.2498528  16.3328556  23.2448239  76.8106231
  14.9932113  22.7691673  76.2900596  13.6840464  21.6470813  76.8472979
  12.9573628  21.5126778  76.2389471  13.2687751  21.9547642  77.6529697
   1.5070641  25.3660743  84.6120352   2.4273650  25.5439342  84.8060399
   1.4720224  24.4216789  84.4600051   6.7306286  14.9708435  70.3721782
   6.1504955  15.6293239  69.9899835   6.4642219  14.1485780  69.9609200
   5.5131164  17.1308525  69.4278131   4.6257019  17.4158176  69.2098325
   5.9285154  16.9702289  68.5805408   8.8645701  17.1555046  73.1432470
   9.6406091  17.6451499  73.4157087   8.1393835  17.5813101  73.6004339
  11.3018259  17.8682666  74.2006411  11.8962750  17.6278402  73.4899719
  11.3744843  17.1489796  74.8279947   4.6574378  26.8953200  63.5226151
   5.3610228  27.1003203  64.1383806   3.9337027  27.4629962  63.7875234
   5.4872188  22.6463061  69.6428421   5.4307390  23.1031613  68.8036053
   6.0400531  21.8853746  69.4651264   9.2976994  18.4352793  70.4678540
   9.0413928  18.0349429  71.2986748   8.6729862  19.1496587  70.3428680
  13.6089332  21.1748867  72.9749832  13.0488890  21.2442056  73.7481394
  13.0032835  20.9989851  72.2549328   6.5661075  27.3335729  65.5724611
   7.4006679  26.9016928  65.3902086   6.4045418  27.1617743  66.5001505
   6.2206968  23.8367843  66.9380950   6.1655771  23.6712114  65.9969394
   5.5953023  24.5443876  67.0943140   3.5352875  26.1416755  86.2634513
   4.4044034  26.3157407  85.9021148   3.0559626  26.9611171  86.1410242
  15.1945350  37.8505380  75.6679788  15.8323760  37.7312128  74.9643128
  15.0766193  38.7986224  75.7267740  12.0035057  37.8032809  75.6041312
  11.6653568  37.6873873  74.7161847  12.8724825  37.4023974  75.5842318
   7.8621872  39.6568285  71.5938203   7.2986738  39.5658222  70.8254491
   7.7474267  38.8368189  72.0740696  12.4854840  38.9567660  81.5627518
  12.4743480  38.5620459  80.6908021  12.6475479  38.2233733  82.1561289
   5.4086304  41.1519477  74.4322424   6.2007596  40.8110301  74.0168723
   5.6482954  41.2614452  75.3524577  13.4421431  43.3239253  66.9052668
  12.7909411  43.9093333  66.5186682  14.2365794  43.8545448  66.9647706
   7.3677058  40.4128390  67.3039802   8.1407934  39.8657377  67.1652678
   7.7202457  41.2772639  67.5154264   9.2062101  41.7404772  80.5106702
   8.9151967  42.6450403  80.3953368   9.8419085  41.7821300  81.2250771
  10.1318308  39.1181621  77.1008061  10.7281880  38.8937643  76.3865024
  10.1893279  38.3766366  77.7033509   9.7043336  36.5721056  64.9358252
   9.9568857  36.0502577  64.1741715   8.7667895  36.4087201  65.0384936
  14.7486619  35.5756834  72.7432996  15.5349708  35.1576257  72.3923413
  15.0125323  36.4802926  72.9114644  14.9196696  41.0129685  67.4421652
  14.2842529  41.0864311  68.1542557  14.5894103  41.6023283  66.7640732
  20.1495046  35.5132068  73.6465974  20.8820218  34.9431284  73.8803804
  19.3934402  35.1253668  74.0872480   9.4239625  38.4749162  67.1382627
   9.3075883  37.7994065  67.8063712   9.5341885  37.9881536  66.3214780
  11.7671166  37.9359309  70.8429317  11.4029373  37.4089930  71.5542238
  12.6238282  37.5457778  70.6695802  17.6720466  29.2253642  78.1060583
  17.3403791  30.0949053  77.8821798  17.0766080  28.9089926  78.7854613
  11.4076653  32.9649209  65.8390665  11.5751055  33.8329445  66.2061136
  11.2173822  33.1276490  64.9151954  14.1651986  41.4266188  77.5056495
  13.8652709  42.3291226  77.3972303  13.8203045  41.1598371  78.3577648
   7.6164467  37.8779984  73.5393200   6.6914964  37.7456199  73.7470892
   7.8648881  38.6574204  74.0363142  17.5649130  33.9448728  75.1853933
  16.6566007  33.8764136  74.8912694  17.5136725  34.4220673  76.0135758
  11.3865874  35.4206866  66.8237332  11.2665499  35.8663917  67.6622812
  10.6918462  35.7692184  66.2650870   4.9773278  37.5213258  74.3736989
   5.1065660  37.7747737  75.2876401   4.2970730  38.1140966  74.0541644
   9.1472766  48.1910508  70.4727463   9.0696795  49.1418333  70.5515944
   8.5434409  47.8456380  71.1302389  11.6389995  35.3638373  83.1288830
  10.8623330  35.9232294  83.1191695  12.2780559  35.8495156  83.6503700
  19.4310776  32.1465166  76.9631807  18.7885156  32.4397699  76.3171601
  18.9265705  32.0318087  77.7685003  17.0850940  35.8928339  67.6517666
  17.9968796  36.1255726  67.4765363  16.5760587  36.4765384  67.0892745
   9.8936368  38.1723827  82.6906797  10.6351052  38.7108871  82.4141621
   9.1873353  38.7990116  82.8478349  15.3691707  40.3152967  81.2878959
  15.7775063  39.8735378  80.5433591  14.6468969  39.7405595  81.5413151
  11.7222777  35.2525574  78.6612515  12.5683973  35.6764988  78.8047164
  11.6621415  34.5959198  79.3551079  15.6920522  40.8754158  75.0431247
  15.0629385  41.0399872  74.3407315  15.3046184  41.2895767  75.8142211
  19.5709754  41.8108596  72.3975611  18.8860792  42.1907497  71.8472644
  19.6553603  42.4203922  73.1307559  14.8722223  32.9129942  80.3193689
  14.6283155  33.6672003  79.7827965  15.1482153  33.2915290  81.1540936
  16.8260686  39.4568555  78.9970955  17.0377581  40.1000315  78.3205336
  16.7790434  38.6230871  78.5292885  14.4286915  32.0686375  75.9007527
  13.5671394  32.3667629  76.1924264  14.4549349  32.2856774  74.9688559
  11.2448484  40.6128566  72.3081332  11.7086829  40.8916269  71.5185955
  10.9805282  39.7112011  72.1254423   8.1372565  40.1600047  75.2461096
   8.7073922  40.5887316  74.6078580   8.7280677  39.8782632  75.9445281
  10.1817370  36.7351718  69.1170898  10.8841413  37.1872762  69.5844824
   9.8497999  36.0935537  69.7450791   8.6297732  35.3263475  83.4922107
   7.9996392  36.0079756  83.7257504   8.5233819  35.2146557  82.5475245
   3.9242704  34.9935271  74.4188031   3.1341758  35.2492799  73.9428142
   4.4153951  35.8083609  74.5240072  17.9406514  42.3340510  77.1693312
  18.7623957  41.9320697  76.8875994  17.9368916  42.2308744  78.1209428
   5.8757449  35.3579850  71.3771508   5.0788613  35.4698544  71.8955004
   5.6483042  35.6966502  70.5112398  11.7063117  41.8824553  79.3254023
  11.7707549  42.3444961  80.1612194  10.9974041  41.2521918  79.4536332
   2.2080407  35.2465761  76.8503022   2.4588445  36.1312771  77.1160598
   2.7439955  35.0670363  76.0778114  26.0312507  38.6779259  73.5178283
  25.2776215  38.1086657  73.3622288  26.1660048  38.6441923  74.4648918
  11.4211135  43.5492661  69.1933003  11.2856809  44.3944197  69.6217851
  11.9620947  43.7511939  68.4298937   7.9078474  29.6284241  85.8547358
   7.5145420  29.0750439  86.5295002   8.7244615  29.9394819  86.2453876
   4.8740532  41.0668099  69.7660928   5.3865053  41.8611349  69.9166493
   5.5263245  40.3694389  69.6994529   6.6835417  44.1833855  71.8483681
   6.8602045  45.1051820  71.6604665   7.4792250  43.8692274  72.2778061
  10.8246435  31.0442120  83.4467615  11.5656149  31.6449273  83.3672077
  11.0564358  30.3019758  82.8885657   5.9687773  36.2298487  81.7245844
   5.8541288  35.3283744  82.0252943   5.1132291  36.4762184  81.3730661
  13.0479611  44.1716227  83.3233345  12.6043465  43.3852606  83.0054249
  13.7096825  44.3595378  82.6577236   7.8066732  45.7012029  77.8494023
   8.3574157  45.5729092  77.0771017   6.9678208  46.0006918  77.4988916
  15.1460849  44.4519027  81.3514746  15.1279324  45.2727908  80.8595015
  16.0680769  44.3273103  81.5764887  11.6033903  41.9663157  82.1938255
  12.1362240  41.2051445  81.9637563  11.0747984  41.6736809  82.9362409
  14.7703598  27.0723223  77.7231896  14.4267868  27.9624864  77.6471007
  15.1382561  26.8824880  76.8601481   2.8389449  39.3956753  70.5420498
   3.6764671  39.8053762  70.3254206   3.0167717  38.4556195  70.5120692
  14.7353881  37.0631834  66.2304331  14.2200504  37.8336439  66.4692719
  14.4631189  36.3896970  66.8537393  12.3200992  31.9081535  71.2889570
  11.4642588  31.5188385  71.1095208  12.7327944  31.9873495  70.4289355
  13.8500139  29.4427878  75.6881130  13.3464934  29.4058013  74.8748935
  14.1430745  30.3520621  75.7477786  10.0943024  29.5266608  74.6947311
  10.9596021  29.3309416  74.3353201  10.1620533  29.2976959  75.6216668
  19.7088155  39.8164189  68.1657505  18.9317598  39.4775348  67.7212667
  20.3879636  39.8216812  67.4912470  14.5240184  34.9358926  68.0564113
  14.2190320  35.2505075  68.9074256  15.4770626  35.0140346  68.0991446
  12.9686616  41.0949149  69.7057067  12.4407978  40.3601909  69.3930304
  12.4674119  41.8723826  69.4597035  17.9479462  39.2898170  74.8224113
  17.2903136  39.9797431  74.9104242  18.7519861  39.6794602  75.1658099
   7.7005344  31.7568816  72.0663678   8.2749095  31.5343997  71.3336871
   8.2876326  31.8257510  72.8192279  16.7584921  37.6442542  72.8728055
  17.2716803  38.2772534  73.3749764  17.4086145  37.0443738  72.5071415
   8.0274931  33.7873277  66.0859563   7.1912243  34.1247963  66.4068838
   7.8879700  33.6522256  65.1486700  10.0028011  28.6310065  70.7938748
   9.3492424  28.3159082  70.1695362   9.9608485  28.0085805  71.5198570
  11.1139216  38.9129360  62.7092040  10.2066278  38.6818613  62.9083189
  11.6110248  38.1166979  62.8966021  14.0207295  47.6226867  65.6288726
  13.3468994  47.9258564  66.2373684  14.4073117  48.4255947  65.2794183
  13.2365752  35.1191998  75.1186395  12.3188313  35.3406945  74.9608083
  13.6525895  35.1938309  74.2598102  14.0200799  36.5183414  70.2489075
  14.7672618  37.0304811  69.9396197  14.2892389  36.1967466  71.1093469
  12.2927450  39.0141954  67.2316030  11.3838669  38.7300987  67.3288499
  12.3222533  39.4341033  66.3719337  17.5246717  42.6248544  71.0007197
  17.0709044  41.7839454  71.0572388  16.8940684  43.2609942  71.3381977
  16.4679637  33.5540530  72.2307865  15.7302393  33.0417916  72.5618107
  16.7206410  33.1140912  71.4191142  15.9679656  44.4625041  71.9357015
  16.2602631  45.0230098  71.2169381  16.4778277  44.7553602  72.6910175
  16.5691264  26.3316782  72.8249634  16.8750141  25.4714145  72.5375549
  17.2943869  26.9234402  72.6248628   2.8615620  36.7347469  71.2131232
   2.6640020  36.1416829  70.4882298   2.3062284  36.4299679  71.9307171
  10.8412344  36.6270575  73.3325825  10.8960953  35.6744411  73.2568302
  10.0303546  36.7830014  73.8167123  11.9903537  40.5550698  64.5704108
  11.5522967  39.8386557  64.1109746  12.7313978  40.7826813  64.0089200
   8.7804704  35.2447635  71.0916204   7.9672569  35.5441805  71.4981396
   9.2763698  34.8503324  71.8090686  10.9313281  45.2405392  73.0250469
  10.8889460  45.4666238  72.0959001  11.8475980  45.0068766  73.1736270
  14.3778915  35.7089459  79.9231098  14.7328303  35.9360932  80.7825564
  15.0251046  36.0407836  79.3008353  20.1076652  38.8307895  70.6280427
  19.9694551  39.0209491  69.7001616  19.7512871  39.5927278  71.0848478
   8.2718778  32.8165990  76.7077439   8.9118158  32.6754749  76.0100402
   7.4396309  32.5300504  76.3316041  20.1346032  40.8984422  75.6391698
  20.5682538  40.8059711  76.4874752  20.8477612  40.8741923  75.0011714
   9.0479082  42.1168421  72.8212431   9.8419681  41.6218741  72.6195006
   8.3370775  41.5886284  72.4580137  13.8673927  44.4986516  77.1724799
  13.9210949  45.0677453  77.9402515  12.9988708  44.6688401  76.8078836
   5.3561846  36.2611502  68.8972184   4.4259434  36.1995958  69.1142146
   5.4519318  35.7387455  68.1008825   5.2747395  32.7866315  71.4850426
   5.5354212  33.7011649  71.3759586   6.0964567  32.3190758  71.6347038
   6.7472320  34.2004072  78.6549250   7.4195373  33.9921435  78.0061899
   5.9202107  34.0026158  78.2154482  20.9961581  40.9408123  78.1724584
  21.1897471  41.8453933  78.4183859  20.8962199  40.4815542  79.0063169
  12.6497892  30.8266013  80.6714911  12.0025807  31.5255963  80.5779387
  13.4198907  31.2602157  81.0391159  16.0576690  41.0914866  83.7465464
  15.9062196  40.8625417  82.8295548  16.0481369  42.0485467  83.7596809
  12.8262026  38.6646778  78.7311731  13.7554086  38.8157938  78.5580698
  12.4053056  38.7530799  77.8760377  11.6250358  42.6897443  76.5010268
  11.4861444  42.3216227  77.3736207  10.8364954  43.2045082  76.3294226
  12.2198510  47.7906539  67.8435805  12.3950266  47.3194582  68.6581428
  11.5331298  48.4172305  68.0717066  13.1755573  42.0679045  73.8899106
  12.8405406  42.0279815  74.7856756  12.6759519  41.4023761  73.4169516
   7.1499817  37.4746675  79.4151687   7.0119615  36.7426914  80.0163226
   8.0604741  37.3855576  79.1335875  16.1114765  39.4135080  64.1636166
  15.4943936  38.6881908  64.0669219  15.6431253  40.1744440  63.8203240
   9.7782118  37.1866635  78.9035367  10.4881736  36.5459827  78.8621985
   9.7351426  37.4379530  79.8261548  17.7668897  44.1233988  81.8241946
  17.7081443  43.4393208  81.1572529  18.1688415  44.8652978  81.3722572
   8.4911052  34.1731853  80.7231006   7.9548409  33.7222591  81.3752603
   7.9027760  34.3077761  79.9801471   6.7859595  50.9395902  74.6175665
   7.0256194  51.5714426  75.2954684   5.9428792  50.5883942  74.9041024
   7.9013311  33.6320504  63.2857470   7.0242777  33.5109305  62.9219717
   8.3771064  32.8406582  63.0336359  17.7686304  42.0873572  80.0555926
  16.8813083  41.7499494  80.1782325  18.3384855  41.3556603  80.2924691
   4.2250173  33.3087860  77.8084001   4.1408362  32.7013530  77.0734411
   3.4032880  33.7996879  77.8093497  11.2987457  46.7475024  77.0217169
  11.2257629  47.5529996  77.5336474  10.8564850  46.9466990  76.1965190
  11.0877237  45.9846794  70.5319991  10.3044759  46.5268475  70.6258215
  11.7869982  46.5020774  70.9314232  14.3973887  31.7941424  73.1754196
  14.8942587  31.0411386  72.8555266  13.6260869  31.8305741  72.6097405
  22.2503644  37.4981789  74.8172488  22.2393521  38.3806505  74.4466421
  21.3821024  37.1453340  74.6227025  13.7586141  46.6461858  79.1775328
  14.4714113  47.2809323  79.1051229  13.2676169  46.7425724  78.3615330
  15.4803668  40.5513111  70.7492619  14.5459946  40.6714574  70.5797324
  15.6580336  39.6485578  70.4852629  10.9808856  33.9358807  72.9025881
  10.6106643  33.3829847  73.5906786  11.4767948  33.3316940  72.3500881
  18.8676219  36.3930430  71.2842654  19.3336671  37.2258422  71.2102956
  19.3183720  35.9275412  71.9887912   8.8098054  44.3956302  79.9980899
   9.5107514  45.0292785  80.1510293   8.3393169  44.7371033  79.2376538
  16.9352450  42.7374252  68.2828806  17.2112294  42.6230846  69.1922680
  16.0656949  42.3391737  68.2440979  16.8392882  28.7611017  75.3233555
  15.9255962  28.9915244  75.4915762  17.2685983  28.8449461  76.1747587
  16.6099340  36.9500909  77.8233449  15.9570791  37.1976817  77.1685902
  16.9879720  36.1365048  77.4895926  13.5706514  46.9860603  71.9261619
  13.7528909  46.1682258  72.3889372  14.3939500  47.2028295  71.4886509
  13.9048680  45.9128788  69.1876668  14.4336446  45.4021242  68.5746830
  14.1676899  45.5971318  70.0522201  12.6586913  37.6920720  84.3099486
  11.9827550  37.5914850  84.9801861  13.4814547  37.5359934  84.7735483
   4.4065772  43.9292657  76.9312001   4.9919209  43.1836345  77.0639905
   4.2090611  44.2396614  77.8148665   7.2604428  46.9643904  71.9474444
   6.5914803  47.4490032  71.4638484   7.1217297  47.2113125  72.8617822
  11.4009696  48.9987648  78.5457102  11.9528004  49.1619269  79.3106187
  11.7415890  49.5892086  77.8737127   6.3774189  31.3462798  79.1478987
   6.4415516  32.2077629  78.7356384   6.3141310  30.7336799  78.4151345
   5.8526462  33.4185930  82.7952021   6.4798501  33.0363008  83.4089545
   4.9954381  33.2000132  83.1607713  16.2520571  43.8248905  84.4005756
  16.7960475  44.4378864  83.9060711  15.6707415  44.3828484  84.9172769
   2.6292005  35.2262359  68.7270376   2.9245446  34.3173038  68.6737429
   1.7280040  35.2050099  68.4051378  14.5378083  46.9469623  75.5320784
  14.4129223  46.1459363  75.0231730  15.1957175  47.4415817  75.0434754
   6.1586252  33.3018356  74.7097924   5.4372837  33.9154324  74.5705398
   6.9479507  33.8376121  74.6314570  16.6012992  44.7478643  77.1600334
  15.6543327  44.6283995  77.0878661  16.9495765  43.8601142  77.2426596
   8.9612565  30.6372782  80.9838576   9.4846967  30.8835079  81.7464885
   8.7424899  31.4692817  80.5641713   4.3579846  32.9076457  68.8509701
   4.0292552  32.0273836  68.6684807   4.7119217  32.8524126  69.7386090
  13.6059425  44.5431360  73.3604686  13.4584388  43.6148067  73.5412257
  14.4312919  44.5651450  72.8761762   7.4721669  33.1949427  69.2185179
   7.8117742  33.7235348  68.4963787   7.9193790  33.5329833  69.9943745
  17.2093547  45.3659918  74.4469559  18.1340094  45.1602780  74.3094010
  17.0408850  45.1176320  75.3558901  10.1665110  31.5786477  78.6688247
   9.8261931  30.7794291  79.0708927   9.4604117  31.8788188  78.0965080
  10.8181582  28.6635790  77.1215570  11.6407651  28.1896268  76.9994460
  11.0619646  29.4426274  77.6214256   9.4589817  31.6924048  67.4178471
  10.1798179  32.0705301  66.9142188   8.8355121  32.4112925  67.5213449
  13.6020939  32.3969197  68.3536804  13.8184554  33.2793835  68.0525632
  13.1215007  32.0055411  67.6242446   8.3420161  35.3554911  74.9307548
   8.1964742  35.6695214  75.8231830   7.8645365  35.9739811  74.3778447
  10.2016544  32.3457459  74.9788438  10.1878113  31.4498552  74.6420736
  10.9188972  32.3528122  75.6126724  12.0542674  32.7794799  77.0241565
  11.7960452  33.7011869  77.0225896  11.5227715  32.3825233  77.7142029
  16.9988863  45.8845586  69.8031651  17.1725741  45.3192008  69.0505503
  17.4917754  46.6846481  69.6211141   2.8165823  37.8960255  77.8695209
   2.2719291  38.6720063  78.0015484   3.6945173  38.2431059  77.7114331
   9.6053440  31.2271839  70.2476008   9.7269351  30.2988485  70.4466896
   9.3155482  31.2410525  69.3354323  12.4744630  28.9126749  73.3842728
  12.4966327  28.9766082  72.4294707  12.8912689  28.0731258  73.5783234
  22.8528254  38.6482009  71.4221950  23.2959400  37.8989334  71.0241074
  21.9754765  38.6392145  71.0395682  17.9864036  45.2012350  66.9028549
  18.6814940  45.8219043  67.1215864  18.3287186  44.3507701  67.1780927
   3.6031845  37.0230151  80.7625366   2.8613581  37.1712787  81.3489997
   3.2824589  37.2838417  79.8992116  19.8855459  42.6512056  68.4315880
  20.4106783  42.9899329  67.7065200  19.7977811  41.7159071  68.2479014
  11.5475508  46.5646129  80.5605756  11.8562634  46.3195276  81.4328456
  12.3450990  46.7692768  80.0724627  11.5696120  48.7184039  72.7911133
  11.1301110  48.2260418  73.4843990  12.3204237  48.1757007  72.5503208
   4.0488459  44.9095580  72.7935761   4.8746478  44.6099352  72.4134405
   3.6982511  44.1403202  73.2425550   9.0169992  44.2622048  74.8633435
   8.3950001  43.5992753  74.5635662   9.6874859  44.2883180  74.1807082
   2.2497064  42.8281906  73.7524695   1.4128972  42.4004081  73.5708696
   2.2220709  43.0214350  74.6895486   9.0894519  32.7403836  84.4565941
   9.1382675  33.6165959  84.0743710   9.6317033  32.1981229  83.8837584
  19.5749365  43.2844959  83.7367078  18.7844909  43.2669098  83.1971577
  19.3382719  43.8233253  84.4916114  19.6947240  40.1337426  81.0499806
  19.7445245  39.9687433  81.9915329  19.5861163  39.2664685  80.6597687
   8.5783499  42.8125972  68.3391895   8.7271619  43.4961436  67.6858568
   9.3849942  42.7931062  68.8541351  16.9851002  36.1168354  82.3659113
  17.8860865  35.9774819  82.0743111  17.0598977  36.2822809  83.3057290
  11.3193808  33.4935209  81.2112299  10.4497117  33.7868775  80.9394888
  11.5553288  34.0775654  81.9319563  21.1965437  42.5534367  81.2941828
  20.9050245  42.9164348  82.1305289  20.5837568  41.8401376  81.1155160
  22.3961119  40.1187247  73.8144398  23.2308010  40.5577051  73.9781958
  22.5320248  39.6425900  72.9952644  19.4452625  37.6766982  79.7621886
  19.9206747  37.8694628  78.9540737  18.5218190  37.7326168  79.5165269
   6.3336132  38.8391149  69.3452964   6.0882174  37.9353479  69.5433174
   6.5032046  38.8408300  68.4032442  14.0232842  29.7114826  78.7277720
  14.5414785  30.4475852  78.4024208  13.6687974  30.0178819  79.5624479
   5.6031779  34.5719507  66.8439126   4.9101024  34.6463862  66.1879161
   5.3583531  33.8079850  67.3660642  14.2745436  26.1315108  74.2478616
  14.5547189  25.4638297  74.8739043  15.0596043  26.3244204  73.7353280
  12.0778904  45.3074102  65.8103643  11.5052871  45.9264289  65.3574114
  12.6511698  45.8573464  66.3443565  18.1454294  34.5532742  77.9950191
  19.0971717  34.6530840  78.0162415  17.9757744  33.7611011  78.5048276
  16.1668673  31.6388325  78.1809592  15.5718606  31.9193338  77.4856081
  15.8818370  32.1282226  78.9526333  15.2976164  45.5911252  66.9412225
  16.2306837  45.5256814  67.1445100  15.2099377  46.4267519  66.4826757
  17.9264181  44.9077122  63.9016172  17.8477812  44.5736986  64.7951930
  18.7473847  45.3998890  63.9007645  20.6242372  37.7738862  77.1092491
  20.5918692  36.8354862  77.2952175  21.2342995  37.8522898  76.3758316
  12.4625703  36.6434915  63.1519695  13.4084807  36.5141123  63.2208113
  12.0839948  35.9049577  63.6289123  20.7736860  34.5649905  77.1550774
  20.2575909  33.7808362  76.9680703  21.6576809  34.2368622  77.3197294
  18.4347587  28.3090921  73.1146587  18.2372408  28.0006009  73.9989919
  19.0447293  29.0352560  73.2444517  26.4418922  38.8354869  76.2498528
  27.1722310  38.5740157  76.8106231  25.8325867  38.0983591  76.2900596
  24.5234219  36.9762731  76.8472979  23.7967382  36.8418696  76.2389471
  24.1081506  37.2839560  77.6529697  12.3464395  40.6952661  84.6120352
  13.2667405  40.8731260  84.8060399  12.3113978  39.7508706  84.4600051
  10.6468620  34.5684891  63.0874580   9.7400075  34.2718004  63.1637294
  10.9244601  34.2714709  62.2208867   1.5646560  35.8891255  73.5373627
   1.2449345  35.0356563  73.2448001   1.0179988  36.1039833  74.2931594
   5.3426468  38.6053696  77.2543133   5.5612478  39.5370803  77.2731167
   5.7552242  38.2461670  78.0397937  12.2630686  29.1121781  69.2418822
  11.4531414  28.7668866  69.6174068  12.9515102  28.8029325  69.8306433
  14.1921234  28.1899828  70.8643118  14.7452272  28.6095281  71.5233141
  14.4291320  27.2635576  70.9066074  10.2154333  34.1786901  86.6445882
  10.1151060  35.1281258  86.5757973   9.9975875  33.8505140  85.7721952
   9.4167404  31.4271826  63.2286559  10.2786568  31.7526725  63.4882377
   9.6017749  30.6403322  62.7159625   1.4334820  39.5094166  75.5066748
   0.7398292  39.0948119  74.9936703   2.1807811  39.5514703  74.9100167
  17.5700041  30.3000353  70.3721782  16.9898710  30.9585157  69.9899835
  17.3035974  29.4777697  69.9609200  16.0203607  29.7005410  72.5743103
  16.5203386  29.8121945  71.7657422  16.6639215  29.3966463  73.2143911
  10.0785603  37.6084040  85.4610944   9.5952685  38.4084400  85.6674833
  10.1646542  37.6191985  84.5078388   3.3471563  39.4412420  73.3832763
   3.3242251  39.5400107  72.4314646   3.6572199  40.2877571  73.7049929
   6.0058941  41.4988575  77.4979378   6.9602194  41.4672517  77.4309309
   5.8071464  41.0379199  78.3129603   6.5958323  40.0689691  80.0650175
   7.4151212  40.5633770  80.0885013   6.8695130  39.1521659  80.0367743
  16.3524919  32.4600443  69.4278131  15.4650774  32.7450094  69.2098325
  16.7678908  32.2994207  68.5805408  19.7039455  32.4846964  73.1432470
  20.4799845  32.9743417  73.4157087  18.9787589  32.9105018  73.6004339
  22.1412014  33.1974583  74.2006411  22.7356505  32.9570319  73.4899719
  22.2138597  32.4781714  74.8279947   4.3609169  47.0408194  74.5149575
   4.2263637  46.2808595  73.9487573   3.9441232  47.7649094  74.0478364
  15.4968132  42.2245118  63.5226151  16.2003983  42.4295120  64.1383806
  14.7730781  42.7921880  63.7875234  16.3265943  37.9754979  69.6428421
  16.2701144  38.4323531  68.8036053  16.8794285  37.2145664  69.4651264
  20.1370749  33.7644711  70.4678540  19.8807683  33.3641347  71.2986748
  19.5123617  34.4788505  70.3428680  24.4483086  36.5040784  72.9749832
  23.8882644  36.5733974  73.7481394  23.8426590  36.3281769  72.2549328
   7.5178295  47.9377511  74.7268018   7.4010679  48.8822944  74.6246708
   6.6970742  47.6351073  75.1153817  17.4054830  42.6627647  65.5724611
  18.2400434  42.2308846  65.3902086  17.2439173  42.4909661  66.5001505
  17.0600722  39.1659760  66.9380950  17.0049526  39.0004032  65.9969394
  16.4346777  39.8735793  67.0943140   1.8493237  34.4027825  80.7642372
   2.4952101  33.8926779  81.2529597   1.6410388  35.1396506  81.3385798
  14.3746629  41.4708672  86.2634513  15.2437789  41.6449324  85.9021148
  13.8953381  42.2903089  86.1410242  10.3696847  28.6667869  66.5166268
  10.3575517  29.6109709  66.6734539  11.2620269  28.4838015  66.2225730
   8.5432809  48.5905773  77.9423947   9.4460056  48.6229383  78.2590441
   8.3170179  47.6606224  77.9570282  10.2986411  47.3436760  74.6034025
   9.3482042  47.3438621  74.4898397  10.6018898  46.5969494  74.0870060
  14.1848967  25.2610646  70.7712205  13.4181363  24.7069133  70.9168888
  14.5959672  25.3332515  71.6326357   6.1890728  31.5495442  84.8617387
   7.0522190  31.1932247  85.0720711   5.6156139  31.2109337  85.5492791
  26.0339105  53.1797298  75.6679788  26.6717515  53.0604046  74.9643128
  25.9159948  54.1278142  75.7267740  22.8428811  53.1324726  75.6041312
  22.5047323  53.0165791  74.7161847  23.7118579  52.7315891  75.5842318
  18.7015627  54.9860203  71.5938203  18.1380492  54.8950140  70.8254491
  18.5868022  54.1660107  72.0740696  23.3248594  54.2859578  81.5627518
  23.3137235  53.8912376  80.6908021  23.4869234  53.5525651  82.1561289
  16.2480059  56.4811394  74.4322424  17.0401351  56.1402219  74.0168723
  16.4876709  56.5906369  75.3524577  24.2815186  58.6531170  66.9052668
  23.6303165  59.2385251  66.5186682  25.0759548  59.1837365  66.9647706
  18.2070813  55.7420308  67.3039802  18.9801689  55.1949295  67.1652678
  18.5596212  56.6064557  67.5154264  20.0455855  57.0696690  80.5106702
  19.7545721  57.9742321  80.3953368  20.6812840  57.1113217  81.2250771
  20.9712062  54.4473538  77.1008061  21.5675634  54.2229561  76.3865024
  21.0287034  53.7058284  77.7033509  20.5437091  51.9012974  64.9358252
  20.7962611  51.3794495  64.1741715  19.6061650  51.7379119  65.0384936
  25.5880373  50.9048752  72.7432996  26.3743463  50.4868175  72.3923413
  25.8519078  51.8094844  72.9114644  25.7590451  56.3421602  67.4421652
  25.1236284  56.4156229  68.1542557  25.4287857  56.9315201  66.7640732
  30.9888801  50.8423985  73.6465974  31.7213972  50.2723202  73.8803804
  30.2328156  50.4545586  74.0872480  20.2633379  53.8041080  67.1382627
  20.1469637  53.1285983  67.8063712  20.3735639  53.3173454  66.3214780
  22.6064920  53.2651227  70.8429317  22.2423127  52.7381848  71.5542238
  23.4632036  52.8749696  70.6695802  28.5114221  44.5545559  78.1060583
  28.1797546  45.4240970  77.8821798  27.9159834  44.2381843  78.7854613
  22.2470407  48.2941126  65.8390665  22.4144810  49.1621363  66.2061136
  22.0567576  48.4568408  64.9151954  25.0045740  56.7558105  77.5056495
  24.7046463  57.6583144  77.3972303  24.6596800  56.4890289  78.3577648
  18.4558222  53.2071902  73.5393200  17.5308718  53.0748116  73.7470892
  18.7042635  53.9866121  74.0363142  28.4042884  49.2740645  75.1853933
  27.4959762  49.2056054  74.8912694  28.3530480  49.7512590  76.0135758
  22.2259628  50.7498784  66.8237332  22.1059253  51.1955835  67.6622812
  21.5312216  51.0984102  66.2650870  15.8167033  52.8505176  74.3736989
  15.9459414  53.1039655  75.2876401  15.1364484  53.4432884  74.0541644
  19.9866520  63.5202426  70.4727463  19.9090550  64.4710251  70.5515944
  19.3828164  63.1748298  71.1302389  22.4783750  50.6930291  83.1288830
  21.7017084  51.2524211  83.1191695  23.1174313  51.1787074  83.6503700
  30.2704531  47.4757084  76.9631807  29.6278911  47.7689617  76.3171601
  29.7659459  47.3610004  77.7685003  27.9244694  51.2220257  67.6517666
  28.8362550  51.4547644  67.4765363  27.4154341  51.8057301  67.0892745
  20.7330122  53.5015744  82.6906797  21.4744807  54.0400788  82.4141621
  20.0267108  54.1282033  82.8478349  26.2085462  55.6444885  81.2878959
  26.6168818  55.2027295  80.5433591  25.4862723  55.0697512  81.5413151
  22.5616532  50.5817492  78.6612515  23.4077727  51.0056905  78.8047164
  22.5015170  49.9251116  79.3551079  26.5314277  56.2046076  75.0431247
  25.9023139  56.3691790  74.3407315  26.1439939  56.6187685  75.8142211
  30.4103508  57.1400513  72.3975611  29.7254547  57.5199415  71.8472644
  30.4947358  57.7495840  73.1307559  25.7115977  48.2421860  80.3193689
  25.4676909  48.9963921  79.7827965  25.9875908  48.6207208  81.1540936
  27.6654440  54.7860472  78.9970955  27.8771335  55.4292232  78.3205336
  27.6184188  53.9522789  78.5292885  25.2680669  47.3978293  75.9007527
  24.4065148  47.6959547  76.1924264  25.2943104  47.6148692  74.9688559
  22.0842238  55.9420484  72.3081332  22.5480584  56.2208187  71.5185955
  21.8199037  55.0403928  72.1254423  18.9766320  55.4891965  75.2461096
  19.5467677  55.9179234  74.6078580  19.5674431  55.2074550  75.9445281
  21.0211125  52.0643636  69.1170898  21.7235168  52.5164680  69.5844824
  20.6891753  51.4227455  69.7450791  19.4691486  50.6555393  83.4922107
  18.8390147  51.3371673  83.7257504  19.3627574  50.5438474  82.5475245
  14.7636458  50.3227189  74.4188031  13.9735512  50.5784717  73.9428142
  15.2547706  51.1375526  74.5240072  28.7800268  57.6632428  77.1693312
  29.6017712  57.2612615  76.8875994  28.7762671  57.5600662  78.1209428
  16.7151204  50.6871768  71.3771508  15.9182367  50.7990462  71.8955004
  16.4876796  51.0258420  70.5112398  22.5456871  57.2116471  79.3254023
  22.6101304  57.6736878  80.1612194  21.8367795  56.5813836  79.4536332
  13.0474161  50.5757679  76.8503022  13.2982200  51.4604689  77.1160598
  13.5833710  50.3962281  76.0778114  22.2604889  58.8784579  69.1933003
  22.1250564  59.7236114  69.6217851  22.8014702  59.0803856  68.4298937
  18.7472229  44.9576158  85.8547358  18.3539174  44.4042357  86.5295002
  19.5638369  45.2686737  86.2453876  15.7134287  56.3960017  69.7660928
  16.2258807  57.1903267  69.9166493  16.3656999  55.6986307  69.6994529
  17.5229171  59.5125773  71.8483681  17.6995800  60.4343738  71.6604665
  18.3186005  59.1984192  72.2778061  21.6640190  46.3734038  83.4467615
  22.4049903  46.9741191  83.3672077  21.8958113  45.6311675  82.8885657
  16.8081528  51.5590405  81.7245844  16.6935043  50.6575662  82.0252943
  15.9526046  51.8054102  81.3730661  23.8873366  59.5008145  83.3233345
  23.4437220  58.7144524  83.0054249  24.5490579  59.6887296  82.6577236
  18.6460487  61.0303947  77.8494023  19.1967912  60.9021010  77.0771017
  17.8071963  61.3298836  77.4988916  25.9854604  59.7810945  81.3514746
  25.9673079  60.6019826  80.8595015  26.9074524  59.6565020  81.5764887
  22.4427658  57.2955075  82.1938255  22.9755995  56.5343363  81.9637563
  21.9141739  57.0028726  82.9362409  25.6097353  42.4015140  77.7231896
  25.2661622  43.2916782  77.6471007  25.9776315  42.2116798  76.8601481
  13.6783203  54.7248671  70.5420498  14.5158425  55.1345679  70.3254206
  13.8561471  53.7848113  70.5120692  25.5747635  52.3923752  66.2304331
  25.0594259  53.1628356  66.4692719  25.3024944  51.7188888  66.8537393
  23.1594746  47.2373452  71.2889570  22.3036343  46.8480303  71.1095208
  23.5721698  47.3165413  70.4289355  24.6893893  44.7719796  75.6881130
  24.1858689  44.7349931  74.8748935  24.9824500  45.6812538  75.7477786
  20.9336779  44.8558525  74.6947311  21.7989776  44.6601334  74.3353201
  21.0014288  44.6268877  75.6216668  25.3633939  50.2650844  68.0564113
  25.0584074  50.5796993  68.9074256  26.3164381  50.3432264  68.0991446
  23.8080370  56.4241067  69.7057067  23.2801732  55.6893827  69.3930304
  23.3067873  57.2015743  69.4597035  28.7873216  54.6190087  74.8224113
  28.1296891  55.3089349  74.9104242  29.5913616  55.0086519  75.1658099
  18.5399098  47.0860733  72.0663678  19.1142850  46.8635915  71.3336871
  19.1270080  47.1549428  72.8192279  27.5978675  52.9734460  72.8728055
  28.1110557  53.6064452  73.3749764  28.2479899  52.3735656  72.5071415
  18.8668685  49.1165194  66.0859563  18.0305997  49.4539881  66.4068838
  18.7273455  48.9814174  65.1486700  20.8421766  43.9601982  70.7938748
  20.1886178  43.6450999  70.1695362  20.8002240  43.3377723  71.5198570
  21.9532971  54.2421277  62.7092040  21.0460032  54.0110531  62.9083189
  22.4504003  53.4458897  62.8966021  24.8601049  62.9518784  65.6288726
  24.1862748  63.2550481  66.2373684  25.2466871  63.7547865  65.2794183
  24.0759506  50.4483916  75.1186395  23.1582067  50.6698863  74.9608083
  24.4919650  50.5230226  74.2598102  24.8594554  51.8475331  70.2489075
  25.6066373  52.3596729  69.9396197  25.1286143  51.5259384  71.1093469
  23.1321204  54.3433872  67.2316030  22.2232423  54.0592905  67.3288499
  23.1616288  54.7632951  66.3719337  28.3640471  57.9540462  71.0007197
  27.9102799  57.1131372  71.0572388  27.7334438  58.5901860  71.3381977
  27.3073391  48.8832448  72.2307865  26.5696148  48.3709834  72.5618107
  27.5600165  48.4432829  71.4191142  26.8073411  59.7916958  71.9357015
  27.0996385  60.3522015  71.2169381  27.3172031  60.0845519  72.6910175
  27.4085018  41.6608700  72.8249634  27.7143895  40.8006063  72.5375549
  28.1337623  42.2526320  72.6248628  13.7009374  52.0639386  71.2131232
  13.5033774  51.4708747  70.4882298  13.1456038  51.7591596  71.9307171
  21.6806098  51.9562493  73.3325825  21.7354708  51.0036329  73.2568302
  20.8697300  52.1121932  73.8167123  22.8297292  55.8842616  64.5704108
  22.3916722  55.1678475  64.1109746  23.5707733  56.1118731  64.0089200
  19.6198458  50.5739552  71.0916204  18.8066324  50.8733723  71.4981396
  20.1157452  50.1795241  71.8090686  21.7707036  60.5697309  73.0250469
  21.7283215  60.7958156  72.0959001  22.6869735  60.3360684  73.1736270
  25.2172670  51.0381377  79.9231098  25.5722057  51.2652850  80.7825564
  25.8644801  51.3699754  79.3008353  30.9470407  54.1599813  70.6280427
  30.8088305  54.3501409  69.7001616  30.5906625  54.9219196  71.0848478
  19.1112533  48.1457908  76.7077439  19.7511912  48.0046667  76.0100402
  18.2790063  47.8592421  76.3316041  30.9739786  56.2276340  75.6391698
  31.4076293  56.1351629  76.4874752  31.6871367  56.2033840  75.0011714
  19.8872837  57.4460338  72.8212431  20.6813435  56.9510659  72.6195006
  19.1764529  56.9178202  72.4580137  24.7067681  59.8278434  77.1724799
  24.7604703  60.3969370  77.9402515  23.8382463  59.9980319  76.8078836
  16.1955600  51.5903420  68.8972184  15.2653188  51.5287876  69.1142146
  16.2913072  51.0679373  68.1008825  16.1141149  48.1158233  71.4850426
  16.3747966  49.0303566  71.3759586  16.9358322  47.6482676  71.6347038
  17.5866075  49.5295990  78.6549250  18.2589128  49.3213352  78.0061899
  16.7595861  49.3318076  78.2154482  31.8355336  56.2700040  78.1724584
  32.0291226  57.1745851  78.4183859  31.7355954  55.8107460  79.0063169
  23.4891647  46.1557931  80.6714911  22.8419562  46.8547881  80.5779387
  24.2592662  46.5894075  81.0391159  26.8970444  56.4206783  83.7465464
  26.7455951  56.1917335  82.8295548  26.8875124  57.3777385  83.7596809
  23.6655781  53.9938696  78.7311731  24.5947841  54.1449856  78.5580698
  23.2446811  54.0822717  77.8760377  22.4644113  58.0189360  76.5010268
  22.3255198  57.6508145  77.3736207  21.6758709  58.5337000  76.3294226
  23.0592265  63.1198457  67.8435805  23.2344020  62.6486500  68.6581428
  22.3725053  63.7464223  68.0717066  24.0149328  57.3970963  73.8899106
  23.6799160  57.3571733  74.7856756  23.5153273  56.7315679  73.4169516
  17.9893572  52.8038593  79.4151687  17.8513370  52.0718832  80.0163226
  18.8998495  52.7147493  79.1335875  26.9508519  54.7426997  64.1636166
  26.3337690  54.0173826  64.0669219  26.4825008  55.5036358  63.8203240
  20.6175872  52.5158552  78.9035367  21.3275491  51.8751745  78.8621985
  20.5745181  52.7671447  79.8261548  28.6062651  59.4525906  81.8241946
  28.5475197  58.7685126  81.1572529  29.0082170  60.1944896  81.3722572
  19.3304806  49.5023770  80.7231006  18.7942163  49.0514509  81.3752603
  18.7421515  49.6369679  79.9801471  17.6253350  66.2687820  74.6175665
  17.8649948  66.9006344  75.2954684  16.7822546  65.9175860  74.9041024
  18.7407065  48.9612422  63.2857470  17.8636532  48.8401223  62.9219717
  19.2164818  48.1698500  63.0336359  28.6080058  57.4165490  80.0555926
  27.7206837  57.0791412  80.1782325  29.1778609  56.6848521  80.2924691
  10.2609206  53.7489581  73.3798977  10.9480245  53.4351312  72.7919993
  10.1057334  54.6530946  73.1066229  15.0643928  48.6379778  77.8084001
  14.9802116  48.0305448  77.0734411  14.2426634  49.1288796  77.8093497
  22.1381212  62.0766942  77.0217169  22.0651383  62.8821914  77.5336474
  21.6958605  62.2758908  76.1965190  21.9270991  61.3138712  70.5319991
  21.1438513  61.8560392  70.6258215  22.6263737  61.8312692  70.9314232
  25.2367642  47.1233342  73.1754196  25.7336341  46.3703304  72.8555266
  24.4654623  47.1597658  72.6097405  33.0897399  52.8273707  74.8172488
  33.0787275  53.7098423  74.4466421  32.2214778  52.4745258  74.6227025
  24.5979895  61.9753776  79.1775328  25.3107868  62.6101241  79.1051229
  24.1069924  62.0717642  78.3615330  26.3197422  55.8805029  70.7492619
  25.3853701  56.0006491  70.5797324  26.4974091  54.9777496  70.4852629
  21.8202610  49.2650725  72.9025881  21.4500398  48.7121765  73.5906786
  22.3161703  48.6608858  72.3500881  29.7069974  51.7222348  71.2842654
  30.1730426  52.5550340  71.2102956  30.1577474  51.2567330  71.9887912
  19.6491809  59.7248220  79.9980899  20.3501268  60.3584703  80.1510293
  19.1786924  60.0662951  79.2376538  27.7746205  58.0666169  68.2828806
  28.0506049  57.9522764  69.1922680  26.9050703  57.6683654  68.2440979
  27.6786636  44.0902935  75.3233555  26.7649716  44.3207162  75.4915762
  28.1079738  44.1741379  76.1747587  27.4493095  52.2792827  77.8233449
  26.7964545  52.5268734  77.1685902  27.8273475  51.4656965  77.4895926
  24.4100269  62.3152520  71.9261619  24.5922663  61.4974176  72.3889372
  25.2333255  62.5320212  71.4886509  24.7442434  61.2420705  69.1876668
  25.2730201  60.7313160  68.5746830  25.0070654  60.9263236  70.0522201
  23.4980668  53.0212638  84.3099486  22.8221305  52.9206767  84.9801861
  24.3208302  52.8651852  84.7735483  15.2459527  59.2584575  76.9312001
  15.8312964  58.5128263  77.0639905  15.0484365  59.5688531  77.8148665
  18.0998182  62.2935822  71.9474444  17.4308557  62.7781950  71.4638484
  17.9611052  62.5405042  72.8617822   9.8377182  51.8290175  75.6516444
   9.8761281  51.2953766  76.4453563   9.3317474  51.3025380  75.0327422
  22.2403451  64.3279566  78.5457102  22.7921759  64.4911187  79.3106187
  22.5809644  64.9184003  77.8737127  17.2167944  46.6754715  79.1478987
  17.2809270  47.5369546  78.7356384  17.1535064  46.0628717  78.4151345
  16.6920216  48.7477848  82.7952021  17.3192255  48.3654925  83.4089545
  15.8348135  48.5292050  83.1607713  27.0914325  59.1540823  84.4005756
  27.6354229  59.7670781  83.9060711  26.5101170  59.7120401  84.9172769
  13.4685759  50.5554277  68.7270376  13.7639200  49.6464955  68.6737429
  12.5673795  50.5342016  68.4051378  25.3771838  62.2761541  75.5320784
  25.2522977  61.4751281  75.0231730  26.0350929  62.7707734  75.0434754
  16.9980006  48.6310274  74.7097924  16.2766592  49.2446241  74.5705398
  17.7873262  49.1668038  74.6314570  27.4406746  60.0770561  77.1600334
  26.4937082  59.9575912  77.0878661  27.7889519  59.1893059  77.2426596
  19.8006320  45.9664700  80.9838576  20.3240722  46.2126997  81.7464885
  19.5818653  46.7984735  80.5641713  15.1973601  48.2368375  68.8509701
  14.8686307  47.3565754  68.6684807  15.5512971  48.1816043  69.7386090
  24.4453180  59.8723277  73.3604686  24.2978142  58.9439985  73.5412257
  25.2706673  59.8943368  72.8761762  18.3115424  48.5241344  69.2185179
  18.6511496  49.0527266  68.4963787  18.7587544  48.8621751  69.9943745
  28.0487302  60.6951836  74.4469559  28.9733849  60.4894697  74.3094010
  27.8802605  60.4468237  75.3558901  21.0058865  46.9078395  78.6688247
  20.6655685  46.1086208  79.0708927  20.2997871  47.2080106  78.0965080
  21.6575337  43.9927708  77.1215570  22.4801406  43.5188186  76.9994460
  21.9013400  44.7718191  77.6214256  20.2983571  47.0215966  67.4178471
  21.0191934  47.3997219  66.9142188  19.6748875  47.7404843  67.5213449
  24.4414694  47.7261115  68.3536804  24.6578308  48.6085753  68.0525632
  23.9608761  47.3347328  67.6242446  19.1813915  50.6846828  74.9307548
  19.0358496  50.9987131  75.8231830  18.7039119  51.3031729  74.3778447
  21.0410298  47.6749376  74.9788438  21.0271867  46.7790470  74.6420736
  21.7582726  47.6820040  75.6126724  22.8936429  48.1086716  77.0241565
  22.6354207  49.0303787  77.0225896  22.3621469  47.7117151  77.7142029
  27.8382618  61.2137504  69.8031651  28.0119495  60.6483926  69.0505503
  28.3311509  62.0138398  69.6211141  13.6559578  53.2252173  77.8695209
  13.1113046  54.0011981  78.0015484  14.5338927  53.5722977  77.7114331
  20.4447194  46.5563757  70.2476008  20.5663105  45.6280403  70.4466896
  20.1549237  46.5702442  69.3354323  23.3138385  44.2418667  73.3842728
  23.3360081  44.3058000  72.4294707  23.7306444  43.4023176  73.5783234
  33.6922009  53.9773926  71.4221950  34.1353155  53.2281252  71.0241074
  32.8148519  53.9684063  71.0395682  28.8257790  60.5304268  66.9028549
  29.5208695  61.1510961  67.1215864  29.1680940  59.6799619  67.1780927
  14.4425599  52.3522069  80.7625366  13.7007335  52.5004704  81.3489997
  14.1218344  52.6130335  79.8992116  22.3869262  61.8938047  80.5605756
  22.6956388  61.6487194  81.4328456  23.1844744  62.0984686  80.0724627
  22.4089874  64.0475957  72.7911133  21.9694864  63.5552335  73.4843990
  23.1597991  63.5048924  72.5503208  14.8882213  60.2387498  72.7935761
  15.7140233  59.9391269  72.4134405  14.5376265  59.4695120  73.2425550
  19.8563746  59.5913966  74.8633435  19.2343756  58.9284671  74.5635662
  20.5268613  59.6175098  74.1807082  13.0890818  58.1573824  73.7524695
  12.2522726  57.7295998  73.5708696  13.0614464  58.3506267  74.6895486
  19.9288274  48.0695754  84.4565941  19.9776429  48.9457877  84.0743710
  20.4710788  47.5273147  83.8837584  30.4143119  58.6136877  83.7367078
  29.6238663  58.5961016  83.1971577  30.1776474  59.1525171  84.4916114
  30.5340994  55.4629343  81.0499806  30.5838999  55.2979351  81.9915329
  30.4254918  54.5956603  80.6597687  19.4177253  58.1417889  68.3391895
  19.5665374  58.8253354  67.6858568  20.2243697  58.1222979  68.8541351
  27.8244757  51.4460272  82.3659113  28.7254620  51.3066736  82.0743111
  27.8992731  51.6114726  83.3057290  22.1587562  48.8227126  81.2112299
  21.2890872  49.1160692  80.9394888  22.3947043  49.4067571  81.9319563
  32.0359191  57.8826285  81.2941828  31.7444000  58.2456266  82.1305289
  31.4231323  57.1693293  81.1155160  30.2846380  53.0058900  79.7621886
  30.7600501  53.1986546  78.9540737  29.3611945  53.0618085  79.5165269
  17.1729886  54.1683067  69.3452964  16.9275928  53.2645397  69.5433174
  17.3425801  54.1700217  68.4032442  24.8626596  45.0406743  78.7277720
  25.3808540  45.7767770  78.4024208  24.5081729  45.3470736  79.5624479
  16.4425534  49.9011424  66.8439126  15.7494779  49.9755779  66.1879161
  16.1977286  49.1371768  67.3660642  25.1139190  41.4607026  74.2478616
  25.3940944  40.7930215  74.8739043  25.8989797  41.6536121  73.7353280
  22.9172659  60.6366020  65.8103643  22.3446626  61.2556207  65.3574114
  23.4905452  61.1865381  66.3443565  28.9848049  49.8824660  77.9950191
  29.9365471  49.9822757  78.0162415  28.8151499  49.0902928  78.5048276
  27.0062428  46.9680243  78.1809592  26.4112360  47.2485256  77.4856081
  26.7212125  47.4574144  78.9526333  26.1369918  60.9203170  66.9412225
  27.0700592  60.8548731  67.1445100  26.0493131  61.7559437  66.4826757
  28.7657935  60.2369040  63.9016172  28.6871567  59.9028904  64.7951930
  29.5867602  60.7290808  63.9007645  31.4636126  53.1030779  77.1092491
  31.4312446  52.1646780  77.2952175  32.0736750  53.1814816  76.3758316
  23.3019457  51.9726832  63.1519695  24.2478562  51.8433040  63.2208113
  22.9233702  51.2341494  63.6289123  31.6130615  49.8941823  77.1550774
  31.0969663  49.1100279  76.9680703  32.4970563  49.5660539  77.3197294
  29.2741342  43.6382838  73.1146587  29.0766163  43.3297927  73.9989919
  29.8841047  44.3644477  73.2444517  23.1858150  56.0244579  84.6120352
  24.1061159  56.2023178  84.8060399  23.1507733  55.0800624  84.4600051
  21.4862374  49.8976809  63.0874580  20.5793830  49.6009921  63.1637294
  21.7638355  49.6006627  62.2208867  12.4040315  51.2183172  73.5373627
  12.0843099  50.3648480  73.2448001  11.8573743  51.4331750  74.2931594
  16.1820222  53.9345613  77.2543133  16.4006232  54.8662721  77.2731167
  16.5945996  53.5753588  78.0397937  23.1024440  44.4413698  69.2418822
  22.2925168  44.0960783  69.6174068  23.7908857  44.1321242  69.8306433
  25.0314988  43.5191745  70.8643118  25.5846027  43.9387199  71.5233141
  25.2685075  42.5927493  70.9066074  21.0548088  49.5078819  86.6445882
  20.9544814  50.4573176  86.5757973  20.8369630  49.1797058  85.7721952
  20.2561159  46.7563744  63.2286559  21.1180323  47.0818642  63.4882377
  20.4411503  45.9695240  62.7159625  12.2728575  54.8386084  75.5066748
  11.5792046  54.4240036  74.9936703  13.0201566  54.8806620  74.9100167
  28.4093795  45.6292270  70.3721782  27.8292464  46.2877074  69.9899835
  28.1429728  44.8069615  69.9609200  26.8597362  45.0297328  72.5743103
  27.3597140  45.1413863  71.7657422  27.5032970  44.7258381  73.2143911
  20.9179358  52.9375958  85.4610944  20.4346439  53.7376318  85.6674833
  21.0040297  52.9483903  84.5078388  14.1865317  54.7704337  73.3832763
  14.1636005  54.8692025  72.4314646  14.4965954  55.6169488  73.7049929
  16.8452695  56.8280492  77.4979378  17.7995949  56.7964435  77.4309309
  16.6465219  56.3671116  78.3129603  17.4352077  55.3981609  80.0650175
  18.2544966  55.8925687  80.0885013  17.7088885  54.4813577  80.0367743
  27.1918673  47.7892361  69.4278131  26.3044528  48.0742011  69.2098325
  27.6072663  47.6286124  68.5805408  30.5433210  47.8138882  73.1432470
  31.3193600  48.3035334  73.4157087  29.8181344  48.2396936  73.6004339
  32.9805768  48.5266501  74.2006411  33.5750259  48.2862237  73.4899719
  33.0532352  47.8073632  74.8279947  15.2002924  62.3700112  74.5149575
  15.0657392  61.6100513  73.9487573  14.7834986  63.0941012  74.0478364
  26.3361887  57.5537036  63.5226151  27.0397737  57.7587038  64.1383806
  25.6124536  58.1213797  63.7875234  27.1659697  53.3046897  69.6428421
  27.1094899  53.7615448  68.8036053  27.7188040  52.5437581  69.4651264
  30.9764503  49.0936629  70.4678540  30.7201437  48.6933264  71.2986748
  30.3517371  49.8080423  70.3428680  18.3572050  63.2669429  74.7268018
  18.2404434  64.2114861  74.6246708  17.5364496  62.9642991  75.1153817
  28.2448584  57.9919565  65.5724611  29.0794188  57.5600763  65.3902086
  28.0832927  57.8201578  66.5001505  27.8994476  54.4951678  66.9380950
  27.8443280  54.3295949  65.9969394  27.2740532  55.2027711  67.0943140
  12.6886991  49.7319742  80.7642372  13.3345855  49.2218696  81.2529597
  12.4804143  50.4688424  81.3385798  25.2140384  56.8000590  86.2634513
  26.0831543  56.9741242  85.9021148  24.7347135  57.6195007  86.1410242
  21.2090602  43.9959787  66.5166268  21.1969272  44.9401627  66.6734539
  22.1014024  43.8129932  66.2225730  19.3826564  63.9197691  77.9423947
  20.2853811  63.9521301  78.2590441  19.1563934  62.9898142  77.9570282
  21.1380166  62.6728677  74.6034025  20.1875797  62.6730539  74.4898397
  21.4412652  61.9261412  74.0870060  25.0242721  40.5902564  70.7712205
  24.2575117  40.0361050  70.9168888  25.4353426  40.6624432  71.6326357
  17.0284482  46.8787359  84.8617387  17.8915944  46.5224164  85.0720711
  16.4549893  46.5401254  85.5492791  34.1642349  69.6151496  81.5627518
  34.1530989  69.2204294  80.6908021  34.3262988  68.8817568  82.1561289
  27.0873813  71.8103312  74.4322424  27.8795105  71.4694137  74.0168723
  27.3270463  71.9198287  75.3524577  30.8849610  72.3988607  80.5106702
  30.5939476  73.3034238  80.3953368  31.5206594  72.4405135  81.2250771
  31.8105817  69.7765456  77.1008061  32.4069389  69.5521478  76.3865024
  31.8680788  69.0350201  77.7033509  29.2951976  68.5363820  73.5393200
  28.3702473  68.4040034  73.7470892  29.5436390  69.3158039  74.0363142
  26.6560787  68.1797093  74.3736989  26.7853169  68.4331572  75.2876401
  25.9758239  68.7724801  74.0541644  31.5723877  68.8307662  82.6906797
  32.3138561  69.3692706  82.4141621  30.8660862  69.4573951  82.8478349
  29.8160074  70.8183883  75.2461096  30.3861431  71.2471151  74.6078580
  30.4068186  70.5366468  75.9445281  30.3085241  65.9847310  83.4922107
  29.6783901  66.6663591  83.7257504  30.2021328  65.8730392  82.5475245
  25.6030213  65.6519106  74.4188031  24.8129267  65.9076635  73.9428142
  26.0941460  66.4667444  74.5240072  27.5544958  66.0163686  71.3771508
  26.7576122  66.1282380  71.8955004  27.3270551  66.3550338  70.5112398
  23.8867916  65.9049597  76.8503022  24.1375954  66.7896607  77.1160598
  24.4227464  65.7254198  76.0778114  29.5865983  60.2868076  85.8547358
  29.1932929  59.7334275  86.5295002  30.4032124  60.5978655  86.2453876
  32.5033944  61.7025955  83.4467615  33.2443658  62.3033108  83.3672077
  32.7351867  60.9603593  82.8885657  27.6475282  66.8882322  81.7245844
  27.5328797  65.9867580  82.0252943  26.7919800  67.1346019  81.3730661
  29.4854241  76.3595864  77.8494023  30.0361666  76.2312928  77.0771017
  28.6465717  76.6590753  77.4988916  33.2821412  72.6246992  82.1938255
  33.8149749  71.8635280  81.9637563  32.7535493  72.3320644  82.9362409
  24.5176958  70.0540589  70.5420498  25.3552180  70.4637597  70.3254206
  24.6955225  69.1140031  70.5120692  31.7730533  60.1850443  74.6947311
  32.6383530  59.9893252  74.3353201  31.8408042  59.9560795  75.6216668
  29.3792853  62.4152651  72.0663678  29.9536604  62.1927832  71.3336871
  29.9663835  62.4841345  72.8192279  31.6815520  59.2893900  70.7938748
  31.0279933  58.9742917  70.1695362  31.6395994  58.6669640  71.5198570
  24.5403129  67.3931304  71.2131232  24.3427529  66.8000665  70.4882298
  23.9849793  67.0883514  71.9307171  29.9506287  63.4749826  76.7077439
  30.5905667  63.3338585  76.0100402  29.1183818  63.1884339  76.3316041
  27.0349355  66.9195338  68.8972184  26.1046943  66.8579793  69.1142146
  27.1306827  66.3971291  68.1008825  26.9534904  63.4450151  71.4850426
  27.2141721  64.3595484  71.3759586  27.7752076  62.9774593  71.6347038
  28.4259829  64.8587908  78.6549250  29.0982882  64.6505270  78.0061899
  27.5989616  64.6609994  78.2154482  34.3285401  61.4849849  80.6714911
  33.6813316  62.1839798  80.5779387  35.0986416  61.9185993  81.0391159
  34.5049535  69.3230614  78.7311731  35.4341595  69.4741773  78.5580698
  34.0840565  69.4114634  77.8760377  28.8287326  68.1330511  79.4151687
  28.6907124  67.4010750  80.0163226  29.7392250  68.0439411  79.1335875
  31.4569627  67.8450470  78.9035367  32.1669245  67.2043662  78.8621985
  31.4138935  68.0963365  79.8261548  30.1698561  64.8315688  80.7231006
  29.6335918  64.3806426  81.3752603  29.5815269  64.9661597  79.9801471
  28.4647104  81.5979737  74.6175665  28.7043703  82.2298261  75.2954684
  27.6216301  81.2467777  74.9041024  21.1002960  69.0781499  73.3798977
  21.7874000  68.7643229  72.7919993  20.9451089  69.9822864  73.1066229
  25.9037682  63.9671696  77.8084001  25.8195871  63.3597365  77.0734411
  25.0820389  64.4580714  77.8093497  30.4885563  75.0540137  79.9980899
  31.1895023  75.6876620  80.1510293  30.0180678  75.3954869  79.2376538
  26.0853281  74.5876492  76.9312001  26.6706718  73.8420180  77.0639905
  25.8878120  74.8980449  77.8148665  20.6770936  67.1582093  75.6516444
  20.7155036  66.6245683  76.4453563  20.1711229  66.6317298  75.0327422
  33.0797205  79.6571483  78.5457102  33.6315513  79.8203105  79.3106187
  33.4203399  80.2475921  77.8737127  28.0561698  62.0046633  79.1478987
  28.1203025  62.8661464  78.7356384  27.9928819  61.3920635  78.4151345
  27.5313971  64.0769766  82.7952021  28.1586010  63.6946843  83.4089545
  26.6741890  63.8583967  83.1607713  24.3079514  65.8846195  68.7270376
  24.6032955  64.9756873  68.6737429  23.4067549  65.8633934  68.4051378
  27.8373761  63.9602191  74.7097924  27.1160346  64.5738159  74.5705398
  28.6267016  64.4959956  74.6314570  30.6400074  61.2956618  80.9838576
  31.1634476  61.5418914  81.7464885  30.4212408  62.1276653  80.5641713
  26.0367355  63.5660292  68.8509701  25.7080061  62.6857671  68.6684807
  26.3906726  63.5107961  69.7386090  32.4969091  59.3219625  77.1215570
  33.3195160  58.8480103  76.9994460  32.7407155  60.1010109  77.6214256
  30.0207670  66.0138746  74.9307548  29.8752251  66.3279049  75.8231830
  29.5432873  66.6323646  74.3778447  24.4953332  68.5544090  77.8695209
  23.9506800  69.3303898  78.0015484  25.3732682  68.9014895  77.7114331
  25.2819354  67.6813987  80.7625366  24.5401090  67.8296622  81.3489997
  24.9612098  67.9422252  79.8992116  33.2483629  79.3767874  72.7911133
  32.8088619  78.8844253  73.4843990  33.9991746  78.8340842  72.5503208
  30.6957501  74.9205884  74.8633435  30.0737510  74.2576589  74.5635662
  31.3662368  74.9467015  74.1807082  23.9284573  73.4865742  73.7524695
  23.0916481  73.0587916  73.5708696  23.9008218  73.6798185  74.6895486
  30.7682028  63.3987672  84.4565941  30.8170184  64.2749794  84.0743710
  31.3104542  62.8565065  83.8837584  32.9981317  64.1519044  81.2112299
  32.1284626  64.4452610  80.9394888  33.2340797  64.7359489  81.9319563
  23.2434069  66.5475090  73.5373627  22.9236854  65.6940398  73.2448001
  22.6967497  66.7623668  74.2931594  27.0213977  69.2637531  77.2543133
  27.2399987  70.1954639  77.2731167  27.4339751  68.9045505  78.0397937
  31.8941842  64.8370737  86.6445882  31.7938569  65.7865094  86.5757973
  31.6763384  64.5088976  85.7721952  31.0954913  62.0855662  63.2286559
  31.9574077  62.4110560  63.4882377  31.2805258  61.2987158  62.7159625
  23.1122329  70.1678001  75.5066748  22.4185801  69.7531954  74.9936703
  23.8595320  70.2098538  74.9100167  25.0259072  70.0996255  73.3832763
  25.0029760  70.1983942  72.4314646  25.3359708  70.9461406  73.7049929
  27.6846450  72.1572410  77.4979378  28.6389703  72.1256352  77.4309309
  27.4858973  71.6963034  78.3129603  28.2745832  70.7273526  80.0650175
  29.0938721  71.2217605  80.0885013  28.5482639  69.8105494  80.0367743
  26.0396678  77.6992030  74.5149575  25.9051146  76.9392431  73.9487573
  25.6228741  78.4232930  74.0478364  29.1965804  78.5961347  74.7268018
  29.0798188  79.5406779  74.6246708  28.3758251  78.2934908  75.1153817
  23.5280746  65.0611660  80.7642372  24.1739610  64.5510614  81.2529597
  23.3197897  65.7980342  81.3385798  30.2220318  79.2489609  77.9423947
  31.1247565  79.2813219  78.2590441  29.9957688  78.3190060  77.9570282
  31.9773920  78.0020595  74.6034025  31.0269551  78.0022457  74.4898397
  32.2806407  77.2553330  74.0870060  27.8678237  62.2079277  84.8617387
  28.7309699  61.8516082  85.0720711  27.2943648  61.8693172  85.5492791
  47.7126614  83.8381133  75.6679788  48.3505024  83.7187881  74.9643128
  47.5947457  84.7861977  75.7267740  44.5216320  83.7908562  75.6041312
  44.1834832  83.6749626  74.7161847  45.3906088  83.3899727  75.5842318
  40.3803136  85.6444038  71.5938203  39.8168001  85.5533975  70.8254491
  40.2655531  84.8243942  72.0740696  45.0036103  84.9443413  81.5627518
  44.9924744  84.5496212  80.6908021  45.1656743  84.2109486  82.1561289
  37.9267568  87.1395230  74.4322424  38.7188860  86.7986054  74.0168723
  38.1664218  87.2490205  75.3524577  45.9602695  89.3115006  66.9052668
  45.3090674  89.8969086  66.5186682  46.7547057  89.8421201  66.9647706
  39.8858322  86.4004143  67.3039802  40.6589198  85.8533130  67.1652678
  40.2383721  87.2648392  67.5154264  41.7243364  87.7280525  80.5106702
  41.4333230  88.6326156  80.3953368  42.3600349  87.7697053  81.2250771
  42.6499571  85.1057374  77.1008061  43.2463143  84.8813396  76.3865024
  42.7074543  84.3642119  77.7033509  42.2224600  82.5596809  64.9358252
  42.4750120  82.0378330  64.1741715  41.2849159  82.3962954  65.0384936
  47.4377960  87.0005438  67.4421652  46.8023793  87.0740064  68.1542557
  47.1075366  87.5899036  66.7640732  41.9420888  84.4624915  67.1382627
  41.8257146  83.7869818  67.8063712  42.0523148  83.9757289  66.3214780
  44.2852429  83.9235062  70.8429317  43.9210636  83.3965683  71.5542238
  45.1419545  83.5333531  70.6695802  46.6833249  87.4141941  77.5056495
  46.3833972  88.3166979  77.3972303  46.3384309  87.1474124  78.3577648
  43.9047137  81.4082619  66.8237332  43.7846762  81.8539670  67.6622812
  43.2099725  81.7567937  66.2650870  37.4954542  83.5089011  74.3736989
  37.6246923  83.7623490  75.2876401  36.8151993  84.1016719  74.0541644
  41.6654029  94.1786261  70.4727463  41.5878059  95.1294086  70.5515944
  41.0615673  93.8332133  71.1302389  42.4117631  84.1599580  82.6906797
  43.1532316  84.6984624  82.4141621  41.7054617  84.7865869  82.8478349
  47.8872971  86.3028720  81.2878959  48.2956327  85.8611131  80.5433591
  47.1650232  85.7281348  81.5413151  44.2404041  81.2401327  78.6612515
  45.0865236  81.6640741  78.8047164  44.1802679  80.5834951  79.3551079
  48.2101786  86.8629911  75.0431247  47.5810648  87.0275625  74.3407315
  47.8227448  87.2771520  75.8142211  52.0891017  87.7984349  72.3975611
  51.4042056  88.1783250  71.8472644  52.1734867  88.4079675  73.1307559
  49.3441949  85.4444308  78.9970955  49.5558844  86.0876068  78.3205336
  49.2971697  84.6106624  78.5292885  43.7629747  86.6004319  72.3081332
  44.2268093  86.8792022  71.5185955  43.4986546  85.6987764  72.1254423
  40.6553828  86.1475800  75.2461096  41.2255186  86.5763069  74.6078580
  41.2461940  85.8658385  75.9445281  42.6998633  82.7227471  69.1170898
  43.4022677  83.1748515  69.5844824  42.3679262  82.0811290  69.7450791
  41.1478995  81.3139228  83.4922107  40.5177656  81.9955509  83.7257504
  41.0415083  81.2022310  82.5475245  50.4587777  88.3216263  77.1693312
  51.2805221  87.9196450  76.8875994  50.4550180  88.2184497  78.1209428
  44.2244380  87.8700306  79.3254023  44.2888813  88.3320714  80.1612194
  43.5155304  87.2397671  79.4536332  34.7261670  81.2341514  76.8503022
  34.9769709  82.1188524  77.1160598  35.2621219  81.0546116  76.0778114
  43.9392398  89.5368414  69.1933003  43.8038073  90.3819950  69.6217851
  44.4802211  89.7387692  68.4298937  37.3921795  87.0543852  69.7660928
  37.9046316  87.8487102  69.9166493  38.0444508  86.3570142  69.6994529
  39.2016680  90.1709608  71.8483681  39.3783309  91.0927573  71.6604665
  39.9973514  89.8568027  72.2778061  38.4869037  82.2174240  81.7245844
  38.3722552  81.3159497  82.0252943  37.6313554  82.4637937  81.3730661
  45.5660874  90.1591980  83.3233345  45.1224729  89.3728359  83.0054249
  46.2278088  90.3471131  82.6577236  40.3247996  91.6887782  77.8494023
  40.8755421  91.5604845  77.0771017  39.4859472  91.9882671  77.4988916
  47.6642113  90.4394780  81.3514746  47.6460588  91.2603661  80.8595015
  48.5862033  90.3148856  81.5764887  44.1215167  87.9538910  82.1938255
  44.6543504  87.1927198  81.9637563  43.5929248  87.6612562  82.9362409
  35.3570712  85.3832506  70.5420498  36.1945934  85.7929515  70.3254206
  35.5348980  84.4431948  70.5120692  47.2535144  83.0507587  66.2304331
  46.7381768  83.8212192  66.4692719  46.9812453  82.3772723  66.8537393
  45.4867879  87.0824902  69.7057067  44.9589241  86.3477662  69.3930304
  44.9855382  87.8599579  69.4597035  50.4660725  85.2773923  74.8224113
  49.8084400  85.9673184  74.9104242  51.2701125  85.6670355  75.1658099
  43.6320480  84.9005113  62.7092040  42.7247541  84.6694366  62.9083189
  44.1291512  84.1042732  62.8966021  46.5388558  93.6102620  65.6288726
  45.8650257  93.9134317  66.2373684  46.9254380  94.4131700  65.2794183
  44.8108713  85.0017707  67.2316030  43.9019932  84.7176740  67.3288499
  44.8403797  85.4216786  66.3719337  50.0427980  88.6124297  71.0007197
  49.5890308  87.7715207  71.0572388  49.4121947  89.2485695  71.3381977
  48.4860920  90.4500794  71.9357015  48.7783894  91.0105851  71.2169381
  48.9959540  90.7429355  72.6910175  35.3796883  82.7223222  71.2131232
  35.1821283  82.1292582  70.4882298  34.8243547  82.4175432  71.9307171
  43.3593607  82.6146328  73.3325825  43.4142217  81.6620164  73.2568302
  42.5484809  82.7705767  73.8167123  44.5084801  86.5426451  64.5704108
  44.0704231  85.8262310  64.1109746  45.2495242  86.7702566  64.0089200
  43.4494545  91.2281145  73.0250469  43.4070724  91.4541991  72.0959001
  44.3657244  90.9944519  73.1736270  46.8960179  81.6965212  79.9231098
  47.2509566  81.9236685  80.7825564  47.5432310  82.0283589  79.3008353
  52.6527295  86.8860175  75.6391698  53.0863802  86.7935464  76.4874752
  53.3658876  86.8617676  75.0011714  41.5660346  88.1044174  72.8212431
  42.3600944  87.6094494  72.6195006  40.8552038  87.5762037  72.4580137
  46.3855190  90.4862269  77.1724799  46.4392212  91.0553206  77.9402515
  45.5169971  90.6564154  76.8078836  39.2653584  80.1879826  78.6549250
  39.9376637  79.9797188  78.0061899  38.4383370  79.9901912  78.2154482
  53.5142845  86.9283876  78.1724584  53.7078735  87.8329686  78.4183859
  53.4143463  86.4691295  79.0063169  48.5757953  87.0790619  83.7465464
  48.4243460  86.8501170  82.8295548  48.5662633  88.0361220  83.7596809
  45.3443290  84.6522531  78.7311731  46.2735350  84.8033691  78.5580698
  44.9234320  84.7406552  77.8760377  44.1431622  88.6773196  76.5010268
  44.0042707  88.3091980  77.3736207  43.3546218  89.1920835  76.3294226
  44.7379774  93.7782292  67.8435805  44.9131529  93.3070335  68.6581428
  44.0512562  94.4048058  68.0717066  45.6936837  88.0554798  73.8899106
  45.3586669  88.0155568  74.7856756  45.1940782  87.3899514  73.4169516
  39.6681081  83.4622428  79.4151687  39.5300879  82.7302667  80.0163226
  40.5786004  83.3731329  79.1335875  42.2963381  83.1742388  78.9035367
  43.0063000  82.5335580  78.8621985  42.2532690  83.4255283  79.8261548
  50.2850160  90.1109741  81.8241946  50.2262706  89.4268961  81.1572529
  50.6869678  90.8528731  81.3722572  41.0092315  80.1607606  80.7231006
  40.4729672  79.7098344  81.3752603  40.4209024  80.2953515  79.9801471
  39.3040859  96.9271655  74.6175665  39.5437457  97.5590179  75.2954684
  38.4610055  96.5759695  74.9041024  50.2867567  88.0749325  80.0555926
  49.3994346  87.7375247  80.1782325  50.8566118  87.3432356  80.2924691
  31.9396714  84.4073417  73.3798977  32.6267754  84.0935147  72.7919993
  31.7844843  85.3114781  73.1066229  43.8168721  92.7350777  77.0217169
  43.7438892  93.5405749  77.5336474  43.3746114  92.9342743  76.1965190
  43.6058500  91.9722547  70.5319991  42.8226022  92.5144228  70.6258215
  44.3051246  92.4896527  70.9314232  46.2767404  92.6337611  79.1775328
  46.9895376  93.2685076  79.1051229  45.7857433  92.7301477  78.3615330
  47.9984931  86.5388864  70.7492619  47.0641210  86.6590327  70.5797324
  48.1761600  85.6361331  70.4852629  41.3279318  90.3832055  79.9980899
  42.0288777  91.0168538  80.1510293  40.8574433  90.7246786  79.2376538
  49.4533714  88.7250005  68.2828806  49.7293558  88.6106599  69.1922680
  48.5838212  88.3267490  68.2440979  49.1280604  82.9376662  77.8233449
  48.4752054  83.1852570  77.1685902  49.5060984  82.1240801  77.4895926
  46.0887778  92.9736356  71.9261619  46.2710172  92.1558011  72.3889372
  46.9120764  93.1904048  71.4886509  46.4229943  91.9004541  69.1876668
  46.9517710  91.3896995  68.5746830  46.6858163  91.5847071  70.0522201
  45.1768177  83.6796473  84.3099486  44.5008814  83.5790603  84.9801861
  45.9995811  83.5235687  84.7735483  36.9247036  89.9168410  76.9312001
  37.5100473  89.1712098  77.0639905  36.7271874  90.2272367  77.8148665
  39.7785691  92.9519657  71.9474444  39.1096066  93.4365785  71.4638484
  39.6398561  93.1988878  72.8617822  31.5164691  82.4874010  75.6516444
  31.5548790  81.9537601  76.4453563  31.0104983  81.9609216  75.0327422
  43.9190960  94.9863401  78.5457102  44.4709268  95.1495022  79.3106187
  44.2597153  95.5767839  77.8737127  38.3707725  79.4061683  82.7952021
  38.9979764  79.0238761  83.4089545  37.5135644  79.1875885  83.1607713
  48.7701834  89.8124658  84.4005756  49.3141738  90.4254617  83.9060711
  48.1888679  90.3704237  84.9172769  35.1473268  81.2138112  68.7270376
  35.4426709  80.3048791  68.6737429  34.2461304  81.1925852  68.4051378
  47.0559347  92.9345376  75.5320784  46.9310486  92.1335116  75.0231730
  47.7138438  93.4291570  75.0434754  49.1194255  90.7354396  77.1600334
  48.1724591  90.6159748  77.0878661  49.4677028  89.8476895  77.2426596
  46.1240689  90.5307113  73.3604686  45.9765651  89.6023820  73.5412257
  46.9494182  90.5527203  72.8761762  49.7274810  91.3535671  74.4469559
  50.6521358  91.1478533  74.3094010  49.5590114  91.1052073  75.3558901
  49.5170127  91.8721339  69.8031651  49.6907004  91.3067761  69.0505503
  50.0099018  92.6722234  69.6211141  35.3347087  83.8836008  77.8695209
  34.7900555  84.6595816  78.0015484  36.2126436  84.2306812  77.7114331
  50.5045299  91.1888103  66.9028549  51.1996204  91.8094796  67.1215864
  50.8468449  90.3383455  67.1780927  36.1213108  83.0105904  80.7625366
  35.3794844  83.1588540  81.3489997  35.8005853  83.2714170  79.8992116
  44.0656771  92.5521882  80.5605756  44.3743897  92.3071029  81.4328456
  44.8632253  92.7568521  80.0724627  44.0877383  94.7059792  72.7911133
  43.6482373  94.2136171  73.4843990  44.8385500  94.1632760  72.5503208
  36.5669722  90.8971333  72.7935761  37.3927742  90.5975105  72.4134405
  36.2163774  90.1278955  73.2425550  41.5351255  90.2497801  74.8633435
  40.9131264  89.5868506  74.5635662  42.2056122  90.2758933  74.1807082
  34.7678327  88.8157659  73.7524695  33.9310235  88.3879834  73.5708696
  34.7401973  89.0090103  74.6895486  52.0930628  89.2720712  83.7367078
  51.3026172  89.2544851  83.1971577  51.8563983  89.8109006  84.4916114
  52.2128503  86.1213179  81.0499806  52.2626508  85.9563186  81.9915329
  52.1042427  85.2540438  80.6597687  41.0964762  88.8001725  68.3391895
  41.2452882  89.4837189  67.6858568  41.9031206  88.7806815  68.8541351
  49.5032266  82.1044107  82.3659113  50.4042129  81.9650572  82.0743111
  49.5780240  82.2698562  83.3057290  53.7146700  88.5410120  81.2941828
  53.4231509  88.9040101  82.1305289  53.1018832  87.8277129  81.1155160
  51.9633889  83.6642735  79.7621886  52.4388010  83.8570381  78.9540737
  51.0399454  83.7201921  79.5165269  38.8517395  84.8266902  69.3452964
  38.6063437  83.9229232  69.5433174  39.0213310  84.8284053  68.4032442
  44.5960168  91.2949855  65.8103643  44.0234135  91.9140042  65.3574114
  45.1692961  91.8449217  66.3443565  47.8157427  91.5787005  66.9412225
  48.7488101  91.5132567  67.1445100  47.7280640  92.4143272  66.4826757
  50.4445444  90.8952875  63.9016172  50.3659076  90.5612739  64.7951930
  51.2655111  91.3874643  63.9007645  44.8645659  86.6828414  84.6120352
  45.7848668  86.8607013  84.8060399  44.8295242  85.7384459  84.4600051
  34.0827824  81.8767008  73.5373627  33.7630608  81.0232316  73.2448001
  33.5361252  82.0915586  74.2931594  37.8607731  84.5929449  77.2543133
  38.0793741  85.5246556  77.2731167  38.2733505  84.2337423  78.0397937
  42.7335597  80.1662654  86.6445882  42.6332323  81.1157011  86.5757973
  42.5157139  79.8380893  85.7721952  33.9516084  85.4969919  75.5066748
  33.2579555  85.0823872  74.9936703  34.6989075  85.5390456  74.9100167
  42.5966867  83.5959793  85.4610944  42.1133948  84.3960153  85.6674833
  42.6827806  83.6067738  84.5078388  35.8652826  85.4288173  73.3832763
  35.8423514  85.5275860  72.4314646  36.1753463  86.2753324  73.7049929
  38.5240204  87.4864328  77.4979378  39.4783458  87.4548270  77.4309309
  38.3252728  87.0254952  78.3129603  39.1139586  86.0565444  80.0650175
  39.9332475  86.5509523  80.0885013  39.3876394  85.1397412  80.0367743
  36.8790433  93.0283947  74.5149575  36.7444901  92.2684348  73.9487573
  36.4622495  93.7524847  74.0478364  48.0149396  88.2120871  63.5226151
  48.7185246  88.4170873  64.1383806  47.2912045  88.7797633  63.7875234
  40.0359559  93.9253264  74.7268018  39.9191943  94.8698697  74.6246708
  39.2152005  93.6226826  75.1153817  49.9236093  88.6503400  65.5724611
  50.7581697  88.2184599  65.3902086  49.7620436  88.4785414  66.5001505
  49.5781985  85.1535513  66.9380950  49.5230789  84.9879785  65.9969394
  48.9528041  85.8611546  67.0943140  34.3674500  80.3903578  80.7642372
  35.0133364  79.8802532  81.2529597  34.1591652  81.1272259  81.3385798
  46.8927893  87.4584425  86.2634513  47.7619052  87.6325078  85.9021148
  46.4134644  88.2778842  86.1410242  41.0614073  94.5781526  77.9423947
  41.9641320  94.6105137  78.2590441  40.8351443  93.6481977  77.9570282
  42.8167675  93.3312513  74.6034025  41.8663306  93.3314374  74.4898397
  43.1200161  92.5845247  74.0870060  58.5520368  99.1673051  75.6679788
  59.1898778  99.0479799  74.9643128  58.4341211 100.1153895  75.7267740
  55.3610075  99.1200479  75.6041312  55.0228586  99.0041544  74.7161847
  56.2299843  98.7191644  75.5842318  51.2196890 100.9735956  71.5938203
  50.6561755 100.8825893  70.8254491  51.1049285 100.1535860  72.0740696
  55.8429858 100.2735331  81.5627518  55.8318498  99.8788129  80.6908021
  56.0050497  99.5401404  82.1561289  48.7661322 102.4687147  74.4322424
  49.5582614 102.1277972  74.0168723  49.0057972 102.5782122  75.3524577
  56.7996449 104.6406923  66.9052668  56.1484429 105.2261004  66.5186682
  57.5940812 105.1713118  66.9647706  50.7252076 101.7296061  67.3039802
  51.4982952 101.1825048  67.1652678  51.0777475 102.5940310  67.5154264
  52.5637119 103.0572443  80.5106702  52.2726985 103.9618074  80.3953368
  53.1994103 103.0988970  81.2250771  53.4893326 100.4349291  77.1008061
  54.0856898 100.2105314  76.3865024  53.5468297  99.6934037  77.7033509
  53.0618354  97.8888727  64.9358252  53.3143875  97.3670248  64.1741715
  52.1242913  97.7254872  65.0384936  58.1061637  96.8924505  72.7432996
  58.8924726  96.4743928  72.3923413  58.3700341  97.7970597  72.9114644
  58.2771714 102.3297355  67.4421652  57.6417547 102.4031982  68.1542557
  57.9469121 102.9190954  66.7640732  63.5070064  96.8299738  73.6465974
  64.2395236  96.2598955  73.8803804  62.7509420  96.4421339  74.0872480
  52.7814643  99.7916833  67.1382627  52.6650901  99.1161736  67.8063712
  52.8916903  99.3049207  66.3214780  55.1246184  99.2526980  70.8429317
  54.7604391  98.7257601  71.5542238  55.9813300  98.8625449  70.6695802
  61.0295484  90.5421312  78.1060583  60.6978809  91.4116723  77.8821798
  60.4341098  90.2257596  78.7854613  54.7651671  94.2816879  65.8390665
  54.9326073  95.1497116  66.2061136  54.5748840  94.4444161  64.9151954
  57.5227004 102.7433858  77.5056495  57.2227727 103.6458897  77.3972303
  57.1778063 102.4766042  78.3577648  50.9739485  99.1947655  73.5393200
  50.0489982  99.0623869  73.7470892  51.2223899  99.9741874  74.0363142
  60.9224148  95.2616399  75.1853933  60.0141025  95.1931807  74.8912694
  60.8711743  95.7388343  76.0135758  54.7440892  96.7374537  66.8237332
  54.6240517  97.1831588  67.6622812  54.0493480  97.0859855  66.2650870
  48.3348296  98.8380929  74.3736989  48.4640678  99.0915408  75.2876401
  47.6545748  99.4308637  74.0541644  52.5047784 109.5078179  70.4727463
  52.4271813 110.4586004  70.5515944  51.9009427 109.1624051  71.1302389
  54.9965013  96.6806044  83.1288830  54.2198348  97.2399964  83.1191695
  55.6355577  97.1662827  83.6503700  62.7885794  93.4632837  76.9631807
  62.1460174  93.7565370  76.3171601  62.2840723  93.3485757  77.7685003
  60.4425958  97.2096010  67.6517666  61.3543814  97.4423397  67.4765363
  59.9335605  97.7933054  67.0892745  53.2511386  99.4891497  82.6906797
  53.9926070 100.0276541  82.4141621  52.5448371 100.1157786  82.8478349
  58.7266725 101.6320638  81.2878959  59.1350081 101.1903048  80.5433591
  58.0043987 101.0573265  81.5413151  55.0797795  96.5693245  78.6612515
  55.9258991  96.9932658  78.8047164  55.0196433  95.9126869  79.3551079
  59.0495540 102.1921829  75.0431247  58.4204402 102.3567543  74.3407315
  58.6621202 102.6063438  75.8142211  62.9284772 103.1276266  72.3975611
  62.2435810 103.5075168  71.8472644  63.0128621 103.7371593  73.1307559
  58.2297241  94.2297613  80.3193689  57.9858173  94.9839674  79.7827965
  58.5057171  94.6082961  81.1540936  60.1835704 100.7736225  78.9970955
  60.3952599 101.4167985  78.3205336  60.1365452  99.9398542  78.5292885
  57.7861933  93.3854046  75.9007527  56.9246412  93.6835300  76.1924264
  57.8124367  93.6024445  74.9688559  54.6023502 101.9296237  72.3081332
  55.0661847 102.2083940  71.5185955  54.3380300 101.0279681  72.1254423
  51.4947583 101.4767718  75.2461096  52.0648940 101.9054987  74.6078580
  52.0855695 101.1950303  75.9445281  53.5392388  98.0519389  69.1170898
  54.2416431  98.5040433  69.5844824  53.2073016  97.4103208  69.7450791
  51.9872750  96.6431146  83.4922107  51.3571410  97.3247426  83.7257504
  51.8808837  96.5314227  82.5475245  47.2817722  96.3102942  74.4188031
  46.4916776  96.5660470  73.9428142  47.7728969  97.1251280  74.5240072
  61.2981531 103.6508181  77.1693312  62.1198975 103.2488368  76.8875994
  61.2943934 103.5476415  78.1209428  49.2332467  96.6747521  71.3771508
  48.4363631  96.7866215  71.8955004  49.0058060  97.0134173  70.5112398
  55.0638135 103.1992224  79.3254023  55.1282567 103.6612631  80.1612194
  54.3549059 102.5689589  79.4536332  45.5655425  96.5633432  76.8503022
  45.8163463  97.4480442  77.1160598  46.1014973  96.3838034  76.0778114
  69.3887525  99.9946929  73.5178283  68.6351233  99.4254327  73.3622288
  69.5235066  99.9609594  74.4648918  54.7786153 104.8660332  69.1933003
  54.6431827 105.7111867  69.6217851  55.3195965 105.0679609  68.4298937
  51.2653492  90.9451911  85.8547358  50.8720438  90.3918110  86.5295002
  52.0819633  91.2562490  86.2453876  48.2315550 102.3835770  69.7660928
  48.7440071 103.1779020  69.9166493  48.8838263 101.6862060  69.6994529
  50.0410435 105.5001526  71.8483681  50.2177063 106.4219491  71.6604665
  50.8367268 105.1859945  72.2778061  54.1821453  92.3609791  83.4467615
  54.9231167  92.9616944  83.3672077  54.4139376  91.6187428  82.8885657
  49.3262791  97.5466158  81.7245844  49.2116306  96.6451415  82.0252943
  48.4707309  97.7929855  81.3730661  56.4054629 105.4883898  83.3233345
  55.9618483 104.7020277  83.0054249  57.0671843 105.6763049  82.6577236
  51.1641750 107.0179700  77.8494023  51.7149175 106.8896763  77.0771017
  50.3253226 107.3174589  77.4988916  58.5035867 105.7686698  81.3514746
  58.4854342 106.5895579  80.8595015  59.4255787 105.6440773  81.5764887
  54.9608921 103.2830828  82.1938255  55.4937258 102.5219116  81.9637563
  54.4323002 102.9904479  82.9362409  46.1964467 100.7124424  70.5420498
  47.0339689 101.1221432  70.3254206  46.3742734  99.7723866  70.5120692
  58.0928899  98.3799505  66.2304331  57.5775522  99.1504109  66.4692719
  57.8206207  97.7064641  66.8537393  55.6776010  93.2249205  71.2889570
  54.8217606  92.8356056  71.1095208  56.0902962  93.3041166  70.4289355
  57.2075157  90.7595549  75.6881130  56.7039952  90.7225684  74.8748935
  57.5005763  91.6688291  75.7477786  53.4518042  90.8434278  74.6947311
  54.3171039  90.6477087  74.3353201  53.5195551  90.6144630  75.6216668
  63.0663173 101.1331859  68.1657505  62.2892616 100.7943019  67.7212667
  63.7454654 101.1384482  67.4912470  57.8815202  96.2526597  68.0564113
  57.5765338  96.5672746  68.9074256  58.8345644  96.3308017  68.0991446
  56.3261634 102.4116820  69.7057067  55.7982995 101.6769580  69.3930304
  55.8249137 103.1891496  69.4597035  61.3054480 100.6065841  74.8224113
  60.6478154 101.2965102  74.9104242  62.1094879 100.9962272  75.1658099
  51.0580362  93.0736486  72.0663678  51.6324113  92.8511668  71.3336871
  51.6451344  93.1425181  72.8192279  60.1159939  98.9610213  72.8728055
  60.6291820  99.5940205  73.3749764  60.7661163  98.3611409  72.5071415
  51.3849949  95.1040947  66.0859563  50.5487261  95.4415634  66.4068838
  51.2454718  94.9689927  65.1486700  53.3603029  89.9477735  70.7938748
  52.7067442  89.6326752  70.1695362  53.3183503  89.3253476  71.5198570
  54.4714234 100.2297030  62.7092040  53.5641296  99.9986284  62.9083189
  54.9685266  99.4334650  62.8966021  57.3782313 108.9394537  65.6288726
  56.7044012 109.2426234  66.2373684  57.7648135 109.7423618  65.2794183
  56.5940770  96.4359669  75.1186395  55.6763331  96.6574616  74.9608083
  57.0100913  96.5105979  74.2598102  57.3775817  97.8351084  70.2489075
  58.1247636  98.3472482  69.9396197  57.6467407  97.5135137  71.1093469
  55.6502468 100.3309625  67.2316030  54.7413687 100.0468658  67.3288499
  55.6797551 100.7508704  66.3719337  60.8821735 103.9416215  71.0007197
  60.4284062 103.1007125  71.0572388  60.2515702 104.5777613  71.3381977
  59.8254654  94.8708201  72.2307865  59.0877411  94.3585587  72.5618107
  60.0781428  94.4308582  71.4191142  59.3254674 105.7792711  71.9357015
  59.6177649 106.3397768  71.2169381  59.8353295 106.0721272  72.6910175
  46.2190638  98.0515139  71.2131232  46.0215038  97.4584500  70.4882298
  45.6637302  97.7467349  71.9307171  54.1987362  97.9438246  73.3325825
  54.2535971  96.9912082  73.2568302  53.3878564  98.0997685  73.8167123
  55.3478555 101.8718369  64.5704108  54.9097985 101.1554228  64.1109746
  56.0888996 102.0994484  64.0089200  52.1379721  96.5615306  71.0916204
  51.3247587  96.8609476  71.4981396  52.6338716  96.1670994  71.8090686
  54.2888299 106.5573062  73.0250469  54.2464478 106.7833909  72.0959001
  55.2050998 106.3236437  73.1736270  57.7353933  97.0257130  79.9231098
  58.0903321  97.2528603  80.7825564  58.3826064  97.3575507  79.3008353
  63.4651670 100.1475566  70.6280427  63.3269569 100.3377162  69.7001616
  63.1087889 100.9094949  71.0848478  51.6293796  94.1333661  76.7077439
  52.2693176  93.9922420  76.0100402  50.7971327  93.8468174  76.3316041
  63.4921050 102.2152093  75.6391698  63.9257556 102.1227382  76.4874752
  64.2052630 102.1909593  75.0011714  52.4054100 103.4336091  72.8212431
  53.1994699 102.9386412  72.6195006  51.6945793 102.9053955  72.4580137
  57.2248945 105.8154187  77.1724799  57.2785967 106.3845123  77.9402515
  56.3563726 105.9856072  76.8078836  48.7136864  97.5779173  68.8972184
  47.7834452  97.5163629  69.1142146  48.8094336  97.0555126  68.1008825
  48.6322413  94.1033986  71.4850426  48.8929230  95.0179319  71.3759586
  49.4539585  93.6358429  71.6347038  50.1047338  95.5171743  78.6549250
  50.7770391  95.3089105  78.0061899  49.2777125  95.3193829  78.2154482
  64.3536599 102.2575794  78.1724584  64.5472489 103.1621604  78.4183859
  64.2537217 101.7983213  79.0063169  56.0072910  92.1433684  80.6714911
  55.3600825  92.8423634  80.5779387  56.7773925  92.5769828  81.0391159
  59.4151708 102.4082536  83.7465464  59.2637214 102.1793088  82.8295548
  59.4056387 103.3653138  83.7596809  56.1837044  99.9814449  78.7311731
  57.1129104 100.1325609  78.5580698  55.7628074 100.0698470  77.8760377
  54.9825376 104.0065113  76.5010268  54.8436462 103.6383898  77.3736207
  54.1939972 104.5212753  76.3294226  55.5773528 109.1074210  67.8435805
  55.7525284 108.6362253  68.6581428  54.8906316 109.7339976  68.0717066
  56.5330591 103.3846716  73.8899106  56.1980424 103.3447486  74.7856756
  56.0334537 102.7191432  73.4169516  50.5074835  98.7914346  79.4151687
  50.3694633  98.0594585  80.0163226  51.4179759  98.7023246  79.1335875
  59.4689783 100.7302750  64.1636166  58.8518954 100.0049579  64.0669219
  59.0006271 101.4912111  63.8203240  53.1357136  98.5034305  78.9035367
  53.8456754  97.8627498  78.8621985  53.0926444  98.7547200  79.8261548
  61.1243915 105.4401659  81.8241946  61.0656461 104.7560879  81.1572529
  61.5263433 106.1820649  81.3722572  51.8486070  95.4899523  80.7231006
  51.3123427  95.0390262  81.3752603  51.2602778  95.6245432  79.9801471
  50.1434613 112.2563573  74.6175665  50.3831212 112.8882097  75.2954684
  49.3003810 111.9051613  74.9041024  51.2588329  94.9488175  63.2857470
  50.3817795  94.8276976  62.9219717  51.7346082  94.1574253  63.0336359
  61.1261322 103.4041243  80.0555926  60.2388101 103.0667165  80.1782325
  61.6959873 102.6724274  80.2924691  42.7790469  99.7365335  73.3798977
  43.4661509  99.4227065  72.7919993  42.6238598 100.6406699  73.1066229
  47.5825191  94.6255531  77.8084001  47.4983380  94.0181201  77.0734411
  46.7607898  95.1164549  77.8093497  54.6562475 108.0642695  77.0217169
  54.5832647 108.8697667  77.5336474  54.2139868 108.2634661  76.1965190
  54.4452255 107.3014465  70.5319991  53.6619777 107.8436145  70.6258215
  55.1445000 107.8188445  70.9314232  57.7548905  93.1109095  73.1754196
  58.2517605  92.3579057  72.8555266  56.9835886  93.1473411  72.6097405
  65.6078662  98.8149460  74.8172488  65.5968539  99.6974176  74.4466421
  64.7396042  98.4621011  74.6227025  57.1161159 107.9629529  79.1775328
  57.8289131 108.5976994  79.1051229  56.6251187 108.0593395  78.3615330
  58.8378686 101.8680782  70.7492619  57.9034964 101.9882244  70.5797324
  59.0155354 100.9653249  70.4852629  54.3383874  95.2526478  72.9025881
  53.9681661  94.6997518  73.5906786  54.8342966  94.6484611  72.3500881
  62.2251237  97.7098101  71.2842654  62.6911689  98.5426093  71.2102956
  62.6758738  97.2443083  71.9887912  52.1673072 105.7123973  79.9980899
  52.8682532 106.3460456  80.1510293  51.6968187 106.0538704  79.2376538
  60.2927468 104.0541922  68.2828806  60.5687312 103.9398517  69.1922680
  59.4231967 103.6559407  68.2440979  60.1967900  90.0778688  75.3233555
  59.2830980  90.3082915  75.4915762  60.6261001  90.1617132  76.1747587
  59.9674358  98.2668580  77.8233449  59.3145809  98.5144488  77.1685902
  60.3454738  97.4532718  77.4895926  56.9281532 108.3028273  71.9261619
  57.1103927 107.4849929  72.3889372  57.7514518 108.5195965  71.4886509
  57.2623698 107.2296458  69.1876668  57.7911464 106.7188913  68.5746830
  57.5251917 106.9138989  70.0522201  56.0161931  99.0088391  84.3099486
  55.3402568  98.9082520  84.9801861  56.8389565  98.8527605  84.7735483
  47.7640790 105.2460328  76.9312001  48.3494227 104.5004016  77.0639905
  47.5665629 105.5564284  77.8148665  50.6179446 108.2811575  71.9474444
  49.9489821 108.7657703  71.4638484  50.4792315 108.5280795  72.8617822
  42.3558445  97.8165928  75.6516444  42.3942545  97.2829519  76.4453563
  41.8498738  97.2901133  75.0327422  54.7584714 110.3155319  78.5457102
  55.3103022 110.4786940  79.3106187  55.0990908 110.9059756  77.8737127
  49.7349207  92.6630468  79.1478987  49.7990534  93.5245299  78.7356384
  49.6716328  92.0504470  78.4151345  49.2101480  94.7353601  82.7952021
  49.8373519  94.3530678  83.4089545  48.3529399  94.5167803  83.1607713
  59.6095589 105.1416576  84.4005756  60.1535492 105.7546534  83.9060711
  59.0282433 105.6996154  84.9172769  45.9867023  96.5430030  68.7270376
  46.2820464  95.6340708  68.6737429  45.0855058  96.5217769  68.4051378
  57.8953101 108.2637294  75.5320784  57.7704241 107.4627034  75.0231730
  58.5532193 108.7583487  75.0434754  49.5161270  94.6186027  74.7097924
  48.7947855  95.2321994  74.5705398  50.3054525  95.1543791  74.6314570
  59.9588010 106.0646314  77.1600334  59.0118345 105.9451665  77.0878661
  60.3070783 105.1768812  77.2426596  52.3187583  91.9540453  80.9838576
  52.8421985  92.2002750  81.7464885  52.0999916  92.7860488  80.5641713
  47.7154864  94.2244128  68.8509701  47.3867570  93.3441507  68.6684807
  48.0694235  94.1691796  69.7386090  56.9634443 105.8599030  73.3604686
  56.8159406 104.9315738  73.5412257  57.7887937 105.8819121  72.8761762
  50.8296687  94.5117097  69.2185179  51.1692760  95.0403019  68.4963787
  51.2768808  94.8497504  69.9943745  60.5668565 106.6827589  74.4469559
  61.4915112 106.4770450  74.3094010  60.3983868 106.4343990  75.3558901
  53.5240128  92.8954148  78.6688247  53.1836949  92.0961961  79.0708927
  52.8179135  93.1955859  78.0965080  54.1756600  89.9803461  77.1215570
  54.9982669  89.5063939  76.9994460  54.4194664  90.7593944  77.6214256
  52.8164835  93.0091719  67.4178471  53.5373197  93.3872972  66.9142188
  52.1930139  93.7280596  67.5213449  56.9595957  93.7136868  68.3536804
  57.1759572  94.5961506  68.0525632  56.4790025  93.3223081  67.6242446
  51.6995179  96.6722581  74.9307548  51.5539760  96.9862884  75.8231830
  51.2220382  97.2907482  74.3778447  53.5591562  93.6625129  74.9788438
  53.5453130  92.7666223  74.6420736  54.2763990  93.6695793  75.6126724
  55.4117692  94.0962469  77.0241565  55.1535470  95.0179540  77.0225896
  54.8802733  93.6992904  77.7142029  60.3563881 107.2013257  69.8031651
  60.5300759 106.6359679  69.0505503  60.8492772 108.0014151  69.6211141
  46.1740841  99.2127926  77.8695209  45.6294309  99.9887734  78.0015484
  47.0520191  99.5598730  77.7114331  52.9628458  92.5439510  70.2476008
  53.0844369  91.6156156  70.4466896  52.6730500  92.5578195  69.3354323
  55.8319648  90.2294420  73.3842728  55.8541345  90.2933753  72.4294707
  56.2487707  89.3898929  73.5783234  66.2103272  99.9649680  71.4221950
  66.6534418  99.2157005  71.0241074  65.3329783  99.9559816  71.0395682
  61.3439054 106.5180021  66.9028549  62.0389958 107.1386714  67.1215864
  61.6862204 105.6675372  67.1780927  46.9606863  98.3397822  80.7625366
  46.2188599  98.4880457  81.3489997  46.6399607  98.6006088  79.8992116
  63.2430477 103.9679727  68.4315880  63.7681801 104.3066999  67.7065200
  63.1552829 103.0326742  68.2479014  54.9050525 107.8813800  80.5605756
  55.2137652 107.6362947  81.4328456  55.7026008 108.0860439  80.0724627
  54.9271138 110.0351710  72.7911133  54.4876128 109.5428088  73.4843990
  55.6779255 109.4924677  72.5503208  47.4063477 106.2263251  72.7935761
  48.2321496 105.9267023  72.4134405  47.0557529 105.4570873  73.2425550
  52.3745010 105.5789719  74.8633435  51.7525019 104.9160424  74.5635662
  53.0449877 105.6050851  74.1807082  45.6072082 104.1449577  73.7524695
  44.7703990 103.7171751  73.5708696  45.5795727 104.3382020  74.6895486
  52.4469537  94.0571507  84.4565941  52.4957693  94.9333630  84.0743710
  52.9892051  93.5148900  83.8837584  62.9324383 104.6012630  83.7367078
  62.1419927 104.5836769  83.1971577  62.6957737 105.1400924  84.4916114
  63.0522258 101.4505097  81.0499806  63.1020263 101.2855104  81.9915329
  62.9436181 100.5832356  80.6597687  51.9358517 104.1293642  68.3391895
  52.0846637 104.8129107  67.6858568  52.7424960 104.1098732  68.8541351
  60.3426020  97.4336025  82.3659113  61.2435883  97.2942489  82.0743111
  60.4173995  97.5990479  83.3057290  54.6768826  94.8102879  81.2112299
  53.8072135  95.1036445  80.9394888  54.9128306  95.3943324  81.9319563
  64.5540455 103.8702038  81.2941828  64.2625263 104.2332019  82.1305289
  63.9412586 103.1569046  81.1155160  65.7536137 101.4354918  73.8144398
  66.5883028 101.8744722  73.9781958  65.8895266 100.9593571  72.9952644
  62.8027643  98.9934653  79.7621886  63.2781765  99.1862299  78.9540737
  61.8793208  99.0493838  79.5165269  49.6911150 100.1558820  69.3452964
  49.4457192  99.2521150  69.5433174  49.8607064 100.1575970  68.4032442
  57.3807859  91.0282496  78.7277720  57.8989803  91.7643523  78.4024208
  57.0262992  91.3346490  79.5624479  48.9606797  95.8887177  66.8439126
  48.2676042  95.9631532  66.1879161  48.7158549  95.1247521  67.3660642
  55.4353922 106.6241773  65.8103643  54.8627889 107.2431960  65.3574114
  56.0086716 107.1741134  66.3443565  61.5029312  95.8700413  77.9950191
  62.4546735  95.9698510  78.0162415  61.3332762  95.0778681  78.5048276
  59.5243691  92.9555996  78.1809592  58.9293624  93.2361009  77.4856081
  59.2393388  93.4449897  78.9526333  58.6551182 106.9078923  66.9412225
  59.5881855 106.8424484  67.1445100  58.5674395 107.7435190  66.4826757
  61.2839199 106.2244793  63.9016172  61.2052830 105.8904657  64.7951930
  62.1048865 106.7166561  63.9007645  63.9817390  99.0906532  77.1092491
  63.9493710  98.1522533  77.2952175  64.5918013  99.1690569  76.3758316
  55.8200721  97.9602585  63.1519695  56.7659825  97.8308794  63.2208113
  55.4414966  97.2217247  63.6289123  64.1311878  95.8817576  77.1550774
  63.6150927  95.0976033  76.9680703  65.0151827  95.5536292  77.3197294
  69.7993940 100.1522539  76.2498528  70.5297328  99.8907827  76.8106231
  69.1900885  99.4151261  76.2900596  67.8809237  98.2930402  76.8472979
  67.1542400  98.1586367  76.2389471  67.4656524  98.6007230  77.6529697
  55.7039413 102.0120332  84.6120352  56.6242423 102.1898931  84.8060399
  55.6688996 101.0676377  84.4600051  54.0043638  95.8852562  63.0874580
  53.0975093  95.5885675  63.1637294  54.2819619  95.5882380  62.2208867
  44.9221578  97.2058925  73.5373627  44.6024363  96.3524233  73.2448001
  44.3755006  97.4207503  74.2931594  48.7001486  99.9221366  77.2543133
  48.9187495 100.8538474  77.2731167  49.1127260  99.5629341  78.0397937
  53.5729351  95.4954572  86.6445882  53.4726078  96.4448929  86.5757973
  53.3550893  95.1672811  85.7721952  52.7742422  92.7439497  63.2286559
  53.6361586  93.0694395  63.4882377  52.9592767  91.9570993  62.7159625
  44.7909838 100.8261837  75.5066748  44.0973310 100.4115789  74.9936703
  45.5382829 100.8682373  74.9100167  60.9275059  91.6168023  70.3721782
  60.3473728  92.2752828  69.9899835  60.6610992  90.7945368  69.9609200
  59.3778625  91.0173081  72.5743103  59.8778404  91.1289616  71.7657422
  60.0214233  90.7134134  73.2143911  53.4360621  98.9251711  85.4610944
  52.9527703  99.7252071  85.6674833  53.5221560  98.9359656  84.5078388
  46.7046581 100.7580090  73.3832763  46.6817269 100.8567778  72.4314646
  47.0147217 101.6045241  73.7049929  49.3633959 102.8156246  77.4979378
  50.3177212 102.7840188  77.4309309  49.1646482 102.3546869  78.3129603
  49.9533341 101.3857362  80.0650175  50.7726230 101.8801440  80.0885013
  50.2270148 100.4689330  80.0367743  59.7099937  93.7768114  69.4278131
  58.8225792  94.0617764  69.2098325  60.1253926  93.6161877  68.5805408
  63.0614473  93.8014635  73.1432470  63.8374863  94.2911087  73.4157087
  62.3362607  94.2272689  73.6004339  65.4987032  94.5142254  74.2006411
  66.0931522  94.2737990  73.4899719  65.5713615  93.7949385  74.8279947
  47.7184187 108.3575865  74.5149575  47.5838655 107.5976266  73.9487573
  47.3016250 109.0816765  74.0478364  58.8543150 103.5412789  63.5226151
  59.5579000 103.7462791  64.1383806  58.1305799 104.1089550  63.7875234
  59.6840961  99.2922650  69.6428421  59.6276162  99.7491201  68.8036053
  60.2369303  98.5313334  69.4651264  63.4945767  95.0812382  70.4678540
  63.2382701  94.6809017  71.2986748  62.8698635  95.7956176  70.3428680
  67.8058104  97.8208455  72.9749832  67.2457662  97.8901644  73.7481394
  67.2001608  97.6449440  72.2549328  50.8753313 109.2545182  74.7268018
  50.7585697 110.1990615  74.6246708  50.0545760 108.9518744  75.1153817
  60.7629848 103.9795318  65.5724611  61.5975452 103.5476516  65.3902086
  60.6014191 103.8077331  66.5001505  60.4175740 100.4827431  66.9380950
  60.3624544 100.3171702  65.9969394  59.7921795 101.1903464  67.0943140
  45.2068255  95.7195495  80.7642372  45.8527119  95.2094449  81.2529597
  44.9985406  96.4564177  81.3385798  57.7321647 102.7876343  86.2634513
  58.6012807 102.9616995  85.9021148  57.2528399 103.6070760  86.1410242
  51.9007827 109.9073444  77.9423947  52.8035074 109.9397054  78.2590441
  51.6745197 108.9773895  77.9570282  53.6561429 108.6604430  74.6034025
  52.7057060 108.6606292  74.4898397  53.9593916 107.9137165  74.0870060
  49.5465746  92.8663112  84.8617387  50.4097208  92.5099917  85.0720711
  48.9731157  92.5277007  85.5492791  69.3914123 114.4964969  75.6679788
  70.0292533 114.3771716  74.9643128  69.2734966 115.4445813  75.7267740
  66.2003829 114.4492397  75.6041312  65.8622341 114.3333462  74.7161847
  67.0693597 114.0483562  75.5842318  62.0590645 116.3027873  71.5938203
  61.4955510 116.2117810  70.8254491  61.9443040 115.4827778  72.0740696
  66.6823612 115.6027249  81.5627518  66.6712253 115.2080047  80.6908021
  66.8444252 114.8693321  82.1561289  59.6055077 117.7979065  74.4322424
  60.3976369 117.4569890  74.0168723  59.8451727 117.9074040  75.3524577
  67.6390204 119.9698841  66.9052668  66.9878183 120.5552921  66.5186682
  68.4334566 120.5005036  66.9647706  61.5645831 117.0587978  67.3039802
  62.3376707 116.5116965  67.1652678  61.9171230 117.9232228  67.5154264
  63.4030873 118.3864360  80.5106702  63.1120739 119.2909991  80.3953368
  64.0387858 118.4280888  81.2250771  64.3287080 115.7641209  77.1008061
  64.9250652 115.5397231  76.3865024  64.3862052 115.0225954  77.7033509
  63.9012109 113.2180644  64.9358252  64.1537629 112.6962166  64.1741715
  62.9636668 113.0546790  65.0384936  68.9455391 112.2216423  72.7432996
  69.7318481 111.8035846  72.3923413  69.2094096 113.1262515  72.9114644
  69.1165469 117.6589273  67.4421652  68.4811302 117.7323900  68.1542557
  68.7862875 118.2482872  66.7640732  74.3463818 112.1591656  73.6465974
  75.0788990 111.5890873  73.8803804  73.5903174 111.7713256  74.0872480
  63.6208397 115.1208750  67.1382627  63.5044655 114.4453654  67.8063712
  63.7310657 114.6341124  66.3214780  65.9639938 114.5818897  70.8429317
  65.5998145 114.0549518  71.5542238  66.8207054 114.1917366  70.6695802
  71.8689239 105.8713230  78.1060583  71.5372564 106.7408641  77.8821798
  71.2734852 105.5549514  78.7854613  65.6045425 109.6108797  65.8390665
  65.7719828 110.4789033  66.2061136  65.4142594 109.7736079  64.9151954
  68.3620758 118.0725776  77.5056495  68.0621481 118.9750815  77.3972303
  68.0171818 117.8057959  78.3577648  61.8133240 114.5239573  73.5393200
  60.8883736 114.3915787  73.7470892  62.0617653 115.3033792  74.0363142
  71.7617902 110.5908316  75.1853933  70.8534779 110.5223725  74.8912694
  71.7105498 111.0680261  76.0135758  65.5834646 112.0666455  66.8237332
  65.4634271 112.5123505  67.6622812  64.8887234 112.4151772  66.2650870
  59.1742051 114.1672846  74.3736989  59.3034432 114.4207325  75.2876401
  58.4939502 114.7600554  74.0541644  63.3441538 124.8370096  70.4727463
  63.2665568 125.7877921  70.5515944  62.7403182 124.4915969  71.1302389
  65.8358768 112.0097962  83.1288830  65.0592102 112.5691882  83.1191695
  66.4749331 112.4954745  83.6503700  73.6279549 108.7924755  76.9631807
  72.9853929 109.0857288  76.3171601  73.1234477 108.6777675  77.7685003
  71.2819712 112.5387928  67.6517666  72.1937568 112.7715315  67.4765363
  70.7729359 113.1224972  67.0892745  64.0905140 114.8183415  82.6906797
  64.8319825 115.3568459  82.4141621  63.3842126 115.4449704  82.8478349
  69.5660480 116.9612556  81.2878959  69.9743836 116.5194966  80.5433591
  68.8437741 116.3865183  81.5413151  65.9191550 111.8985162  78.6612515
  66.7652745 112.3224576  78.8047164  65.8590188 111.2418787  79.3551079
  69.8889295 117.5213746  75.0431247  69.2598157 117.6859460  74.3407315
  69.5014957 117.9355356  75.8142211  73.7678526 118.4568184  72.3975611
  73.0829565 118.8367085  71.8472644  73.8522376 119.0663511  73.1307559
  69.0690995 109.5589531  80.3193689  68.8251927 110.3131591  79.7827965
  69.3450926 109.9374878  81.1540936  71.0229458 116.1028143  78.9970955
  71.2346353 116.7459903  78.3205336  70.9759206 115.2690460  78.5292885
  68.6255687 108.7145964  75.9007527  67.7640166 109.0127217  76.1924264
  68.6518122 108.9316363  74.9688559  65.4417256 117.2588154  72.3081332
  65.9055602 117.5375857  71.5185955  65.1774055 116.3571599  72.1254423
  62.3341337 116.8059636  75.2461096  62.9042695 117.2346904  74.6078580
  62.9249449 116.5242221  75.9445281  64.3786142 113.3811307  69.1170898
  65.0810186 113.8332350  69.5844824  64.0466771 112.7395126  69.7450791
  62.8266504 111.9723063  83.4922107  62.1965165 112.6539344  83.7257504
  62.7202592 111.8606145  82.5475245  58.1211476 111.6394859  74.4188031
  57.3310530 111.8952388  73.9428142  58.6122724 112.4543197  74.5240072
  72.1375286 118.9800099  77.1693312  72.9592730 118.5780286  76.8875994
  72.1337689 118.8768333  78.1209428  60.0726222 112.0039439  71.3771508
  59.2757385 112.1158133  71.8955004  59.8451814 112.3426091  70.5112398
  65.9031889 118.5284142  79.3254023  65.9676322 118.9904549  80.1612194
  65.1942813 117.8981507  79.4536332  56.4049179 111.8925350  76.8503022
  56.6557218 112.7772360  77.1160598  56.9408728 111.7129951  76.0778114
  80.2281279 115.3238847  73.5178283  79.4744987 114.7546245  73.3622288
  80.3628820 115.2901511  74.4648918  65.6179907 120.1952249  69.1933003
  65.4825582 121.0403785  69.6217851  66.1589720 120.3971527  68.4298937
  62.1047247 106.2743829  85.8547358  61.7114192 105.7210028  86.5295002
  62.9213387 106.5854408  86.2453876  59.0709304 117.7127687  69.7660928
  59.5833825 118.5070938  69.9166493  59.7232017 117.0153978  69.6994529
  60.8804189 120.8293444  71.8483681  61.0570818 121.7511408  71.6604665
  61.6761023 120.5151863  72.2778061  65.0215208 107.6901708  83.4467615
  65.7624921 108.2908861  83.3672077  65.2533131 106.9479346  82.8885657
  60.1656546 112.8758076  81.7245844  60.0510061 111.9743333  82.0252943
  59.3101063 113.1221772  81.3730661  67.2448383 120.8175816  83.3233345
  66.8012238 120.0312194  83.0054249  67.9065597 121.0054966  82.6577236
  62.0035505 122.3471617  77.8494023  62.5542930 122.2188681  77.0771017
  61.1646981 122.6466506  77.4988916  69.3429622 121.0978616  81.3514746
  69.3248097 121.9187497  80.8595015  70.2649542 120.9732691  81.5764887
  65.8002676 118.6122745  82.1938255  66.3331012 117.8511033  81.9637563
  65.2716757 118.3196397  82.9362409  68.9672371 103.7182811  77.7231896
  68.6236640 104.6084453  77.6471007  69.3351333 103.5284469  76.8601481
  57.0358221 116.0416342  70.5420498  57.8733443 116.4513350  70.3254206
  57.2136489 115.1015784  70.5120692  68.9322653 113.7091422  66.2304331
  68.4169277 114.4796027  66.4692719  68.6599962 113.0356558  66.8537393
  66.5169764 108.5541123  71.2889570  65.6611361 108.1647973  71.1095208
  66.9296716 108.6333084  70.4289355  68.0468911 106.0887466  75.6881130
  67.5433707 106.0517602  74.8748935  68.3399518 106.9980209  75.7477786
  64.2911797 106.1726196  74.6947311  65.1564794 105.9769005  74.3353201
  64.3589306 105.9436548  75.6216668  73.9056928 116.4623777  68.1657505
  73.1286370 116.1234936  67.7212667  74.5848408 116.4676400  67.4912470
  68.7208957 111.5818514  68.0564113  68.4159092 111.8964664  68.9074256
  69.6739399 111.6599934  68.0991446  67.1655388 117.7408738  69.7057067
  66.6376750 117.0061497  69.3930304  66.6642891 118.5183414  69.4597035
  72.1448234 115.9357758  74.8224113  71.4871909 116.6257020  74.9104242
  72.9488634 116.3254190  75.1658099  61.8974116 108.4028404  72.0663678
  62.4717868 108.1803585  71.3336871  62.4845098 108.4717098  72.8192279
  70.9553693 114.2902131  72.8728055  71.4685575 114.9232123  73.3749764
  71.6054917 113.6903326  72.5071415  62.2243703 110.4332865  66.0859563
  61.3881015 110.7707552  66.4068838  62.0848473 110.2981845  65.1486700
  64.1996784 105.2769653  70.7938748  63.5461196 104.9618670  70.1695362
  64.1577258 104.6545393  71.5198570  65.3107989 115.5588948  62.7092040
  64.4035050 115.3278201  62.9083189  65.8079021 114.7626567  62.8966021
  68.2176067 124.2686455  65.6288726  67.5437766 124.5718152  66.2373684
  68.6041889 125.0715535  65.2794183  67.4334524 111.7651586  75.1186395
  66.5157085 111.9866533  74.9608083  67.8494668 111.8397897  74.2598102
  68.2169572 113.1643002  70.2489075  68.9641391 113.6764399  69.9396197
  68.4861161 112.8427055  71.1093469  66.4896222 115.6601543  67.2316030
  65.5807441 115.3760576  67.3288499  66.5191306 116.0800621  66.3719337
  71.7215489 119.2708132  71.0007197  71.2677817 118.4299042  71.0572388
  71.0909456 119.9069531  71.3381977  70.6648409 110.2000118  72.2307865
  69.9271166 109.6877505  72.5618107  70.9175183 109.7600500  71.4191142
  70.1648429 121.1084629  71.9357015  70.4571403 121.6689686  71.2169381
  70.6747049 121.4013190  72.6910175  70.7660036 102.9776370  72.8249634
  71.0718913 102.1173734  72.5375549  71.4912641 103.5693991  72.6248628
  57.0584392 113.3807057  71.2131232  56.8608792 112.7876418  70.4882298
  56.5031056 113.0759267  71.9307171  65.0381116 113.2730163  73.3325825
  65.0929726 112.3204000  73.2568302  64.2272318 113.4289603  73.8167123
  66.1872310 117.2010287  64.5704108  65.7491740 116.4846145  64.1109746
  66.9282751 117.4286401  64.0089200  62.9773476 111.8907223  71.0916204
  62.1641342 112.1901394  71.4981396  63.4732470 111.4962912  71.8090686
  65.1282054 121.8864980  73.0250469  65.0858233 122.1125826  72.0959001
  66.0444753 121.6528355  73.1736270  68.5747688 112.3549048  79.9231098
  68.9297075 112.5820521  80.7825564  69.2219819 112.6867424  79.3008353
  74.3045425 115.4767484  70.6280427  74.1663323 115.6669080  69.7001616
  73.9481643 116.2386866  71.0848478  62.4687551 109.4625579  76.7077439
  63.1086930 109.3214338  76.0100402  61.6365081 109.1760092  76.3316041
  74.3314804 117.5444011  75.6391698  74.7651311 117.4519300  76.4874752
  75.0446385 117.5201511  75.0011714  63.2447855 118.7628009  72.8212431
  64.0388453 118.2678329  72.6195006  62.5339547 118.2345872  72.4580137
  68.0642699 121.1446105  77.1724799  68.1179721 121.7137041  77.9402515
  67.1957480 121.3147990  76.8078836  59.5530618 112.9071091  68.8972184
  58.6228206 112.8455546  69.1142146  59.6488090 112.3847044  68.1008825
  59.4716167 109.4325904  71.4850426  59.7322984 110.3471237  71.3759586
  60.2933339 108.9650346  71.6347038  60.9441092 110.8463661  78.6549250
  61.6164146 110.6381023  78.0061899  60.1170879 110.6485747  78.2154482
  75.1930354 117.5867711  78.1724584  75.3866244 118.4913522  78.4183859
  75.0930972 117.1275130  79.0063169  66.8466664 107.4725602  80.6714911
  66.1994580 108.1715551  80.5779387  67.6167680 107.9061746  81.0391159
  70.2545462 117.7374454  83.7465464  70.1030969 117.5085006  82.8295548
  70.2450142 118.6945055  83.7596809  67.0230799 115.3106367  78.7311731
  67.9522859 115.4617526  78.5580698  66.6021829 115.3990387  77.8760377
  65.8219131 119.3357031  76.5010268  65.6830216 118.9675816  77.3736207
  65.0333727 119.8504671  76.3294226  66.4167283 124.4366128  67.8435805
  66.5919038 123.9654171  68.6581428  65.7300071 125.0631894  68.0717066
  67.3724346 118.7138634  73.8899106  67.0374178 118.6739404  74.7856756
  66.8728291 118.0483350  73.4169516  61.3468590 114.1206264  79.4151687
  61.2088388 113.3886503  80.0163226  62.2573513 114.0315164  79.1335875
  70.3083537 116.0594668  64.1636166  69.6912708 115.3341496  64.0669219
  69.8400026 116.8204028  63.8203240  63.9750890 113.8326223  78.9035367
  64.6850509 113.1919415  78.8621985  63.9320199 114.0839118  79.8261548
  71.9637669 120.7693576  81.8241946  71.9050215 120.0852797  81.1572529
  72.3657187 121.5112567  81.3722572  62.6879824 110.8191441  80.7231006
  62.1517181 110.3682180  81.3752603  62.0996533 110.9537350  79.9801471
  62.0982083 110.2780092  63.2857470  61.2211550 110.1568893  62.9219717
  62.5739836 109.4866171  63.0336359  71.9655076 118.7333160  80.0555926
  71.0781855 118.3959082  80.1782325  72.5353627 118.0016192  80.2924691
  53.6184223 115.0657252  73.3798977  54.3055263 114.7518982  72.7919993
  53.4632352 115.9698617  73.1066229  58.4218946 109.9547449  77.8084001
  58.3377134 109.3473118  77.0734411  57.6001652 110.4456467  77.8093497
  65.4956230 123.3934613  77.0217169  65.4226401 124.1989584  77.5336474
  65.0533623 123.5926579  76.1965190  65.2846009 122.6306383  70.5319991
  64.5013531 123.1728063  70.6258215  65.9838755 123.1480362  70.9314232
  68.5942659 108.4401012  73.1754196  69.0911359 107.6870975  72.8555266
  67.8229641 108.4765329  72.6097405  76.4472417 114.1441378  74.8172488
  76.4362293 115.0266093  74.4466421  75.5789796 113.7912929  74.6227025
  67.9554913 123.2921447  79.1775328  68.6682885 123.9268912  79.1051229
  67.4644942 123.3885313  78.3615330  69.6772440 117.1972699  70.7492619
  68.7428719 117.3174162  70.5797324  69.8549109 116.2945166  70.4852629
  65.1777628 110.5818395  72.9025881  64.8075416 110.0289436  73.5906786
  65.6736721 109.9776529  72.3500881  73.0644992 113.0390019  71.2842654
  73.5305444 113.8718010  71.2102956  73.5152492 112.5735000  71.9887912
  63.0066827 121.0415890  79.9980899  63.7076286 121.6752373  80.1510293
  62.5361942 121.3830622  79.2376538  71.1321223 119.3833840  68.2828806
  71.4081067 119.2690435  69.1922680  70.2625721 118.9851325  68.2440979
  71.0361654 105.4070606  75.3233555  70.1224734 105.6374833  75.4915762
  71.4654756 105.4909050  76.1747587  70.8068113 113.5960498  77.8233449
  70.1539563 113.8436405  77.1685902  71.1848493 112.7824636  77.4895926
  67.7675287 123.6320191  71.9261619  67.9497681 122.8141847  72.3889372
  68.5908273 123.8487883  71.4886509  68.1017452 122.5588376  69.1876668
  68.6305219 122.0480831  68.5746830  68.3645672 122.2430906  70.0522201
  66.8555686 114.3380309  84.3099486  66.1796323 114.2374438  84.9801861
  67.6783320 114.1819523  84.7735483  58.6034545 120.5752245  76.9312001
  59.1887982 119.8295933  77.0639905  58.4059383 120.8856202  77.8148665
  61.4573200 123.6103493  71.9474444  60.7883575 124.0949620  71.4638484
  61.3186070 123.8572713  72.8617822  53.1952200 113.1457846  75.6516444
  53.2336299 112.6121436  76.4453563  52.6892492 112.6193051  75.0327422
  65.5978469 125.6447236  78.5457102  66.1496777 125.8078858  79.3106187
  65.9384662 126.2351674  77.8737127  60.5742962 107.9922386  79.1478987
  60.6384288 108.8537217  78.7356384  60.5110082 107.3796388  78.4151345
  60.0495234 110.0645519  82.7952021  60.6767273 109.6822596  83.4089545
  59.1923153 109.8459721  83.1607713  70.4489343 120.4708494  84.4005756
  70.9929247 121.0838452  83.9060711  69.8676188 121.0288072  84.9172769
  56.8260777 111.8721948  68.7270376  57.1214218 110.9632626  68.6737429
  55.9248813 111.8509687  68.4051378  68.7346856 123.5929212  75.5320784
  68.6097995 122.7918952  75.0231730  69.3925947 124.0875405  75.0434754
  60.3555024 109.9477944  74.7097924  59.6341610 110.5613912  74.5705398
  61.1448280 110.4835709  74.6314570  70.7981764 121.3938232  77.1600334
  69.8512100 121.2743583  77.0878661  71.1464537 120.5060730  77.2426596
  63.1581338 107.2832371  80.9838576  63.6815740 107.5294667  81.7464885
  62.9393671 108.1152406  80.5641713  58.5548619 109.5536045  68.8509701
  58.2261325 108.6733424  68.6684807  58.9087989 109.4983714  69.7386090
  67.8028198 121.1890948  73.3604686  67.6553160 120.2607655  73.5412257
  68.6281691 121.2111039  72.8761762  61.6690442 109.8409015  69.2185179
  62.0086514 110.3694936  68.4963787  62.1162562 110.1789421  69.9943745
  71.4062319 122.0119507  74.4469559  72.3308867 121.8062368  74.3094010
  71.2377623 121.7635908  75.3558901  64.3633883 108.2246066  78.6688247
  64.0230703 107.4253879  79.0708927  63.6572889 108.5247777  78.0965080
  65.0150355 105.3095378  77.1215570  65.8376424 104.8355856  76.9994460
  65.2588418 106.0885862  77.6214256  63.6558589 108.3383637  67.4178471
  64.3766952 108.7164890  66.9142188  63.0323893 109.0572514  67.5213449
  67.7989712 109.0428786  68.3536804  68.0153326 109.9253424  68.0525632
  67.3183779 108.6514999  67.6242446  62.5388933 112.0014499  74.9307548
  62.3933514 112.3154802  75.8231830  62.0614137 112.6199399  74.3778447
  64.3985316 108.9917047  74.9788438  64.3846885 108.0958140  74.6420736
  65.1157744 108.9987711  75.6126724  66.2511447 109.4254387  77.0241565
  65.9929225 110.3471458  77.0225896  65.7196487 109.0284822  77.7142029
  71.1957636 122.5305174  69.8031651  71.3694513 121.9651597  69.0505503
  71.6886527 123.3306069  69.6211141  57.0134595 114.5419843  77.8695209
  56.4688064 115.3179651  78.0015484  57.8913945 114.8890648  77.7114331
  63.8022212 107.8731427  70.2476008  63.9238123 106.9448073  70.4466896
  63.5124255 107.8870113  69.3354323  66.6713403 105.5586338  73.3842728
  66.6935099 105.6225671  72.4294707  67.0881462 104.7190846  73.5783234
  77.0497027 115.2941597  71.4221950  77.4928173 114.5448922  71.0241074
  76.1723537 115.2851734  71.0395682  72.1832808 121.8471939  66.9028549
  72.8783713 122.4678631  67.1215864  72.5255958 120.9967290  67.1780927
  57.8000617 113.6689740  80.7625366  57.0582353 113.8172375  81.3489997
  57.4793362 113.9298005  79.8992116  74.0824231 119.2971644  68.4315880
  74.6075555 119.6358917  67.7065200  73.9946584 118.3618660  68.2479014
  65.7444280 123.2105718  80.5605756  66.0531406 122.9654865  81.4328456
  66.5419762 123.4152356  80.0724627  65.7664892 125.3643627  72.7911133
  65.3269882 124.8720006  73.4843990  66.5173009 124.8216595  72.5503208
  58.2457231 121.5555168  72.7935761  59.0715251 121.2558940  72.4134405
  57.8951283 120.7862791  73.2425550  63.2138764 120.9081637  74.8633435
  62.5918773 120.2452342  74.5635662  63.8843631 120.9342768  74.1807082
  56.4465836 119.4741495  73.7524695  55.6097744 119.0463669  73.5708696
  56.4189481 119.6673938  74.6895486  63.2863292 109.3863425  84.4565941
  63.3351447 110.2625547  84.0743710  63.8285806 108.8440818  83.8837584
  73.7718137 119.9304548  83.7367078  72.9813681 119.9128687  83.1971577
  73.5351492 120.4692842  84.4916114  73.8916012 116.7797014  81.0499806
  73.9414017 116.6147022  81.9915329  73.7829936 115.9124273  80.6597687
  62.7752271 119.4585560  68.3391895  62.9240391 120.1421024  67.6858568
  63.5818715 119.4390650  68.8541351  71.1819775 112.7627942  82.3659113
  72.0829638 112.6234407  82.0743111  71.2567749 112.9282397  83.3057290
  65.5162580 110.1394797  81.2112299  64.6465890 110.4328363  80.9394888
  65.7522060 110.7235242  81.9319563  75.3934209 119.1993956  81.2941828
  75.1019018 119.5623936  82.1305289  74.7806341 118.4860964  81.1155160
  76.5929892 116.7646835  73.8144398  77.4276783 117.2036640  73.9781958
  76.7289020 116.2885489  72.9952644  73.6421397 114.3226570  79.7621886
  74.1175519 114.5154217  78.9540737  72.7186963 114.3785756  79.5165269
  60.5304904 115.4850738  69.3452964  60.2850946 114.5813068  69.5433174
  60.7000819 115.4867888  68.4032442  68.2201614 106.3574414  78.7277720
  68.7383558 107.0935441  78.4024208  67.8656747 106.6638407  79.5624479
  59.8000552 111.2179095  66.8439126  59.1069797 111.2923450  66.1879161
  59.5552304 110.4539439  67.3660642  68.4714208 102.7774696  74.2478616
  68.7515962 102.1097886  74.8739043  69.2564815 102.9703792  73.7353280
  66.2747677 121.9533690  65.8103643  65.7021644 122.5723877  65.3574114
  66.8480470 122.5033052  66.3443565  72.3423066 111.1992330  77.9950191
  73.2940489 111.2990428  78.0162415  72.1726517 110.4070599  78.5048276
  70.3637446 108.2847914  78.1809592  69.7687378 108.5652926  77.4856081
  70.0787143 108.7741815  78.9526333  69.4944936 122.2370840  66.9412225
  70.4275610 122.1716402  67.1445100  69.4068149 123.0727107  66.4826757
  72.1232953 121.5536711  63.9016172  72.0446585 121.2196574  64.7951930
  72.9442620 122.0458479  63.9007645  74.8211144 114.4198450  77.1092491
  74.7887464 113.4814451  77.2952175  75.4311768 114.4982487  76.3758316
  66.6594475 113.2894503  63.1519695  67.6053580 113.1600711  63.2208113
  66.2808720 112.5509165  63.6289123  74.9705633 111.2109494  77.1550774
  74.4544681 110.4267950  76.9680703  75.8545581 110.8828210  77.3197294
  72.6316360 104.9550509  73.1146587  72.4341181 104.6465597  73.9989919
  73.2416065 105.6812148  73.2444517  80.6387694 115.4814457  76.2498528
  81.3691083 115.2199745  76.8106231  80.0294640 114.7443179  76.2900596
  78.7202991 113.6222320  76.8472979  77.9936155 113.4878284  76.2389471
  78.3050278 113.9299148  77.6529697  66.5433168 117.3412249  84.6120352
  67.4636177 117.5190848  84.8060399  66.5082751 116.3968295  84.4600051
  64.8437392 111.2144479  63.0874580  63.9368848 110.9177592  63.1637294
  65.1213373 110.9174298  62.2208867  55.7615333 112.5350843  73.5373627
  55.4418117 111.6816151  73.2448001  55.2148761 112.7499421  74.2931594
  59.5395240 115.2513284  77.2543133  59.7581250 116.1830392  77.2731167
  59.9521014 114.8921258  78.0397937  66.4599458 105.7581369  69.2418822
  65.6500186 105.4128454  69.6174068  67.1483875 105.4488913  69.8306433
  68.3890006 104.8359416  70.8643118  68.9421045 105.2554869  71.5233141
  68.6260093 103.9095164  70.9066074  64.4123106 110.8246490  86.6445882
  64.3119832 111.7740847  86.5757973  64.1944648 110.4964729  85.7721952
  63.6136177 108.0731415  63.2286559  64.4755341 108.3986313  63.4882377
  63.7986521 107.2862911  62.7159625  55.6303593 116.1553754  75.5066748
  54.9367064 115.7407707  74.9936703  56.3776584 116.1974291  74.9100167
  71.7668813 106.9459941  70.3721782  71.1867482 107.6044745  69.9899835
  71.5004746 106.1237286  69.9609200  70.2172380 106.3464999  72.5743103
  70.7172158 106.4581533  71.7657422  70.8607988 106.0426052  73.2143911
  64.2754376 114.2543628  85.4610944  63.7921457 115.0543989  85.6674833
  64.3615315 114.2651573  84.5078388  57.5440335 116.0872008  73.3832763
  57.5211023 116.1859695  72.4314646  57.8540972 116.9337159  73.7049929
  60.2027713 118.1448163  77.4979378  61.1570967 118.1132106  77.4309309
  60.0040237 117.6838787  78.3129603  60.7927095 116.7149279  80.0650175
  61.6119984 117.2093358  80.0885013  61.0663903 115.7981247  80.0367743
  70.5493691 109.1060032  69.4278131  69.6619546 109.3909682  69.2098325
  70.9647680 108.9453795  68.5805408  73.9008228 109.1306553  73.1432470
  74.6768618 109.6203005  73.4157087  73.1756362 109.5564607  73.6004339
  76.3380786 109.8434172  74.2006411  76.9325277 109.6029908  73.4899719
  76.4107370 109.1241302  74.8279947  69.6936905 118.8704706  63.5226151
  70.3972755 119.0754709  64.1383806  68.9699554 119.4381468  63.7875234
  70.5234715 114.6214567  69.6428421  70.4669917 115.0783119  68.8036053
  71.0763058 113.8605252  69.4651264  74.3339521 110.4104299  70.4678540
  74.0776455 110.0100935  71.2986748  73.7092389 111.1248093  70.3428680
  78.6451859 113.1500373  72.9749832  78.0851417 113.2193562  73.7481394
  78.0395362 112.9741357  72.2549328  71.6023602 119.3087235  65.5724611
  72.4369206 118.8768434  65.3902086  71.4407945 119.1369249  66.5001505
  71.2569494 115.8119349  66.9380950  71.2018298 115.6463620  65.9969394
  70.6315550 116.5195382  67.0943140  56.0462009 111.0487413  80.7642372
  56.6920873 110.5386367  81.2529597  55.8379161 111.7856095  81.3385798
  68.5715402 118.1168261  86.2634513  69.4406561 118.2908913  85.9021148
  68.0922153 118.9362677  86.1410242  64.5665620 105.3127458  66.5166268
  64.5544290 106.2569298  66.6734539  65.4589042 105.1297603  66.2225730
  62.7401582 125.2365362  77.9423947  63.6428829 125.2688972  78.2590441
  62.5138952 124.3065813  77.9570282  64.4955184 123.9896348  74.6034025
  63.5450815 123.9898210  74.4898397  64.7987670 123.2429083  74.0870060
  68.3817739 101.9070234  70.7712205  67.6150135 101.3528721  70.9168888
  68.7928444 101.9792103  71.6326357  60.3859500 108.1955030  84.8617387
  61.2490962 107.8391835  85.0720711  59.8124911 107.8568925  85.5492791
  80.2307877 129.8256887  75.6679788  80.8686287 129.7063634  74.9643128
  80.1128720 130.7737730  75.7267740  77.0397584 129.7784315  75.6041312
  76.7016095 129.6625379  74.7161847  77.9087352 129.3775480  75.5842318
  77.5217367 130.9319166  81.5627518  77.5106007 130.5371965  80.6908021
  77.6838006 130.1985239  82.1561289  74.7405863 128.5472562  64.9358252
  74.9931384 128.0254083  64.1741715  73.8030422 128.3838707  65.0384936
  79.7849146 127.5508340  72.7432996  80.5712235 127.1327764  72.3923413
  80.0487850 128.4554433  72.9114644  85.1857573 127.4883574  73.6465974
  85.9182745 126.9182790  73.8803804  84.4296929 127.1005174  74.0872480
  76.8033693 129.9110815  70.8429317  76.4391900 129.3841436  71.5542238
  77.6600809 129.5209284  70.6695802  82.7082993 121.2005148  78.1060583
  82.3766318 122.0700559  77.8821798  82.1128607 120.8841432  78.7854613
  76.4439180 124.9400715  65.8390665  76.6113582 125.8080951  66.2061136
  76.2536349 125.1027996  64.9151954  82.6011657 125.9200234  75.1853933
  81.6928534 125.8515642  74.8912694  82.5499252 126.3972179  76.0135758
  76.4228401 127.3958372  66.8237332  76.3028026 127.8415423  67.6622812
  75.7280989 127.7443690  66.2650870  76.6752522 127.3389879  83.1288830
  75.8985856 127.8983800  83.1191695  77.3143085 127.8246662  83.6503700
  84.4673303 124.1216672  76.9631807  83.8247683 124.4149205  76.3171601
  83.9628232 124.0069593  77.7685003  82.1213467 127.8679845  67.6517666
  83.0331323 128.1007232  67.4765363  81.6123114 128.4516890  67.0892745
  76.7585304 127.2277080  78.6612515  77.6046500 127.6516494  78.8047164
  76.6983942 126.5710704  79.3551079  79.9084750 124.8881448  80.3193689
  79.6645682 125.6423509  79.7827965  80.1844680 125.2666796  81.1540936
  79.4649441 124.0437881  75.9007527  78.6033921 124.3419135  76.1924264
  79.4911876 124.2608280  74.9688559  75.2179897 128.7103224  69.1170898
  75.9203940 129.1624268  69.5844824  74.8860525 128.0687043  69.7450791
  73.6660258 127.3014981  83.4922107  73.0358919 127.9831262  83.7257504
  73.5596346 127.1898063  82.5475245  68.9605231 126.9686777  74.4188031
  68.1704285 127.2244306  73.9428142  69.4516478 127.7835115  74.5240072
  70.9119976 127.3331356  71.3771508  70.1151140 127.4450051  71.8955004
  70.6845568 127.6718008  70.5112398  72.9441001 121.6035747  85.8547358
  72.5507947 121.0501945  86.5295002  73.7607142 121.9146325  86.2453876
  75.8608962 123.0193626  83.4467615  76.6018676 123.6200779  83.3672077
  76.0926885 122.2771264  82.8885657  79.8066125 119.0474729  77.7231896
  79.4630395 119.9376371  77.6471007  80.1745088 118.8576386  76.8601481
  79.7716408 129.0383340  66.2304331  79.2563031 129.8087945  66.4692719
  79.4993716 128.3648476  66.8537393  77.3563519 123.8833041  71.2889570
  76.5005115 123.4939891  71.1095208  77.7690471 123.9625002  70.4289355
  78.8862666 121.4179384  75.6881130  78.3827461 121.3809519  74.8748935
  79.1793272 122.3272127  75.7477786  75.1305551 121.5018114  74.6947311
  75.9958548 121.3060922  74.3353201  75.1983060 121.2728466  75.6216668
  79.5602711 126.9110432  68.0564113  79.2552847 127.2256581  68.9074256
  80.5133153 126.9891852  68.0991446  72.7367870 123.7320322  72.0663678
  73.3111622 123.5095503  71.3336871  73.3238853 123.8009016  72.8192279
  81.7947448 129.6194049  72.8728055  82.3079329 130.2524040  73.3749764
  82.4448672 129.0195244  72.5071415  73.0637458 125.7624783  66.0859563
  72.2274770 126.0999469  66.4068838  72.9242227 125.6273762  65.1486700
  75.0390538 120.6061571  70.7938748  74.3854951 120.2910588  70.1695362
  74.9971012 119.9837311  71.5198570  78.2728279 127.0943504  75.1186395
  77.3550840 127.3158451  74.9608083  78.6888422 127.1689815  74.2598102
  79.0563326 128.4934920  70.2489075  79.8035145 129.0056317  69.9396197
  79.3254916 128.1718973  71.1093469  81.5042163 125.5292036  72.2307865
  80.7664920 125.0169422  72.5618107  81.7568937 125.0892418  71.4191142
  81.6053791 118.3068288  72.8249634  81.9112668 117.4465651  72.5375549
  82.3306396 118.8985908  72.6248628  75.8774871 128.6022081  73.3325825
  75.9323480 127.6495918  73.2568302  75.0666073 128.7581520  73.8167123
  73.8167230 127.2199141  71.0916204  73.0035096 127.5193311  71.4981396
  74.3126225 126.8254830  71.8090686  79.4141442 127.6840965  79.9231098
  79.7690830 127.9112438  80.7825564  80.0613573 128.0159342  79.3008353
  73.3081305 124.7917496  76.7077439  73.9480685 124.6506255  76.0100402
  72.4758836 124.5052010  76.3316041  70.3924373 128.2363009  68.8972184
  69.4621961 128.1747464  69.1142146  70.4881845 127.7138961  68.1008825
  70.3109922 124.7617821  71.4850426  70.5716739 125.6763155  71.3759586
  71.1327094 124.2942264  71.6347038  71.7834847 126.1755579  78.6549250
  72.4557900 125.9672941  78.0061899  70.9564633 125.9777665  78.2154482
  77.6860419 122.8017519  80.6714911  77.0388334 123.5007469  80.5779387
  78.4561434 123.2353663  81.0391159  77.8624553 130.6398284  78.7311731
  78.7916613 130.7909444  78.5580698  77.4415583 130.7282305  77.8760377
  81.1477292 131.3886586  64.1636166  80.5306463 130.6633414  64.0669219
  80.6793780 132.1495946  63.8203240  74.8144645 129.1618141  78.9035367
  75.5244263 128.5211333  78.8621985  74.7713953 129.4131036  79.8261548
  73.5273579 126.1483359  80.7231006  72.9910936 125.6974097  81.3752603
  72.9390287 126.2829268  79.9801471  72.9375838 125.6072010  63.2857470
  72.0605304 125.4860811  62.9219717  73.4133591 124.8158088  63.0336359
  69.2612700 125.2839366  77.8084001  69.1770889 124.6765036  77.0734411
  68.4395407 125.7748385  77.8093497  79.4336414 123.7692930  73.1754196
  79.9305114 123.0162892  72.8555266  78.6623395 123.8057247  72.6097405
  76.0171383 125.9110313  72.9025881  75.6469170 125.3581353  73.5906786
  76.5130475 125.3068446  72.3500881  83.9038746 128.3681936  71.2842654
  84.3699198 129.2009928  71.2102956  84.3546247 127.9026918  71.9887912
  81.8755409 120.7362523  75.3233555  80.9618489 120.9666750  75.4915762
  82.3048510 120.8200968  76.1747587  81.6461867 128.9252415  77.8233449
  80.9933317 129.1728323  77.1685902  82.0242247 128.1116554  77.4895926
  77.6949440 129.6672226  84.3099486  77.0190077 129.5666356  84.9801861
  78.5177074 129.5111440  84.7735483  71.4136716 123.3214304  79.1478987
  71.4778043 124.1829135  78.7356384  71.3503837 122.7088305  78.4151345
  70.8888989 125.3937436  82.7952021  71.5161028 125.0114514  83.4089545
  70.0316908 125.1751638  83.1607713  67.6654532 127.2013865  68.7270376
  67.9607973 126.2924544  68.6737429  66.7642567 127.1801605  68.4051378
  71.1948779 125.2769862  74.7097924  70.4735364 125.8905830  74.5705398
  71.9842034 125.8127627  74.6314570  73.9975092 122.6124288  80.9838576
  74.5209494 122.8586585  81.7464885  73.7787425 123.4444323  80.5641713
  69.3942373 124.8827963  68.8509701  69.0655079 124.0025342  68.6684807
  69.7481744 124.8275632  69.7386090  72.5084196 125.1700933  69.2185179
  72.8480269 125.6986854  68.4963787  72.9556317 125.5081339  69.9943745
  75.2027637 123.5537984  78.6688247  74.8624458 122.7545797  79.0708927
  74.4966644 123.8539694  78.0965080  75.8544109 120.6387296  77.1215570
  76.6770178 120.1647774  76.9994460  76.0982173 121.4177780  77.6214256
  74.4952344 123.6675554  67.4178471  75.2160706 124.0456807  66.9142188
  73.8717648 124.3864431  67.5213449  78.6383466 124.3720703  68.3536804
  78.8547081 125.2545341  68.0525632  78.1577534 123.9806917  67.6242446
  73.3782688 127.3306417  74.9307548  73.2327269 127.6446720  75.8231830
  72.9007891 127.9491317  74.3778447  75.2379071 124.3208965  74.9788438
  75.2240639 123.4250058  74.6420736  75.9551499 124.3279628  75.6126724
  77.0905201 124.7546305  77.0241565  76.8322979 125.6763375  77.0225896
  76.5590242 124.3576739  77.7142029  74.6415967 123.2023345  70.2476008
  74.7631878 122.2739991  70.4466896  74.3518009 123.2162031  69.3354323
  77.5107157 120.8878255  73.3842728  77.5328854 120.9517588  72.4294707
  77.9275216 120.0482764  73.5783234  74.1257046 124.7155342  84.4565941
  74.1745202 125.5917465  84.0743710  74.6679560 124.1732735  83.8837584
  82.0213529 128.0919860  82.3659113  82.9223392 127.9526325  82.0743111
  82.0961504 128.2574315  83.3057290  76.3556335 125.4686715  81.2112299
  75.4859644 125.7620281  80.9394888  76.5915815 126.0527160  81.9319563
  79.0595368 121.6866332  78.7277720  79.5777312 122.4227359  78.4024208
  78.7050501 121.9930325  79.5624479  70.6394306 126.5471013  66.8439126
  69.9463551 126.6215368  66.1879161  70.3946058 125.7831356  67.3660642
  79.3107963 118.1066614  74.2478616  79.5909716 117.4389803  74.8739043
  80.0958570 118.2995710  73.7353280  83.1816821 126.5284248  77.9950191
  84.1334244 126.6282346  78.0162415  83.0120271 125.7362517  78.5048276
  81.2031200 123.6139831  78.1809592  80.6081133 123.8944844  77.4856081
  80.9180897 124.1033732  78.9526333  77.4988230 128.6186421  63.1519695
  78.4447334 128.4892629  63.2208113  77.1202475 127.8801083  63.6289123
  85.8099387 126.5401411  77.1550774  85.2938436 125.7559868  76.9680703
  86.6939336 126.2120128  77.3197294  83.4710114 120.2842427  73.1146587
  83.2734935 119.9757515  73.9989919  84.0809820 121.0104066  73.2444517
  75.6831147 126.5436397  63.0874580  74.7762602 126.2469510  63.1637294
  75.9607128 126.2466215  62.2208867  77.2993212 121.0873287  69.2418822
  76.4893941 120.7420372  69.6174068  77.9877629 120.7780831  69.8306433
  79.2283761 120.1651334  70.8643118  79.7814799 120.5846787  71.5233141
  79.4653847 119.2387082  70.9066074  75.2516860 126.1538407  86.6445882
  75.1513587 127.1032764  86.5757973  75.0338402 125.8256646  85.7721952
  74.4529931 123.4023332  63.2286559  75.3149095 123.7278231  63.4882377
  74.6380276 122.6154828  62.7159625  82.6062568 122.2751859  70.3721782
  82.0261237 122.9336663  69.9899835  82.3398501 121.4529203  69.9609200
  81.0566134 121.6756917  72.5743103  81.5565913 121.7873451  71.7657422
  81.7001742 121.3717969  73.2143911  81.3887446 124.4351949  69.4278131
  80.5013301 124.7201600  69.2098325  81.8041435 124.2745713  68.5805408
  84.7401982 124.4598470  73.1432470  85.5162372 124.9494923  73.4157087
  84.0150116 124.8856524  73.6004339  87.1774541 125.1726089  74.2006411
  87.7719031 124.9321825  73.4899719  87.2501124 124.4533220  74.8279947
  81.3628470 129.9506485  69.6428421  81.3063671 130.4075037  68.8036053
  81.9156812 129.1897170  69.4651264  85.1733276 125.7396217  70.4678540
  84.9170210 125.3392853  71.2986748  84.5486144 126.4540011  70.3428680
  82.0963249 131.1411266  66.9380950  82.0412053 130.9755538  65.9969394
  81.4709304 131.8487299  67.0943140  66.8855764 126.3779331  80.7642372
  67.5314628 125.8678285  81.2529597  66.6772915 127.1148012  81.3385798
  75.4059374 120.6419375  66.5166268  75.3938044 121.5861215  66.6734539
  76.2982796 120.4589521  66.2225730  79.2211494 117.2362152  70.7712205
  78.4543890 116.6820639  70.9168888  79.6322199 117.3084021  71.6326357
  71.2253255 123.5246948  84.8617387  72.0884716 123.1683753  85.0720711
  70.6518666 123.1860843  85.5492791  15.1945352  14.8567503  62.3925094
  15.8323762  14.7374250  61.6888434  15.0766195  15.8048347  62.4513046
  12.0035058  14.8094931  62.3286619  11.6653569  14.6935996  61.4407154
  12.8724826  14.4086096  62.3087625   7.8621874  16.6630408  58.3183510
   7.2986739  16.5720345  57.5499798   7.7474269  15.8430312  58.7986002
  12.4854841  15.9629783  68.2872824  12.4743482  15.5682581  67.4153328
  12.6475480  15.2295856  68.8806596   5.4086306  18.1581599  61.1567730
   6.2007598  17.8172424  60.7414030   5.6482956  18.2676574  62.0769884
  13.4421432  20.3301375  53.6297975  12.7909412  20.9155456  53.2431988
  14.2365795  20.8607570  53.6893012   7.3677060  17.4190512  54.0285109
   8.1407936  16.8719500  53.8897985   7.7202458  18.2834762  54.2399570
   9.2062102  18.7466895  67.2352008   8.9151968  19.6512526  67.1198675
   9.8419086  18.7883422  67.9496078  10.1318309  16.1243743  63.8253368
  10.7281881  15.8999766  63.1110331  10.1893280  15.3828489  64.4278816
   9.7043337  13.5783179  51.6603559   9.9568858  13.0564700  50.8987022
   8.7667896  13.4149324  51.7630243  14.7486620  12.5818957  59.4678302
  15.5349709  12.1638380  59.1168719  15.0125324  13.4865049  59.6359951
  14.9196698  18.0191807  54.1666959  14.2842530  18.0926434  54.8787864
  14.5894104  18.6085406  53.4886038  20.1495047  12.5194190  60.3711281
  20.8820219  11.9493407  60.6049110  19.3934403  12.1315791  60.8117786
   9.4239626  15.4811285  53.8627934   9.3075884  14.8056188  54.5309018
   9.5341886  14.9943658  53.0460087  11.7671167  14.9421432  57.5674623
  11.4029374  14.4152053  58.2787545  12.6238283  14.5519901  57.3941109
  14.1651987  18.4328310  64.2301802  13.8652710  19.3353349  64.1217609
  13.8203047  18.1660493  65.0822955   7.6164469  14.8842107  60.2638506
   6.6914965  14.7518321  60.4716198   7.8648882  15.6636326  60.7608449
  17.5649131  10.9510850  61.9099239  16.6566008  10.8826259  61.6158000
  17.5136727  11.4282795  62.7381065  11.3865875  12.4268989  53.5482639
  11.2665500  12.8726040  54.3868119  10.6918463  12.7754306  52.9896177
   9.1472767  25.1972631  57.1972770   9.0696797  26.1480456  57.2761250
   8.5434411  24.8518503  57.8547696  11.6389997  12.3700496  69.8534137
  10.8623331  12.9294416  69.8437001  12.2780560  12.8557279  70.3749007
  19.4310777   9.1527289  63.6877113  18.7885158   9.4459822  63.0416908
  18.9265706   9.0380209  64.4930310  17.0850941  12.8990462  54.3762973
  17.9968797  13.1317849  54.2010670  16.5760588  13.4827506  53.8138051
   9.8936369  15.1785949  69.4152104  10.6351053  15.7170993  69.1386927
   9.1873355  15.8052238  69.5723655  15.3691709  17.3215090  68.0124265
  15.7775065  16.8797500  67.2678897  14.6468970  16.7467717  68.2658458
  11.7222779  12.2587697  65.3857822  12.5683974  12.6827110  65.5292471
  11.6621416  11.6021321  66.0796385  15.6920523  17.8816280  61.7676554
  15.0629386  18.0461995  61.0652622  15.3046185  18.2957890  62.5387518
  19.5709755  18.8170718  59.1220918  18.8860793  19.1969620  58.5717951
  19.6553605  19.4266045  59.8552866  14.8722224   9.9192065  67.0438996
  14.6283156  10.6734125  66.5073271  15.1482155  10.2977413  67.8786243
  16.8260687  16.4630677  65.7216261  17.0377582  17.1062437  65.0450642
  16.7790435  15.6292994  65.2538191  14.4286916   9.0748498  62.6252833
  13.5671395   9.3729752  62.9169571  14.4549350   9.2918897  61.6933866
  11.2448485  17.6190689  59.0326639  11.7086831  17.8978392  58.2431262
  10.9805283  16.7174133  58.8499730   8.1372566  17.1662170  61.9706402
   8.7073923  17.5949438  61.3323887   8.7280678  16.8844755  62.6690588
  10.1817371  13.7413841  55.8416204  10.8841415  14.1934885  56.3090131
   9.8498000  13.0997660  56.4696097  17.9406515  19.3402633  63.8938619
  18.7623959  18.9382820  63.6121300  17.9368918  19.2370867  64.8454734
  11.7063118  18.8886676  66.0499329  11.7707551  19.3507083  66.8857501
  10.9974042  18.2584041  66.1781639  26.0312508  15.6841381  60.2423590
  25.2776216  15.1148779  60.0867595  26.1660049  15.6504046  61.1894225
  11.4211136  20.5554784  55.9178309  11.2856811  21.4006319  56.3463157
  11.9620948  20.7574061  55.1544243   4.8740533  18.0730222  56.4906235
   5.3865054  18.8673472  56.6411799   5.5263246  17.3756512  56.4239836
   6.6835418  21.1895978  58.5728988   6.8602046  22.1113943  58.3849972
   7.4792252  20.8754397  59.0023368  13.0479612  21.1778350  70.0478652
  12.6043466  20.3914729  69.7299556  13.7096826  21.3657501  69.3822542
   7.8066733  22.7074152  64.5739330   8.3574159  22.5791215  63.8016324
   6.9678209  23.0069041  64.2234223  15.1460850  21.4581150  68.0760053
  15.1279326  22.2790031  67.5840322  16.0680770  21.3335225  68.3010194
  11.6033905  18.9725279  68.9183561  12.1362241  18.2113568  68.6882869
  11.0747986  18.6798931  69.6607716  14.7353882  14.0693957  52.9549638
  14.2200506  14.8398561  53.1938025  14.4631191  13.3959093  53.5782699
  19.7088156  16.8226311  54.8902812  18.9317599  16.4837471  54.4457974
  20.3879637  16.8278934  54.2157777  14.5240185  11.9421049  54.7809419
  14.2190321  12.2567198  55.6319562  15.4770627  12.0202468  54.8236752
  12.9686617  18.1011272  56.4302373  12.4407979  17.3664031  56.1175611
  12.4674120  18.8785948  56.1842342  17.9479463  16.2960292  61.5469420
  17.2903138  16.9859554  61.6349548  18.7519862  16.6856724  61.8903406
  16.7584922  14.6504665  59.5973361  17.2716804  15.2834657  60.0995071
  17.4086146  14.0505861  59.2316721  11.1139217  15.9191482  49.4337346
  10.2066279  15.6880736  49.6328495  11.6110249  15.1229101  49.6211328
  14.0207296  24.6288989  52.3534032  13.3468995  24.9320686  52.9618990
  14.4073118  25.4318070  52.0039489  13.2365753  12.1254121  61.8431702
  12.3188314  12.3469068  61.6853390  13.6525897  12.2000431  60.9843409
  14.0200801  13.5245536  56.9734382  14.7672620  14.0366934  56.6641504
  14.2892390  13.2029589  57.8338776  12.2927451  16.0204077  53.9561336
  11.3838670  15.7363110  54.0533806  12.3222535  16.4403156  53.0964643
  17.5246718  19.6310667  57.7252504  17.0709045  18.7901576  57.7817694
  16.8940685  20.2672065  58.0627284  16.4679638  10.5602653  58.9553171
  15.7302395  10.0480039  59.2863414  16.7206411  10.1203034  58.1436448
  15.9679657  21.4687163  58.6602322  16.2602632  22.0292220  57.9414688
  16.4778278  21.7615724  59.4155481  10.8412345  13.6332698  60.0571132
  10.8960955  12.6806534  59.9813608  10.0303547  13.7892137  60.5412430
  11.9903539  17.5612821  51.2949415  11.5522969  16.8448680  50.8355052
  12.7313979  17.7888936  50.7334506  10.9313283  22.2467514  59.7495775
  10.8889461  22.4728361  58.8204307  11.8475982  22.0130889  59.8981576
  14.3778916  12.7151582  66.6476404  14.7328304  12.9423055  67.5070870
  15.0251048  13.0469959  66.0253660  20.1076653  15.8370018  57.3525733
  19.9694552  16.0271614  56.4246923  19.7512872  16.5989401  57.8093785
  20.1346033  17.9046545  62.3637005  20.5682540  17.8121834  63.2120059
  20.8477614  17.8804045  61.7257021   9.0479083  19.1230543  59.5457738
   9.8419682  18.6280863  59.3440313   8.3370776  18.5948406  59.1825444
  13.8673928  21.5048639  63.8970106  13.9210950  22.0739575  64.6647821
  12.9988709  21.6750524  63.5324143  20.9961583  17.9470245  64.8969890
  21.1897473  18.8516056  65.1429165  20.8962201  17.4877664  65.7308475
  16.0576691  18.0976988  70.4710771  15.9062198  17.8687540  69.5540855
  16.0481371  19.0547590  70.4842116  12.8262028  15.6708901  65.4557037
  13.7554088  15.8220061  65.2826005  12.4053058  15.7592922  64.6005684
  11.6250359  19.6959565  63.2255575  11.4861445  19.3278350  64.0981513
  10.8364956  20.2107205  63.0539533  12.2198511  24.7968662  54.5681112
  12.3950267  24.3256705  55.3826734  11.5331299  25.4234428  54.7962372
  13.1755575  19.0741168  60.6144413  12.8405407  19.0341938  61.5102063
  12.6759520  18.4085884  60.1414823   7.1499819  14.4808798  66.1396994
   7.0119616  13.7489037  66.7408533   8.0604742  14.3917698  65.8581182
  16.1114766  16.4197202  50.8881472  15.4943937  15.6944031  50.7914525
  15.6431255  17.1806563  50.5448547   9.7782119  14.1928757  65.6280674
  10.4881738  13.5521950  65.5867292   9.7351427  14.4441652  66.5506854
  17.7668898  21.1296111  68.5487253  17.7081444  20.4455331  67.8817836
  18.1688416  21.8715101  68.0967879   6.7859597  27.9458025  61.3420972
   7.0256195  28.5776549  62.0199990   5.9428793  27.5946065  61.6286331
  17.7686305  19.0935695  66.7801233  16.8813084  18.7561616  66.9027631
  18.3384856  18.3618726  67.0169998  11.2987459  23.7537147  63.7462476
  11.2257630  24.5592119  64.2581780  10.8564852  23.9529113  62.9210497
  11.0877238  22.9908917  57.2565297  10.3044760  23.5330597  57.3503522
  11.7869983  23.5082897  57.6559538  14.3973888   8.8003546  59.8999503
  14.8942588   8.0473509  59.5800573  13.6260870   8.8367863  59.3342712
  22.2503646  14.5043912  61.5417794  22.2393522  15.3868627  61.1711727
  21.3821025  14.1515463  61.3472331  13.7586142  23.6523981  65.9020634
  14.4714114  24.2871446  65.8296536  13.2676171  23.7487847  65.0860636
  15.4803669  17.5575234  57.4737926  14.5459948  17.6776696  57.3042630
  15.6580337  16.6547700  57.2097936  18.8676220  13.3992553  58.0087960
  19.3336673  14.2320545  57.9348263  19.3183721  12.9337535  58.7133219
   8.8098056  21.4018425  66.7226205   9.5107515  22.0354907  66.8755599
   8.3393171  21.7433156  65.9621844  16.9352451  19.7436374  55.0074112
  17.2112295  19.6292969  55.9167986  16.0656950  19.3453859  54.9686285
  16.6099342  13.9563032  64.5478756  15.9570792  14.2038939  63.8931208
  16.9879721  13.1427170  64.2141233  13.5706515  23.9922725  58.6506926
  13.7528910  23.1744381  59.1134678  14.3939501  24.2090417  58.2131816
  13.9048681  22.9190910  55.9121974  14.4336447  22.4083365  55.2992136
  14.1676901  22.6033440  56.7767507  12.6586915  14.6982843  71.0344793
  11.9827552  14.5976972  71.7047168  13.4814548  14.5422057  71.4980790
   4.4065774  20.9354780  63.6557308   4.9919210  20.1898467  63.7885212
   4.2090612  21.2458736  64.5393972   7.2604429  23.9706027  58.6719750
   6.5914804  24.4552155  58.1883790   7.1217299  24.2175247  59.5863129
  11.4009697  26.0049770  65.2702409  11.9528006  26.1681392  66.0351494
  11.7415891  26.5954208  64.5982433  16.2520572  20.8311028  71.1251063
  16.7960476  21.4440986  70.6306018  15.6707417  21.3890606  71.6418076
  14.5378085  23.9531746  62.2566091  14.4129224  23.1521486  61.7477036
  15.1957176  24.4477939  61.7680061  16.6012993  21.7540766  63.8845641
  15.6543329  21.6346117  63.8123968  16.9495766  20.8663264  63.9671902
  13.6059426  21.5493482  60.0849993  13.4584389  20.6210190  60.2657563
  14.4312920  21.5713573  59.6007068  17.2093548  22.3722041  61.1714866
  18.1340096  22.1664902  61.0339317  17.0408852  22.1238442  62.0804207
  16.9988864  22.8907708  56.5276957  17.1725742  22.3254131  55.7750810
  17.4917756  23.6908603  56.3456447  22.8528256  15.6544131  58.1467257
  23.2959402  14.9051457  57.7486380  21.9754766  15.6454268  57.7640989
  17.9864037  22.2074473  53.6273856  18.6814942  22.8281166  53.8461170
  18.3287187  21.3569824  53.9026233  19.8855460  19.6574178  55.1561186
  20.4106784  19.9961451  54.4310506  19.7977813  18.7221194  54.9724321
  11.5475509  23.5708252  67.2851063  11.8562635  23.3257399  68.1573763
  12.3450991  23.7754891  66.7969933  11.5696121  25.7246162  59.5156440
  11.1301111  25.2322540  60.2089296  12.3204238  25.1819129  59.2748515
   4.0488460  21.9157703  59.5181068   4.8746480  21.6161474  59.1379711
   3.6982512  21.1465325  59.9670856   9.0169993  21.2684171  61.5878741
   8.3950002  20.6054876  61.2880969   9.6874860  21.2945303  60.9052389
   2.2497065  19.8344029  60.4770001   1.4128973  19.4066203  60.2954002
   2.2220710  20.0276472  61.4140792  19.5749366  20.2907082  70.4612384
  18.7844910  20.2731221  69.9216884  19.3382721  20.8295376  71.2161421
  19.6947241  17.1399548  67.7745113  19.7445246  16.9749556  68.7160636
  19.5861165  16.2726807  67.3842994   8.5783500  19.8188094  55.0637202
   8.7271620  20.5023558  54.4103875   9.3849943  19.7993184  55.5786657
  16.9851004  13.1230476  69.0904420  17.8860866  12.9836941  68.7988417
  17.0598978  13.2884931  70.0302597  21.1965438  19.5596490  68.0187134
  20.9050246  19.9226470  68.8550595  20.5837569  18.8463498  67.8400466
  22.3961120  17.1249370  60.5389705  23.2308012  17.5639174  60.7027265
  22.5320249  16.6488023  59.7197950  19.4452626  14.6829105  66.4867192
  19.9206748  14.8756751  65.6786044  18.5218192  14.7388290  66.2410576
   6.3336133  15.8453272  56.0698271   6.0882175  14.9415602  56.2678481
   6.5032047  15.8470422  55.1277749  12.0778905  22.3136225  52.5348949
  11.5052873  22.9326412  52.0819421  12.6511699  22.8635586  53.0688871
  18.1454295  11.5594865  64.7195498  19.0971718  11.6592962  64.7407722
  17.9757746  10.7673133  65.2293582  16.1668675   8.6450448  64.9054899
  15.5718607   8.9255461  64.2101388  15.8818371   9.1344349  65.6771640
  15.2976165  22.5973375  53.6657531  16.2306838  22.5318936  53.8690407
  15.2099378  23.4329642  53.2072064  17.9264182  21.9139245  50.6261479
  17.8477813  21.5799109  51.5197237  18.7473849  22.4061013  50.6252951
  20.6242373  14.7800984  63.8337798  20.5918693  13.8416985  64.0197481
  21.2342997  14.8585021  63.1003623  12.4625704  13.6497037  49.8765002
  13.4084809  13.5203245  49.9453420  12.0839949  12.9111699  50.3534430
  20.7736862  11.5712028  63.8796081  20.2575910  10.7870484  63.6926010
  21.6576810  11.2430744  64.0442600  26.4418923  15.8416991  62.9743834
  27.1722311  15.5802279  63.5351538  25.8325868  15.1045713  63.0145902
  24.5234220  13.9824854  63.5718286  23.7967384  13.8480819  62.9634777
  24.1081507  14.2901682  64.3775004  12.3464396  17.7014783  71.3365659
  13.2667406  17.8793382  71.5305705  12.3113980  16.7570829  71.1845358
   5.3426469  15.6115818  63.9788440   5.5612479  16.5432926  63.9976474
   5.7552243  15.2523793  64.7643244  17.5700042   7.3062475  57.0967089
  16.9898711   7.9647279  56.7145142  17.3035975   6.4839820  56.6854507
  10.0785604  14.6146163  72.1856250   9.5952686  15.4146523  72.3920139
  10.1646543  14.6254108  71.2323694   3.3471564  16.4474542  60.1078070
   3.3242252  16.5462230  59.1559953   3.6572200  17.2939693  60.4295236
   6.0058942  18.5050697  64.2224684   6.9602195  18.4734640  64.1554616
   5.8071465  18.0441321  65.0374910   6.5958324  17.0751813  66.7895482
   7.4151213  17.5695892  66.8130319   6.8695132  16.1583782  66.7613049
  16.3524920   9.4662566  56.1523437  15.4650775   9.7512216  55.9343632
  16.7678909   9.3056329  55.3050714  19.7039456   9.4909087  59.8677777
  20.4799846   9.9805539  60.1402393  18.9787591   9.9167141  60.3249646
  22.1412015  10.2036706  60.9251717  22.7356506   9.9632442  60.2145025
  22.2138599   9.4843837  61.5525254   4.3609171  24.0470317  61.2394882
   4.2263639  23.2870718  60.6732880   3.9441233  24.7711217  60.7723671
  15.4968134  19.2307240  50.2471457  16.2003984  19.4357243  50.8629113
  14.7730782  19.7984002  50.5120541  16.3265944  14.9817102  56.3673728
  16.2701145  15.4385653  55.5281360  16.8794286  14.2207786  56.1896570
  20.1370750  10.7706834  57.1923847  19.8807684  10.3703469  58.0232055
  19.5123618  11.4850627  57.0673986  24.4483088  13.5102907  59.6995138
  23.8882646  13.5796096  60.4726700  23.8426591  13.3343891  58.9794635
   7.5178297  24.9439634  61.4513325   7.4010681  25.8885066  61.3492015
   6.6970743  24.6413195  61.8399124  17.4054831  19.6689770  52.2969917
  18.2400435  19.2370968  52.1147392  17.2439174  19.4971783  53.2246812
  17.0600723  16.1721883  53.6626257  17.0049527  16.0066154  52.7214701
  16.4346779  16.8797916  53.8188446  14.3746630  18.4770795  72.9879819
  15.2437790  18.6511447  72.6266454  13.8953382  19.2965212  72.8655549
   8.5432811  25.5967896  64.6669253   9.4460057  25.6291506  64.9835748
   8.3170181  24.6668347  64.6815589  10.2986413  24.3498882  61.3279332
   9.3482044  24.3500744  61.2143704  10.6018899  23.6031617  60.8115366
  26.0339106  30.1859421  62.3925094  26.6717516  30.0666168  61.6888434
  25.9159949  31.1340265  62.4513046  22.8428812  30.1386849  62.3286619
  22.5047324  30.0227914  61.4407154  23.7118581  29.7378014  62.3087625
  18.7015628  31.9922325  58.3183510  18.1380493  31.9012262  57.5499798
  18.5868023  31.1722230  58.7986002  23.3248595  31.2921701  68.2872824
  23.3137236  30.8974499  67.4153328  23.4869235  30.5587773  68.8806596
  16.2480060  33.4873517  61.1567730  17.0401352  33.1464341  60.7414030
  16.4876710  33.5968492  62.0769884  24.2815187  35.6593293  53.6297975
  23.6303167  36.2447373  53.2431988  25.0759550  36.1899488  53.6893012
  18.2070814  32.7482430  54.0285109  18.9801690  32.2011417  53.8897985
  18.5596213  33.6126679  54.2399570  20.0455857  34.0758812  67.2352008
  19.7545723  34.9804443  67.1198675  20.6812841  34.1175340  67.9496078
  20.9712063  31.4535661  63.8253368  21.5675636  31.2291683  63.1110331
  21.0287035  30.7120406  64.4278816  20.5437092  28.9075096  51.6603559
  20.7962613  28.3856617  50.8987022  19.6061651  28.7441242  51.7630243
  25.5880375  27.9110875  59.4678302  26.3743464  27.4930298  59.1168719
  25.8519079  28.8156967  59.6359951  25.7590452  33.3483725  54.1666959
  25.1236285  33.4218351  54.8787864  25.4287858  33.9377324  53.4886038
  30.9888802  27.8486108  60.3711281  31.7213974  27.2785325  60.6049110
  30.2328157  27.4607708  60.8117786  20.2633381  30.8103202  53.8627934
  20.1469639  30.1348106  54.5309018  20.3735640  30.3235576  53.0460087
  22.6064922  30.2713349  57.5674623  22.2423129  29.7443970  58.2787545
  23.4632037  29.8811818  57.3941109  28.5114222  21.5607682  64.8305889
  28.1797547  22.4303093  64.6067104  27.9159836  21.2443966  65.5099920
  22.2470408  25.3003249  52.5635972  22.4144811  26.1683485  52.9306443
  22.0567578  25.4630531  51.6397261  25.0045742  33.7620228  64.2301802
  24.7046465  34.6645267  64.1217609  24.6596801  33.4952411  65.0822955
  18.4558223  30.2134025  60.2638506  17.5308720  30.0810239  60.4716198
  18.7042636  30.9928244  60.7608449  28.4042885  26.2802768  61.9099239
  27.4959763  26.2118177  61.6158000  28.3530481  26.7574713  62.7381065
  22.2259629  27.7560906  53.5482639  22.1059255  28.2017957  54.3868119
  21.5312218  28.1046224  52.9896177  15.8167034  29.8567298  61.0982296
  15.9459415  30.1101777  62.0121707  15.1364485  30.4495006  60.7786951
  19.9866521  40.5264548  57.1972770  19.9090551  41.4772373  57.2761250
  19.3828165  40.1810421  57.8547696  22.4783751  27.6992414  69.8534137
  21.7017085  28.2586334  69.8437001  23.1174314  28.1849197  70.3749007
  30.2704532  24.4819206  63.6877113  29.6278912  24.7751740  63.0416908
  29.7659460  24.3672127  64.4930310  27.9244696  28.2282380  54.3762973
  28.8362552  28.4609766  54.2010670  27.4154343  28.8119424  53.8138051
  20.7330124  30.5077867  69.4152104  21.4744808  31.0462911  69.1386927
  20.0267109  31.1344156  69.5723655  26.2085463  32.6507007  68.0124265
  26.6168819  32.2089418  67.2678897  25.4862725  32.0759635  68.2658458
  22.5616533  27.5879614  65.3857822  23.4077728  28.0119028  65.5292471
  22.5015171  26.9313239  66.0796385  26.5314278  33.2108198  61.7676554
  25.9023140  33.3753912  61.0652622  26.1439940  33.6249808  62.5387518
  30.4103510  34.1462636  59.1220918  29.7254548  34.5261537  58.5717951
  30.4947359  34.7557963  59.8552866  25.7115979  25.2483983  67.0438996
  25.4676910  26.0026043  66.5073271  25.9875909  25.6269330  67.8786243
  27.6654441  31.7922595  65.7216261  27.8771337  32.4354355  65.0450642
  27.6184190  30.9584912  65.2538191  25.2680670  24.4040416  62.6252833
  24.4065149  24.7021669  62.9169571  25.2943105  24.6210815  61.6933866
  22.0842240  32.9482606  59.0326639  22.5480585  33.2270309  58.2431262
  21.8199038  32.0466051  58.8499730  18.9766321  32.4954088  61.9706402
  19.5467678  32.9241356  61.3323887  19.5674433  32.2136672  62.6690588
  21.0211126  29.0705759  55.8416204  21.7235169  29.5226802  56.3090131
  20.6891754  28.4289577  56.4696097  19.4691487  27.6617515  70.2167414
  18.8390148  28.3433796  70.4502810  19.3627575  27.5500597  69.2720552
  14.7636460  27.3289311  61.1433338  13.9735514  27.5846840  60.6673448
  15.2547707  28.1437649  61.2485378  28.7800269  34.6694550  63.8938619
  29.6017713  34.2674738  63.6121300  28.7762672  34.5662785  64.8454734
  16.7151205  27.6933890  58.1016815  15.9182368  27.8052585  58.6200310
  16.4876797  28.0320543  57.2357705  22.5456873  34.2178594  66.0499329
  22.6101305  34.6799001  66.8857501  21.8367797  33.5875959  66.1781639
  13.0474163  27.5819802  63.5748329  13.2982201  28.4666812  63.8405905
  13.5833711  27.4024403  62.8023420  36.8706262  31.0133299  60.2423590
  36.1169971  30.4440697  60.0867595  37.0053804  30.9795963  61.1894225
  22.2604890  35.8846701  55.9178309  22.1250565  36.7298237  56.3463157
  22.8014703  36.0865979  55.1544243  18.7472230  21.9638281  72.5792665
  18.3539176  21.4104480  73.2540309  19.5638370  22.2748860  72.9699182
  15.7134288  33.4022139  56.4906235  16.2258808  34.1965389  56.6411799
  16.3657001  32.7048430  56.4239836  17.5229172  36.5187896  58.5728988
  17.6995801  37.4405860  58.3849972  18.3186006  36.2046315  59.0023368
  21.6640191  23.3796160  70.1712921  22.4049904  23.9803313  70.0917384
  21.8958114  22.6373798  69.6130964  16.8081529  28.5652527  68.4491151
  16.6935044  27.6637785  68.7498250  15.9526047  28.8116224  68.0975967
  23.8873367  36.5070268  70.0478652  23.4437221  35.7206646  69.7299556
  24.5490580  36.6949418  69.3822542  18.6460488  38.0366069  64.5739330
  19.1967913  37.9083133  63.8016324  17.8071964  38.3360958  64.2234223
  25.9854605  36.7873068  68.0760053  25.9673080  37.6081949  67.5840322
  26.9074525  36.6627143  68.3010194  22.4427659  34.3017197  68.9183561
  22.9755996  33.5405485  68.6882869  21.9141740  34.0090849  69.6607716
  25.6097354  19.4077263  64.4477203  25.2661623  20.2978905  64.3716314
  25.9776317  19.2178921  63.5846788  13.6783205  31.7310794  57.2665805
  14.5158427  32.1407802  57.0499513  13.8561472  30.7910236  57.2365999
  25.5747637  29.3985874  52.9549638  25.0594260  30.1690479  53.1938025
  25.3024945  28.7251010  53.5782699  23.1594748  24.2435575  58.0134876
  22.3036344  23.8542425  57.8340515  23.5721699  24.3227536  57.1534662
  24.6893894  21.7781918  62.4126436  24.1858690  21.7412053  61.5994241
  24.9824501  22.6874661  62.4723093  20.9336780  21.8620648  61.4192618
  21.7989777  21.6663457  61.0598507  21.0014289  21.6331000  62.3461975
  30.5481911  32.1518229  54.8902812  29.7711354  31.8129388  54.4457974
  31.2273392  32.1570852  54.2157777  25.3633940  27.2712966  54.7809419
  25.0584075  27.5859115  55.6319562  26.3164382  27.3494386  54.8236752
  23.8080372  33.4303190  56.4302373  23.2801733  32.6955949  56.1175611
  23.3067874  34.2077866  56.1842342  28.7873218  31.6252210  61.5469420
  28.1296892  32.3151471  61.6349548  29.5913617  32.0148642  61.8903406
  18.5399099  24.0922856  58.7908985  19.1142851  23.8698037  58.0582178
  19.1270082  24.1611550  59.5437586  27.5978677  29.9796583  59.5973361
  28.1110558  30.6126575  60.0995071  28.2479900  29.3797778  59.2316721
  18.8668686  26.1227317  52.8104870  18.0305999  26.4602003  53.1314145
  18.7273456  25.9876297  51.8732007  20.8421767  20.9664105  57.5184054
  20.1886179  20.6513122  56.8940669  20.8002241  20.3439845  58.2443877
  21.9532972  31.2483400  49.4337346  21.0460034  31.0172653  49.6328495
  22.4504004  30.4521019  49.6211328  24.8601051  39.9580907  52.3534032
  24.1862750  40.2612604  52.9618990  25.2466873  40.7609987  52.0039489
  24.0759507  27.4546038  61.8431702  23.1582069  27.6760985  61.6853390
  24.4919651  27.5292349  60.9843409  24.8594555  28.8537454  56.9734382
  25.6066374  29.3658851  56.6641504  25.1286145  28.5321507  57.8338776
  23.1321205  31.3495995  53.9561336  22.2232425  31.0655028  54.0533806
  23.1616289  31.7695073  53.0964643  28.3640473  34.9602584  57.7252504
  27.9102800  34.1193494  57.7817694  27.7334439  35.5963983  58.0627284
  27.3073392  25.8894570  58.9553171  26.5696149  25.3771956  59.2863414
  27.5600166  25.4494952  58.1436448  26.8073412  36.7979081  58.6602322
  27.0996386  37.3584138  57.9414688  27.3172033  37.0907642  59.4155481
  27.4085020  18.6670822  59.5494941  27.7143896  17.8068186  59.2620856
  28.1337624  19.2588442  59.3493935  13.7009376  29.0701509  57.9376539
  13.5033776  28.4770870  57.2127605  13.1456040  28.7653719  58.6552477
  21.6806099  28.9624615  60.0571132  21.7354709  28.0098452  59.9813608
  20.8697301  29.1184054  60.5412430  22.8297293  32.8904738  51.2949415
  22.3916723  32.1740597  50.8355052  23.5707734  33.1180853  50.7334506
  19.6198459  27.5801675  57.8161511  18.8066325  27.8795846  58.2226703
  20.1157453  27.1857364  58.5335993  21.7707037  37.5759432  59.7495775
  21.7283216  37.8020278  58.8204307  22.6869736  37.3422807  59.8981576
  25.2172671  28.0443500  66.6476404  25.5722059  28.2714973  67.5070870
  25.8644802  28.3761876  66.0253660  30.9470408  31.1661935  57.3525733
  30.8088306  31.3563531  56.4246923  30.5906627  31.9281318  57.8093785
  19.1112534  25.1520031  63.4322746  19.7511913  25.0108790  62.7345709
  18.2790065  24.8654544  63.0561347  30.9739787  33.2338462  62.3637005
  31.4076294  33.1413752  63.2120059  31.6871368  33.2095963  61.7257021
  19.8872838  34.4522461  59.5457738  20.6813436  33.9572781  59.3440313
  19.1764530  33.9240324  59.1825444  24.7067682  36.8340557  63.8970106
  24.7604705  37.4031493  64.6647821  23.8382464  37.0042442  63.5324143
  16.1955601  28.5965543  55.6217491  15.2653189  28.5349998  55.8387453
  16.2913073  28.0741496  54.8254132  16.1141150  25.1220356  58.2095732
  16.3747968  26.0365689  58.1004893  16.9358323  24.6544798  58.3592345
  17.5866076  26.5358113  65.3794557  18.2589129  26.3275475  64.7307206
  16.7595862  26.3380199  64.9399789  31.8355337  33.2762163  64.8969890
  32.0291227  34.1807974  65.1429165  31.7355955  32.8169582  65.7308475
  23.4891648  23.1620054  67.3960218  22.8419563  23.8610003  67.3024694
  24.2592663  23.5956198  67.7636466  26.8970446  33.4268906  70.4710771
  26.7455952  33.1979458  69.5540855  26.8875125  34.3839507  70.4842116
  23.6655782  31.0000819  65.4557037  24.5947842  31.1511978  65.2826005
  23.2446812  31.0884839  64.6005684  22.4644114  35.0251483  63.2255575
  22.3255200  34.6570267  64.0981513  21.6758710  35.5399122  63.0539533
  23.0592266  40.1260579  54.5681112  23.2344022  39.6548623  55.3826734
  22.3725054  40.7526346  54.7962372  24.0149329  34.4033086  60.6144413
  23.6799162  34.3633856  61.5102063  23.5153275  33.7377802  60.1414823
  17.9893573  29.8100716  66.1396994  17.8513371  29.0780955  66.7408533
  18.8998497  29.7209616  65.8581182  26.9508521  31.7489120  50.8881472
  26.3337691  31.0235948  50.7914525  26.4825009  32.5098480  50.5448547
  20.6175874  29.5220675  65.6280674  21.3275492  28.8813867  65.5867292
  20.5745182  29.7733570  66.5506854  28.6062652  36.4588028  68.5487253
  28.5475199  35.7747249  67.8817836  29.0082171  37.2007018  68.0967879
  19.3304808  26.5085893  67.4476313  18.7942165  26.0576631  68.0997909
  18.7421516  26.6431802  66.7046777  17.6253351  43.2749942  61.3420972
  17.8649949  43.9068466  62.0199990  16.7822548  42.9237982  61.6286331
  18.7407067  25.9674544  50.0102777  17.8636533  25.8463345  49.6465023
  19.2164820  25.1760623  49.7581665  28.6080060  34.4227612  66.7801233
  27.7206838  34.0853534  66.9027631  29.1778611  33.6910644  67.0169998
  10.2609207  30.7551704  60.1044284  10.9480247  30.4413434  59.5165299
  10.1057335  31.6593069  59.8311535  15.0643929  25.6441901  64.5329308
  14.9802118  25.0367570  63.7979718  14.2426635  26.1350919  64.5338804
  22.1381213  39.0829065  63.7462476  22.0651385  39.8884036  64.2581780
  21.6958606  39.2821030  62.9210497  21.9270993  38.3200835  57.2565297
  21.1438515  38.8622515  57.3503522  22.6263738  38.8374814  57.6559538
  25.2367643  24.1295464  59.8999503  25.7336342  23.3765426  59.5800573
  24.4654624  24.1659781  59.3342712  33.0897400  29.8335830  61.5417794
  33.0787276  30.7160545  61.1711727  32.2214780  29.4807381  61.3472331
  24.5979897  38.9815899  65.9020634  25.3107869  39.6163364  65.8296536
  24.1069925  39.0779765  65.0860636  26.3197423  32.8867151  57.4737926
  25.3853702  33.0068614  57.3042630  26.4974092  31.9839618  57.2097936
  21.8202612  26.2712847  59.6271187  21.4500399  25.7183888  60.3152093
  22.3161704  25.6670981  59.0746187  29.7069975  28.7284471  58.0087960
  30.1730427  29.5612462  57.9348263  30.1577475  28.2629452  58.7133219
  19.6491810  36.7310342  66.7226205  20.3501270  37.3646825  66.8755599
  19.1786925  37.0725074  65.9621844  27.7746206  35.0728292  55.0074112
  28.0506050  34.9584887  55.9167986  26.9050705  34.6745777  54.9686285
  27.6786638  21.0965058  62.0478862  26.7649717  21.3269285  62.2161068
  28.1079739  21.1803502  62.8992894  27.4493096  29.2854950  64.5478756
  26.7964546  29.5330857  63.8931208  27.8273476  28.4719088  64.2141233
  24.4100270  39.3214643  58.6506926  24.5922664  38.5036299  59.1134678
  25.2333256  39.5382335  58.2131816  24.7442435  38.2482828  55.9121974
  25.2730202  37.7375283  55.2992136  25.0070655  37.9325358  56.7767507
  23.4980669  30.0274761  71.0344793  22.8221306  29.9268890  71.7047168
  24.3208303  29.8713974  71.4980790  15.2459528  36.2646697  63.6557308
  15.8312965  35.5190385  63.7885212  15.0484367  36.5750654  64.5393972
  18.0998183  39.2997945  58.6719750  17.4308559  39.7844072  58.1883790
  17.9611053  39.5467165  59.5863129   9.8377183  28.8352297  62.3761751
   9.8761282  28.3015888  63.1698869   9.3317476  28.3087503  61.7572728
  22.2403452  41.3341688  65.2702409  22.7921760  41.4973310  66.0351494
  22.5809645  41.9246126  64.5982433  17.2167945  23.6816838  65.8724293
  17.2809272  24.5431669  65.4601691  17.1535065  23.0690840  65.1396652
  16.6920218  25.7539970  69.5197328  17.3192257  25.3717048  70.1334852
  15.8348137  25.5354172  69.8853020  27.0914326  36.1602946  71.1251063
  27.6354230  36.7732904  70.6306018  26.5101171  36.7182524  71.6418076
  13.4685760  27.5616400  55.4515682  13.7639202  26.6527078  55.3982736
  12.5673796  27.5404139  55.1296685  25.3771839  39.2823664  62.2566091
  25.2522979  38.4813404  61.7477036  26.0350930  39.7769857  61.7680061
  16.9980007  25.6372396  61.4343231  16.2766593  26.2508364  61.2950704
  17.7873263  26.1730161  61.3559877  27.4406748  37.0832684  63.8845641
  26.4937083  36.9638035  63.8123968  27.7889521  36.1955182  63.9671902
  19.8006321  22.9726823  67.7083883  20.3240723  23.2189119  68.4710192
  19.5818654  23.8046857  67.2887020  15.1973602  25.2430497  55.5755008
  14.8686308  24.3627876  55.3930114  15.5512973  25.1878166  56.4631397
  24.4453181  36.8785400  60.0849993  24.2978143  35.9502107  60.2657563
  25.2706674  36.9005491  59.6007068  18.3115425  25.5303467  55.9430485
  18.6511498  26.0589388  55.2209094  18.7587546  25.8683873  56.7189052
  28.0487303  37.7013959  61.1714866  28.9733850  37.4956820  61.0339317
  27.8802606  37.4530360  62.0804207  21.0058866  23.9140518  65.3933553
  20.6655686  23.1148331  65.7954233  20.2997872  24.2142229  64.8210387
  21.6575338  20.9989830  63.8460876  22.4801407  20.5250308  63.7239767
  21.9013401  21.7780314  64.3459563  20.2983572  24.0278089  54.1423778
  21.0191935  24.4059341  53.6387495  19.6748876  24.7466965  54.2458756
  24.4414695  24.7323238  55.0782110  24.6578310  25.6147875  54.7770939
  23.9608762  24.3409451  54.3487752  19.1813917  27.6908951  61.6552855
  19.0358497  28.0049254  62.5477136  18.7039120  28.3093851  61.1023754
  21.0410300  24.6811499  61.7033745  21.0271868  23.7852592  61.3666042
  21.7582728  24.6882163  62.3372031  22.8936430  25.1148839  63.7486872
  22.6354208  26.0365910  63.7471202  22.3621471  24.7179274  64.4387336
  27.8382619  38.2199626  56.5276957  28.0119497  37.6546049  55.7750810
  28.3311510  39.0200521  56.3456447  13.6559579  30.2314295  64.5940516
  13.1113047  31.0074103  64.7260790  14.5338929  30.5785100  64.4359638
  20.4447195  23.5625879  56.9721315  20.5663107  22.6342525  57.1712202
  20.1549238  23.5764565  56.0599630  23.3138386  21.2480790  60.1088034
  23.3360083  21.3120123  59.1540014  23.7306445  20.4085298  60.3028541
  33.6922010  30.9836049  58.1467257  34.1353156  30.2343374  57.7486380
  32.8148520  30.9746185  57.7640989  28.8257791  37.5366391  53.6273856
  29.5208696  38.1573083  53.8461170  29.1680942  36.6861742  53.9026233
  14.4425601  29.3584191  67.4870673  13.7007337  29.5066827  68.0735303
  14.1218345  29.6192457  66.6237422  30.7249215  34.9866096  55.1561186
  31.2500539  35.3253369  54.4310506  30.6371567  34.0513111  54.9724321
  22.3869263  38.9000170  67.2851063  22.6956390  38.6549316  68.1573763
  23.1844745  39.1046808  66.7969933  22.4089875  41.0538079  59.5156440
  21.9694866  40.5614458  60.2089296  23.1597992  40.5111047  59.2748515
  14.8882214  37.2449620  59.5181068  15.7140234  36.9453392  59.1379711
  14.5376266  36.4757243  59.9670856  19.8563747  36.5976088  61.5878741
  19.2343757  35.9346793  61.2880969  20.5268614  36.6237220  60.9052389
  13.0890819  35.1635947  60.4770001  12.2522728  34.7358121  60.2954002
  13.0614465  35.3568390  61.4140792  19.9288275  25.0757876  71.1811247
  19.9776430  25.9519999  70.7989017  20.4710789  24.5335270  70.6082890
  30.4143121  35.6199000  70.4612384  29.6238664  35.6023139  69.9216884
  30.1776475  36.1587293  71.2161421  30.5340996  32.4691466  67.7745113
  30.5839001  32.3041474  68.7160636  30.4254919  31.6018725  67.3842994
  19.4177254  35.1480012  55.0637202  19.5665375  35.8315476  54.4103875
  20.2243698  35.1285102  55.5786657  27.8244758  28.4522394  69.0904420
  28.7254621  28.3128859  68.7988417  27.8992733  28.6176849  70.0302597
  22.1587563  25.8289249  67.9357606  21.2890873  26.1222815  67.6640194
  22.3947044  26.4129694  68.6564870  32.0359193  34.8888408  68.0187134
  31.7444001  35.2518388  68.8550595  31.4231324  34.1755416  67.8400466
  33.2354875  32.4541287  60.5389705  34.0701766  32.8931091  60.7027265
  33.3714004  31.9779941  59.7197950  30.2846381  30.0121022  66.4867192
  30.7600502  30.2048669  65.6786044  29.3611946  30.0680208  66.2410576
  17.1729887  31.1745189  56.0698271  16.9275929  30.2707519  56.2678481
  17.3425802  31.1762340  55.1277749  24.8626597  22.0468866  65.4523026
  25.3808541  22.7829893  65.1269515  24.5081730  22.3532859  66.2869785
  16.4425535  26.9073547  53.5684432  15.7494780  26.9817902  52.9124468
  16.1977287  26.1433891  54.0905949  25.1139191  18.4669148  60.9723923
  25.3940945  17.7992337  61.5984349  25.8989798  18.6598244  60.4598587
  22.9172660  37.6428142  52.5348949  22.3446627  38.2618329  52.0819421
  23.4905454  38.1927504  53.0688871  28.9848050  26.8886782  64.7195498
  29.9365473  26.9884880  64.7407722  28.8151500  26.0965051  65.2293582
  27.0062429  23.9742366  64.9054899  26.4112361  24.2547378  64.2101388
  26.7212126  24.4636266  65.6771640  26.1369920  37.9265292  53.6657531
  27.0700593  37.8610854  53.8690407  26.0493133  38.7621559  53.2072064
  28.7657936  37.2431163  50.6261479  28.6871568  36.9091026  51.5197237
  29.5867603  37.7352931  50.6252951  31.4636128  30.1092902  63.8337798
  31.4312448  29.1708903  64.0197481  32.0736751  30.1876939  63.1003623
  23.3019458  28.9788955  49.8765002  24.2478563  28.8495163  49.9453420
  22.9233703  28.2403617  50.3534430  31.6130616  26.9003945  63.8796081
  31.0969665  26.1162402  63.6926010  32.4970565  26.5722662  64.0442600
  29.2741343  20.6444961  59.8391894  29.0766164  20.3360049  60.7235225
  29.8841049  21.3706600  59.9689823  37.2812677  31.1708909  62.9743834
  38.0116066  30.9094197  63.5351538  36.6719623  30.4337631  63.0145902
  35.3627975  29.3116771  63.5718286  34.6361138  29.1772736  62.9634777
  34.9475261  29.6193600  64.3775004  23.1858151  33.0306701  71.3365659
  24.1061160  33.2085300  71.5305705  23.1507734  32.0862746  71.1845358
  21.4862376  26.9038931  49.8119887  20.5793831  26.6072044  49.8882601
  21.7638357  26.6068749  48.9454173  12.4040316  28.2245295  60.2618933
  12.0843100  27.3710603  59.9693307  11.8573744  28.4393873  61.0176901
  16.1820224  30.9407736  63.9788440  16.4006233  31.8724844  63.9976474
  16.5945997  30.5815710  64.7643244  23.1024441  21.4475821  55.9664128
  22.2925170  21.1022906  56.3419374  23.7908858  21.1383365  56.5551740
  25.0314990  20.5253868  57.5888425  25.5846028  20.9449321  58.2478448
  25.2685076  19.5989616  57.6311381  21.0548089  26.5140942  73.3691189
  20.9544816  27.4635298  73.3003280  20.8369631  26.1859180  72.4967259
  20.2561160  23.7625867  49.9531866  21.1180324  24.0880765  50.2127683
  20.4411504  22.9757362  49.4404932  12.2728576  31.8448206  62.2312055
  11.5792047  31.4302159  61.7182009  13.0201567  31.8868743  61.6345474
  28.4093797  22.6354393  57.0967089  27.8292466  23.2939197  56.7145142
  28.1429729  21.8131738  56.6854507  26.8597363  22.0359451  59.2988409
  27.3597141  22.1475985  58.4902728  27.5032971  21.7320504  59.9389218
  20.9179359  29.9438080  72.1856250  20.4346441  30.7438440  72.3920139
  21.0040298  29.9546025  71.2323694  14.1865318  31.7766460  60.1078070
  14.1636007  31.8754147  59.1559953  14.4965955  32.6231611  60.4295236
  16.8452696  33.8342615  64.2224684  17.7995950  33.8026557  64.1554616
  16.6465220  33.3733239  65.0374910  17.4352078  32.4043731  66.7895482
  18.2544967  32.8987810  66.8130319  17.7088886  31.4875699  66.7613049
  27.1918675  24.7954483  56.1523437  26.3044530  25.0804134  55.9343632
  27.6072664  24.6348247  55.3050714  30.5433211  24.8201004  59.8677777
  31.3193601  25.3097457  60.1402393  29.8181345  25.2459059  60.3249646
  32.9805769  25.5328624  60.9251717  33.5750260  25.2924360  60.2145025
  33.0532353  24.8135754  61.5525254  15.2002925  39.3762235  61.2394882
  15.0657393  38.6162635  60.6732880  14.7834987  40.1003134  60.7723671
  26.3361888  34.5599158  50.2471457  27.0397738  34.7649161  50.8629113
  25.6124537  35.1275920  50.5120541  27.1659698  30.3109019  56.3673728
  27.1094900  30.7677571  55.5281360  27.7188041  29.5499704  56.1896570
  30.9764504  26.0998751  57.1923847  30.7201439  25.6995387  58.0232055
  30.3517372  26.8142545  57.0673986  35.2876842  28.8394824  59.6995138
  34.7276400  28.9088014  60.4726700  34.6820346  28.6635809  58.9794635
  18.3572051  40.2731552  61.4513325  18.2404435  41.2176984  61.3492015
  17.5364497  39.9705113  61.8399124  28.2448586  34.9981687  52.2969917
  29.0794189  34.5662886  52.1147392  28.0832928  34.8263701  53.2246812
  27.8994478  31.5013801  53.6626257  27.8443282  31.3358072  52.7214701
  27.2740533  32.2089834  53.8188446  12.6886993  26.7381865  67.4887679
  13.3345856  26.2280819  67.9774904  12.4804144  27.4750547  68.0631104
  25.2140385  33.8062712  72.9879819  26.0831545  33.9803365  72.6266454
  24.7347136  34.6257129  72.8655549  21.2090603  21.0021910  53.2411575
  21.1969273  21.9463750  53.3979846  22.1014025  20.8192055  52.9471036
  19.3826565  40.9259813  64.6669253  20.2853812  40.9583424  64.9835748
  19.1563935  39.9960264  64.6815589  21.1380167  39.6790800  61.3279332
  20.1875798  39.6792662  61.2143704  21.4412653  38.9323535  60.8115366
  25.0242723  17.5964686  57.4957512  24.2575118  17.0423173  57.6414194
  25.4353428  17.6686555  58.3571664  17.0284484  23.8849482  71.5862693
  17.8915945  23.5286287  71.7966018  16.4549894  23.5463377  72.2738097
  36.8732861  45.5151338  62.3925094  37.5111271  45.3958086  61.6888434
  36.7553704  46.4632182  62.4513046  33.6822567  45.4678767  62.3286619
  33.3441078  45.3519831  61.4407154  34.5512335  45.0669932  62.3087625
  29.5409383  47.3214243  58.3183510  28.9774248  47.2304180  57.5499798
  29.4261778  46.5014147  58.7986002  34.1642350  46.6213618  68.2872824
  34.1530991  46.2266417  67.4153328  34.3262989  45.8879691  68.8806596
  27.0873815  48.8165435  61.1567730  27.8795106  48.4756259  60.7414030
  27.3270465  48.9260410  62.0769884  29.0464568  48.0774348  54.0285109
  29.8195445  47.5303335  53.8897985  29.3989967  48.9418597  54.2399570
  30.8849611  49.4050730  67.2352008  30.5939477  50.3096361  67.1198675
  31.5206595  49.4467258  67.9496078  31.8105818  46.7827579  63.8253368
  32.4069390  46.5583601  63.1110331  31.8680789  46.0412324  64.4278816
  31.3830846  44.2367014  51.6603559  31.6356367  43.7148535  50.8987022
  30.4455405  44.0733159  51.7630243  36.4274129  43.2402792  59.4678302
  37.2137218  42.8222215  59.1168719  36.6912833  44.1448884  59.6359951
  36.5984206  48.6775643  54.1666959  35.9630039  48.7510269  54.8787864
  36.2681613  49.2669241  53.4886038  31.1027135  46.1395120  53.8627934
  30.9863393  45.4640023  54.5309018  31.2129395  45.6527494  53.0460087
  33.4458676  45.6005267  57.5674623  33.0816883  45.0735888  58.2787545
  34.3025792  45.2103736  57.3941109  39.3507977  36.8899600  64.8305889
  39.0191301  37.7595011  64.6067104  38.7553590  36.5735884  65.5099920
  33.0864163  40.6295167  52.5635972  33.2538565  41.4975403  52.9306443
  32.8961332  40.7922448  51.6397261  35.8439496  49.0912146  64.2301802
  35.5440219  49.9937184  64.1217609  35.4990556  48.8244329  65.0822955
  29.2951978  45.5425942  60.2638506  28.3702474  45.4102157  60.4716198
  29.5436391  46.3220162  60.7608449  39.2436640  41.6094686  61.9099239
  38.3353517  41.5410094  61.6158000  39.1924236  42.0866631  62.7381065
  33.0653384  43.0852824  53.5482639  32.9453009  43.5309875  54.3868119
  32.3705972  43.4338142  52.9896177  26.6560789  45.1859216  61.0982296
  26.7853170  45.4393695  62.0121707  25.9758240  45.7786924  60.7786951
  33.3177506  43.0284331  69.8534137  32.5410840  43.5878251  69.8437001
  33.9568069  43.5141114  70.3749007  41.1098286  39.8111124  63.6877113
  40.4672667  40.1043657  63.0416908  40.6053215  39.6964044  64.4930310
  38.7638450  43.5574297  54.3762973  39.6756306  43.7901684  54.2010670
  38.2548097  44.1411342  53.8138051  31.5723878  45.8369785  69.4152104
  32.3138562  46.3754829  69.1386927  30.8660863  46.4636073  69.5723655
  37.0479218  47.9798925  68.0124265  37.4562574  47.5381336  67.2678897
  36.3256479  47.4051553  68.2658458  33.4010288  42.9171532  65.3857822
  34.2471483  43.3410945  65.5292471  33.3408925  42.2605156  66.0796385
  36.5509733  40.5775900  67.0438996  36.3070665  41.3317961  66.5073271
  36.8269664  40.9561248  67.8786243  36.1074425  39.7332333  62.6252833
  35.2458904  40.0313587  62.9169571  36.1336859  39.9502732  61.6933866
  32.9235994  48.2774524  59.0326639  33.3874340  48.5562227  58.2431262
  32.6592792  47.3757968  58.8499730  29.8160075  47.8246005  61.9706402
  30.3861432  48.2533274  61.3323887  30.4068187  47.5428590  62.6690588
  31.8604880  44.3997676  55.8416204  32.5628924  44.8518720  56.3090131
  31.5285509  43.7581495  56.4696097  30.3085242  42.9909433  70.2167414
  29.6783902  43.6725714  70.4502810  30.2021330  42.8792514  69.2720552
  25.6030214  42.6581229  61.1433338  24.8129268  42.9138757  60.6673448
  26.0941462  43.4729567  61.2485378  27.5544960  43.0225808  58.1016815
  26.7576123  43.1344502  58.6200310  27.3270552  43.3612460  57.2357705
  33.3850627  49.5470511  66.0499329  33.4495060  50.0090919  66.8857501
  32.6761551  48.9167876  66.1781639  23.8867917  42.9111719  63.5748329
  24.1375956  43.7958729  63.8405905  24.4227466  42.7316321  62.8023420
  29.5865985  37.2930199  72.5792665  29.1932930  36.7396397  73.2540309
  30.4032125  37.6040777  72.9699182  26.5528042  48.7314057  56.4906235
  27.0652563  49.5257307  56.6411799  27.2050755  48.0340347  56.4239836
  28.3622927  51.8479813  58.5728988  28.5389555  52.7697778  58.3849972
  29.1579760  51.5338232  59.0023368  32.5033945  38.7088078  70.1712921
  33.2443659  39.3095231  70.0917384  32.7351868  37.9665716  69.6130964
  27.6475284  43.8944445  68.4491151  27.5328799  42.9929702  68.7498250
  26.7919801  44.1408142  68.0975967  34.7267121  51.8362185  70.0478652
  34.2830975  51.0498564  69.7299556  35.3884335  52.0241336  69.3822542
  29.4854242  53.3657987  64.5739330  30.0361668  53.2375050  63.8016324
  28.6465718  53.6652876  64.2234223  33.2821413  49.6309115  68.9183561
  33.8149750  48.8697403  68.6882869  32.7535495  49.3382767  69.6607716
  36.4491108  34.7369181  64.4477203  36.1055378  35.6270822  64.3716314
  36.8170071  34.5470838  63.5846788  24.5176959  47.0602711  57.2665805
  25.3552181  47.4699720  57.0499513  24.6955227  46.1202153  57.2365999
  36.4141391  44.7277792  52.9549638  35.8988015  45.4982396  53.1938025
  36.1418700  44.0542928  53.5782699  33.9988502  39.5727493  58.0134876
  33.1430099  39.1834343  57.8340515  34.4115454  39.6519453  57.1534662
  35.5287649  37.1073836  62.4126436  35.0252444  37.0703971  61.5994241
  35.8218256  38.0166579  62.4723093  31.7730535  37.1912566  61.4192618
  32.6383531  36.9955374  61.0598507  31.8408044  36.9622917  62.3461975
  36.2027694  42.6004884  54.7809419  35.8977830  42.9151033  55.6319562
  37.1558136  42.6786304  54.8236752  29.3792854  39.4214774  58.7908985
  29.9536606  39.1989955  58.0582178  29.9663836  39.4903468  59.5437586
  38.4372431  45.3088500  59.5973361  38.9504313  45.9418492  60.0995071
  39.0873655  44.7089696  59.2316721  29.7062441  41.4519235  52.8104870
  28.8699753  41.7893921  53.1314145  29.5667211  41.3168214  51.8732007
  31.6815522  36.2956022  57.5184054  31.0279934  35.9805040  56.8940669
  31.6395996  35.6731763  58.2443877  32.7926726  46.5775318  49.4337346
  31.8853788  46.3464571  49.6328495  33.2897758  45.7812937  49.6211328
  34.9153262  42.7837956  61.8431702  33.9975823  43.0052903  61.6853390
  35.3313405  42.8584266  60.9843409  35.6988310  44.1829372  56.9734382
  36.4460129  44.6950769  56.6641504  35.9679899  43.8613424  57.8338776
  33.9714960  46.6787912  53.9561336  33.0626179  46.3946945  54.0533806
  34.0010044  47.0986991  53.0964643  38.1467147  41.2186488  58.9553171
  37.4089904  40.7063874  59.2863414  38.3993920  40.7786870  58.1436448
  38.2478774  33.9962740  59.5494941  38.5537651  33.1360103  59.2620856
  38.9731379  34.5880360  59.3493935  24.5403130  44.3993427  57.9376539
  24.3427530  43.8062787  57.2127605  23.9849794  44.0945637  58.6552477
  32.5199854  44.2916533  60.0571132  32.5748464  43.3390369  59.9813608
  31.7091056  44.4475972  60.5412430  33.6691048  48.2196656  51.2949415
  33.2310478  47.5032515  50.8355052  34.4101488  48.4472771  50.7334506
  30.4592214  42.9093593  57.8161511  29.6460079  43.2087763  58.2226703
  30.9551208  42.5149282  58.5335993  36.0566425  43.3735417  66.6476404
  36.4115813  43.6006890  67.5070870  36.7038557  43.7053794  66.0253660
  29.9506289  40.4811948  63.4322746  30.5905668  40.3400707  62.7345709
  29.1183819  40.1946462  63.0561347  30.7266592  49.7814379  59.5457738
  31.5207191  49.2864699  59.3440313  30.0158285  49.2532242  59.1825444
  27.0349356  43.9257460  55.6217491  26.1046944  43.8641916  55.8387453
  27.1306828  43.4033413  54.8254132  26.9534905  40.4512273  58.2095732
  27.2141722  41.3657607  58.1004893  27.7752077  39.9836716  58.3592345
  28.4259830  41.8650030  65.3794557  29.0982884  41.6567393  64.7307206
  27.5989617  41.6672116  64.9399789  34.3285402  38.4911971  67.3960218
  33.6813317  39.1901921  67.3024694  35.0986418  38.9248115  67.7636466
  37.7364200  48.7560824  70.4710771  37.5849707  48.5271375  69.5540855
  37.7268880  49.7131425  70.4842116  34.5049537  46.3292736  65.4557037
  35.4341597  46.4803896  65.2826005  34.0840567  46.4176757  64.6005684
  28.8287328  45.1392633  66.1396994  28.6907125  44.4072872  66.7408533
  29.7392251  45.0501534  65.8581182  37.7902275  47.0781038  50.8881472
  37.1731446  46.3527866  50.7914525  37.3218764  47.8390398  50.5448547
  31.4569628  44.8512593  65.6280674  32.1669247  44.2105785  65.5867292
  31.4138936  45.1025488  66.5506854  30.1698562  41.8377811  67.4476313
  29.6335919  41.3868549  68.0997909  29.5815271  41.9723719  66.7046777
  28.4647106  58.6041860  61.3420972  28.7043704  59.2360384  62.0199990
  27.6216302  58.2529900  61.6286331  29.5800821  41.2966462  50.0102777
  28.7030287  41.1755263  49.6465023  30.0558574  40.5052540  49.7581665
  21.1002961  46.0843622  60.1044284  21.7874001  45.7705352  59.5165299
  20.9451090  46.9884986  59.8311535  25.9037683  40.9733818  64.5329308
  25.8195872  40.3659488  63.7979718  25.0820390  41.4642837  64.5338804
  36.0761397  39.4587382  59.8999503  36.5730097  38.7057344  59.5800573
  35.3048379  39.4951698  59.3342712  32.6596366  41.6004765  59.6271187
  32.2894154  41.0475805  60.3152093  33.1555458  40.9962898  59.0746187
  30.4885565  52.0602260  66.7226205  31.1895024  52.6938743  66.8755599
  30.0180680  52.4016991  65.9621844  38.5180392  36.4256975  62.0478862
  37.6043472  36.6561202  62.2161068  38.9473494  36.5095419  62.8992894
  38.2886851  44.6146867  64.5478756  37.6358301  44.8622775  63.8931208
  38.6667230  43.8011005  64.2141233  34.3374424  45.3566678  71.0344793
  33.6615061  45.2560808  71.7047168  35.1602057  45.2005892  71.4980790
  26.0853283  51.5938615  63.6557308  26.6706719  50.8482303  63.7885212
  25.8878121  51.9042572  64.5393972  28.9391938  54.6289862  58.6719750
  28.2702313  55.1135990  58.1883790  28.8004808  54.8759083  59.5863129
  20.6770937  44.1644215  62.3761751  20.7155037  43.6307806  63.1698869
  20.1711230  43.6379421  61.7572728  28.0561700  39.0108756  65.8724293
  28.1203026  39.8723587  65.4601691  27.9928820  38.3982757  65.1396652
  27.5313972  41.0831888  69.5197328  28.1586011  40.7008965  70.1334852
  26.6741891  40.8646090  69.8853020  24.3079515  42.8908317  55.4515682
  24.6032956  41.9818996  55.3982736  23.4067551  42.8696057  55.1296685
  27.8373762  40.9664314  61.4343231  27.1160348  41.5800282  61.2950704
  28.6267018  41.5022079  61.3559877  30.6400075  38.3018740  67.7083883
  31.1634477  38.5481037  68.4710192  30.4212409  39.1338775  67.2887020
  26.0367357  40.5722415  55.5755008  25.7080063  39.6919794  55.3930114
  26.3906727  40.5170084  56.4631397  29.1509180  40.8595385  55.9430485
  29.4905252  41.3881306  55.2209094  29.5981300  41.1975791  56.7189052
  31.8452621  39.2432435  65.3933553  31.5049441  38.4440249  65.7954233
  31.1391627  39.5434146  64.8210387  32.4969092  36.3281748  63.8460876
  33.3195162  35.8542226  63.7239767  32.7407156  37.1072232  64.3459563
  31.1377327  39.3570006  54.1423778  31.8585689  39.7351259  53.6387495
  30.5142631  40.0758883  54.2458756  35.2808450  40.0615155  55.0782110
  35.4972064  40.9439793  54.7770939  34.8002517  39.6701369  54.3487752
  30.0207671  43.0200869  61.6552855  29.8752252  43.3341172  62.5477136
  29.5432875  43.6385769  61.1023754  31.8804054  40.0103416  61.7033745
  31.8665623  39.1144510  61.3666042  32.5976482  40.0174080  62.3372031
  33.7330185  40.4440757  63.7486872  33.4747963  41.3657827  63.7471202
  33.2015225  40.0471191  64.4387336  24.4953333  45.5606213  64.5940516
  23.9506801  46.3366021  64.7260790  25.3732683  45.9077017  64.4359638
  31.2840950  38.8917797  56.9721315  31.4056861  37.9634443  57.1712202
  30.9942992  38.9056483  56.0599630  34.1532140  36.5772707  60.1088034
  34.1753837  36.6412040  59.1540014  34.5700199  35.7377216  60.3028541
  25.2819355  44.6876109  67.4870673  24.5401091  44.8358745  68.0735303
  24.9612099  44.9484375  66.6237422  25.7275969  52.5741538  59.5181068
  26.5533989  52.2745310  59.1379711  25.3770021  51.8049160  59.9670856
  30.6957502  51.9268006  61.5878741  30.0737511  51.2638711  61.2880969
  31.3662369  51.9529138  60.9052389  23.9284574  50.4927864  60.4770001
  23.0916482  50.0650039  60.2954002  23.9008219  50.6860308  61.4140792
  30.7682029  40.4049794  71.1811247  30.8170185  41.2811917  70.7989017
  31.3104544  39.8627187  70.6082890  38.6638513  43.7814312  69.0904420
  39.5648375  43.6420777  68.7988417  38.7386487  43.9468767  70.0302597
  32.9981318  41.1581167  67.9357606  32.1284627  41.4514733  67.6640194
  33.2340798  41.7421612  68.6564870  28.0123642  46.5037107  56.0698271
  27.7669684  45.5999437  56.2678481  28.1819556  46.5054258  55.1277749
  35.7020352  37.3760783  65.4523026  36.2202296  38.1121810  65.1269515
  35.3475485  37.6824777  66.2869785  27.2819289  42.2365465  53.5684432
  26.5888534  42.3109820  52.9124468  27.0371041  41.4725808  54.0905949
  35.9532946  33.7961066  60.9723923  36.2334700  33.1284255  61.5984349
  36.7383553  33.9890162  60.4598587  39.8241804  42.2178700  64.7195498
  40.7759227  42.3176798  64.7407722  39.6545255  41.4256969  65.2293582
  37.8456184  39.3034283  64.9054899  37.2506116  39.5839296  64.2101388
  37.5605880  39.7928184  65.6771640  34.1413213  44.3080873  49.8765002
  35.0872318  44.1787081  49.9453420  33.7627458  43.5695535  50.3534430
  40.1135097  35.9736879  59.8391894  39.9159919  35.6651967  60.7235225
  40.7234803  36.6998518  59.9689823  34.0251905  48.3598619  71.3365659
  34.9454915  48.5377218  71.5305705  33.9901488  47.4154664  71.1845358
  32.3256130  42.2330849  49.8119887  31.4187585  41.9363962  49.8882601
  32.6032111  41.9360667  48.9454173  23.2434070  43.5537212  60.2618933
  22.9236855  42.7002521  59.9693307  22.6967499  43.7685791  61.0176901
  27.0213978  46.2699653  63.9788440  27.2399988  47.2016761  63.9976474
  27.4339752  45.9107628  64.7643244  33.9418196  36.7767739  55.9664128
  33.1318924  36.4314824  56.3419374  34.6302613  36.4675282  56.5551740
  35.8708744  35.8545786  57.5888425  36.4239783  36.2741239  58.2478448
  36.1078830  34.9281534  57.6311381  31.8941843  41.8432859  73.3691189
  31.7938570  42.7927216  73.3003280  31.6763385  41.5151098  72.4967259
  31.0954915  39.0917784  49.9531866  31.9574079  39.4172683  50.2127683
  31.2805259  38.3049280  49.4404932  23.1122330  47.1740124  62.2312055
  22.4185802  46.7594077  61.7182009  23.8595321  47.2160660  61.6345474
  39.2487551  37.9646311  57.0967089  38.6686220  38.6231115  56.7145142
  38.9823484  37.1423655  56.6854507  37.6991118  37.3651368  59.2988409
  38.1990896  37.4767903  58.4902728  38.3426725  37.0612421  59.9389218
  31.7573113  45.2729998  72.1856250  31.2740195  46.0730358  72.3920139
  31.8434052  45.2837943  71.2323694  25.0259073  47.1058378  60.1078070
  25.0029761  47.2046065  59.1559953  25.3359709  47.9523529  60.4295236
  27.6846451  49.1634533  64.2224684  28.6389704  49.1318475  64.1554616
  27.4858974  48.7025156  65.0374910  28.2745833  47.7335649  66.7895482
  29.0938722  48.2279727  66.8130319  28.5482641  46.8167617  66.7613049
  38.0312429  40.1246401  56.1523437  37.1438284  40.4096052  55.9343632
  38.4466418  39.9640164  55.3050714  41.3826965  40.1492922  59.8677777
  42.1587355  40.6389375  60.1402393  40.6575099  40.5750976  60.3249646
  26.0396680  54.7054152  61.2394882  25.9051148  53.9454553  60.6732880
  25.6228742  55.4295052  60.7723671  37.1755643  49.8891076  50.2471457
  37.8791493  50.0941078  50.8629113  36.4518291  50.4567838  50.5120541
  38.0053453  45.6400937  56.3673728  37.9488654  46.0969488  55.5281360
  38.5581795  44.8791622  56.1896570  29.1965806  55.6023469  61.4513325
  29.0798190  56.5468902  61.3492015  28.3758252  55.2997031  61.8399124
  38.7388232  46.8305718  53.6626257  38.6837036  46.6649990  52.7214701
  38.1134288  47.5381751  53.8188446  23.5280747  42.0673783  67.4887679
  24.1739611  41.5572737  67.9774904  23.3197898  42.8042464  68.0631104
  36.0534139  49.1354630  72.9879819  36.9225299  49.3095282  72.6266454
  35.5740891  49.9549047  72.8655549  32.0484358  36.3313827  53.2411575
  32.0363028  37.2755667  53.3979846  32.9407780  36.1483973  52.9471036
  35.8636477  32.9256604  57.4957512  35.0968873  32.3715091  57.6414194
  36.2747182  32.9978473  58.3571664  27.8678238  39.2141400  71.5862693
  28.7309700  38.8578205  71.7966018  27.2943649  38.8755295  72.2738097
  50.4445445  67.9014998  50.6261479  50.3659077  67.5674862  51.5197237
  51.2655112  68.3936766  50.6252951  56.7996450  81.6469046  53.6297975
  56.1484430  82.2323126  53.2431988  57.5940813  82.1775241  53.6893012
  53.0618355  74.8950849  51.6603559  53.3143876  74.3732371  50.8987022
  52.1242914  74.7316995  51.7630243  58.2771715  79.3359478  54.1666959
  57.6417548  79.4094104  54.8787864  57.9469122  79.9253077  53.4886038
  54.7440893  73.7436660  53.5482639  54.6240518  74.1893710  54.3868119
  54.0493481  74.0921977  52.9896177  53.5392389  75.0581512  55.8416204
  54.2416433  75.5102555  56.3090131  53.2073018  74.4165330  56.4696097
  49.2332469  73.6809644  58.1016815  48.4363632  73.7928338  58.6200310
  49.0058061  74.0196296  57.2357705  46.1964468  77.7186547  57.2665805
  47.0339690  78.1283555  57.0499513  46.3742736  76.7785989  57.2365999
  58.0928900  75.3861627  52.9549638  57.5775524  76.1566232  53.1938025
  57.8206209  74.7126763  53.5782699  63.0663174  78.1393982  54.8902812
  62.2892617  77.8005141  54.4457974  63.7454655  78.1446605  54.2157777
  57.8815203  73.2588719  54.7809419  57.5765339  73.5734868  55.6319562
  58.8345645  73.3370139  54.8236752  56.3261635  79.4178943  56.4302373
  55.7982997  78.6831702  56.1175611  55.8249138  80.1953619  56.1842342
  51.3849950  72.1103070  52.8104870  50.5487262  72.4477756  53.1314145
  51.2454720  71.9752050  51.8732007  54.4714235  77.2359153  49.4337346
  53.5641297  77.0048406  49.6328495  54.9685267  76.4396772  49.6211328
  55.6502469  77.3371748  53.9561336  54.7413688  77.0530781  54.0533806
  55.6797553  77.7570826  53.0964643  60.8821736  80.9478337  57.7252504
  60.4284063  80.1069247  57.7817694  60.2515703  81.5839736  58.0627284
  55.3478557  78.8780491  51.2949415  54.9097987  78.1616350  50.8355052
  56.0888997  79.1056606  50.7334506  52.1379723  73.5677428  57.8161511
  51.3247588  73.8671599  58.2226703  52.6338717  73.1733117  58.5335993
  48.7136865  74.5841296  55.6217491  47.7834453  74.5225751  55.8387453
  48.8094337  74.0617249  54.8254132  59.4689784  77.7364873  50.8881472
  58.8518955  77.0111701  50.7914525  59.0006273  78.4974233  50.5448547
  51.2588330  71.9550297  50.0102777  50.3817796  71.8339098  49.6465023
  51.7346083  71.1636376  49.7581665  42.7790470  76.7427457  60.1044284
  43.4661510  76.4289187  59.5165299  42.6238599  77.6468822  59.8311535
  60.2927469  81.0604045  55.0074112  60.5687313  80.9460640  55.9167986
  59.4231968  80.6621530  54.9686285  56.9595959  70.7198991  55.0782110
  57.1759573  71.6023629  54.7770939  56.4790026  70.3285204  54.3487752
  61.3439055  83.5242144  53.6273856  62.0389960  84.1448836  53.8461170
  61.6862205  82.6737495  53.9026233  63.2430478  80.9741849  55.1561186
  63.7681802  81.3129122  54.4310506  63.1552831  80.0388864  54.9724321
  45.6072083  81.1511700  60.4770001  44.7703991  80.7233874  60.2954002
  45.5795728  81.3444143  61.4140792  48.9606798  72.8949300  53.5684432
  48.2676043  72.9693655  52.9124468  48.7158550  72.1309644  54.0905949
  55.4353923  83.6303895  52.5348949  54.8627890  84.2494082  52.0819421
  56.0086717  84.1803257  53.0688871  61.2839200  83.2306916  50.6261479
  61.2052831  82.8966779  51.5197237  62.1048867  83.7228684  50.6252951
  55.8200722  74.9664708  49.8765002  56.7659827  74.8370916  49.9453420
  55.4414967  74.2279370  50.3534430  54.0043639  72.8914684  49.8119887
  53.0975094  72.5947797  49.8882601  54.2819620  72.5944502  48.9454173
  58.8543152  80.5474911  50.2471457  59.5579002  80.7524914  50.8629113
  58.1305800  81.1151673  50.5120541  60.7629849  80.9857440  52.2969917
  61.5975453  80.5538639  52.1147392  60.6014192  80.8139454  53.2246812
  60.4175741  77.4889554  53.6626257  60.3624545  77.3233825  52.7214701
  59.7921796  78.1965587  53.8188446  51.9007829  86.9135567  64.6669253
  52.8035075  86.9459177  64.9835748  51.6745199  85.9836017  64.6815589
  69.3914124  91.5027091  62.3925094  70.0292534  91.3833839  61.6888434
  69.2734967  92.4507935  62.4513046  66.2003830  91.4554520  62.3286619
  65.8622342  91.3395584  61.4407154  67.0693599  91.0545685  62.3087625
  62.0590646  93.3089996  58.3183510  61.4955511  93.2179933  57.5499798
  61.9443041  92.4889900  58.7986002  59.6055078  94.8041188  61.1567730
  60.3976370  94.4632012  60.7414030  59.8451728  94.9136163  62.0769884
  67.6390205  96.9760964  53.6297975  66.9878185  97.5615044  53.2431988
  68.4334568  97.5067159  53.6893012  61.5645832  94.0650101  54.0285109
  62.3376708  93.5179088  53.8897985  61.9171231  94.9294350  54.2399570
  63.4030875  95.3926483  67.2352008  63.1120741  96.2972114  67.1198675
  64.0387859  95.4343011  67.9496078  64.3287081  92.7703332  63.8253368
  64.9250654  92.5459354  63.1110331  64.3862053  92.0288077  64.4278816
  63.9012110  90.2242767  51.6603559  64.1537630  89.7024288  50.8987022
  62.9636669  90.0608912  51.7630243  68.9455393  89.2278545  59.4678302
  69.7318482  88.8097968  59.1168719  69.2094097  90.1324637  59.6359951
  69.1165470  94.6651396  54.1666959  68.4811303  94.7386022  54.8787864
  68.7862876  95.2544994  53.4886038  74.3463820  89.1653778  60.3711281
  75.0788992  88.5952995  60.6049110  73.5903175  88.7775379  60.8117786
  63.6208399  92.1270873  53.8627934  63.5044657  91.4515776  54.5309018
  63.7310658  91.6403247  53.0460087  65.9639939  91.5881020  57.5674623
  65.5998147  91.0611641  58.2787545  66.8207055  91.1979489  57.3941109
  65.6045426  86.6170920  52.5635972  65.7719829  87.4851156  52.9306443
  65.4142596  86.7798201  51.6397261  68.3620760  95.0787899  64.2301802
  68.0621483  95.9812937  64.1217609  68.0171819  94.8120082  65.0822955
  61.8133241  91.5301695  60.2638506  60.8883738  91.3977910  60.4716198
  62.0617654  92.3095915  60.7608449  65.5834647  89.0728577  53.5482639
  65.4634273  89.5185628  54.3868119  64.8887236  89.4213895  52.9896177
  59.1742052  91.1734969  61.0982296  59.3034433  91.4269448  62.0121707
  58.4939503  91.7662677  60.7786951  63.3441539 101.8432219  57.1972770
  63.2665569 102.7940044  57.2761250  62.7403183 101.4978091  57.8547696
  71.2819713  89.5450050  54.3762973  72.1937570  89.7777437  54.2010670
  70.7729361  90.1287095  53.8138051  64.0905142  91.8245538  69.4152104
  64.8319826  92.3630582  69.1386927  63.3842127  92.4511826  69.5723655
  69.8889296  94.5275869  61.7676554  69.2598158  94.6921583  61.0652622
  69.5014958  94.9417478  62.5387518  73.7678528  95.4630307  59.1220918
  73.0829566  95.8429208  58.5717951  73.8522377  96.0725633  59.8552866
  71.0229459  93.1090266  65.7216261  71.2346355  93.7522026  65.0450642
  70.9759208  92.2752582  65.2538191  65.4417258  94.2650277  59.0326639
  65.9055603  94.5437980  58.2431262  65.1774056  93.3633721  58.8499730
  62.3341339  93.8121758  61.9706402  62.9042696  94.2409027  61.3323887
  62.9249451  93.5304343  62.6690588  64.3786144  90.3873429  55.8416204
  65.0810187  90.8394473  56.3090131  64.0466772  89.7457248  56.4696097
  72.1375287  95.9862221  63.8938619  72.9592731  95.5842408  63.6121300
  72.1337690  95.8830455  64.8454734  65.9031891  95.5346264  66.0499329
  65.9676323  95.9966672  66.8857501  65.1942815  94.9043629  66.1781639
  80.2281280  92.3300970  60.2423590  79.4744989  91.7608368  60.0867595
  80.3628821  92.2963634  61.1894225  65.6179908  97.2014372  55.9178309
  65.4825583  98.0465908  56.3463157  66.1589721  97.4033650  55.1544243
  59.0709306  94.7189810  56.4906235  59.5833826  95.5133060  56.6411799
  59.7232019  94.0216100  56.4239836  60.8804190  97.8355566  58.5728988
  61.0570819  98.7573531  58.3849972  61.6761024  97.5213985  59.0023368
  60.1656547  89.8820198  68.4491151  60.0510062  88.9805455  68.7498250
  59.3101065  90.1283895  68.0975967  67.2448385  97.8237938  70.0478652
  66.8012239  97.0374317  69.7299556  67.9065598  98.0117089  69.3822542
  62.0035506  99.3533740  64.5739330  62.5542931  99.2250803  63.8016324
  61.1646982  99.6528629  64.2234223  69.3429623  98.1040738  68.0760053
  69.3248098  98.9249619  67.5840322  70.2649543  97.9794814  68.3010194
  65.8002677  95.6184868  68.9183561  66.3331014  94.8573156  68.6882869
  65.2716758  95.3258520  69.6607716  57.0358223  93.0478464  57.2665805
  57.8733445  93.4575473  57.0499513  57.2136490  92.1077906  57.2365999
  68.9322655  90.7153545  52.9549638  68.4169278  91.4858150  53.1938025
  68.6599963  90.0418681  53.5782699  73.9056929  93.4685900  54.8902812
  73.1286372  93.1297059  54.4457974  74.5848410  93.4738523  54.2157777
  68.7208958  88.5880637  54.7809419  68.4159093  88.9026786  55.6319562
  69.6739400  88.6662057  54.8236752  67.1655390  94.7470860  56.4302373
  66.6376751  94.0123620  56.1175611  66.6642892  95.5245537  56.1842342
  72.1448236  92.9419881  61.5469420  71.4871910  93.6319142  61.6349548
  72.9488635  93.3316313  61.8903406  70.9553694  91.2964253  59.5973361
  71.4685576  91.9294245  60.0995071  71.6054918  90.6965449  59.2316721
  62.2243704  87.4394988  52.8104870  61.3881017  87.7769674  53.1314145
  62.0848474  87.3043967  51.8732007  65.3107990  92.5651071  49.4337346
  64.4035052  92.3340324  49.6328495  65.8079022  91.7688690  49.6211328
  68.2176069 101.2748578  52.3534032  67.5437767 101.5780275  52.9618990
  68.6041891 102.0777658  52.0039489  68.2169573  90.1705125  56.9734382
  68.9641392  90.6826522  56.6641504  68.4861163  89.8489177  57.8338776
  66.4896223  92.6663665  53.9561336  65.5807443  92.3822698  54.0533806
  66.5191307  93.0862744  53.0964643  71.7215491  96.2770255  57.7252504
  71.2677818  95.4361165  57.7817694  71.0909457  96.9131653  58.0627284
  70.1648430  98.1146752  58.6602322  70.4571404  98.6751809  57.9414688
  70.6747050  98.4075313  59.4155481  65.0381117  90.2792286  60.0571132
  65.0929727  89.3266122  59.9813608  64.2272319  90.4351725  60.5412430
  66.1872311  94.2072409  51.2949415  65.7491741  93.4908268  50.8355052
  66.9282752  94.4348524  50.7334506  65.1282055  98.8927103  59.7495775
  65.0858234  99.1187949  58.8204307  66.0444754  98.6590477  59.8981576
  74.3045426  92.4829606  57.3525733  74.1663324  92.6731202  56.4246923
  73.9481645  93.2448989  57.8093785  74.3314805  94.5506133  62.3637005
  74.7651312  94.4581422  63.2120059  75.0446386  94.5263634  61.7257021
  63.2447856  95.7690132  59.5457738  64.0388454  95.2740452  59.3440313
  62.5339548  95.2407995  59.1825444  68.0642700  98.1508227  63.8970106
  68.1179723  98.7199164  64.6647821  67.1957482  98.3210112  63.5324143
  75.1930355  94.5929834  64.8969890  75.3866245  95.4975644  65.1429165
  75.0930973  94.1337253  65.7308475  70.2545464  94.7436577  70.4710771
  70.1030970  94.5147128  69.5540855  70.2450143  95.7007178  70.4842116
  67.0230800  92.3168489  65.4557037  67.9522860  92.4679649  65.2826005
  66.6021830  92.4052510  64.6005684  65.8219132  96.3419154  63.2255575
  65.6830218  95.9737938  64.0981513  65.0333728  96.8566793  63.0539533
  66.4167284 101.4428250  54.5681112  66.5919040 100.9716293  55.3826734
  65.7300072 102.0694016  54.7962372  67.3724347  95.7200756  60.6144413
  67.0374180  95.6801526  61.5102063  66.8728293  95.0545472  60.1414823
  61.3468591  91.1268386  66.1396994  61.2088389  90.3948625  66.7408533
  62.2573514  91.0377287  65.8581182  70.3083539  93.0656791  50.8881472
  69.6912709  92.3403619  50.7914525  69.8400027  93.8266151  50.5448547
  63.9750892  90.8388346  65.6280674  64.6850510  90.1981538  65.5867292
  63.9320200  91.0901241  66.5506854  71.9637670  97.7755699  68.5487253
  71.9050216  97.0914919  67.8817836  72.3657189  98.5174689  68.0967879
  60.9828369 104.5917613  61.3420972  61.2224967 105.2236137  62.0199990
  60.1397566 104.2405653  61.6286331  62.0982085  87.2842215  50.0102777
  61.2211551  87.1631016  49.6465023  62.5739838  86.4928293  49.7581665
  71.9655078  95.7395283  66.7801233  71.0781856  95.4021205  66.9027631
  72.5353629  95.0078314  67.0169998  53.6184225  92.0719375  60.1044284
  54.3055265  91.7581105  59.5165299  53.4632353  92.9760739  59.8311535
  65.4956231 100.3996735  63.7462476  65.4226402 101.2051707  64.2581780
  65.0533624 100.5988701  62.9210497  65.2846011  99.6368505  57.2565297
  64.5013533 100.1790186  57.3503522  65.9838756 100.1542485  57.6559538
  76.4472418  91.1503500  61.5417794  76.4362294  92.0328216  61.1711727
  75.5789798  90.7975051  61.3472331  67.9554915 100.2983569  65.9020634
  68.6682887 100.9331034  65.8296536  67.4644943 100.3947435  65.0860636
  69.6772441  94.2034822  57.4737926  68.7428720  94.3236285  57.3042630
  69.8549110  93.3007289  57.2097936  73.0644993  90.0452141  58.0087960
  73.5305445  90.8780133  57.9348263  73.5152493  89.5797123  58.7133219
  63.0066828  98.0478013  66.7226205  63.7076288  98.6814496  66.8755599
  62.5361943  98.3892744  65.9621844  71.1321224  96.3895963  55.0074112
  71.4081068  96.2752557  55.9167986  70.2625723  95.9913448  54.9686285
  70.8068114  90.6022620  64.5478756  70.1539564  90.8498528  63.8931208
  71.1848494  89.7886759  64.2141233  67.7675288 100.6382314  58.6506926
  67.9497682  99.8203969  59.1134678  68.5908274 100.8550006  58.2131816
  68.1017453  99.5650499  55.9121974  68.6305220  99.0542953  55.2992136
  68.3645673  99.2493029  56.7767507  58.6034546  97.5814368  63.6557308
  59.1887983  96.8358056  63.7885212  58.4059385  97.8918325  64.5393972
  61.4573201 100.6165615  58.6719750  60.7883577 101.1011743  58.1883790
  61.3186071 100.8634836  59.5863129  53.1952201  90.1519968  62.3761751
  53.2336300  89.6183559  63.1698869  52.6892494  89.6255174  61.7572728
  65.5978470 102.6509359  65.2702409  66.1496778 102.8140980  66.0351494
  65.9384663 103.2413797  64.5982433  70.4489344  97.4770616  71.1251063
  70.9929248  98.0900575  70.6306018  69.8676189  98.0350195  71.6418076
  68.7346857 100.5991334  62.2566091  68.6097997  99.7981074  61.7477036
  69.3925948 101.0937528  61.7680061  70.7981766  98.4000354  63.8845641
  69.8512101  98.2805706  63.8123968  71.1464539  97.5122852  63.9671902
  67.8028199  98.1953071  60.0849993  67.6553161  97.2669778  60.2657563
  68.6281692  98.2173161  59.6007068  61.6690443  86.8471138  55.9430485
  62.0086516  87.3757059  55.2209094  62.1162564  87.1851544  56.7189052
  71.4062321  99.0181629  61.1714866  72.3308868  98.8124491  61.0339317
  71.2377624  98.7698031  62.0804207  63.6558590  85.3445759  54.1423778
  64.3766953  85.7227012  53.6387495  63.0323894  86.0634636  54.2458756
  62.5388935  89.0076622  61.6552855  62.3933515  89.3216925  62.5477136
  62.0614138  89.6261522  61.1023754  71.1957637  99.5367297  56.5276957
  71.3694514  98.9713719  55.7750810  71.6886528 100.3368192  56.3456447
  77.0497028  92.3003720  58.1467257  77.4928174  91.5511045  57.7486380
  76.1723538  92.2913856  57.7640989  72.1832809  98.8534061  53.6273856
  72.8783714  99.4740754  53.8461170  72.5255960  98.0029412  53.9026233
  74.0824233  96.3033767  55.1561186  74.6075557  96.6421040  54.4310506
  73.9946585  95.3680782  54.9724321  65.7444281 100.2167840  67.2851063
  66.0531408  99.9716987  68.1573763  66.5419763 100.4214479  66.7969933
  65.7664893 102.3705750  59.5156440  65.3269884 101.8782129  60.2089296
  66.5173010 101.8278718  59.2748515  58.2457232  98.5617291  59.5181068
  59.0715252  98.2621063  59.1379711  57.8951284  97.7924913  59.9670856
  63.2138765  97.9143759  61.5878741  62.5918775  97.2514464  61.2880969
  63.8843632  97.9404891  60.9052389  56.4465837  96.4803617  60.4770001
  55.6097746  96.0525792  60.2954002  56.4189483  96.6736061  61.4140792
  73.7718139  96.9366670  70.4612384  72.9813682  96.9190809  69.9216884
  73.5351493  97.4754964  71.2161421  73.8916014  93.7859137  67.7745113
  73.9414019  93.6209144  68.7160636  73.7829937  92.9186396  67.3842994
  62.7752272  96.4647682  55.0637202  62.9240393  97.1483147  54.4103875
  63.5818716  96.4452773  55.5786657  75.3934210  96.2056078  68.0187134
  75.1019019  96.5686059  68.8550595  74.7806342  95.4923087  67.8400466
  76.5929893  93.7708958  60.5389705  77.4276784  94.2098762  60.7027265
  76.7289022  93.2947611  59.7197950  73.6421399  91.3288693  66.4867192
  74.1175520  91.5216339  65.6786044  72.7186964  91.3847879  66.2410576
  60.5304905  92.4912860  56.0698271  60.2850947  91.5875190  56.2678481
  60.7000820  92.4930011  55.1277749  66.2747678  98.9595813  52.5348949
  65.7021645  99.5786000  52.0819421  66.8480472  99.5095175  53.0688871
  69.4944938  99.2432963  53.6657531  70.4275611  99.1778525  53.8690407
  69.4068150 100.0789230  53.2072064  72.1232954  98.5598833  50.6261479
  72.0446586  98.2258697  51.5197237  72.9442621  99.0520601  50.6252951
  74.8211146  91.4260573  63.8337798  74.7887466  90.4876573  64.0197481
  75.4311769  91.5044609  63.1003623  66.6594476  90.2956626  49.8765002
  67.6053581  90.1662834  49.9453420  66.2808721  89.5571288  50.3534430
  80.6387695  92.4876580  62.9743834  81.3691084  92.2261868  63.5351538
  80.0294641  91.7505301  63.0145902  78.7202992  90.6284442  63.5718286
  77.9936156  90.4940407  62.9634777  78.3050279  90.9361271  64.3775004
  66.5433169  94.3474372  71.3365659  67.4636178  94.5252971  71.5305705
  66.5082752  93.4030417  71.1845358  64.8437394  88.2206602  49.8119887
  63.9368849  87.9239715  49.8882601  65.1213375  87.9236420  48.9454173
  59.5395241  92.2575406  63.9788440  59.7581251  93.1892514  63.9976474
  59.9521015  91.8983381  64.7643244  66.4599459  82.7643492  55.9664128
  65.6500188  82.4190577  56.3419374  67.1483876  82.4551036  56.5551740
  63.6136178  85.0793537  49.9531866  64.4755342  85.4048436  50.2127683
  63.7986522  84.2925033  49.4404932  55.6303594  93.1615877  62.2312055
  54.9367065  92.7469830  61.7182009  56.3776585  93.2036413  61.6345474
  64.2754377  91.2605751  72.1856250  63.7921459  92.0606111  72.3920139
  64.3615316  91.2713696  71.2323694  57.5440336  93.0934131  60.1078070
  57.5211025  93.1921818  59.1559953  57.8540973  93.9399282  60.4295236
  60.2027714  95.1510286  64.2224684  61.1570968  95.1194228  64.1554616
  60.0040238  94.6900910  65.0374910  60.7927096  93.7211402  66.7895482
  61.6119985  94.2155481  66.8130319  61.0663904  92.8043370  66.7613049
  76.3380787  86.8496294  60.9251717  76.9325278  86.6092030  60.2145025
  76.4107371  86.1303425  61.5525254  58.5577943 100.6929905  61.2394882
  58.4232411  99.9330306  60.6732880  58.1410005 101.4170805  60.7723671
  69.6936906  95.8766829  50.2471457  70.3972756  96.0816831  50.8629113
  68.9699555  96.4443591  50.5120541  70.5234716  91.6276690  56.3673728
  70.4669918  92.0845241  55.5281360  71.0763059  90.8667375  56.1896570
  74.3339522  87.4166422  57.1923847  74.0776457  87.0163058  58.0232055
  73.7092390  88.1310216  57.0673986  78.6451860  90.1562495  59.6995138
  78.0851418  90.2255685  60.4726700  78.0395364  89.9803480  58.9794635
  61.7147069 101.5899222  61.4513325  61.5979453 102.5344655  61.3492015
  60.8939515 101.2872784  61.8399124  71.6023604  96.3149358  52.2969917
  72.4369207  95.8830556  52.1147392  71.4407946  96.1431372  53.2246812
  71.2569496  92.8181471  53.6626257  71.2018300  92.6525743  52.7214701
  70.6315551  93.5257504  53.8188446  68.5715403  95.1230383  72.9879819
  69.4406563  95.2971035  72.6266454  68.0922154  95.9424800  72.8655549
  64.5665621  82.3189580  53.2411575  64.5544291  83.2631420  53.3979846
  65.4589043  82.1359726  52.9471036  62.7401583 102.2427484  64.6669253
  63.6428830 102.2751094  64.9835748  62.5138953 101.3127935  64.6815589
  64.4955185 100.9958471  61.3279332  63.5450816 100.9960332  61.2143704
  64.7987671 100.2491205  60.8115366  80.2307879 106.8319009  62.3925094
  80.8686289 106.7125756  61.6888434  80.1128722 107.7799853  62.4513046
  77.0397585 106.7846437  62.3286619  76.7016096 106.6687502  61.4407154
  77.9087353 106.3837602  62.3087625  72.8984401 108.6381914  58.3183510
  72.3349266 108.5471851  57.5499798  72.7836796 107.8181818  58.7986002
  77.5217368 107.9381289  68.2872824  77.5106009 107.5434087  67.4153328
  77.6838007 107.2047362  68.8806596  70.4448833 110.1333105  61.1567730
  71.2370124 109.7923930  60.7414030  70.6845483 110.2428080  62.0769884
  78.4783959 112.3052881  53.6297975  77.8271939 112.8906962  53.2431988
  79.2728322 112.8359076  53.6893012  72.4039586 109.3942018  54.0285109
  73.1770462 108.8471006  53.8897985  72.7564985 110.2586268  54.2399570
  74.2424629 110.7218401  67.2352008  73.9514495 111.6264032  67.1198675
  74.8781613 110.7634928  67.9496078  75.1680836 108.0995249  63.8253368
  75.7644408 107.8751272  63.1110331  75.2255807 107.3579995  64.4278816
  74.7405864 105.5534685  51.6603559  74.9931385 105.0316206  50.8987022
  73.8030423 105.3900830  51.7630243  79.7849147 104.5570463  59.4678302
  80.5712236 104.1389886  59.1168719  80.0487851 105.4616555  59.6359951
  79.9559224 109.9943313  54.1666959  79.3205057 110.0677940  54.8787864
  79.6256631 110.5836912  53.4886038  85.1857574 104.4945696  60.3711281
  85.9182746 103.9244913  60.6049110  84.4296930 104.1067297  60.8117786
  74.4602153 107.4562791  53.8627934  74.3438411 106.7807694  54.5309018
  74.5704413 106.9695164  53.0460087  76.8033694 106.9172938  57.5674623
  76.4391901 106.3903559  58.2787545  77.6600810 106.5271407  57.3941109
  82.7082995  98.2067270  64.8305889  82.3766319  99.0762681  64.6067104
  82.1128608  97.8903554  65.5099920  76.4439181 101.9462837  52.5635972
  76.6113583 102.8143074  52.9306443  76.2536350 102.1090119  51.6397261
  79.2014514 110.4079816  64.2301802  78.9015237 111.3104855  64.1217609
  78.8565574 110.1411999  65.0822955  72.6526996 106.8593613  60.2638506
  71.7277492 106.7269827  60.4716198  72.9011409 107.6387832  60.7608449
  82.6011658 102.9262356  61.9099239  81.6928535 102.8577765  61.6158000
  82.5499254 103.4034301  62.7381065  76.4228402 104.4020495  53.5482639
  76.3028027 104.8477546  54.3868119  75.7280990 104.7505813  52.9896177
  70.0135807 106.5026887  61.0982296  70.1428188 106.7561366  62.0121707
  69.3333258 107.0954595  60.7786951  74.1835294 117.1724137  57.1972770
  74.1059324 118.1231962  57.2761250  73.5796938 116.8270009  57.8547696
  76.6752524 104.3452002  69.8534137  75.8985858 104.9045922  69.8437001
  77.3143087 104.8308785  70.3749007  84.4673304 101.1278795  63.6877113
  83.8247685 101.4211328  63.0416908  83.9628233 101.0131715  64.4930310
  82.1213468 104.8741968  54.3762973  83.0331324 105.1069355  54.2010670
  81.6123115 105.4579012  53.8138051  74.9298896 107.1537455  69.4152104
  75.6713580 107.6922499  69.1386927  74.2235881 107.7803744  69.5723655
  80.4054236 109.2966596  68.0124265  80.8137592 108.8549006  67.2678897
  79.6831497 108.7219223  68.2658458  76.7585306 104.2339203  65.3857822
  77.6046501 104.6578616  65.5292471  76.6983943 103.5772827  66.0796385
  80.7283050 109.8567786  61.7676554  80.0991913 110.0213501  61.0652622
  80.3408712 110.2709396  62.5387518  84.6072282 110.7922224  59.1220918
  83.9223320 111.1721126  58.5717951  84.6916131 111.4017551  59.8552866
  79.9084751 101.8943571  67.0438996  79.6645683 102.6485632  66.5073271
  80.1844682 102.2728919  67.8786243  81.8623214 108.4382183  65.7216261
  82.0740109 109.0813943  65.0450642  81.8152962 107.6044500  65.2538191
  79.4649443 101.0500004  62.6252833  78.6033922 101.3481258  62.9169571
  79.4911877 101.2670403  61.6933866  76.2811012 109.5942195  59.0326639
  76.7449358 109.8729898  58.2431262  76.0167810 108.6925639  58.8499730
  73.1735093 109.1413676  61.9706402  73.7436450 109.5700944  61.3323887
  73.7643205 108.8596261  62.6690588  75.2179898 105.7165347  55.8416204
  75.9203942 106.1686391  56.3090131  74.8860527 105.0749166  56.4696097
  73.6660260 104.3077104  70.2167414  73.0358920 104.9893384  70.4502810
  73.5596348 104.1960185  69.2720552  68.9605232 103.9748900  61.1433338
  68.1704286 104.2306428  60.6673448  69.4516480 104.7897237  61.2485378
  82.9769042 111.3154139  63.8938619  83.7986485 110.9134326  63.6121300
  82.9731445 111.2122373  64.8454734  70.9119978 104.3393479  58.1016815
  70.1151141 104.4512173  58.6200310  70.6845570 104.6780131  57.2357705
  76.7425645 110.8638182  66.0499329  76.8070078 111.3258589  66.8857501
  76.0336569 110.2335547  66.1781639  67.2442935 104.2279390  63.5748329
  67.4950974 105.1126400  63.8405905  67.7802484 104.0483992  62.8023420
  91.0675035 107.6592887  60.2423590  90.3138743 107.0900285  60.0867595
  91.2022576 107.6255552  61.1894225  76.4573663 112.5306290  55.9178309
  76.3219338 113.3757825  56.3463157  76.9983475 112.7325567  55.1544243
  72.9441002  98.6097869  72.5792665  72.5507948  98.0564068  73.2540309
  73.7607143  98.9208448  72.9699182  69.9103060 110.0481728  56.4906235
  70.4227581 110.8424978  56.6411799  70.5625773 109.3508018  56.4239836
  71.7197945 113.1647484  58.5728988  71.8964573 114.0865449  58.3849972
  72.5154778 112.8505903  59.0023368  75.8608963 100.0255749  70.1712921
  76.6018677 100.6262902  70.0917384  76.0926886  99.2833386  69.6130964
  71.0050301 105.2112116  68.4491151  70.8903817 104.3097373  68.7498250
  70.1494819 105.4575813  68.0975967  78.0842139 113.1529856  70.0478652
  77.6405993 112.3666235  69.7299556  78.7459353 113.3409007  69.3822542
  72.8429260 114.6825658  64.5739330  73.3936686 114.5542721  63.8016324
  72.0040736 114.9820547  64.2234223  80.1823377 113.4332656  68.0760053
  80.1641853 114.2541537  67.5840322  81.1043297 113.3086731  68.3010194
  76.6396431 110.9476786  68.9183561  77.1724768 110.1865074  68.6882869
  76.1110513 110.6550437  69.6607716  79.8066126  96.0536851  64.4477203
  79.4630396  96.9438493  64.3716314  80.1745089  95.8638509  63.5846788
  67.8751977 108.3770382  57.2665805  68.7127199 108.7867390  57.0499513
  68.0530245 107.4369824  57.2365999  79.7716409 106.0445463  52.9549638
  79.2563033 106.8150067  53.1938025  79.4993718 105.3710599  53.5782699
  77.3563520 100.8895163  58.0134876  76.5005116 100.5002014  57.8340515
  77.7690472 100.9687124  57.1534662  78.8862667  98.4241507  62.4126436
  78.3827462  98.3871642  61.5994241  79.1793274  99.3334249  62.4723093
  75.1305553  98.5080236  61.4192618  75.9958549  98.3123045  61.0598507
  75.1983062  98.2790588  62.3461975  84.7450683 108.7977817  54.8902812
  83.9680126 108.4588977  54.4457974  85.4242164 108.8030440  54.2157777
  79.5602712 103.9172555  54.7809419  79.2552848 104.2318704  55.6319562
  80.5133154 103.9953975  54.8236752  78.0049144 110.0762778  56.4302373
  77.4770506 109.3415538  56.1175611  77.5036647 110.8537454  56.1842342
  82.9841990 108.2711798  61.5469420  82.3265665 108.9611060  61.6349548
  83.7882389 108.6608230  61.8903406  72.7367872 100.7382444  58.7908985
  73.3111624 100.5157626  58.0582178  73.3238854 100.8071139  59.5437586
  81.7947449 106.6256171  59.5973361  82.3079331 107.2586163  60.0995071
  82.4448673 106.0257367  59.2316721  73.0637459 102.7686905  52.8104870
  72.2274771 103.1061592  53.1314145  72.9242229 102.6335885  51.8732007
  75.0390539  97.6123693  57.5184054  74.3854952  97.2972710  56.8940669
  74.9971014  96.9899434  58.2443877  76.1501744 107.8942988  49.4337346
  75.2428806 107.6632242  49.6328495  76.6472776 107.0980607  49.6211328
  79.0569823 116.6040495  52.3534032  78.3831522 116.9072192  52.9618990
  79.4435645 117.4069576  52.0039489  78.2728280 104.1005627  61.8431702
  77.3550841 104.3220574  61.6853390  78.6888423 104.1751937  60.9843409
  79.0563328 105.4997042  56.9734382  79.8035147 106.0118440  56.6641504
  79.3254917 105.1781095  57.8338776  77.3289978 107.9955583  53.9561336
  76.4201197 107.7114616  54.0533806  77.3585062 108.4154662  53.0964643
  82.5609245 111.6062173  57.7252504  82.1071572 110.7653082  57.7817694
  81.9303212 112.2423571  58.0627284  81.5042165 102.5354159  58.9553171
  80.7664922 102.0231545  59.2863414  81.7568938 102.0954540  58.1436448
  81.0042184 113.4438669  58.6602322  81.2965159 114.0043726  57.9414688
  81.5140805 113.7367230  59.4155481  81.6053792  95.3130411  59.5494941
  81.9112669  94.4527774  59.2620856  82.3306397  95.9048031  59.3493935
  67.8978148 105.7161097  57.9376539  67.7002548 105.1230458  57.2127605
  67.3424812 105.4113307  58.6552477  75.8774872 105.6084204  60.0571132
  75.9323482 104.6558040  59.9813608  75.0666074 105.7643643  60.5412430
  77.0266066 109.5364327  51.2949415  76.5885495 108.8200186  50.8355052
  77.7676506 109.7640442  50.7334506  73.8167232 104.2261263  57.8161511
  73.0035097 104.5255434  58.2226703  74.3126226 103.8316952  58.5335993
  75.9675810 114.2219020  59.7495775  75.9251988 114.4479867  58.8204307
  76.8838508 113.9882395  59.8981576  79.4141443 104.6903088  66.6476404
  79.7690831 104.9174561  67.5070870  80.0613575 105.0221465  66.0253660
  85.1439180 107.8121524  57.3525733  85.0057079 108.0023120  56.4246923
  84.7875399 108.5740907  57.8093785  73.3081306 101.7979619  63.4322746
  73.9480686 101.6568378  62.7345709  72.4758837 101.5114132  63.0561347
  85.1708560 109.8798051  62.3637005  85.6045067 109.7873340  63.2120059
  85.8840141 109.8555551  61.7257021  74.0841610 111.0982049  59.5457738
  74.8782209 110.6032370  59.3440313  73.3733303 110.5699913  59.1825444
  78.9036455 113.4800145  63.8970106  78.9573477 114.0491081  64.6647821
  78.0351236 113.6502030  63.5324143  70.3924374 105.2425131  55.6217491
  69.4621962 105.1809587  55.8387453  70.4881846 104.7201084  54.8254132
  70.3109923 101.7679944  58.2095732  70.5716740 102.6825277  58.1004893
  71.1327095 101.3004387  58.3592345  71.7834848 103.1817701  65.3794557
  72.4557902 102.9735063  64.7307206  70.9564635 102.9839787  64.9399789
  86.0324110 109.9221751  64.8969890  86.2260000 110.8267562  65.1429165
  85.9324728 109.4629171  65.7308475  77.6860420  99.8079642  67.3960218
  77.0388335 100.5069592  67.3024694  78.4561436 100.2415786  67.7636466
  81.0939218 110.0728494  70.4710771  80.9424725 109.8439046  69.5540855
  81.0843898 111.0299096  70.4842116  77.8624555 107.6460407  65.4557037
  78.7916615 107.7971567  65.2826005  77.4415585 107.7344428  64.6005684
  76.6612886 111.6711071  63.2255575  76.5223972 111.3029856  64.0981513
  75.8727483 112.1858711  63.0539533  77.2561038 116.7720168  54.5681112
  77.4312794 116.3008211  55.3826734  76.5693826 117.3985934  54.7962372
  78.2118102 111.0492674  60.6144413  77.8767934 111.0093444  61.5102063
  77.7122047 110.3837390  60.1414823  72.1862345 106.4560304  66.1396994
  72.0482143 105.7240543  66.7408533  73.0967269 106.3669204  65.8581182
  81.1477293 108.3948708  50.8881472  80.5306464 107.6695537  50.7914525
  80.6793782 109.1558069  50.5448547  74.8144646 106.1680263  65.6280674
  75.5244265 105.5273456  65.5867292  74.7713954 106.4193158  66.5506854
  82.8031425 113.1047617  68.5487253  82.7443971 112.4206837  67.8817836
  83.2050943 113.8466607  68.0967879  73.5273580 103.1545481  67.4476313
  72.9910937 102.7036220  68.0997909  72.9390289 103.2891390  66.7046777
  71.8222124 119.9209531  61.3420972  72.0618722 120.5528055  62.0199990
  70.9791320 119.5697571  61.6286331  72.9375839 102.6134133  50.0102777
  72.0605305 102.4922934  49.6465023  73.4133592 101.8220211  49.7581665
  82.8048832 111.0687201  66.7801233  81.9175611 110.7313122  66.9027631
  83.3747383 110.3370232  67.0169998  64.4577979 107.4011292  60.1044284
  65.1449019 107.0873022  59.5165299  64.3026108 108.3052657  59.8311535
  69.2612701 102.2901489  64.5329308  69.1770890 101.6827159  63.7979718
  68.4395408 102.7810507  64.5338804  76.3349986 115.7288653  63.7462476
  76.2620157 116.5343625  64.2581780  75.8927379 115.9280619  62.9210497
  76.1239765 114.9660423  57.2565297  75.3407287 115.5082103  57.3503522
  76.8232510 115.4834403  57.6559538  79.4336415 100.7755053  59.8999503
  79.9305115 100.0225015  59.5800573  78.6623397 100.8119369  59.3342712
  87.2866173 106.4795418  61.5417794  87.2756049 107.3620134  61.1711727
  86.4183552 106.1266969  61.3472331  78.7948669 115.6275487  65.9020634
  79.5076641 116.2622952  65.8296536  78.3038698 115.7239353  65.0860636
  80.5166196 109.5326740  57.4737926  79.5822475 109.6528202  57.3042630
  80.6942864 108.6299207  57.2097936  76.0171384 102.9172436  59.6271187
  75.6469172 102.3643476  60.3152093  76.5130476 102.3130569  59.0746187
  83.9038747 105.3744059  58.0087960  84.3699199 106.2072051  57.9348263
  84.3546248 104.9089041  58.7133219  73.8460583 113.3769931  66.7226205
  74.5470042 114.0106414  66.8755599  73.3755698 113.7184662  65.9621844
  81.9714978 111.7187880  55.0074112  82.2474822 111.6044475  55.9167986
  81.1019477 111.3205365  54.9686285  81.8755410  97.7424646  62.0478862
  80.9618490  97.9728873  62.2161068  82.3048511  97.8263090  62.8992894
  81.6461869 105.9314538  64.5478756  80.9933319 106.1790445  63.8931208
  82.0242248 105.1178676  64.2141233  78.6069042 115.9674231  58.6506926
  78.7891437 115.1495887  59.1134678  79.4302028 116.1841923  58.2131816
  78.9411208 114.8942416  55.9121974  79.4698974 114.3834871  55.2992136
  79.2039427 114.5784947  56.7767507  77.6949442 106.6734349  71.0344793
  77.0190079 106.5728478  71.7047168  78.5177075 106.5173563  71.4980790
  69.4428301 112.9106286  63.6557308  70.0281737 112.1649974  63.7885212
  69.2453139 113.2210242  64.5393972  72.2966956 115.9457533  58.6719750
  71.6277331 116.4303661  58.1883790  72.1579826 116.1926753  59.5863129
  64.0345955 105.4811886  62.3761751  64.0730055 104.9475477  63.1698869
  63.5286248 104.9547091  61.7572728  76.4372224 117.9801277  65.2702409
  76.9890532 118.1432898  66.0351494  76.7778418 118.5705714  64.5982433
  71.4136718 100.3276426  65.8724293  71.4778044 101.1891257  65.4601691
  71.3503838  99.7150428  65.1396652  70.8888990 102.3999559  69.5197328
  71.5161029 102.0176636  70.1334852  70.0316909 102.1813761  69.8853020
  81.2883099 112.8062534  71.1251063  81.8323003 113.4192492  70.6306018
  80.7069944 113.3642112  71.6418076  67.6654533 104.2075988  55.4515682
  67.9607974 103.2986666  55.3982736  66.7642569 104.1863727  55.1296685
  79.5740612 115.9283252  62.2566091  79.4491751 115.1272992  61.7477036
  80.2319703 116.4229445  61.7680061  71.1948780 102.2831985  61.4343231
  70.4735366 102.8967952  61.2950704  71.9842036 102.8189749  61.3559877
  81.6375520 113.7292272  63.8845641  80.6905856 113.6097623  63.8123968
  81.9858293 112.8414770  63.9671902  73.9975093  99.6186411  67.7083883
  74.5209495  99.8648708  68.4710192  73.7787427 100.4506446  67.2887020
  69.3942375 101.8890086  55.5755008  69.0655081 101.0087465  55.3930114
  69.7481745 101.8337754  56.4631397  78.6421953 113.5244988  60.0849993
  78.4946916 112.5961696  60.2657563  79.4675447 113.5465079  59.6007068
  72.5084198 102.1763055  55.9430485  72.8480270 102.7048977  55.2209094
  72.9556318 102.5143462  56.7189052  82.2456075 114.3473547  61.1714866
  83.1702623 114.1416408  61.0339317  82.0771379 114.0989948  62.0804207
  75.2027638 100.5600106  65.3933553  74.8624459  99.7607919  65.7954233
  74.4966645 100.8601817  64.8210387  75.8544110  97.6449419  63.8460876
  76.6770180  97.1709897  63.7239767  76.0982174  98.4239902  64.3459563
  74.4952345 100.6737677  54.1423778  75.2160707 101.0518930  53.6387495
  73.8717649 101.3926554  54.2458756  78.6383468 101.3782826  55.0782110
  78.8547082 102.2607464  54.7770939  78.1577535 100.9869039  54.3487752
  73.3782689 104.3368539  61.6552855  73.2327270 104.6508842  62.5477136
  72.9007893 104.9553440  61.1023754  75.2379072 101.3271087  61.7033745
  75.2240641 100.4312181  61.3666042  75.9551500 101.3341751  62.3372031
  77.0905203 101.7608427  63.7486872  76.8322980 102.6825498  63.7471202
  76.5590243 101.3638862  64.4387336  82.0351391 114.8659215  56.5276957
  82.2088269 114.3005637  55.7750810  82.5280283 115.6660109  56.3456447
  67.8528351 106.8773884  64.5940516  67.3081819 107.6533692  64.7260790
  68.7307701 107.2244688  64.4359638  74.6415968 100.2085467  56.9721315
  74.7631879  99.2802114  57.1712202  74.3518010 100.2224153  56.0599630
  77.5107158  97.8940378  60.1088034  77.5328855  97.9579711  59.1540014
  77.9275217  97.0544887  60.3028541  87.8890783 107.6295637  58.1467257
  88.3321929 106.8802963  57.7486380  87.0117293 107.6205774  57.7640989
  83.0226564 114.1825979  53.6273856  83.7177469 114.8032672  53.8461170
  83.3649714 113.3321330  53.9026233  68.6394373 106.0043780  67.4870673
  67.8976109 106.1526415  68.0735303  68.3187117 106.2652045  66.6237422
  84.9217987 111.6325684  55.1561186  85.4469311 111.9712957  54.4310506
  84.8340340 110.6972700  54.9724321  76.5838036 115.5459758  67.2851063
  76.8925162 115.3008905  68.1573763  77.3813518 115.7506397  66.7969933
  76.6058648 117.6997668  59.5156440  76.1663638 117.2074046  60.2089296
  77.3566765 117.1570635  59.2748515  69.0850987 113.8909209  59.5181068
  69.9109007 113.5912980  59.1379711  68.7345039 113.1216831  59.9670856
  74.0532520 113.2435677  61.5878741  73.4312529 112.5806382  61.2880969
  74.7237387 113.2696809  60.9052389  67.2859592 111.8095535  60.4770001
  66.4491500 111.3817709  60.2954002  67.2583237 112.0027978  61.4140792
  74.1257047 101.7217465  71.1811247  74.1745203 102.5979588  70.7989017
  74.6679562 101.1794858  70.6082890  84.6111893 112.2658588  70.4612384
  83.8207437 112.2482727  69.9216884  84.3745248 112.8046882  71.2161421
  84.7309768 109.1151054  67.7745113  84.7807773 108.9501062  68.7160636
  84.6223692 108.2478313  67.3842994  73.6146027 111.7939600  55.0637202
  73.7634147 112.4775065  54.4103875  74.4212470 111.7744690  55.5786657
  82.0213531 105.0981982  69.0904420  82.9223393 104.9588447  68.7988417
  82.0961505 105.2636437  70.0302597  76.3556336 102.4748837  67.9357606
  75.4859645 102.7682403  67.6640194  76.5915816 103.0589282  68.6564870
  86.2327965 111.5347996  68.0187134  85.9412773 111.8977977  68.8550595
  85.6200096 110.8215004  67.8400466  87.4323647 109.1000876  60.5389705
  88.2670539 109.5390680  60.7027265  87.5682776 108.6239529  59.7197950
  84.4815153 106.6580611  66.4867192  84.9569275 106.8508257  65.6786044
  83.5580719 106.7139796  66.2410576  71.3698660 107.8204778  56.0698271
  71.1244702 106.9167108  56.2678481  71.5394574 107.8221928  55.1277749
  79.0595370  98.6928454  65.4523026  79.5777314  99.4289481  65.1269515
  78.7050502  98.9992447  66.2869785  70.6394307 103.5533135  53.5684432
  69.9463552 103.6277490  52.9124468  70.3946059 102.7893479  54.0905949
  79.3107964  95.1128737  60.9723923  79.5909718  94.4451926  61.5984349
  80.0958571  95.3057832  60.4598587  77.1141432 114.2887731  52.5348949
  76.5415399 114.9077918  52.0819421  77.6874226 114.8387092  53.0688871
  83.1816822 103.5346371  64.7195498  84.1334245 103.6344468  64.7407722
  83.0120273 102.7424639  65.2293582  81.2031202 100.6201954  64.9054899
  80.6081134 100.9006967  64.2101388  80.9180898 101.1095855  65.6771640
  80.3338692 114.5724881  53.6657531  81.2669365 114.5070442  53.8690407
  80.2461905 115.4081148  53.2072064  82.9626709 113.8890751  50.6261479
  82.8840340 113.5550615  51.5197237  83.7836376 114.3812519  50.6252951
  85.6604900 106.7552490  63.8337798  85.6281220 105.8168491  64.0197481
  86.2705524 106.8336527  63.1003623  77.4988231 105.6248543  49.8765002
  78.4447336 105.4954751  49.9453420  77.1202476 104.8863205  50.3534430
  85.8099388 103.5463534  63.8796081  85.2938437 102.7621990  63.6926010
  86.6939337 103.2182250  64.0442600  83.4710115  97.2904549  59.8391894
  83.2734937  96.9819638  60.7235225  84.0809821  98.0166188  59.9689823
  91.4781450 107.8168497  62.9743834  92.2084838 107.5553785  63.5351538
  90.8688395 107.0797219  63.0145902  89.5596747 105.9576360  63.5718286
  88.8329911 105.8232325  62.9634777  89.1444034 106.2653188  64.3775004
  77.3826923 109.6766289  71.3365659  78.3029933 109.8544889  71.5305705
  77.3476506 108.7322335  71.1845358  75.6831148 103.5498520  49.8119887
  74.7762603 103.2531632  49.8882601  75.9607129 103.2528338  48.9454173
  66.6009088 104.8704883  60.2618933  66.2811873 104.0170191  59.9693307
  66.0542517 105.0853461  61.0176901  70.3788996 107.5867324  63.9788440
  70.5975006 108.5184432  63.9976474  70.7914770 107.2275299  64.7643244
  77.2993214  98.0935409  55.9664128  76.4893942  97.7482494  56.3419374
  77.9877631  97.7842953  56.5551740  79.2283762  97.1713456  57.5888425
  79.7814801  97.5908910  58.2478448  79.4653848  96.2449204  57.6311381
  75.2516861 103.1600530  73.3691189  75.1513588 104.1094887  73.3003280
  75.0338403 102.8318769  72.4967259  74.4529933 100.4085455  49.9531866
  75.3149097 100.7340353  50.2127683  74.6380277  99.6216951  49.4404932
  66.4697348 108.4907795  62.2312055  65.7760820 108.0761747  61.7182009
  67.2170339 108.5328331  61.6345474  82.6062569  99.2813981  57.0967089
  82.0261238  99.9398785  56.7145142  82.3398502  98.4591326  56.6854507
  81.0566135  98.6819039  59.2988409  81.5565914  98.7935574  58.4902728
  81.7001743  98.3780092  59.9389218  75.1148131 106.5897669  72.1856250
  74.6315213 107.3898029  72.3920139  75.2009070 106.6005614  71.2323694
  68.3834091 108.4226048  60.1078070  68.3604779 108.5213736  59.1559953
  68.6934727 109.2691199  60.4295236  71.0421469 110.4802203  64.2224684
  71.9964722 110.4486146  64.1554616  70.8433992 110.0192827  65.0374910
  71.6320851 109.0503320  66.7895482  72.4513740 109.5447398  66.8130319
  71.9057659 108.1335288  66.7613049  81.3887447 101.4414072  56.1523437
  80.5013302 101.7263722  55.9343632  81.8041436 101.2807835  55.3050714
  84.7401983 101.4660593  59.8677777  85.5162373 101.9557045  60.1402393
  84.0150117 101.8918647  60.3249646  87.1774542 102.1788212  60.9251717
  87.7719033 101.9383948  60.2145025  87.2501126 101.4595343  61.5525254
  69.3971698 116.0221823  61.2394882  69.2626166 115.2622224  60.6732880
  68.9803760 116.7462723  60.7723671  80.5330661 111.2058746  50.2471457
  81.2366511 111.4108749  50.8629113  79.8093309 111.7735508  50.5120541
  81.3628471 106.9568608  56.3673728  81.3063672 107.4137159  55.5281360
  81.9156813 106.1959292  56.1896570  85.1733277 102.7458340  57.1923847
  84.9170211 102.3454975  58.0232055  84.5486145 103.4602134  57.0673986
  89.4845615 105.4854413  59.6995138  88.9245173 105.5547602  60.4726700
  88.8789118 105.3095397  58.9794635  72.5540823 116.9191140  61.4513325
  72.4373208 117.8636572  61.3492015  71.7333270 116.6164702  61.8399124
  82.4417358 111.6441276  52.2969917  83.2762962 111.2122474  52.1147392
  82.2801701 111.4723289  53.2246812  82.0963250 108.1473389  53.6626257
  82.0412054 107.9817660  52.7214701  81.4709305 108.8549422  53.8188446
  66.8855765 103.3841453  67.4887679  67.5314629 102.8740407  67.9774904
  66.6772916 104.1210135  68.0631104  79.4109157 110.4522301  72.9879819
  80.2800317 110.6262953  72.6266454  78.9315909 111.2716718  72.8655549
  75.4059376  97.6481498  53.2411575  75.3938045  98.5923338  53.3979846
  76.2982798  97.4651643  52.9471036  73.5795338 117.5719402  64.6669253
  74.4822584 117.6043012  64.9835748  73.3532708 116.6419853  64.6815589
  75.3348940 116.3250388  61.3279332  74.3844571 116.3252250  61.2143704
  75.6381426 115.5783123  60.8115366  79.2211495  94.2424275  57.4957512
  78.4543891  93.6882761  57.6414194  79.6322200  94.3146143  58.3571664
  71.2253256 100.5309070  71.5862693  72.0884718 100.1745875  71.7966018
  70.6518667 100.1922965  72.2738097  91.0701633 122.1610927  62.3925094
  91.7080043 122.0417674  61.6888434  90.9522476 123.1091771  62.4513046
  87.8791339 122.1138355  62.3286619  87.5409851 121.9979420  61.4407154
  88.7481108 121.7129520  62.3087625  83.7378155 123.9673831  58.3183510
  83.1743020 123.8763768  57.5499798  83.6230550 123.1473736  58.7986002
  88.3611122 123.2673207  68.2872824  88.3499763 122.8726005  67.4153328
  88.5231762 122.5339279  68.8806596  81.2842587 125.4625023  61.1567730
  82.0763879 125.1215848  60.7414030  81.5239237 125.5719998  62.0769884
  83.2433341 124.7233936  54.0285109  84.0164217 124.1762923  53.8897985
  83.5958740 125.5878185  54.2399570  85.0818384 126.0510318  67.2352008
  84.7908250 126.9555949  67.1198675  85.7175368 126.0926846  67.9496078
  86.0074590 123.4287167  63.8253368  86.6038163 123.2043189  63.1110331
  86.0649562 122.6871912  64.4278816  85.5799619 120.8826602  51.6603559
  85.8325139 120.3608124  50.8987022  84.6424178 120.7192748  51.7630243
  90.6242902 119.8862381  59.4678302  91.4105991 119.4681804  59.1168719
  90.8881606 120.7908473  59.6359951  96.0251329 119.8237614  60.3711281
  96.7576501 119.2536831  60.6049110  95.2690684 119.4359214  60.8117786
  85.2995908 122.7854708  53.8627934  85.1832166 122.1099612  54.5309018
  85.4098167 122.2987082  53.0460087  87.6427448 122.2464855  57.5674623
  87.2785656 121.7195476  58.2787545  88.4994564 121.8563324  57.3941109
  93.5476749 113.5359188  64.8305889  93.2160074 114.4054599  64.6067104
  92.9522362 113.2195472  65.5099920  87.2832935 117.2754755  52.5635972
  87.4507338 118.1434991  52.9306443  87.0930104 117.4382037  51.6397261
  83.4920750 122.1885531  60.2638506  82.5671247 122.0561745  60.4716198
  83.7405163 122.9679750  60.7608449  93.4405412 118.2554274  61.9099239
  92.5322290 118.1869683  61.6158000  93.3893008 118.7326219  62.7381065
  87.2622156 119.7312413  53.5482639  87.1421782 120.1769463  54.3868119
  86.5674745 120.0797730  52.9896177  80.8529561 121.8318804  61.0982296
  80.9821942 122.0853283  62.0121707  80.1727012 122.4246512  60.7786951
  87.5146278 119.6743920  69.8534137  86.7379612 120.2337840  69.8437001
  88.1536841 120.1600703  70.3749007  95.3067059 116.4570713  63.6877113
  94.6641439 116.7503246  63.0416908  94.8021987 116.3423633  64.4930310
  92.9607222 120.2033886  54.3762973  93.8725079 120.4361272  54.2010670
  92.4516870 120.7870930  53.8138051  85.7692650 122.4829373  69.4152104
  86.5107335 123.0214417  69.1386927  85.0629636 123.1095662  69.5723655
  91.2447990 124.6258514  68.0124265  91.6531346 124.1840924  67.2678897
  90.5225252 124.0511141  68.2658458  87.5979060 119.5631120  65.3857822
  88.4440255 119.9870534  65.5292471  87.5377698 118.9064745  66.0796385
  90.7478506 117.2235489  67.0438996  90.5039437 117.9777549  66.5073271
  91.0238436 117.6020836  67.8786243  90.3043197 116.3791922  62.6252833
  89.4427676 116.6773175  62.9169571  90.3305632 116.5962321  61.6933866
  87.1204767 124.9234112  59.0326639  87.5843112 125.2021815  58.2431262
  86.8561565 124.0217557  58.8499730  84.0128848 124.4705594  61.9706402
  84.5830205 124.8992862  61.3323887  84.6036960 124.1888178  62.6690588
  86.0573653 121.0457265  55.8416204  86.7597696 121.4978308  56.3090131
  85.7254281 120.4041083  56.4696097  84.5054014 119.6369021  70.2167414
  83.8752675 120.3185302  70.4502810  84.3990102 119.5252103  69.2720552
  79.7998987 119.3040817  61.1433338  79.0098041 119.5598346  60.6673448
  80.2910234 120.1189155  61.2485378  81.7513732 119.6685397  58.1016815
  80.9544895 119.7804091  58.6200310  81.5239324 120.0072049  57.2357705
  87.5819400 126.1930100  66.0499329  87.6463832 126.6550507  66.8857501
  86.8730324 125.5627465  66.1781639  78.0836690 119.5571308  63.5748329
  78.3344728 120.4418318  63.8405905  78.6196238 119.3775909  62.8023420
  83.7834757 113.9389787  72.5792665  83.3901703 113.3855986  73.2540309
  84.6000897 114.2500366  72.9699182  80.7496815 125.3773645  56.4906235
  81.2621335 126.1716896  56.6411799  81.4019528 124.6799936  56.4239836
  82.5591699 128.4939402  58.5728988  82.7358328 129.4157366  58.3849972
  83.3548533 128.1797821  59.0023368  86.7002718 115.3547666  70.1712921
  87.4412431 115.9554819  70.0917384  86.9320641 114.6125304  69.6130964
  81.8444056 120.5404033  68.4491151  81.7297571 119.6389291  68.7498250
  80.9888574 120.7867730  68.0975967  83.6823015 130.0117575  64.5739330
  84.2330440 129.8834639  63.8016324  82.8434491 130.3112464  64.2234223
  87.4790186 126.2768703  68.9183561  88.0118523 125.5156991  68.6882869
  86.9504267 125.9842355  69.6607716  90.6459881 111.3828769  64.4477203
  90.3024150 112.2730411  64.3716314  91.0138843 111.1930427  63.5846788
  78.7145731 123.7062300  57.2665805  79.5520953 124.1159308  57.0499513
  78.8923999 122.7661742  57.2365999  90.6110164 121.3737380  52.9549638
  90.0956787 122.1441985  53.1938025  90.3387472 120.7002516  53.5782699
  88.1957275 116.2187081  58.0134876  87.3398871 115.8293931  57.8340515
  88.6084226 116.2979042  57.1534662  89.7256421 113.7533424  62.4126436
  89.2221217 113.7163559  61.5994241  90.0187028 114.6626167  62.4723093
  85.9699307 113.8372154  61.4192618  86.8352304 113.6414963  61.0598507
  86.0376816 113.6082506  62.3461975  90.3996467 119.2464472  54.7809419
  90.0946602 119.5610622  55.6319562  91.3526909 119.3245892  54.8236752
  88.8442899 125.4054696  56.4302373  88.3164260 124.6707455  56.1175611
  88.3430401 126.1829372  56.1842342  83.5761626 116.0674362  58.7908985
  84.1505378 115.8449543  58.0582178  84.1632609 116.1363056  59.5437586
  92.6341203 121.9548089  59.5973361  93.1473085 122.5878081  60.0995071
  93.2842427 121.3549284  59.2316721  83.9031213 118.0978823  52.8104870
  83.0668526 118.4353510  53.1314145  83.7635983 117.9627803  51.8732007
  85.8784294 112.9415611  57.5184054  85.2248706 112.6264628  56.8940669
  85.8364768 112.3191351  58.2443877  86.9895499 123.2234906  49.4337346
  86.0822561 122.9924159  49.6328495  87.4866531 122.4272525  49.6211328
  89.1122034 119.4297544  61.8431702  88.1944596 119.6512491  61.6853390
  89.5282178 119.5043855  60.9843409  89.8957082 120.8288960  56.9734382
  90.6428901 121.3410357  56.6641504  90.1648672 120.5073013  57.8338776
  88.1683732 123.3247501  53.9561336  87.2594952 123.0406534  54.0533806
  88.1978816 123.7446579  53.0964643  92.3435919 117.8646076  58.9553171
  91.6058676 117.3523463  59.2863414  92.5962693 117.4246458  58.1436448
  92.4447547 110.6422328  59.5494941  92.7506423 109.7819692  59.2620856
  93.1700151 111.2339949  59.3493935  78.7371903 121.0453015  57.9376539
  78.5396302 120.4522376  57.2127605  78.1818567 120.7405225  58.6552477
  86.7168626 120.9376121  60.0571132  86.7717236 119.9849958  59.9813608
  85.9059828 121.0935560  60.5412430  87.8659820 124.8656244  51.2949415
  87.4279250 124.1492103  50.8355052  88.6070261 125.0932359  50.7334506
  84.6560986 119.5553181  57.8161511  83.8428852 119.8547352  58.2226703
  85.1519980 119.1608870  58.5335993  90.2535198 120.0195006  66.6476404
  90.6084586 120.2466479  67.5070870  90.9007329 120.3513382  66.0253660
  84.1475061 117.1271537  63.4322746  84.7874440 116.9860296  62.7345709
  83.3152592 116.8406050  63.0561347  84.9235365 126.4273967  59.5457738
  85.7175963 125.9324287  59.3440313  84.2127057 125.8991830  59.1825444
  81.2318128 120.5717049  55.6217491  80.3015716 120.5101504  55.8387453
  81.3275600 120.0493002  54.8254132  81.1503677 117.0971862  58.2095732
  81.4110495 118.0117195  58.1004893  81.9720850 116.6296304  58.3592345
  82.6228603 118.5109619  65.3794557  83.2951656 118.3026981  64.7307206
  81.7958389 118.3131705  64.9399789  88.5254175 115.1371560  67.3960218
  87.8782090 115.8361509  67.3024694  89.2955190 115.5707704  67.7636466
  88.7018309 122.9752325  65.4557037  89.6310369 123.1263484  65.2826005
  88.2809339 123.0636345  64.6005684  87.5006641 127.0002989  63.2255575
  87.3617727 126.6321773  64.0981513  86.7121237 127.5150628  63.0539533
  89.0511856 126.3784592  60.6144413  88.7161689 126.3385362  61.5102063
  88.5515802 125.7129308  60.1414823  83.0256100 121.7852222  66.1396994
  82.8875898 121.0532461  66.7408533  83.9361023 121.6961122  65.8581182
  91.9871048 123.7240626  50.8881472  91.3700218 122.9987454  50.7914525
  91.5187536 124.4849986  50.5448547  85.6538401 121.4972181  65.6280674
  86.3638019 120.8565373  65.5867292  85.6107709 121.7485076  66.5506854
  84.3667335 118.4837399  67.4476313  83.8304692 118.0328137  68.0997909
  83.7784043 118.6183308  66.7046777  83.7769594 117.9426050  50.0102777
  82.8999060 117.8214851  49.6465023  84.2527347 117.1512129  49.7581665
  75.2971734 122.7303210  60.1044284  75.9842774 122.4164940  59.5165299
  75.1419862 123.6344575  59.8311535  80.1006456 117.6193407  64.5329308
  80.0164645 117.0119076  63.7979718  79.2789162 118.1102425  64.5338804
  90.2730170 116.1046970  59.8999503  90.7698869 115.3516933  59.5800573
  89.5017151 116.1411287  59.3342712  91.3559950 124.8618657  57.4737926
  90.4216229 124.9820120  57.3042630  91.5336619 123.9591124  57.2097936
  86.8565138 118.2464353  59.6271187  86.4862926 117.6935394  60.3152093
  87.3524231 117.6422487  59.0746187  94.7432502 120.7035977  58.0087960
  95.2092954 121.5363968  57.9348263  95.1940002 120.2380958  58.7133219
  84.6854337 128.7061848  66.7226205  85.3863797 129.3398331  66.8755599
  84.2149452 129.0476580  65.9621844  92.7149165 113.0716564  62.0478862
  91.8012244 113.3020791  62.2161068  93.1442266 113.1555008  62.8992894
  92.4855623 121.2606456  64.5478756  91.8327073 121.5082363  63.8931208
  92.8636003 120.4470594  64.2141233  88.5343196 122.0026267  71.0344793
  87.8583833 121.9020396  71.7047168  89.3570830 121.8465480  71.4980790
  80.2822055 128.2398203  63.6557308  80.8675492 127.4941891  63.7885212
  80.0846894 128.5502160  64.5393972  74.8739710 120.8103803  62.3761751
  74.9123809 120.2767394  63.1698869  74.3680003 120.2839009  61.7572728
  82.2530472 115.6568344  65.8724293  82.3171799 116.5183175  65.4601691
  82.1897592 115.0442346  65.1396652  81.7282745 117.7291477  69.5197328
  82.3554783 117.3468554  70.1334852  80.8710664 117.5105678  69.8853020
  78.5048287 119.5367906  55.4515682  78.8001729 118.6278584  55.3982736
  77.6036323 119.5155645  55.1296685  82.0342534 117.6123902  61.4343231
  81.3129120 118.2259870  61.2950704  82.8235790 118.1481667  61.3559877
  84.8368848 114.9478329  67.7083883  85.3603250 115.1940625  68.4710192
  84.6181181 115.7798364  67.2887020  80.2336129 117.2182003  55.5755008
  79.9048835 116.3379382  55.3930114  80.5875500 117.1629672  56.4631397
  83.3477952 117.5054973  55.9430485  83.6874025 118.0340894  55.2209094
  83.7950073 117.8435379  56.7189052  86.0421393 115.8892024  65.3933553
  85.7018213 115.0899837  65.7954233  85.3360399 116.1893735  64.8210387
  86.6937865 112.9741336  63.8460876  87.5163934 112.5001814  63.7239767
  86.9375928 113.7531820  64.3459563  85.3346099 116.0029595  54.1423778
  86.0554462 116.3810847  53.6387495  84.7111403 116.7218472  54.2458756
  89.4777222 116.7074744  55.0782110  89.6940837 117.5899382  54.7770939
  88.9971289 116.3160957  54.3487752  84.2176444 119.6660457  61.6552855
  84.0721024 119.9800760  62.5477136  83.7401647 120.2845357  61.1023754
  86.0772826 116.6563005  61.7033745  86.0634395 115.7604098  61.3666042
  86.7945255 116.6633669  62.3372031  87.9298957 117.0900345  63.7486872
  87.6716735 118.0117416  63.7471202  87.3983998 116.6930780  64.4387336
  78.6922106 122.2065801  64.5940516  78.1475574 122.9825609  64.7260790
  79.5701456 122.5536606  64.4359638  85.4809722 115.5377385  56.9721315
  85.6025634 114.6094031  57.1712202  85.1911765 115.5516071  56.0599630
  88.3500913 113.2232296  60.1088034  88.3722610 113.2871629  59.1540014
  88.7668972 112.3836804  60.3028541  79.4788128 121.3335698  67.4870673
  78.7369864 121.4818333  68.0735303  79.1580872 121.5943963  66.6237422
  79.9244741 129.2201126  59.5181068  80.7502761 128.9204898  59.1379711
  79.5738793 128.4508749  59.9670856  84.8926274 128.5727594  61.5878741
  84.2706284 127.9098300  61.2880969  85.5631141 128.5988726  60.9052389
  78.1253346 127.1387453  60.4770001  77.2885255 126.7109627  60.2954002
  78.0976992 127.3319896  61.4140792  84.9650802 117.0509383  71.1811247
  85.0138957 117.9271505  70.7989017  85.5073316 116.5086776  70.6082890
  84.4539781 127.1231518  55.0637202  84.6027902 127.8066982  54.4103875
  85.2606225 127.1036608  55.5786657  92.8607285 120.4273900  69.0904420
  93.7617148 120.2880365  68.7988417  92.9355260 120.5928355  70.0302597
  87.1950090 117.8040755  67.9357606  86.3253400 118.0974321  67.6640194
  87.4309571 118.3881200  68.6564870  82.2092414 123.1496695  56.0698271
  81.9638456 122.2459025  56.2678481  82.3788329 123.1513846  55.1277749
  89.8989124 114.0220372  65.4523026  90.4171068 114.7581399  65.1269515
  89.5444257 114.3284365  66.2869785  81.4788062 118.8825053  53.5684432
  80.7857307 118.9569408  52.9124468  81.2339814 118.1185397  54.0905949
  90.1501718 110.4420654  60.9723923  90.4303472 109.7743843  61.5984349
  90.9352325 110.6349750  60.4598587  94.0210577 118.8638288  64.7195498
  94.9728000 118.9636386  64.7407722  93.8514027 118.0716557  65.2293582
  92.0424956 115.9493872  64.9054899  91.4474888 116.2298884  64.2101388
  91.7574653 116.4387773  65.6771640  88.3381985 120.9540461  49.8765002
  89.2841090 120.8246669  49.9453420  87.9596230 120.2155123  50.3534430
  96.6493143 118.8755451  63.8796081  96.1332192 118.0913908  63.6926010
  97.5333092 118.5474168  64.0442600  94.3103870 112.6196467  59.8391894
  94.1128691 112.3111555  60.7235225  94.9203575 113.3458106  59.9689823
  88.2220678 125.0058207  71.3365659  89.1423687 125.1836806  71.5305705
  88.1870261 124.0614253  71.1845358  86.5224903 118.8790437  49.8119887
  85.6156358 118.5823550  49.8882601  86.8000884 118.5820256  48.9454173
  77.4402843 120.1996801  60.2618933  77.1205627 119.3462109  59.9693307
  76.8936271 120.4145379  61.0176901  81.2182750 122.9159242  63.9788440
  81.4368760 123.8476350  63.9976474  81.6308524 122.5567216  64.7643244
  88.1386968 113.4227327  55.9664128  87.3287697 113.0774412  56.3419374
  88.8271385 113.1134871  56.5551740  90.0677517 112.5005374  57.5888425
  90.6208555 112.9200827  58.2478448  90.3047603 111.5741122  57.6311381
  86.0910616 118.4892448  73.3691189  85.9907343 119.4386805  73.3003280
  85.8732158 118.1610686  72.4967259  85.2923687 115.7377373  49.9531866
  86.1542851 116.0632271  50.2127683  85.4774031 114.9508869  49.4404932
  77.3091103 123.8199712  62.2312055  76.6154574 123.4053665  61.7182009
  78.0564094 123.8620249  61.6345474  93.4456324 114.6105899  57.0967089
  92.8654993 115.2690703  56.7145142  93.1792256 113.7883244  56.6854507
  91.8959890 114.0110957  59.2988409  92.3959668 114.1227491  58.4902728
  92.5395498 113.7072010  59.9389218  85.9541886 121.9189586  72.1856250
  85.4708968 122.7189947  72.3920139  86.0402825 121.9297531  71.2323694
  79.2227845 123.7517966  60.1078070  79.1998534 123.8505653  59.1559953
  79.5328482 124.5983117  60.4295236  81.8815223 125.8094121  64.2224684
  82.8358477 125.7778063  64.1554616  81.6827747 125.3484745  65.0374910
  82.4714605 124.3795237  66.7895482  83.2907494 124.8739316  66.8130319
  82.7451413 123.4627205  66.7613049  92.2281202 116.7705989  56.1523437
  91.3407057 117.0555640  55.9343632  92.6435191 116.6099753  55.3050714
  95.5795738 116.7952510  59.8677777  96.3556128 117.2848963  60.1402393
  94.8543872 117.2210565  60.3249646  98.0168296 117.5080130  60.9251717
  98.6112787 117.2675866  60.2145025  98.0894880 116.7887260  61.5525254
  92.2022225 122.2860525  56.3673728  92.1457427 122.7429077  55.5281360
  92.7550568 121.5251210  56.1896570  96.0127031 118.0750257  57.1923847
  95.7563966 117.6746893  58.0232055  95.3879899 118.7894051  57.0673986
  92.9357005 123.4765307  53.6626257  92.8805808 123.3109578  52.7214701
  92.3103060 124.1841340  53.8188446  77.7249520 118.7133371  67.4887679
  78.3708383 118.2032325  67.9774904  77.5166671 119.4502053  68.0631104
  86.2453130 112.9773416  53.2411575  86.2331800 113.9215256  53.3979846
  87.1376552 112.7943561  52.9471036  90.0605250 109.5716192  57.4957512
  89.2937645 109.0174679  57.6414194  90.4715955 109.6438061  58.3571664
  82.0647011 115.8600988  71.5862693  82.9278472 115.5037793  71.7966018
  81.4912421 115.5214883  72.2738097  26.0339107   7.1921543  49.1170401
  26.6717517   7.0728291  48.4133741  25.9159950   8.1402387  49.1758353
  22.8428814   7.1448971  49.0531926  22.5047325   7.0290036  48.1652460
  23.7118582   6.7440137  49.0332932  18.7015629   8.9984448  45.0428816
  18.1380495   8.9074385  44.2745104  18.5868024   8.1784352  45.5231309
  23.3248597   8.2983823  55.0118131  23.3137237   7.9036621  54.1398635
  23.4869236   7.5649896  55.6051902  16.2480061  10.4935639  47.8813037
  17.0401353  10.1526464  47.4659336  16.4876711  10.6030615  48.8015190
  24.2815188  12.6655416  40.3543281  23.6303168  13.2509496  39.9677295
  25.0759551  13.1961610  40.4138319  18.2070815   9.7544553  40.7530416
  18.9801691   9.2073540  40.6143292  18.5596214  10.6188802  40.9644877
  20.0455858  11.0820935  53.9597315  19.7545724  11.9866566  53.8443981
  20.6812842  11.1237463  54.6741385  20.9712065   8.4597783  50.5498675
  21.5675637   8.2353806  49.8355638  21.0287036   7.7182529  51.1524123
  20.5437093   5.9137219  38.3848866  20.7962614   5.3918740  37.6232329
  19.6061652   5.7503364  38.4875549  25.5880376   4.9172997  46.1923609
  26.3743465   4.4992420  45.8414026  25.8519080   5.8219089  46.3605257
  25.7590453  10.3545847  40.8912266  25.1236286  10.4280474  41.6033170
  25.4287860  10.9439446  40.2131345  30.9888803   4.8548230  47.0956587
  31.7213975   4.2847447  47.3294417  30.2328159   4.4669831  47.5363093
  20.2633382   7.8165325  40.5873241  20.1469640   7.1410228  41.2554325
  20.3735642   7.3297699  39.7705394  22.6064923   7.2775472  44.2919930
  22.2423130   6.7506093  45.0032851  23.4632039   6.8873941  44.1186415
  25.0045743  10.7682350  50.9547109  24.7046466  11.6707389  50.8462916
  24.6596802  10.5014534  51.8068262  18.4558224   7.2196147  46.9883813
  17.5308721   7.0872361  47.1961505  18.7042638   7.9990367  47.4853756
  28.4042887   3.2864891  48.6344546  27.4959764   3.2180299  48.3403307
  28.3530483   3.7636836  49.4626372  22.2259631   4.7623029  40.2727945
  22.1059256   5.2080080  41.1113425  21.5312219   5.1108347  39.7141483
  19.9866523  17.5326671  43.9218076  19.9090552  18.4834496  44.0006557
  19.3828166  17.1872543  44.5793003  22.4783752   4.7054536  56.5779443
  21.7017087   5.2648456  56.5682308  23.1174316   5.1911319  57.0994313
  30.2704533   1.4881329  50.4122420  29.6278913   1.7813862  49.7662215
  29.7659462   1.3734249  51.2175617  27.9244697   5.2344502  41.1008279
  28.8362553   5.4671889  40.9255977  27.4154344   5.8181546  40.5383358
  20.7330125   7.5139990  56.1397410  21.4744809   8.0525034  55.8632234
  20.0267110   8.1406278  56.2968962  26.2085464   9.6569130  54.7369572
  26.6168820   9.2151541  53.9924204  25.4862726   9.0821758  54.9903765
  22.5616534   4.5941737  52.1103129  23.4077730   5.0181150  52.2537778
  22.5015172   3.9375361  52.8041692  26.5314279  10.2170321  48.4921861
  25.9023142  10.3816035  47.7897929  26.1439941  10.6311930  49.2632825
  30.4103511  11.1524759  45.8466224  29.7254549  11.5323660  45.2963258
  30.4947360  11.7620085  46.5798172  25.7115980   2.2546105  53.7684302
  25.4676912   3.0088166  53.2318578  25.9875910   2.6331453  54.6031549
  27.6654443   8.7984718  52.4461568  27.8771338   9.4416477  51.7695949
  27.6184191   7.9647034  51.9783498  25.2680672   1.4102538  49.3498140
  24.4065151   1.7083792  49.6414878  25.2943106   1.6272937  48.4179173
  22.0842241   9.9544729  45.7571946  22.5480586  10.2332432  44.9676568
  21.8199039   9.0528173  45.5745036  18.9766322   9.5016210  48.6951709
  19.5467679   9.9303479  48.0569194  19.5674434   9.2198795  49.3935895
  21.0211127   6.0767881  42.5661511  21.7235170   6.5288925  43.0335437
  20.6891756   5.4351700  43.1941404  28.7800271  11.6756673  50.6183925
  29.6017714  11.2736860  50.3366607  28.7762673  11.5724907  51.5700041
  22.5456874  11.2240716  52.7744636  22.6101306  11.6861124  53.6102808
  21.8367798  10.5938081  52.9026946  36.8706264   8.0195421  46.9668897
  36.1169972   7.4502820  46.8112901  37.0053805   7.9858086  47.9139531
  22.2604892  12.8908824  42.6423616  22.1250566  13.7360360  43.0708464
  22.8014704  13.0928101  41.8789550  15.7134289  10.4084262  43.2151541
  16.2258810  11.2027512  43.3657106  16.3657002   9.7110552  43.1485143
  17.5229174  13.5250018  45.2974294  17.6995802  14.4467983  45.1095278
  18.3186007  13.2108437  45.7268674  23.8873368  13.5132390  56.7723958
  23.4437222  12.7268769  56.4544863  24.5490582  13.7011541  56.1067849
  18.6460489  15.0428192  51.2984637  19.1967914  14.9145255  50.5261631
  17.8071965  15.3423081  50.9479530  25.9854606  13.7935190  54.8005359
  25.9673081  14.6144071  54.3085629  26.9074526  13.6689265  55.0255501
  22.4427660  11.3079320  55.6428868  22.9755997  10.5467608  55.4128176
  21.9141741  11.0152972  56.3853022  25.5747638   6.4047997  39.6794945
  25.0594261   7.1752601  39.9183332  25.3024946   5.7313133  40.3028006
  30.5481912   9.1580351  41.6148118  29.7711355   8.8191511  41.1703280
  31.2273393   9.1632975  40.9403083  25.3633941   4.2775089  41.5054726
  25.0584077   4.5921238  42.3564869  26.3164383   4.3556509  41.5482059
  23.8080373  10.4365312  43.1547680  23.2801735   9.7018072  42.8420917
  23.3067876  11.2139989  42.9087648  28.7873219   8.6314333  48.2714726
  28.1296893   9.3213594  48.3594855  29.5913618   9.0210765  48.6148713
  27.5978678   6.9858705  46.3218668  28.1110560   7.6188697  46.8240378
  28.2479902   6.3859901  45.9562028  21.9532973   8.2545522  36.1582653
  21.0460035   8.0234776  36.3573802  22.4504005   7.4583142  36.3456634
  24.8601052  16.9643030  39.0779339  24.1862751  17.2674726  39.6864297
  25.2466874  17.7672110  38.7284796  24.0759509   4.4608161  48.5677008
  23.1582070   4.6823108  48.4098696  24.4919652   4.5354471  47.7088716
  24.8594556   5.8599577  43.6979689  25.6066375   6.3720974  43.3886811
  25.1286146   5.5383629  44.5584082  23.1321207   8.3558117  40.6806643
  22.2232426   8.0717150  40.7779113  23.1616290   8.7757196  39.8209950
  28.3640474  11.9664707  44.4497811  27.9102801  11.1255617  44.5063001
  27.7334441  12.6026105  44.7872591  27.3073394   2.8956693  45.6798478
  26.5696150   2.3834079  46.0108721  27.5600167   2.4557074  44.8681755
  26.8073413  13.8041204  45.3847629  27.0996388  14.3646261  44.6659994
  27.3172034  14.0969765  46.1400788  21.6806101   5.9686738  46.7816438
  21.7354710   5.0160574  46.7058915  20.8697303   6.1246177  47.2657737
  22.8297294   9.8966861  38.0194722  22.3916724   9.1802720  37.5600359
  23.5707735  10.1242976  37.4579813  21.7707038  14.5821555  46.4741082
  21.7283217  14.8082401  45.5449614  22.6869737  14.3484929  46.6226883
  25.2172672   5.0505622  53.3721711  25.5722060   5.2777095  54.2316177
  25.8644803   5.3823999  52.7498966  30.9470409   8.1724058  44.0771040
  30.8088308   8.3625654  43.1492229  30.5906628   8.9343441  44.5339091
  30.9739789  10.2400585  49.0882312  31.4076295  10.1475874  49.9365366
  31.6871369  10.2158086  48.4502328  19.8872839  11.4584584  46.2703045
  20.6813438  10.9634904  46.0685620  19.1764532  10.9302447  45.9070750
  24.7067684  13.8402679  50.6215412  24.7604706  14.4093615  51.3893128
  23.8382465  14.0104564  50.2569449  31.8355338  10.2824286  51.6215197
  32.0291228  11.1870096  51.8674472  31.7355956   9.8231705  52.4553782
  26.8970447  10.4331028  57.1956078  26.7455953  10.2041580  56.2786161
  26.8875126  11.3901630  57.2087423  23.6655783   8.0062941  52.1802344
  24.5947843   8.1574101  52.0071311  23.2446813   8.0946962  51.3250991
  22.4644115  12.0313606  49.9500882  22.3255201  11.6632390  50.8226820
  21.6758711  12.5461245  49.7784839  23.0592267  17.1322702  41.2926418
  23.2344023  16.6610745  42.1072041  22.3725055  17.7588468  41.5207679
  24.0149330  11.4095208  47.3389719  23.6799163  11.3695978  48.2347369
  23.5153276  10.7439924  46.8660130  17.9893574   6.8162838  52.8642301
  17.8513372   6.0843077  53.4653840  18.8998498   6.7271738  52.5826488
  26.9508522   8.7551243  37.6126779  26.3337693   8.0298071  37.5159832
  26.4825010   9.5160603  37.2693853  20.6175875   6.5282798  52.3525980
  21.3275493   5.8875990  52.3112599  20.5745183   6.7795692  53.2752161
  28.6062654  13.4650151  55.2732559  28.5475200  12.7809371  54.6063143
  29.0082172  14.2069141  54.8213185  17.6253352  20.2812065  48.0666278
  17.8649951  20.9130589  48.7445297  16.7822549  19.9300105  48.3531638
  28.6080061  11.4289735  53.5046539  27.7206840  11.0915657  53.6272938
  29.1778612  10.6972766  53.7415305  22.1381214  16.0891187  50.4707782
  22.0651386  16.8946159  50.9827087  21.6958607  16.2883153  49.6455804
  21.9270994  15.3262957  43.9810604  21.1438516  15.8684637  44.0748828
  22.6263739  15.8436937  44.3804845  25.2367644   1.1357587  46.6244809
  25.7336344   0.3827549  46.3045880  24.4654626   1.1721903  46.0588019
  33.0897401   6.8397952  48.2663101  33.0787278   7.7222668  47.8957034
  32.2214781   6.4869503  48.0717638  24.5979898  15.9878021  52.6265941
  25.3107870  16.6225486  52.5541842  24.1069926  16.0841887  51.8105943
  26.3197425   9.8929274  44.1983233  25.3853703  10.0130736  44.0287937
  26.4974093   8.9901741  43.9343243  29.7069976   5.7346593  44.7333267
  30.1730428   6.5674585  44.6593570  30.1577477   5.2691575  45.4378525
  19.6491811  13.7372465  53.4471512  20.3501271  14.3708948  53.6000906
  19.1786926  14.0787196  52.6867151  27.7746207  12.0790415  41.7319419
  28.0506051  11.9647009  42.6413293  26.9050706  11.6807899  41.6931592
  27.4493097   6.2917072  51.2724062  26.7964548   6.5392980  50.6176515
  27.8273477   5.4781210  50.9386539  24.4100271  16.3276765  45.3752233
  24.5922666  15.5098421  45.8379985  25.2333257  16.5444458  44.9377122
  24.7442437  15.2544951  42.6367281  25.2730203  14.7437405  42.0237443
  25.0070656  14.9387481  43.5012814  23.4980670   7.0336883  57.7590099
  22.8221307   6.9331013  58.4292475  24.3208304   6.8776097  58.2226097
  15.2459529  13.2708820  50.3802615  15.8312966  12.5252508  50.5130519
  15.0484368  13.5812777  51.2639278  18.0998185  16.3060067  45.3965057
  17.4308560  16.7906195  44.9129097  17.9611054  16.5529288  46.3108435
  22.2403453  18.3403811  51.9947715  22.7921761  18.5035432  52.7596801
  22.5809647  18.9308249  51.3227740  27.0914328  13.1665068  57.8496370
  27.6354232  13.7795027  57.3551325  26.5101172  13.7244647  58.3663383
  25.3771840  16.2885786  48.9811397  25.2522980  15.4875526  48.4722343
  26.0350932  16.7831980  48.4925367  27.4406749  14.0894806  50.6090948
  26.4937084  13.9700158  50.5369274  27.7889522  13.2017304  50.6917209
  24.4453182  13.8847523  46.8095300  24.2978145  12.9564230  46.9902870
  25.2706676  13.9067613  46.3252375  28.0487304  14.7076081  47.8960173
  28.9733851  14.5018943  47.7584624  27.8802607  14.4592482  48.8049514
  27.8382620  15.2261749  43.2522264  28.0119498  14.6608171  42.4996116
  28.3311511  16.0262644  43.0701754  33.6922011   7.9898172  44.8712564
  34.1353157   7.2405497  44.4731687  32.8148522   7.9808308  44.4886296
  28.8257793  14.5428513  40.3519162  29.5208697  15.1635206  40.5706477
  29.1680943  13.6923864  40.6271540  30.7249216  11.9928219  41.8806493
  31.2500540  12.3315491  41.1555813  30.6371568  11.0575234  41.6969628
  22.3869265  15.9062292  54.0096370  22.6956391  15.6611439  54.8819069
  23.1844747  16.1108931  53.5215240  22.4089877  18.0600202  46.2401746
  21.9694867  17.5676581  46.9334603  23.1597994  17.5173170  45.9993821
  14.8882216  14.2511743  46.2426374  15.7140235  13.9515515  45.8625018
  14.5376268  13.4819365  46.6916163  19.8563749  13.6038211  48.3124048
  19.2343758  12.9408916  48.0126276  20.5268616  13.6299343  47.6297696
  13.0890821  12.1698069  47.2015308  12.2522729  11.7420244  47.0199309
  13.0614466  12.3630513  48.1386099  30.4143122  12.6261122  57.1857691
  29.6238666  12.6085261  56.6462190  30.1776476  13.1649416  57.9406728
  30.5340997   9.4753589  54.4990420  30.5839002   9.3103596  55.4405942
  30.4254920   8.6080848  54.1088300  19.4177256  12.1542134  41.7882508
  19.5665376  12.8377599  41.1349181  20.2243699  12.1347224  42.3031964
  27.8244759   5.4584517  55.8149726  28.7254622   5.3190982  55.5233724
  27.8992734   5.6238972  56.7547904  32.0359194  11.8950530  54.7432441
  31.7444002  12.2580511  55.5795902  31.4231325  11.1817538  54.5645773
  33.2354876   9.4603410  47.2635011  34.0701767   9.8993214  47.4272572
  33.3714005   8.9842063  46.4443257  30.2846382   7.0183145  53.2112499
  30.7600504   7.2110791  52.4031350  29.3611947   7.0742331  52.9655883
  17.1729889   8.1807312  42.7943577  16.9275931   7.2769642  42.9923787
  17.3425803   8.1824462  41.8523055  22.9172661  14.6490265  39.2594256
  22.3446628  15.2680452  38.8064728  23.4905455  15.1989627  39.7934178
  28.9848051   3.8948905  51.4440805  29.9365474   3.9947003  51.4653029
  28.8151501   3.1027173  51.9538889  27.0062430   0.9804488  51.6300206
  26.4112363   1.2609501  50.9346694  26.7212127   1.4698389  52.4016947
  26.1369921  14.9327415  40.3902838  27.0700594  14.8672977  40.5935714
  26.0493134  15.7683682  39.9317371  28.7657938  14.2493285  37.3506786
  28.6871569  13.9153149  38.2442544  29.5867604  14.7415053  37.3498258
  31.4636129   7.1155025  50.5583104  31.4312449   6.1771025  50.7442788
  32.0736752   7.1939061  49.8248929  23.3019460   5.9851078  36.6010308
  24.2478564   5.8557286  36.6698726  22.9233705   5.2465739  37.0779737
  31.6130617   3.9066068  50.6041387  31.0969666   3.1224525  50.4171316
  32.4970566   3.5784785  50.7687907  37.2812679   8.1771031  49.6989141
  38.0116067   7.9156320  50.2596844  36.6719624   7.4399753  49.7391209
  35.3627976   6.3178894  50.2963592  34.6361139   6.1834859  49.6880084
  34.9475263   6.6255723  51.1020310  23.1858152  10.0368824  58.0610965
  24.1061162  10.2147423  58.2551012  23.1507735   9.0924869  57.9090665
  16.1820225   7.9469858  50.7033746  16.4006235   8.8786966  50.7221780
  16.5945999   7.5877833  51.4888550  28.4093798  -0.3583484  43.8212396
  27.8292467   0.3001320  43.4390448  28.1429731  -1.1806140  43.4099813
  20.9179360   6.9500203  58.9101557  20.4346442   7.7500563  59.1165446
  21.0040299   6.9608148  57.9569001  14.1865320   8.7828583  46.8323376
  14.1636008   8.8816270  45.8805260  14.4965956   9.6293733  47.1540543
  16.8452698  10.8404738  50.9469991  17.7995951  10.8088680  50.8799922
  16.6465221  10.3795361  51.7620217  17.4352080   9.4105854  53.5140789
  18.2544969   9.9049932  53.5375626  17.7088887   8.4937822  53.4858356
  27.1918676   1.8016606  42.8768744  26.3044531   2.0866257  42.6588939
  27.6072665   1.6410369  42.0296021  30.5433212   1.8263127  46.5923083
  31.3193602   2.3159579  46.8647700  29.8181346   2.2521181  47.0494953
  32.9805771   2.5390746  47.6497024  33.5750262   2.2986482  46.9390332
  33.0532354   1.8197877  48.2770560  15.2002926  16.3824357  47.9640189
  15.0657394  15.6224758  47.3978187  14.7834989  17.1065257  47.4968978
  26.3361889  11.5661281  36.9716764  27.0397740  11.7711283  37.5874420
  25.6124538  12.1338043  37.2365848  27.1659700   7.3171142  43.0919034
  27.1094901   7.7739693  42.2526667  27.7188042   6.5561827  42.9141877
  30.9764506   3.1060874  43.9169154  30.7201440   2.7057509  44.7477361
  30.3517374   3.8204668  43.7919293  35.2876843   5.8456947  46.4240445
  34.7276401   5.9150136  47.1972007  34.6820347   5.6697932  45.7039941
  18.3572052  17.2793674  48.1758631  18.2404436  18.2239107  48.0737322
  17.5364499  16.9767236  48.5644431  28.2448587  12.0043810  39.0215224
  29.0794191  11.5725008  38.8392699  28.0832930  11.8325824  39.9492119
  27.8994479   8.5075923  40.3871563  27.8443283   8.3420195  39.4460007
  27.2740534   9.2151956  40.5433753  25.2140386  10.8124835  59.7125126
  26.0831546  10.9865487  59.3511761  24.7347138  11.6319252  59.5900855
  19.3826566  17.9321936  51.3914560  20.2853813  17.9645546  51.7081055
  19.1563936  17.0022387  51.4060896  21.1380168  16.6852923  48.0524638
  20.1875799  16.6854784  47.9389011  21.4412655  15.9385657  47.5360673
  36.8732862  22.5213461  49.1170401  37.5111272  22.4020208  48.4133741
  36.7553705  23.4694305  49.1758353  33.6822568  22.4740889  49.0531926
  33.3441080  22.3581954  48.1652460  34.5512336  22.0732054  49.0332932
  29.5409384  24.3276366  45.0428816  28.9774249  24.2366302  44.2745104
  29.4261779  23.5076270  45.5231309  34.1642351  23.6275741  55.0118131
  34.1530992  23.2328539  54.1398635  34.3262991  22.8941813  55.6051902
  27.0873816  25.8227557  47.8813037  27.8795108  25.4818382  47.4659336
  27.3270466  25.9322532  48.8015190  35.1208943  27.9947333  40.3543281
  34.4696922  28.5801414  39.9677295  35.9153305  28.5253528  40.4138319
  29.0464570  25.0836470  40.7530416  29.8195446  24.5365457  40.6143292
  29.3989969  25.9480720  40.9644877  30.8849612  26.4112853  53.9597315
  30.5939478  27.3158483  53.8443981  31.5206597  26.4529380  54.6741385
  31.8105819  23.7889701  50.5498675  32.4069391  23.5645724  49.8355638
  31.8680791  23.0474447  51.1524123  31.3830848  21.2429137  38.3848866
  31.6356368  20.7210658  37.6232329  30.4455407  21.0795282  38.4875549
  36.4274130  20.2464915  46.1923609  37.2137220  19.8284338  45.8414026
  36.6912835  21.1511007  46.3605257  36.5984208  25.6837765  40.8912266
  35.9630041  25.7572392  41.6033170  36.2681614  26.2731364  40.2131345
  41.8282558  20.1840148  47.0956587  42.5607729  19.6139365  47.3294417
  41.0721913  19.7961749  47.5363093  31.1027136  23.1457242  40.5873241
  30.9863394  22.4702146  41.2554325  31.2129396  22.6589616  39.7705394
  33.4458677  22.6067390  44.2919930  33.0816884  22.0798011  45.0032851
  34.3025793  22.2165859  44.1186415  39.3507978  13.8961722  51.5551196
  39.0191303  14.7657133  51.3312411  38.7553591  13.5798006  52.2345226
  33.0864164  17.6357289  39.2881278  33.2538567  18.5037526  39.6551749
  32.8961333  17.7984571  38.3642568  35.8439497  26.0974268  50.9547109
  35.5440221  26.9999307  50.8462916  35.4990557  25.8306451  51.8068262
  29.2951979  22.5488065  46.9883813  28.3702475  22.4164279  47.1961505
  29.5436392  23.3282284  47.4853756  39.2436641  18.6156808  48.6344546
  38.3353519  18.5472217  48.3403307  39.1924237  19.0928753  49.4626372
  33.0653385  20.0914947  40.2727945  32.9453010  20.5371998  41.1113425
  32.3705973  20.4400264  39.7141483  26.6560790  22.1921339  47.8227602
  26.7853171  22.4455817  48.7367014  25.9758241  22.7849047  47.5032257
  30.8260277  32.8618589  43.9218076  30.7484307  33.8126414  44.0006557
  30.2221921  32.5164461  44.5793003  33.3177507  20.0346454  56.5779443
  32.5410841  20.5940374  56.5682308  33.9568070  20.5203237  57.0994313
  41.1098288  16.8173247  50.4122420  40.4672668  17.1105780  49.7662215
  40.6053216  16.7026167  51.2175617  38.7638451  20.5636420  41.1008279
  39.6756307  20.7963807  40.9255977  38.2548098  21.1473464  40.5383358
  31.5723879  22.8431907  56.1397410  32.3138564  23.3816951  55.8632234
  30.8660865  23.4698196  56.2968962  37.0479219  24.9861048  54.7369572
  37.4562575  24.5443458  53.9924204  36.3256480  24.4113675  54.9903765
  33.4010289  19.9233655  52.1103129  34.2471484  20.3473068  52.2537778
  33.3408927  19.2667279  52.8041692  37.3708034  25.5462238  48.4921861
  36.7416896  25.7107953  47.7897929  36.9833696  25.9603848  49.2632825
  41.2497265  26.4816676  45.8466224  40.5648304  26.8615578  45.2963258
  41.3341115  27.0912003  46.5798172  36.5509734  17.5838023  53.7684302
  36.3070666  18.3380083  53.2318578  36.8269665  17.9623370  54.6031549
  38.5048197  24.1276635  52.4461568  38.7165092  24.7708395  51.7695949
  38.4577945  23.2938952  51.9783498  36.1074426  16.7394456  49.3498140
  35.2458905  17.0375709  49.6414878  36.1336861  16.9564855  48.4179173
  32.9235995  25.2836646  45.7571946  33.3874341  25.5624349  44.9676568
  32.6592794  24.3820091  45.5745036  29.8160077  24.8308128  48.6951709
  30.3861434  25.2595396  48.0569194  30.4068188  24.5490713  49.3935895
  31.8604882  21.4059799  42.5661511  32.5628925  21.8580843  43.0335437
  31.5285510  20.7643618  43.1941404  30.3085243  19.9971555  56.9412720
  29.6783904  20.6787836  57.1748117  30.2021331  19.8854637  55.9965859
  25.6030215  19.6643352  47.8678644  24.8129269  19.9200880  47.3918755
  26.0941463  20.4791689  47.9730685  39.6194025  27.0048591  50.6183925
  40.4411469  26.6028778  50.3366607  39.6156428  26.9016825  51.5700041
  27.5544961  20.0287931  44.8262121  26.7576124  20.1406625  45.3445617
  27.3270553  20.3674583  43.9603012  33.3850628  26.5532634  52.7744636
  33.4495061  27.0153041  53.6102808  32.6761552  25.9229999  52.9026946
  23.8867918  19.9173842  50.2993635  24.1375957  20.8020852  50.5651211
  24.4227467  19.7378443  49.5268727  47.7100018  23.3487339  46.9668897
  46.9563726  22.7794737  46.8112901  47.8447559  23.3150004  47.9139531
  33.0998646  28.2200741  42.6423616  32.9644321  29.0652277  43.0708464
  33.6408459  28.4220019  41.8789550  29.5865986  14.2992321  59.3037971
  29.1932931  13.7458520  59.9785616  30.4032126  14.6102900  59.6944489
  26.5528044  25.7376180  43.2151541  27.0652564  26.5319430  43.3657106
  27.2050756  25.0402470  43.1485143  28.3622928  28.8541936  45.2974294
  28.5389557  29.7759900  45.1095278  29.1579762  28.5400355  45.7268674
  32.5033947  15.7150200  56.8958228  33.2443660  16.3157354  56.8162690
  32.7351870  14.9727838  56.3376270  27.6475285  20.9006568  55.1736458
  27.5328800  19.9991825  55.4743556  26.7919803  21.1470264  54.8221274
  34.7267123  28.8424308  56.7723958  34.2830977  28.0560687  56.4544863
  35.3884336  29.0303458  56.1067849  29.4854244  30.3720110  51.2984637
  30.0361669  30.2437173  50.5261631  28.6465720  30.6714999  50.9479530
  36.8248361  29.1227108  54.8005359  36.8066836  29.9435989  54.3085629
  37.7468281  28.9981183  55.0255501  33.2821415  26.6371237  55.6428868
  33.8149752  25.8759526  55.4128176  32.7535496  26.3444889  56.3853022
  36.4491110  11.7431303  51.1722510  36.1055379  12.6332945  51.0961620
  36.8170072  11.5532961  50.3092095  24.5176960  24.0664834  43.9911112
  25.3552182  24.4761842  43.7744819  24.6955228  23.1264276  43.9611306
  36.4141392  21.7339914  39.6794945  35.8988016  22.5044519  39.9183332
  36.1418701  21.0605051  40.3028006  33.9988503  16.5789615  44.7380183
  33.1430100  16.1896466  44.5585822  34.4115455  16.6581576  43.8779969
  35.5287650  14.1135959  49.1371743  35.0252446  14.0766094  48.3239548
  35.8218257  15.0228701  49.1968399  31.7730536  14.1974688  48.1437925
  32.6383533  14.0017497  47.7843814  31.8408045  13.9685040  49.0707281
  41.3875667  24.4872269  41.6148118  40.6105109  24.1483429  41.1703280
  42.0667148  24.4924892  40.9403083  36.2027696  19.6067007  41.5054726
  35.8977831  19.9213156  42.3564869  37.1558138  19.6848426  41.5482059
  34.6474127  25.7657230  43.1547680  34.1195489  25.0309989  42.8420917
  34.1461630  26.5431906  42.9087648  39.6266973  23.9606250  48.2714726
  38.9690648  24.6505512  48.3594855  40.4307373  24.3502682  48.6148713
  29.3792855  16.4276896  45.5154291  29.9536607  16.2052078  44.7827484
  29.9663837  16.4965591  46.2682893  38.4372432  22.3150623  46.3218668
  38.9504314  22.9480615  46.8240378  39.0873656  21.7151819  45.9562028
  29.7062442  18.4581357  39.5350177  28.8699754  18.7956044  39.8559451
  29.5667212  18.3230337  38.5977314  31.6815523  13.3018145  44.2429361
  31.0279935  12.9867162  43.6185976  31.6395997  12.6793886  44.9689184
  32.7926728  23.5837440  36.1582653  31.8853789  23.3526694  36.3573802
  33.2897760  22.7875059  36.3456634  35.6994806  32.2934947  39.0779339
  35.0256505  32.5966644  39.6864297  36.0860628  33.0964028  38.7284796
  34.9153263  19.7900079  48.5677008  33.9975824  20.0115026  48.4098696
  35.3313407  19.8646389  47.7088716  35.6988311  21.1891494  43.6979689
  36.4460130  21.7012891  43.3886811  35.9679900  20.8675547  44.5584082
  33.9714961  23.6850035  40.6806643  33.0626180  23.4009068  40.7779113
  34.0010045  24.1049114  39.8209950  39.2034228  27.2956624  44.4497811
  38.7496556  26.4547534  44.5063001  38.5728195  27.9318023  44.7872591
  38.1467148  18.2248611  45.6798478  37.4089905  17.7125997  46.0108721
  38.3993922  17.7848992  44.8681755  37.6467168  29.1333121  45.3847629
  37.9390142  29.6938178  44.6659994  38.1565788  29.4261682  46.1400788
  38.2478775  11.0024863  46.2740247  38.5537652  10.1422226  45.9866162
  38.9731380  11.5942483  46.0739241  24.5403131  21.4055549  44.6621845
  24.3427531  20.8124910  43.9372912  23.9849795  21.1007759  45.3797784
  32.5199855  21.2978656  46.7816438  32.5748465  20.3452492  46.7058915
  31.7091057  21.4538095  47.2657737  33.6691049  25.2258779  38.0194722
  33.2310479  24.5094638  37.5600359  34.4101490  25.4534893  37.4579813
  30.4592215  19.9155715  44.5406817  29.6460081  20.2149886  44.9472009
  30.9551209  19.5211404  45.2581299  32.6100793  29.9113472  46.4741082
  32.5676972  30.1374319  45.5449614  33.5263492  29.6776847  46.6226883
  36.0566427  20.3797540  53.3721711  36.4115814  20.6069013  54.2316177
  36.7038558  20.7115917  52.7498966  41.7864164  23.5015976  44.0771040
  41.6482062  23.6917572  43.1492229  41.4300382  24.2635359  44.5339091
  29.9506290  17.4874071  50.1568052  30.5905669  17.3462830  49.4591015
  29.1183820  17.2008584  49.7806654  41.8133543  25.5692503  49.0882312
  42.2470050  25.4767792  49.9365366  42.5265124  25.5450003  48.4502328
  30.7266594  26.7876501  46.2703045  31.5207192  26.2926821  46.0685620
  30.0158286  26.2594364  45.9070750  35.5461438  29.1694597  50.6215412
  35.5998460  29.7385533  51.3893128  34.6776220  29.3396482  50.2569449
  27.0349357  20.9319583  42.3462797  26.1046945  20.8704039  42.5632759
  27.1306829  20.4095536  41.5499439  26.9534906  17.4574396  44.9341039
  27.2141723  18.3719729  44.8250199  27.7752079  16.9898838  45.0837652
  28.4259832  18.8712153  52.1039863  29.0982885  18.6629515  51.4552512
  27.5989618  18.6734239  51.6645096  42.6749093  25.6116203  51.6215197
  42.8684983  26.5162014  51.8674472  42.5749711  25.1523622  52.4553782
  34.3285404  15.4974094  54.1205524  33.6813319  16.1964044  54.0270001
  35.0986419  15.9310238  54.4881773  37.7364201  25.7622946  57.1956078
  37.5849708  25.5333498  56.2786161  37.7268881  26.7193548  57.2087423
  34.5049538  23.3354859  52.1802344  35.4341598  23.4866018  52.0071311
  34.0840568  23.4238880  51.3250991  33.3037870  27.3605523  49.9500882
  33.1648955  26.9924308  50.8226820  32.5152466  27.8753163  49.7784839
  33.8986022  32.4614620  41.2926418  34.0737777  31.9902663  42.1072041
  33.2118810  33.0880386  41.5207679  34.8543085  26.7387126  47.3389719
  34.5192917  26.6987896  48.2347369  34.3547030  26.0731842  46.8660130
  28.8287329  22.1454756  52.8642301  28.6907127  21.4134995  53.4653840
  29.7392252  22.0563656  52.5826488  37.7902276  24.0843160  37.6126779
  37.1731447  23.3589988  37.5159832  37.3218765  24.8452521  37.2693853
  31.4569629  21.8574715  52.3525980  32.1669248  21.2167908  52.3112599
  31.4138938  22.1087610  53.2752161  39.4456408  28.7942069  55.2732559
  39.3868954  28.1101289  54.6063143  39.8475927  29.5361059  54.8213185
  30.1698563  18.8439933  54.1721620  29.6335920  18.3930672  54.8243216
  29.5815272  18.9785842  53.4292084  28.4647107  35.6103983  48.0666278
  28.7043705  36.2422507  48.7445297  27.6216303  35.2592023  48.3531638
  29.5800822  18.3028585  36.7348083  28.7030289  18.1817385  36.3710330
  30.0558575  17.5114663  36.4826972  39.4473815  26.7581653  53.5046539
  38.5600594  26.4207574  53.6272938  40.0172366  26.0264684  53.7415305
  21.1002963  23.0905744  46.8289591  21.7874002  22.7767474  46.2410606
  20.9451091  23.9947109  46.5556842  25.9037685  17.9795941  51.2574614
  25.8195873  17.3721610  50.5225024  25.0820391  18.4704959  51.2584111
  32.9774969  31.4183105  50.4707782  32.9045140  32.2238076  50.9827087
  32.5352362  31.6175071  49.6455804  32.7664748  30.6554875  43.9810604
  31.9832270  31.1976555  44.0748828  33.4657494  31.1728855  44.3804845
  36.0761399  16.4649504  46.6244809  36.5730098  15.7119467  46.3045880
  35.3048380  16.5013821  46.0588019  43.9291156  22.1689870  48.2663101
  43.9181032  23.0514585  47.8957034  43.0608535  21.8161421  48.0717638
  35.4373652  31.3169939  52.6265941  36.1501625  31.9517404  52.5541842
  34.9463681  31.4133805  51.8105943  37.1591179  25.2221192  44.1983233
  36.2247458  25.3422654  44.0287937  37.3367848  24.3193658  43.9343243
  32.6596367  18.6066887  46.3516494  32.2894155  18.0537928  47.0397399
  33.1555460  18.0025021  45.7991494  40.5463731  21.0638511  44.7333267
  41.0124183  21.8966503  44.6593570  40.9971231  20.5983493  45.4378525
  30.4885566  29.0664382  53.4471512  31.1895025  29.7000865  53.6000906
  30.0180681  29.4079114  52.6867151  38.6139962  27.4082332  41.7319419
  38.8899806  27.2938927  42.6413293  37.7444460  27.0099817  41.6931592
  38.5180393  13.4319098  48.7724168  37.6043473  13.6623325  48.9406375
  38.9473495  13.5157542  49.6238201  38.2886852  21.6208990  51.2724062
  37.6358302  21.8684897  50.6176515  38.6667232  20.8073128  50.9386539
  35.2494026  31.6568683  45.3752233  35.4316420  30.8390339  45.8379985
  36.0727012  31.8736375  44.9377122  35.5836191  30.5836868  42.6367281
  36.1123958  30.0729323  42.0237443  35.8464411  30.2679398  43.5012814
  34.3374425  22.3628801  57.7590099  33.6615062  22.2622930  58.4292475
  35.1602059  22.2068015  58.2226097  26.0853284  28.6000737  50.3802615
  26.6706721  27.8544425  50.5130519  25.8878122  28.9104694  51.2639278
  28.9391939  31.6351985  45.3965057  28.2702314  32.1198113  44.9129097
  28.8004809  31.8821205  46.3108435  20.6770939  21.1706338  49.1007058
  20.7155038  20.6369928  49.8944176  20.1711231  20.6441543  48.4818035
  33.0797208  33.6695728  51.9947715  33.6315516  33.8327350  52.7596801
  33.4203401  34.2600166  51.3227740  28.0561701  16.0170878  52.5969600
  28.1203027  16.8785709  52.1846998  27.9928821  15.4044880  51.8641959
  27.5313973  18.0894011  56.2442634  28.1586012  17.7071088  56.8580159
  26.6741892  17.8708213  56.6098327  37.9308082  28.4956986  57.8496370
  38.4747986  29.1086944  57.3551325  37.3494927  29.0536564  58.3663383
  24.3079516  19.8970440  42.1760989  24.6032957  18.9881118  42.1228043
  23.4067552  19.8758179  41.8541991  36.2165595  31.6177704  48.9811397
  36.0916734  30.8167444  48.4722343  36.8744686  32.1123897  48.4925367
  27.8373763  17.9726436  48.1588538  27.1160349  18.5862404  48.0196011
  28.6267019  18.5084201  48.0805184  38.2800503  29.4186724  50.6090948
  37.3330839  29.2992075  50.5369274  38.6283276  28.5309222  50.6917209
  30.6400077  15.3080863  54.4329189  31.1634479  15.5543159  55.1955499
  30.4212410  16.1400898  54.0132327  26.0367358  17.5784538  42.3000314
  25.7080064  16.6981916  42.1175420  26.3906728  17.5232206  43.1876703
  35.2846937  29.2139440  46.8095300  35.1371899  28.2856148  46.9902870
  36.1100430  29.2359531  46.3252375  29.1509181  17.8657507  42.6675792
  29.4905253  18.3943429  41.9454400  29.5981301  18.2037913  43.4434358
  38.8881059  30.0367999  47.8960173  39.8127606  29.8310860  47.7584624
  38.7196362  29.7884400  48.8049514  31.8452622  16.2494558  52.1178860
  31.5049442  15.4502371  52.5199540  31.1391628  16.5496269  51.5455693
  32.4969094  13.3343870  50.5706183  33.3195163  12.8604349  50.4485073
  32.7407157  14.1134354  51.0704869  31.1377328  16.3632129  40.8669085
  31.8585691  16.7413382  40.3632802  30.5142632  17.0821006  40.9704063
  35.2808451  17.0677278  41.8027417  35.4972065  17.9501916  41.5016245
  34.8002518  16.6763491  41.0733059  30.0207672  20.0262991  48.3798162
  29.8752253  20.3403294  49.2722443  29.5432876  20.6447891  47.8269060
  31.8804055  17.0165539  48.4279051  31.8665624  16.1206632  48.0911349
  32.5976483  17.0236203  49.0617337  33.7330186  17.4502879  50.4732179
  33.4747964  18.3719950  50.4716509  33.2015226  17.0533314  51.1632643
  38.6776375  30.5553666  43.2522264  38.8513252  29.9900089  42.4996116
  39.1705266  31.3554561  43.0701754  24.4953335  22.5668335  51.3185823
  23.9506803  23.3428143  51.4506097  25.3732684  22.9139140  51.1604944
  31.2840951  15.8979919  43.6966621  31.4056862  14.9696566  43.8957509
  30.9942994  15.9118605  42.7844937  34.1532142  13.5834830  46.8333341
  34.1753838  13.6474163  45.8785321  34.5700201  12.7439338  47.0273847
  44.5315766  23.3190089  44.8712564  44.9746912  22.5697415  44.4731687
  43.6542276  23.3100226  44.4886296  39.6651547  29.8720431  40.3519162
  40.3602452  30.4927123  40.5706477  40.0074697  29.0215782  40.6271540
  25.2819356  21.6938232  54.2115980  24.5401092  21.8420867  54.7980610
  24.9612101  21.9546497  53.3482729  41.5642970  27.3220136  41.8806493
  42.0894294  27.6607409  41.1555813  41.4765323  26.3867152  41.6969628
  33.2263019  31.2354210  54.0096370  33.5350145  30.9903357  54.8819069
  34.0238501  31.4400848  53.5215240  33.2483631  33.3892120  46.2401746
  32.8088621  32.8968498  46.9334603  33.9991748  32.8465087  45.9993821
  25.7275970  29.5803660  46.2426374  26.5533990  29.2807432  45.8625018
  25.3770022  28.8111283  46.6916163  30.6957503  28.9330129  48.3124048
  30.0737513  28.2700834  48.0126276  31.3662370  28.9591261  47.6297696
  23.9284575  27.4989987  47.2015308  23.0916483  27.0712161  47.0199309
  23.9008221  27.6922430  48.1386099  30.7682031  17.4111917  57.9056554
  30.8170186  18.2874040  57.5234324  31.3104545  16.8689310  57.3328197
  41.2536876  27.9553040  57.1857691  40.4632420  27.9377179  56.6462190
  41.0170231  28.4941334  57.9406728  41.3734751  24.8045506  54.4990420
  41.4232756  24.6395514  55.4405942  41.2648675  23.9372765  54.1088300
  30.2571010  27.4834052  41.7882508  30.4059131  28.1669516  41.1349181
  31.0637454  27.4639142  42.3031964  38.6638514  20.7876434  55.8149726
  39.5648377  20.6482899  55.5233724  38.7386488  20.9530889  56.7547904
  32.9981319  18.1643289  54.6602913  32.1284629  18.4576855  54.3885501
  33.2340800  18.7483734  55.3810176  42.8752948  27.2242448  54.7432441
  42.5837757  27.5872428  55.5795902  42.2625080  26.5109456  54.5645773
  44.0748631  24.7895328  47.2635011  44.9095522  25.2285132  47.4272572
  44.2107759  24.3133981  46.4443257  41.1240137  22.3475063  53.2112499
  41.5994258  22.5402709  52.4031350  40.2005702  22.4034248  52.9655883
  28.0123643  23.5099230  42.7943577  27.7669685  22.6061560  42.9923787
  28.1819558  23.5116380  41.8523055  35.7020353  14.3822906  52.1768333
  36.2202297  15.1183933  51.8514822  35.3475486  14.6886899  53.0115092
  27.2819291  19.2427587  40.2929739  26.5888536  19.3171942  39.6369775
  27.0371043  18.4787931  40.8151256  35.9532947  10.8023189  47.6969230
  36.2334701  10.1346378  48.3229656  36.7383554  10.9952284  47.1843893
  33.7566416  29.9782182  39.2594256  33.1840383  30.5972370  38.8064728
  34.3299209  30.5281544  39.7934178  39.8241806  19.2240823  51.4440805
  40.7759228  19.3238920  51.4653029  39.6545256  18.4319091  51.9538889
  37.8456185  16.3096406  51.6300206  37.2506117  16.5901419  50.9346694
  37.5605882  16.7990307  52.4016947  36.9763675  30.2619333  40.3902838
  37.9094349  30.1964894  40.5935714  36.8886888  31.0975599  39.9317371
  39.6051692  29.5785203  37.3506786  39.5265324  29.2445067  38.2442544
  40.4261359  30.0706971  37.3498258  42.3029883  22.4446942  50.5583104
  42.2706203  21.5062943  50.7442788  42.9130507  22.5230979  49.8248929
  34.1413214  21.3142995  36.6010308  35.0872319  21.1849203  36.6698726
  33.7627459  20.5757657  37.0779737  42.4524372  19.2357986  50.6041387
  41.9363420  18.4516442  50.4171316  43.3364320  18.9076702  50.7687907
  40.1135099  12.9799001  46.5637200  39.9159920  12.6714089  47.4480532
  40.7234804  13.7060640  46.6935130  48.1206433  23.5062949  49.6989141
  48.8509822  23.2448237  50.2596844  47.5113379  22.7691671  49.7391209
  46.2021730  21.6470812  50.2963592  45.4754894  21.5126777  49.6880084
  45.7869017  21.9547640  51.1020310  34.0251907  25.3660741  58.0610965
  34.9454916  25.5439340  58.2551012  33.9901490  24.4216787  57.9090665
  32.3256131  19.2392972  36.5365194  31.4187587  18.9426084  36.6127907
  32.6032112  18.9422790  35.6699480  23.2434072  20.5599335  46.9864240
  22.9236856  19.7064643  46.6938614  22.6967500  20.7747913  47.7422207
  27.0213979  23.2761776  50.7033746  27.2399989  24.2078884  50.7221780
  27.4339753  22.9169750  51.4888550  33.9418197  13.7829861  42.6909435
  33.1318925  13.4376946  43.0664681  34.6302614  13.4737405  43.2797046
  35.8708745  12.8607908  44.3133731  36.4239784  13.2803362  44.9723755
  36.1078832  11.9343656  44.3556688  31.8941845  18.8494982  60.0936495
  31.7938571  19.7989339  60.0248587  31.6763387  18.5213221  59.2212565
  31.0954916  16.0979907  36.6777173  31.9574080  16.4234805  36.9372990
  31.2805260  15.3111403  36.1650239  23.1122332  24.1802247  48.9557362
  22.4185803  23.7656199  48.4427316  23.8595323  24.2222783  48.3590780
  39.2487552  14.9708433  43.8212396  38.6686221  15.6293237  43.4390448
  38.9823485  14.1485778  43.4099813  37.6991119  14.3713491  46.0233716
  38.1990897  14.4830026  45.2148035  38.3426727  14.0674544  46.6634525
  31.7573115  22.2792121  58.9101557  31.2740196  23.0792481  59.1165446
  31.8434054  22.2900066  57.9569001  25.0259074  24.1120500  46.8323376
  25.0029762  24.2108188  45.8805260  25.3359711  24.9585651  47.1540543
  27.6846452  26.1696655  50.9469991  28.6389706  26.1380598  50.8799922
  27.4858976  25.7087279  51.7620217  28.2745834  24.7397771  53.5140789
  29.0938723  25.2341850  53.5375626  28.5482642  23.8229740  53.4858356
  38.0312430  17.1308524  42.8768744  37.1438285  17.4158174  42.6588939
  38.4466420  16.9702287  42.0296021  41.3826967  17.1555045  46.5923083
  42.1587357  17.6451497  46.8647700  40.6575101  17.5813099  47.0494953
  43.8199525  17.8682664  47.6497024  44.4144016  17.6278400  46.9390332
  43.8926109  17.1489794  48.2770560  26.0396681  31.7116275  47.9640189
  25.9051149  30.9516676  47.3978187  25.6228743  32.4357175  47.4968978
  37.1755644  26.8953198  36.9716764  37.8791494  27.1003201  37.5874420
  36.4518293  27.4629960  37.2365848  38.0053454  22.6463060  43.0919034
  37.9488656  23.1031611  42.2526667  38.5581797  21.8853744  42.9141877
  41.8158260  18.4352792  43.9169154  41.5595194  18.0349427  44.7477361
  41.1911128  19.1496585  43.7919293  46.1270598  21.1748865  46.4240445
  45.5670156  21.2442054  47.1972007  45.5214101  20.9989849  45.7039941
  29.1965807  32.6085592  48.1758631  29.0798191  33.5531024  48.0737322
  28.3758253  32.3059153  48.5644431  39.0842341  27.3335728  39.0215224
  39.9187945  26.9016926  38.8392699  38.9226684  27.1617741  39.9492119
  38.7388234  23.8367841  40.3871563  38.6837037  23.6712112  39.4460007
  38.1134289  24.5443874  40.5433753  23.5280748  19.0735905  54.2132986
  24.1739612  18.5634859  54.7020211  23.3197900  19.8104587  54.7876411
  36.0534141  26.1416753  59.7125126  36.9225300  26.3157405  59.3511761
  35.5740892  26.9611170  59.5900855  32.0484359  13.3375950  39.9656882
  32.0363029  14.2817790  40.1225153  32.9407781  13.1546095  39.6716343
  30.2220321  33.2613854  51.3914560  31.1247568  33.2937464  51.7081055
  29.9957691  32.3314305  51.4060896  31.9773923  32.0144840  48.0524638
  31.0269554  32.0146702  47.9389011  32.2806409  31.2677575  47.5360673
  35.8636478   9.9318727  44.2202819  35.0968874   9.3777213  44.3659501
  36.2747183  10.0040595  45.0816970  27.8678239  16.2203522  58.3108000
  28.7309701  15.8640327  58.5211324  27.2943650  15.8817417  58.9983404
  47.7126616  37.8505379  49.1170401  48.3505026  37.7312126  48.4133741
  47.5947459  38.7986223  49.1758353  44.5216323  37.8032807  49.0531926
  44.1834834  37.6873871  48.1652460  45.3906091  37.4023972  49.0332932
  40.3803138  39.6568283  45.0428816  39.8168004  39.5658220  44.2745104
  40.2655533  38.8368188  45.5231309  37.9267570  41.1519475  47.8813037
  38.7188862  40.8110299  47.4659336  38.1664220  41.2614450  48.8015190
  45.9602697  43.3239251  40.3543281  45.3090677  43.9093331  39.9677295
  46.7547060  43.8545446  40.4138319  39.8858324  40.4128388  40.7530416
  40.6589200  39.8657375  40.6143292  40.2383723  41.2772637  40.9644877
  42.6499574  39.1181619  50.5498675  43.2463146  38.8937641  49.8355638
  42.7074545  38.3766364  51.1524123  42.2224602  36.5721054  38.3848866
  42.4750123  36.0502575  37.6232329  41.2849161  36.4087200  38.4875549
  47.2667885  35.5756833  46.1923609  48.0530974  35.1576256  45.8414026
  47.5306589  36.4802925  46.3605257  47.4377962  41.0129683  40.8912266
  46.8023795  41.0864309  41.6033170  47.1075369  41.6023282  40.2131345
  52.6676312  35.5132066  47.0956587  53.4001484  34.9431283  47.3294417
  51.9115668  35.1253666  47.5363093  41.9420891  38.4749160  40.5873241
  41.8257149  37.7994064  41.2554325  42.0523151  37.9881534  39.7705394
  44.2852432  37.9359307  44.2919930  43.9210639  37.4089928  45.0032851
  45.1419548  37.5457776  44.1186415  50.1901732  29.2253640  51.5551196
  49.8585057  30.0949051  51.3312411  49.5947346  28.9089924  52.2345226
  43.9257919  32.9649207  39.2881278  44.0932321  33.8329443  39.6551749
  43.7355088  33.1276489  38.3642568  46.6833252  41.4266186  50.9547109
  46.3833975  42.3291225  50.8462916  46.3384311  41.1598369  51.8068262
  40.1345733  37.8779983  46.9883813  39.2096230  37.7456197  47.1961505
  40.3830147  38.6574202  47.4853756  50.0830396  33.9448726  48.6344546
  49.1747273  33.8764134  48.3403307  50.0317991  34.4220671  49.4626372
  43.9047140  35.4206864  40.2727945  43.7846765  35.8663915  41.1113425
  43.2099728  35.7692182  39.7141483  37.4954544  37.5213256  47.8227602
  37.6246926  37.7747735  48.7367014  36.8151996  38.1140964  47.5032257
  41.6654032  48.1910506  43.9218076  41.5878061  49.1418331  44.0006557
  41.0615675  47.8456379  44.5793003  51.9492042  32.1465164  50.4122420
  51.3066422  32.4397698  49.7662215  51.4446971  32.0318085  51.2175617
  49.6032206  35.8928338  41.1008279  50.5150062  36.1255724  40.9255977
  49.0941853  36.4765382  40.5383358  48.2101788  40.8754156  48.4921861
  47.5810651  41.0399870  47.7897929  47.8227450  41.2895766  49.2632825
  52.0891020  41.8108594  45.8466224  51.4042058  42.1907495  45.2963258
  52.1734869  42.4203921  46.5798172  46.9468181  32.0686374  49.3498140
  46.0852660  32.3667627  49.6414878  46.9730615  32.2856772  48.4179173
  43.7629750  40.6128564  45.7571946  44.2268095  40.8916267  44.9676568
  43.4986548  39.7112009  45.5745036  40.6553831  40.1600046  48.6951709
  41.2255188  40.5887314  48.0569194  41.2461943  39.8782630  49.3935895
  42.6998636  36.7351717  42.5661511  43.4022679  37.1872760  43.0335437
  42.3679264  36.0935535  43.1941404  41.1478998  35.3263473  56.9412720
  40.5177658  36.0079754  57.1748117  41.0415085  35.2146555  55.9965859
  36.4423970  34.9935269  47.8678644  35.6523024  35.2492798  47.3918755
  36.9335217  35.8083607  47.9730685  38.3938715  35.3579848  44.8262121
  37.5969879  35.4698543  45.3445617  38.1664308  35.6966501  43.9603012
  44.2244383  41.8824552  52.7744636  44.2888815  42.3444959  53.6102808
  43.5155307  41.2521917  52.9026946  34.7261673  35.2465760  50.2993635
  34.9769711  36.1312770  50.5651211  35.2621221  35.0670361  49.5268727
  58.5493773  38.6779257  46.9668897  57.7957481  38.1086655  46.8112901
  58.6841314  38.6441921  47.9139531  43.9392401  43.5492659  42.6423616
  43.8038075  44.3944195  43.0708464  44.4802213  43.7511937  41.8789550
  40.4259740  29.6284239  59.3037971  40.0326686  29.0750438  59.9785616
  41.2425881  29.9394817  59.6944489  37.3921798  41.0668097  43.2151541
  37.9046319  41.8611347  43.3657106  38.0444511  40.3694388  43.1485143
  39.2016683  44.1833853  45.2974294  39.3783311  45.1051818  45.1095278
  39.9973516  43.8692273  45.7268674  43.3427701  31.0442118  56.8958228
  44.0837415  31.6449271  56.8162690  43.5745624  30.3019756  56.3376270
  38.4869039  36.2298485  55.1736458  38.3722554  35.3283743  55.4743556
  37.6313557  36.4762182  54.8221274  40.3247998  45.7012027  51.2984637
  40.8755423  45.5729091  50.5261631  39.4859474  46.0006916  50.9479530
  47.2884864  27.0723221  51.1722510  46.9449134  27.9624863  51.0961620
  47.6563827  26.8824879  50.3092095  35.3570715  39.3956751  43.9911112
  36.1945937  39.8053760  43.7744819  35.5348982  38.4556194  43.9611306
  47.2535147  37.0631832  39.6794945  46.7381770  37.8336437  39.9183332
  46.9812455  36.3896968  40.3028006  44.8382258  31.9081533  44.7380183
  43.9823854  31.5188383  44.5585822  45.2509210  31.9873494  43.8779969
  46.3681405  29.4427876  49.1371743  45.8646200  29.4058011  48.3239548
  46.6612011  30.3520619  49.1968399  42.6124290  29.5266606  48.1437925
  43.4777287  29.3309415  47.7843814  42.6801799  29.2976958  49.0707281
  52.2269421  39.8164187  41.6148118  51.4498864  39.4775346  41.1703280
  52.9060902  39.8216810  40.9403083  47.0421450  34.9358924  41.5054726
  46.7371586  35.2505073  42.3564869  47.9951892  35.0140344  41.5482059
  45.4867882  41.0949148  43.1547680  44.9589243  40.3601907  42.8420917
  44.9855385  41.8723824  42.9087648  50.4660728  39.2898168  48.2714726
  49.8084402  39.9797429  48.3594855  51.2701127  39.6794600  48.6148713
  40.2186610  31.7568814  45.5154291  40.7930361  31.5343995  44.7827484
  40.8057592  31.8257508  46.2682893  49.2766187  37.6442541  46.3218668
  49.7898068  38.2772533  46.8240378  49.9267411  37.0443736  45.9562028
  40.5456197  33.7873275  39.5350177  39.7093509  34.1247961  39.8559451
  40.4060966  33.6522255  38.5977314  42.5209277  28.6310063  44.2429361
  41.8673690  28.3159080  43.6185976  42.4789751  28.0085803  44.9689184
  43.6320482  38.9129358  36.1582653  42.7247544  38.6818611  36.3573802
  44.1291514  38.1166977  36.3456634  46.5388561  47.6226865  39.0779339
  45.8650260  47.9258562  39.6864297  46.9254383  48.4255945  38.7284796
  45.7547018  35.1191996  48.5677008  44.8369579  35.3406943  48.4098696
  46.1707161  35.1938307  47.7088716  46.5382065  36.5183412  43.6979689
  47.2853884  37.0304809  43.3886811  46.8073655  36.1967465  44.5584082
  44.8108716  39.0141953  40.6806643  43.9019935  38.7300985  40.7779113
  44.8403799  39.4341031  39.8209950  48.9860903  33.5540528  45.6798478
  48.2483659  33.0417914  46.0108721  49.2387676  33.1140910  44.8681755
  49.0872530  26.3316780  46.2740247  49.3931407  25.4714144  45.9866162
  49.8125135  26.9234400  46.0739241  35.3796886  36.7347467  44.6621845
  35.1821286  36.1416828  43.9372912  34.8243550  36.4299677  45.3797784
  43.3593610  36.6270573  46.7816438  43.4142219  35.6744410  46.7058915
  42.5484812  36.7830012  47.2657737  44.5084803  40.5550696  38.0194722
  44.0704233  39.8386555  37.5600359  45.2495244  40.7826811  37.4579813
  41.2985970  35.2447633  44.5406817  40.4853835  35.5441804  44.9472009
  41.7944964  34.8503322  45.2581299  43.4494547  45.2405390  46.4741082
  43.4070726  45.4666236  45.5449614  44.3657246  45.0068765  46.6226883
  52.6257918  38.8307893  44.0771040  52.4875817  39.0209489  43.1492229
  52.2694137  39.5927276  44.5339091  40.7900044  32.8165989  50.1568052
  41.4299424  32.6754748  49.4591015  39.9577575  32.5300502  49.7806654
  52.6527298  40.8984420  49.0882312  53.0863804  40.8059709  49.9365366
  53.3658878  40.8741921  48.4502328  41.5660348  42.1168419  46.2703045
  42.3600947  41.6218739  46.0685620  40.8552041  41.5886282  45.9070750
  37.8743112  36.2611501  42.3462797  36.9440700  36.1995956  42.5632759
  37.9700584  35.7387453  41.5499439  37.7928661  32.7866314  44.9341039
  38.0535478  33.7011647  44.8250199  38.6145833  32.3190756  45.0837652
  39.2653586  34.2004071  52.1039863  39.9376639  33.9921433  51.4552512
  38.4383373  34.0026157  51.6645096  45.1679158  30.8266012  54.1205524
  44.5207073  31.5255961  54.0270001  45.9380173  31.2602156  54.4881773
  44.1431624  42.6897441  49.9500882  44.0042710  42.3216225  50.8226820
  43.3546220  43.2045080  49.7784839  44.7379776  47.7906537  41.2926418
  44.9131532  47.3194581  42.1072041  44.0512564  48.4172304  41.5207679
  45.6936839  42.0679044  47.3389719  45.3586672  42.0279814  48.2347369
  45.1940785  41.4023760  46.8660130  39.6681083  37.4746674  52.8642301
  39.5300881  36.7426913  53.4653840  40.5786007  37.3855574  52.5826488
  48.6296031  39.4135078  37.6126779  48.0125202  38.6881906  37.5159832
  48.1612519  40.1744438  37.2693853  42.2963384  37.1866633  52.3525980
  43.0063002  36.5459825  52.3112599  42.2532692  37.4379528  53.2752161
  41.0092318  34.1731851  54.1721620  40.4729675  33.7222589  54.8243216
  40.4209026  34.3077760  53.4292084  40.4194577  33.6320502  36.7348083
  39.5424043  33.5109303  36.3710330  40.8952330  32.8406581  36.4826972
  31.9396717  38.4197662  46.8289591  32.6267757  38.1059392  46.2410606
  31.7844846  39.3239027  46.5556842  36.7431439  33.3087859  51.2574614
  36.6589628  32.7013528  50.5225024  35.9214146  33.7996877  51.2584111
  43.6058503  45.9846793  43.9810604  42.8226025  46.5268473  44.0748828
  44.3051248  46.5020772  44.3804845  46.9155153  31.7941422  46.6244809
  47.4123853  31.0411384  46.3045880  46.1442135  31.8305739  46.0588019
  54.7684910  37.4981788  48.2663101  54.7574787  38.3806503  47.8957034
  53.9002290  37.1453338  48.0717638  47.9984934  40.5513109  44.1983233
  47.0641212  40.6714572  44.0287937  48.1761602  39.6485576  43.9343243
  43.4990122  33.9358805  46.3516494  43.1287909  33.3829845  47.0397399
  43.9949214  33.3316939  45.7991494  51.3857485  36.3930429  44.7333267
  51.8517937  37.2258420  44.6593570  51.8364986  35.9275410  45.4378525
  49.3574148  28.7611016  48.7724168  48.4437228  28.9915242  48.9406375
  49.7867249  28.8449460  49.6238201  36.9247038  43.9292655  50.3802615
  37.5100475  43.1836343  50.5130519  36.7271877  44.2396612  51.2639278
  39.7785694  46.9643903  45.3965057  39.1096069  47.4490030  44.9129097
  39.6398563  47.2113123  46.3108435  31.5164693  36.4998255  49.1007058
  31.5548793  35.9661846  49.8944176  31.0104986  35.9733461  48.4818035
  38.8955455  31.3462796  52.5969600  38.9596782  32.2077627  52.1846998
  38.8322576  30.7336798  51.8641959  38.3707728  33.4185928  56.2442634
  38.9979767  33.0363006  56.8580159  37.5135647  33.2000130  56.6098327
  35.1473271  35.2262358  42.1760989  35.4426712  34.3173036  42.1228043
  34.2461306  35.2050097  41.8541991  38.6767518  33.3018354  48.1588538
  37.9554103  33.9154322  48.0196011  39.4660773  33.8376119  48.0805184
  41.4793831  30.6372781  54.4329189  42.0028233  30.8835077  55.1955499
  41.2606165  31.4692815  54.0132327  36.8761112  32.9076455  42.3000314
  36.5473818  32.0273834  42.1175420  37.2300483  32.8524124  43.1876703
  39.9902935  33.1949425  42.6675792  40.3299008  33.7235346  41.9454400
  40.4375056  33.5329831  43.4434358  42.6846376  31.5786476  52.1178860
  42.3443197  30.7794289  52.5199540  41.9785383  31.8788187  51.5455693
  43.3362848  28.6635788  50.5706183  44.1588917  28.1896266  50.4485073
  43.5800912  29.4426272  51.0704869  41.9771083  31.6924047  40.8669085
  42.6979445  32.0705299  40.3632802  41.3536387  32.4112923  40.9704063
  46.1202205  32.3969196  41.8027417  46.3365820  33.2793833  41.5016245
  45.6396273  32.0055409  41.0733059  40.8601427  35.3554909  48.3798162
  40.7146008  35.6695212  49.2722443  40.3826630  35.9739809  47.8269060
  42.7197810  32.3457457  48.4279051  42.7059379  31.4498550  48.0911349
  43.4370238  32.3528121  49.0617337  44.5723940  32.7794797  50.4732179
  44.3141718  33.7011868  50.4716509  44.0408981  32.3825232  51.1632643
  35.3347089  37.8960253  51.3185823  34.7900557  38.6720061  51.4506097
  36.2126439  38.2431058  51.1604944  42.1234706  31.2271837  43.6966621
  42.2450617  30.2988483  43.8957509  41.8336748  31.2410523  42.7844937
  44.9925896  28.9126747  46.8333341  45.0147593  28.9766081  45.8785321
  45.4093955  28.0731256  47.0273847  55.3709520  38.6482007  44.8712564
  55.8140666  37.8989332  44.4731687  54.4936031  38.6392143  44.4886296
  36.1213111  37.0230149  54.2115980  35.3794847  37.1712785  54.7980610
  35.8005855  37.2838415  53.3482729  36.5669725  44.9095578  46.2426374
  37.3927744  44.6099350  45.8625018  36.2163777  44.1403201  46.6916163
  41.5351258  44.2622046  48.3124048  40.9131267  43.5992751  48.0126276
  42.2056125  44.2883178  47.6297696  34.7678330  42.8281905  47.2015308
  33.9310238  42.4004079  47.0199309  34.7401975  43.0214348  48.1386099
  41.6075785  32.7403834  57.9056554  41.6563941  33.6165957  57.5234324
  42.1498299  32.1981227  57.3328197  41.0964765  42.8125970  41.7882508
  41.2452885  43.4961434  41.1349181  41.9031208  42.7931060  42.3031964
  43.8375074  33.4935207  54.6602913  42.9678383  33.7868773  54.3885501
  44.0734554  34.0775652  55.3810176  54.9142385  40.1187245  47.2635011
  55.7489276  40.5577049  47.4272572  55.0501514  39.6425899  46.4443257
  38.8517398  38.8391147  42.7943577  38.6063440  37.9353477  42.9923787
  39.0213312  38.8408298  41.8523055  46.5414107  29.7114824  52.1768333
  47.0596051  30.4475851  51.8514822  46.1869240  30.0178817  53.0115092
  38.1213045  34.5719505  40.2929739  37.4282290  34.6463860  39.6369775
  37.8764797  33.8079849  40.8151256  46.7926702  26.1315106  47.6969230
  47.0728455  25.4638295  48.3229656  47.5777309  26.3244202  47.1843893
  44.5960170  45.3074100  39.2594256  44.0234137  45.9264287  38.8064728
  45.1692964  45.8573462  39.7934178  48.6849939  31.6388323  51.6300206
  48.0899872  31.9193336  50.9346694  48.3999636  32.1282224  52.4016947
  50.4445447  44.9077121  37.3506786  50.3659078  44.5736984  38.2442544
  51.2655113  45.3998889  37.3498258  53.1423638  37.7738860  50.5583104
  53.1099958  36.8354861  50.7442788  53.7524261  37.8522897  49.8248929
  44.9806969  36.6434913  36.6010308  45.9266073  36.5141121  36.6698726
  44.6021214  35.9049575  37.0779737  53.2918126  34.5649903  50.6041387
  52.7757175  33.7808360  50.4171316  54.1758075  34.2368620  50.7687907
  50.9528853  28.3090919  46.5637200  50.7553674  28.0006007  47.4480532
  51.5628559  29.0352558  46.6935130  58.9600188  38.8354867  49.6989141
  59.6903576  38.5740155  50.2596844  58.3507133  38.0983589  49.7391209
  57.0415485  36.9762729  50.2963592  56.3148648  36.8418694  49.6880084
  56.6262772  37.2839558  51.1020310  43.1649886  34.5684889  36.5365194
  42.2581341  34.2718002  36.6127907  43.4425867  34.2714707  35.6699480
  34.0827826  35.8891253  46.9864240  33.7630611  35.0356561  46.6938614
  33.5361254  36.1039831  47.7422207  37.8607734  38.6053694  50.7033746
  38.0793744  39.5370802  50.7221780  38.2733508  38.2461668  51.4888550
  44.7811952  29.1121779  42.6909435  43.9712680  28.7668864  43.0664681
  45.4696368  28.8029323  43.2797046  46.7102500  28.1899826  44.3133731
  47.2633538  28.6095279  44.9723755  46.9472586  27.2635574  44.3556688
  42.7335599  34.1786899  60.0936495  42.6332326  35.1281256  60.0248587
  42.5157141  33.8505138  59.2212565  41.9348670  31.4271825  36.6777173
  42.7967834  31.7526723  36.9372990  42.1199015  30.6403320  36.1650239
  33.9516086  39.5094164  48.9557362  33.2579558  39.0948117  48.4427316
  34.6989077  39.5514701  48.3590780  50.0881307  30.3000351  43.8212396
  49.5079976  30.9585155  43.4390448  49.8217240  29.4777696  43.4099813
  48.5384873  29.7005409  46.0233716  49.0384652  29.8121943  45.2148035
  49.1820481  29.3966462  46.6634525  35.8652829  39.4412418  46.8323376
  35.8423517  39.5400105  45.8805260  36.1753465  40.2877569  47.1540543
  38.5240207  41.4988573  50.9469991  39.4783460  41.4672515  50.8799922
  38.3252730  41.0379197  51.7620217  39.1139589  40.0689689  53.5140789
  39.9332478  40.5633768  53.5375626  39.3876396  39.1521657  53.4858356
  48.8706185  32.4600441  42.8768744  47.9832040  32.7450092  42.6588939
  49.2860174  32.2994205  42.0296021  52.2220721  32.4846962  46.5923083
  52.9981111  32.9743415  46.8647700  51.4968855  32.9105017  47.0494953
  54.6593280  33.1974582  47.6497024  55.2537770  32.9570318  46.9390332
  54.7319863  32.4781712  48.2770560  36.8790435  47.0408193  47.9640189
  36.7444903  46.2808593  47.3978187  36.4622498  47.7649092  47.4968978
  48.0149398  42.2245116  36.9716764  48.7185249  42.4295119  37.5874420
  47.2912047  42.7921878  37.2365848  48.8447209  37.9754977  43.0919034
  48.7882410  38.4323529  42.2526667  49.3975551  37.2145662  42.9141877
  52.6552015  33.7644709  43.9169154  52.3988949  33.3641345  44.7477361
  52.0304883  34.4788503  43.7919293  56.9664352  36.5040782  46.4240445
  56.4063910  36.5733972  47.1972007  56.3607856  36.3281767  45.7039941
  40.0359561  47.9377510  48.1758631  39.9191945  48.8822942  48.0737322
  39.2152008  47.6351071  48.5644431  49.5781988  39.1659759  40.3871563
  49.5230792  39.0004030  39.4460007  48.9528043  39.8735791  40.5433753
  34.3674503  34.4027823  54.2132986  35.0133367  33.8926777  54.7020211
  34.1591654  35.1396505  54.7876411  42.8878113  28.6667868  39.9656882
  42.8756783  29.6109707  40.1225153  43.7801535  28.4838013  39.6716343
  42.8167677  47.3436758  48.0524638  41.8663308  47.3438620  47.9389011
  43.1200164  46.5969493  47.5360673  46.7030233  25.2610644  44.2202819
  45.9362629  24.7069131  44.3659501  47.1140938  25.3332513  45.0816970
  38.7071994  31.5495440  58.3108000  39.5703456  31.1932245  58.5211324
  38.1337405  31.2109335  58.9983404  53.0618357  51.9012972  38.3848866
  53.3143877  51.3794493  37.6232329  52.1242916  51.7379117  38.4875549
  54.7651673  48.2941125  39.2881278  54.9326076  49.1621361  39.6551749
  54.5748842  48.4568406  38.3642568  53.3603032  43.9601980  44.2429361
  52.7067444  43.6450998  43.6185976  53.3183506  43.3377721  44.9689184
  59.8254657  48.8832446  45.6798478  59.0877414  48.3709832  46.0108721
  60.0781431  48.4432827  44.8681755  51.2588331  48.9612420  36.7348083
  50.3817798  48.8401221  36.3710330  51.7346084  48.1698498  36.4826972
  56.9595960  47.7261113  41.8027417  57.1759574  48.6085751  41.5016245
  56.4790027  47.3347327  41.0733059  55.8319651  44.2418665  46.8333341
  55.8541347  44.3057998  45.8785321  56.2487710  43.4023174  47.0273847
  54.0043640  49.8976807  36.5365194  53.0975096  49.6009920  36.6127907
  54.2819621  49.6006625  35.6699480  55.6205706  44.4413697  42.6909435
  54.8106434  44.0960782  43.0664681  56.3090123  44.1321240  43.2797046
  57.5496254  43.5191744  44.3133731  58.1027293  43.9387197  44.9723755
  57.7866341  42.5927492  44.3556688  52.7742425  46.7563742  36.6777173
  53.6361589  47.0818641  36.9372990  52.9592769  45.9695238  36.1650239
  60.9275061  45.6292269  43.8212396  60.3473730  46.2877073  43.4390448
  60.6610994  44.8069613  43.4099813  57.5423987  40.5902562  44.2202819
  56.7756383  40.0361049  44.3659501  57.9534692  40.6624431  45.0816970
  59.6055079  71.8103310  47.8813037  60.3976371  71.4694135  47.4659336
  59.8451729  71.9198285  48.8015190  67.6390206  73.9823086  40.3543281
  66.9878186  74.5677167  39.9677295  68.4334569  74.5129281  40.4138319
  61.5645833  71.0712223  40.7530416  62.3376709  70.5241210  40.6143292
  61.9171232  71.9356473  40.9644877  63.3441541  78.8494342  43.9218076
  63.2665570  79.8002167  44.0006557  62.7403184  78.5040214  44.5793003
  73.7678529  72.4692429  45.8466224  73.0829567  72.8491331  45.2963258
  73.8522378  73.0787756  46.5798172  80.2281282  69.3363092  46.9668897
  79.4744990  68.7670490  46.8112901  80.3628823  69.3025757  47.9139531
  65.6179910  74.2076494  42.6423616  65.4825584  75.0528030  43.0708464
  66.1589722  74.4095772  41.8789550  59.0709307  71.7251933  43.2151541
  59.5833828  72.5195183  43.3657106  59.7232020  71.0278223  43.1485143
  60.8804192  74.8417689  45.2974294  61.0570820  75.7635654  45.1095278
  61.6761025  74.5276108  45.7268674  62.0035507  76.3595863  51.2984637
  62.5542932  76.2312926  50.5261631  61.1646983  76.6590752  50.9479530
  57.0358224  70.0540587  43.9911112  57.8733446  70.4637595  43.7744819
  57.2136491  69.1140029  43.9611306  68.2176070  78.2810700  39.0779339
  67.5437769  78.5842397  39.6864297  68.6041892  79.0839781  38.7284796
  70.1648431  75.1208874  45.3847629  70.4571406  75.6813931  44.6659994
  70.6747052  75.4137435  46.1400788  65.1282056  75.8989225  46.4741082
  65.0858235  76.1250072  45.5449614  66.0444755  75.6652600  46.6226883
  63.2447857  72.7752254  46.2703045  64.0388456  72.2802574  46.0685620
  62.5339550  72.2470117  45.9070750  68.0642702  75.1570350  50.6215412
  68.1179724  75.7261286  51.3893128  67.1957483  75.3272235  50.2569449
  65.8219133  73.3481276  49.9500882  65.6830219  72.9800061  50.8226820
  65.0333729  73.8628916  49.7784839  66.4167285  78.4490373  41.2926418
  66.5919041  77.9778416  42.1072041  65.7300073  79.0756139  41.5207679
  60.9828370  81.5979736  48.0666278  61.2224969  82.2298260  48.7445297
  60.1397567  81.2467776  48.3531638  53.6184226  69.0781497  46.8289591
  54.3055266  68.7643227  46.2410606  53.4632355  69.9822862  46.5556842
  65.4956232  77.4058858  50.4707782  65.4226404  78.2113829  50.9827087
  65.0533625  77.6050824  49.6455804  65.2846012  76.6430628  43.9810604
  64.5013534  77.1852308  44.0748828  65.9838757  77.1604608  44.3804845
  76.4472419  68.1565623  48.2663101  76.4362296  69.0390338  47.8957034
  75.5789799  67.8037174  48.0717638  67.9554916  77.3045692  52.6265941
  68.6682888  77.9393157  52.5541842  67.4644944  77.4009558  51.8105943
  67.7675289  77.6444436  45.3752233  67.9497684  76.8266092  45.8379985
  68.5908275  77.8612128  44.9377122  68.1017455  76.5712621  42.6367281
  68.6305221  76.0605076  42.0237443  68.3645674  76.2555151  43.5012814
  58.6034547  74.5876491  50.3802615  59.1887984  73.8420178  50.5130519
  58.4059386  74.8980447  51.2639278  61.4573203  77.6227738  45.3965057
  60.7883578  78.1073866  44.9129097  61.3186072  77.8696958  46.3108435
  65.5978471  79.6571481  51.9947715  66.1496779  79.8203103  52.7596801
  65.9384665  80.2475919  51.3227740  68.7346858  77.6053457  48.9811397
  68.6097998  76.8043197  48.4722343  69.3925950  78.0999650  48.4925367
  70.7981767  75.4062477  50.6090948  69.8512102  75.2867828  50.5369274
  71.1464540  74.5184975  50.6917209  67.8028200  75.2015193  46.8095300
  67.6553163  74.2731901  46.9902870  68.6281694  75.2235284  46.3252375
  71.4062322  76.0243752  47.8960173  72.3308869  75.8186613  47.7584624
  71.2377625  75.7760153  48.8049514  71.1957638  76.5429419  43.2522264
  71.3694516  75.9775842  42.4996116  71.6886529  77.3430314  43.0701754
  72.1832811  75.8596184  40.3519162  72.8783715  76.4802877  40.5706477
  72.5255961  75.0091535  40.6271540  74.0824234  73.3095889  41.8806493
  74.6075558  73.6483162  41.1555813  73.9946586  72.3742905  41.6969628
  65.7664895  79.3767873  46.2401746  65.3269885  78.8844251  46.9334603
  66.5173012  78.8340840  45.9993821  58.2457234  75.5679414  46.2426374
  59.0715253  75.2683185  45.8625018  57.8951286  74.7987036  46.6916163
  63.2138767  74.9205882  48.3124048  62.5918776  74.2576587  48.0126276
  63.8843634  74.9467014  47.6297696  56.4465839  73.4865740  47.2015308
  55.6097747  73.0587914  47.0199309  56.4189484  73.6798183  48.1386099
  62.7752274  73.4709805  41.7882508  62.9240394  74.1545269  41.1349181
  63.5818717  73.4514895  42.3031964  76.5929894  70.7771081  47.2635011
  77.4276785  71.2160885  47.4272572  76.7289023  70.3009734  46.4443257
  60.5304907  69.4974983  42.7943577  60.2850949  68.5937313  42.9923787
  60.7000821  69.4992133  41.8523055  66.2747679  75.9657936  39.2594256
  65.7021646  76.5848123  38.8064728  66.8480473  76.5157297  39.7934178
  69.4944939  76.2495086  40.3902838  70.4275612  76.1840647  40.5935714
  69.4068152  77.0851353  39.9317371  80.6387697  69.4938702  49.6989141
  81.3691085  69.2323990  50.2596844  80.0294642  68.7567424  49.7391209
  57.5440338  70.0996253  46.8323376  57.5211026  70.1983941  45.8805260
  57.8540974  70.9461404  47.1540543  58.5577944  77.6992028  47.9640189
  58.4232412  76.9392429  47.3978187  58.1410007  78.4232928  47.4968978
  78.6451861  67.1624618  46.4240445  78.0851419  67.2317807  47.1972007
  78.0395365  66.9865602  45.7039941  61.7147070  78.5961345  48.1758631
  61.5979454  79.5406777  48.0737322  60.8939517  78.2934906  48.5644431
  62.7401584  79.2489607  51.3914560  63.6428831  79.2813217  51.7081055
  62.5138954  78.3190058  51.4060896  64.4955186  78.0020593  48.0524638
  63.5450817  78.0022455  47.9389011  64.7987673  77.2553328  47.5360673
  80.2307880  83.8381132  49.1170401  80.8686290  83.7187879  48.4133741
  80.1128723  84.7861976  49.1758353  77.0397586  83.7908560  49.0531926
  76.7016098  83.6749625  48.1652460  77.9087354  83.3899725  49.0332932
  72.8984402  85.6444036  45.0428816  72.3349267  85.5533973  44.2745104
  72.7836797  84.8243941  45.5231309  70.4448834  87.1395228  47.8813037
  71.2370126  86.7986052  47.4659336  70.6845484  87.2490203  48.8015190
  78.4783961  89.3115004  40.3543281  77.8271940  89.8969084  39.9677295
  79.2728323  89.8421199  40.4138319  72.4039588  86.4004141  40.7530416
  73.1770464  85.8533128  40.6143292  72.7564987  87.2648390  40.9644877
  74.2424630  87.7280523  53.9597315  73.9514496  88.6326154  53.8443981
  74.8781615  87.7697051  54.6741385  75.1680837  85.1057372  50.5498675
  75.7644409  84.8813394  49.8355638  75.2255809  84.3642117  51.1524123
  74.7405866  82.5596807  38.3848866  74.9931386  82.0378328  37.6232329
  73.8030425  82.3962953  38.4875549  79.7849148  81.5632586  46.1923609
  80.5712238  81.1452009  45.8414026  80.0487853  82.4678678  46.3605257
  79.9559226  87.0005436  40.8912266  79.3205059  87.0740062  41.6033170
  79.6256632  87.5899035  40.2131345  85.1857575  81.5007819  47.0956587
  85.9182747  80.9307036  47.3294417  84.4296931  81.1129419  47.5363093
  74.4602154  84.4624913  40.5873241  74.3438412  83.7869817  41.2554325
  74.5704414  83.9757287  39.7705394  76.8033695  83.9235060  44.2919930
  76.4391902  83.3965681  45.0032851  77.6600811  83.5333529  44.1186415
  82.7082996  75.2129393  51.5551196  82.3766321  76.0824804  51.3312411
  82.1128609  74.8965677  52.2345226  76.4439182  78.9524960  39.2881278
  76.6113585  79.8205196  39.6551749  76.2536351  79.1152242  38.3642568
  79.2014515  87.4141939  50.9547109  78.9015238  88.3166978  50.8462916
  78.8565575  87.1474122  51.8068262  72.6526997  83.8655736  46.9883813
  71.7277493  83.7331950  47.1961505  72.9011410  84.6449955  47.4853756
  82.6011659  79.9324479  48.6344546  81.6928537  79.8639887  48.3403307
  82.5499255  80.4096424  49.4626372  76.4228403  81.4082617  40.2727945
  76.3028028  81.8539668  41.1113425  75.7280991  81.7567935  39.7141483
  70.0135808  83.5089009  47.8227602  70.1428189  83.7623488  48.7367014
  69.3333259  84.1016717  47.5032257  74.1835295  94.1786259  43.9218076
  74.1059325  95.1294084  44.0006557  73.5796939  93.8332132  44.5793003
  84.4673306  78.1340917  50.4122420  83.8247686  78.4273451  49.7662215
  83.9628234  78.0193838  51.2175617  82.1213469  81.8804091  41.1008279
  83.0331325  82.1131477  40.9255977  81.6123116  82.4641135  40.5383358
  80.4054237  86.3028718  54.7369572  80.8137593  85.8611129  53.9924204
  79.6831498  85.7281346  54.9903765  80.7283052  86.8629909  48.4921861
  80.0991914  87.0275623  47.7897929  80.3408714  87.2771519  49.2632825
  84.6072283  87.7984347  45.8466224  83.9223322  88.1783248  45.2963258
  84.6916133  88.4079674  46.5798172  79.9084752  78.9005694  53.7684302
  79.6645684  79.6547754  53.2318578  80.1844683  79.2791041  54.6031549
  81.8623215  85.4444306  52.4461568  82.0740110  86.0876066  51.7695949
  81.8152963  84.6106623  51.9783498  79.4649444  78.0562127  49.3498140
  78.6033923  78.3543380  49.6414878  79.4911879  78.2732526  48.4179173
  76.2811013  86.6004317  45.7571946  76.7449359  86.8792020  44.9676568
  76.0167812  85.6987762  45.5745036  73.1735094  86.1475799  48.6951709
  73.7436452  86.5763067  48.0569194  73.7643206  85.8658383  49.3935895
  75.2179899  82.7227470  42.5661511  75.9203943  83.1748513  43.0335437
  74.8860528  82.0811288  43.1941404  68.9605233  80.9811022  47.8678644
  68.1704287  81.2368551  47.3918755  69.4516481  81.7959360  47.9730685
  82.9769043  88.3216261  50.6183925  83.7986487  87.9196449  50.3366607
  82.9731446  88.2184496  51.5700041  70.9119979  81.3455601  44.8262121
  70.1151142  81.4574296  45.3445617  70.6845571  81.6842254  43.9603012
  76.7425646  87.8700305  52.7744636  76.8070079  88.3320712  53.6102808
  76.0336570  87.2397670  52.9026946  67.2442936  81.2341513  50.2993635
  67.4950975  82.1188523  50.5651211  67.7802485  81.0546114  49.5268727
  91.0675036  84.6655010  46.9668897  90.3138744  84.0962408  46.8112901
  91.2022577  84.6317674  47.9139531  76.4573664  89.5368412  42.6423616
  76.3219339  90.3819948  43.0708464  76.9983477  89.7387690  41.8789550
  69.9103061  87.0543850  43.2151541  70.4227582  87.8487100  43.3657106
  70.5625774  86.3570141  43.1485143  71.7197946  90.1709606  45.2974294
  71.8964575  91.0927571  45.1095278  72.5154780  89.8568026  45.7268674
  78.0842140  90.1591979  56.7723958  77.6405995  89.3728357  56.4544863
  78.7459354  90.3471129  56.1067849  72.8429262  91.6887780  51.2984637
  73.3936687  91.5604844  50.5261631  72.0040738  91.9882669  50.9479530
  80.1823379  90.4394779  54.8005359  80.1641854  91.2603660  54.3085629
  81.1043299  90.3148854  55.0255501  76.6396433  87.9538908  55.6428868
  77.1724769  87.1927196  55.4128176  76.1110514  87.6612560  56.3853022
  79.8066128  73.0598974  51.1722510  79.4630397  73.9500616  51.0961620
  80.1745090  72.8700632  50.3092095  67.8751978  85.3832505  43.9911112
  68.7127200  85.7929513  43.7744819  68.0530246  84.4431947  43.9611306
  79.7716410  83.0507585  39.6794945  79.2563034  83.8212190  39.9183332
  79.4993719  82.3772721  40.3028006  77.3563521  77.8957286  44.7380183
  76.5005118  77.5064136  44.5585822  77.7690473  77.9749247  43.8779969
  78.8862668  75.4303629  49.1371743  78.3827464  75.3933764  48.3239548
  79.1793275  76.3396372  49.1968399  75.1305554  75.5142359  48.1437925
  75.9958551  75.3185168  47.7843814  75.1983063  75.2852711  49.0707281
  84.7450685  85.8039940  41.6148118  83.9680127  85.4651099  41.1703280
  85.4242165  85.8092563  40.9403083  79.5602714  80.9234677  41.5054726
  79.2552849  81.2380826  42.3564869  80.5133156  81.0016097  41.5482059
  78.0049145  87.0824901  43.1547680  77.4770507  86.3477660  42.8420917
  77.5036648  87.8599577  42.9087648  82.9841991  85.2773921  48.2714726
  82.3265666  85.9673182  48.3594855  83.7882391  85.6670353  48.6148713
  72.7367873  77.7444567  45.5154291  73.3111625  77.5219748  44.7827484
  73.3238855  77.8133261  46.2682893  81.7947450  83.6318294  46.3218668
  82.3079332  84.2648286  46.8240378  82.4448674  83.0319489  45.9562028
  73.0637460  79.7749028  39.5350177  72.2274772  80.1123714  39.8559451
  72.9242230  79.6398008  38.5977314  75.0390541  74.6185816  44.2429361
  74.3854953  74.3034833  43.6185976  74.9971015  73.9961556  44.9689184
  76.1501746  84.9005111  36.1582653  75.2428807  84.6694364  36.3573802
  76.6472778  84.1042730  36.3456634  79.0569824  93.6102618  39.0779339
  78.3831523  93.9134315  39.6864297  79.4435646  94.4131698  38.7284796
  78.2728281  81.1067749  48.5677008  77.3550842  81.3282696  48.4098696
  78.6888425  81.1814060  47.7088716  79.0563329  82.5059165  43.6979689
  79.8035148  83.0180562  43.3886811  79.3254918  82.1843218  44.5584082
  77.3289979  85.0017706  40.6806643  76.4201198  84.7176739  40.7779113
  77.3585063  85.4216784  39.8209950  82.5609246  88.6124295  44.4497811
  82.1071574  87.7715205  44.5063001  81.9303213  89.2485694  44.7872591
  81.5042166  79.5416281  45.6798478  80.7664923  79.0293667  46.0108721
  81.7568940  79.1016663  44.8681755  81.0042186  90.4500792  45.3847629
  81.2965160  91.0105849  44.6659994  81.5140806  90.7429353  46.1400788
  81.6053793  72.3192533  46.2740247  81.9112670  71.4589897  45.9866162
  82.3306398  72.9110153  46.0739241  67.8978149  82.7223220  44.6621845
  67.7002549  82.1292581  43.9372912  67.3424813  82.4175430  45.3797784
  75.8774873  82.6146326  46.7816438  75.9323483  81.6620163  46.7058915
  75.0666075  82.7705765  47.2657737  77.0266067  86.5426449  38.0194722
  76.5885497  85.8262308  37.5600359  77.7676508  86.7702564  37.4579813
  73.8167233  81.2323386  44.5406817  73.0035099  81.5317557  44.9472009
  74.3126227  80.8379075  45.2581299  75.9675811  91.2281143  46.4741082
  75.9251990  91.4541989  45.5449614  76.8838510  90.9944518  46.6226883
  79.4141445  81.6965211  53.3721711  79.7690832  81.9236684  54.2316177
  80.0613576  82.0283587  52.7498966  85.1439182  84.8183646  44.0771040
  85.0057080  85.0085242  43.1492229  84.7875400  85.5803029  44.5339091
  73.3081308  78.8041742  50.1568052  73.9480687  78.6630501  49.4591015
  72.4758838  78.5176255  49.7806654  85.1708561  86.8860173  49.0882312
  85.6045068  86.7935463  49.9365366  85.8840142  86.8617674  48.4502328
  74.0841612  88.1044172  46.2703045  74.8782210  87.6094492  46.0685620
  73.3733304  87.5762035  45.9070750  78.9036456  90.4862268  50.6215412
  78.9573478  91.0553204  51.3893128  78.0351237  90.6564153  50.2569449
  70.3924375  82.2487254  42.3462797  69.4621963  82.1871709  42.5632759
  70.4881847  81.7263206  41.5499439  70.3109924  78.7742067  44.9341039
  70.5716741  79.6887400  44.8250199  71.1327096  78.3066509  45.0837652
  71.7834849  80.1879824  52.1039863  72.4557903  79.9797186  51.4552512
  70.9564636  79.9901910  51.6645096  86.0324111  86.9283874  51.6215197
  86.2260001  87.8329685  51.8674472  85.9324729  86.4691293  52.4553782
  81.0939219  87.0790617  57.1956078  80.9424726  86.8501169  56.2786161
  81.0843899  88.0361218  57.2087423  77.8624556  84.6522530  52.1802344
  78.7916616  84.8033689  52.0071311  77.4415586  84.7406550  51.3250991
  76.6612888  88.6773194  49.9500882  76.5223973  88.3091978  50.8226820
  75.8727484  89.1920833  49.7784839  77.2561040  93.7782290  41.2926418
  77.4312795  93.3070334  42.1072041  76.5693828  94.4048057  41.5207679
  78.2118103  88.0554797  47.3389719  77.8767935  88.0155567  48.2347369
  77.7122048  87.3899513  46.8660130  72.1862347  83.4622427  52.8642301
  72.0482145  82.7302666  53.4653840  73.0967270  83.3731327  52.5826488
  81.1477294  85.4010831  37.6126779  80.5306465  84.6757659  37.5159832
  80.6793783  86.1620191  37.2693853  82.8031426  90.1109739  55.2732559
  82.7443972  89.4268960  54.6063143  83.2050944  90.8528729  54.8213185
  71.8222125  96.9271653  48.0666278  72.0618723  97.5590177  48.7445297
  70.9791321  96.5759693  48.3531638  72.9375840  79.6196255  36.7348083
  72.0605307  79.4985056  36.3710330  73.4133593  78.8282334  36.4826972
  82.8048833  88.0749323  53.5046539  81.9175612  87.7375245  53.6272938
  83.3747384  87.3432355  53.7415305  64.4577980  84.4073415  46.8289591
  65.1449020  84.0935145  46.2410606  64.3026109  85.3114780  46.5556842
  69.2612703  79.2963612  51.2574614  69.1770891  78.6889281  50.5225024
  68.4395409  79.7872630  51.2584111  76.3349987  92.7350776  50.4707782
  76.2620158  93.5405747  50.9827087  75.8927380  92.9342741  49.6455804
  76.1239766  91.9722546  43.9810604  75.3407288  92.5144226  44.0748828
  76.8232512  92.4896525  44.3804845  79.4336416  77.7817175  46.6244809
  79.9305116  77.0287137  46.3045880  78.6623398  77.8181492  46.0588019
  87.2866174  83.4857541  48.2663101  87.2756050  84.3682256  47.8957034
  86.4183553  83.1329092  48.0717638  78.7948670  92.6337610  52.6265941
  79.5076642  93.2685075  52.5541842  78.3038699  92.7301476  51.8105943
  80.5166197  86.5388862  44.1983233  79.5822476  86.6590325  44.0287937
  80.6942866  85.6361329  43.9343243  76.0171385  79.9234558  46.3516494
  75.6469173  79.3705599  47.0397399  76.5130478  79.3192692  45.7991494
  83.9038749  82.3806182  44.7333267  84.3699201  83.2134173  44.6593570
  84.3546249  81.9151163  45.4378525  73.8460584  90.3832053  53.4471512
  74.5470043  91.0168536  53.6000906  73.3755699  90.7246785  52.6867151
  81.9714980  88.7250003  41.7319419  82.2474824  88.6106598  42.6413293
  81.1019478  88.3267488  41.6931592  81.8755411  74.7486769  48.7724168
  80.9618491  74.9790995  48.9406375  82.3048513  74.8325213  49.6238201
  81.6461870  82.9376661  51.2724062  80.9933320  83.1852568  50.6176515
  82.0242250  82.1240799  50.9386539  78.6069044  92.9736354  45.3752233
  78.7891438  92.1558010  45.8379985  79.4302030  93.1904046  44.9377122
  78.9411209  91.9004539  42.6367281  79.4698976  91.3896993  42.0237443
  79.2039429  91.5847069  43.5012814  69.4428302  89.9168408  50.3802615
  70.0281739  89.1712096  50.5130519  69.2453140  90.2272365  51.2639278
  72.2966957  92.9519656  45.3965057  71.6277332  93.4365783  44.9129097
  72.1579827  93.1988876  46.3108435  64.0345957  82.4874008  49.1007058
  64.0730056  81.9537599  49.8944176  63.5286249  81.9609214  48.4818035
  76.4372226  94.9863399  51.9947715  76.9890534  95.1495021  52.7596801
  76.7778419  95.5767837  51.3227740  81.2883100  89.8124657  57.8496370
  81.8323004  90.4254615  57.3551325  80.7069945  90.3704235  58.3663383
  67.6654534  81.2138111  42.1760989  67.9607975  80.3048789  42.1228043
  66.7642570  81.1925850  41.8541991  79.5740613  92.9345375  48.9811397
  79.4491752  92.1335114  48.4722343  80.2319704  93.4291568  48.4925367
  71.1948781  79.2894107  48.1588538  70.4735367  79.9030075  48.0196011
  71.9842037  79.8251872  48.0805184  81.6375521  90.7354395  50.6090948
  80.6905857  90.6159746  50.5369274  81.9858294  89.8476893  50.6917209
  69.3942376  78.8952208  42.3000314  69.0655082  78.0149587  42.1175420
  69.7481746  78.8399877  43.1876703  78.6421955  90.5307111  46.8095300
  78.4946917  89.6023818  46.9902870  79.4675448  90.5527202  46.3252375
  72.5084199  79.1825178  42.6675792  72.8480271  79.7111099  41.9454400
  72.9556319  79.5205584  43.4434358  82.2456076  91.3535670  47.8960173
  83.1702624  91.1478531  47.7584624  82.0771380  91.1052071  48.8049514
  74.4952346  77.6799800  40.8669085  75.2160709  78.0581052  40.3632802
  73.8717650  78.3988676  40.9704063  78.6383469  78.3844949  41.8027417
  78.8547083  79.2669586  41.5016245  78.1577536  77.9931162  41.0733059
  73.3782690  81.3430662  48.3798162  73.2327271  81.6570965  49.2722443
  72.9007894  81.9615562  47.8269060  75.2379073  78.3333210  48.4279051
  75.2240642  77.4374303  48.0911349  75.9551501  78.3403874  49.0617337
  77.0905204  78.7670550  50.4732179  76.8322982  79.6887621  50.4716509
  76.5590244  78.3700985  51.1632643  82.0351393  91.8721337  43.2522264
  82.2088270  91.3067760  42.4996116  82.5280284  92.6722232  43.0701754
  67.8528352  83.8836006  51.3185823  67.3081821  84.6595814  51.4506097
  68.7307702  84.2306811  51.1604944  74.6415969  77.2147590  43.6966621
  74.7631880  76.2864236  43.8957509  74.3518012  77.2286276  42.7844937
  77.5107160  74.9002501  46.8333341  77.5328856  74.9641834  45.8785321
  77.9275219  74.0607009  47.0273847  87.8890784  84.6357760  44.8712564
  88.3321930  83.8865085  44.4731687  87.0117294  84.6267896  44.4886296
  83.0226565  91.1888102  40.3519162  83.7177470  91.8094794  40.5706477
  83.3649715  90.3383453  40.6271540  68.6394374  83.0105902  54.2115980
  67.8976110  83.1588538  54.7980610  68.3187119  83.2714168  53.3482729
  84.9217988  88.6387807  41.8806493  85.4469312  88.9775080  41.1555813
  84.8340341  87.7034822  41.6969628  76.5838037  92.5521881  54.0096370
  76.8925163  92.3071027  54.8819069  77.3813519  92.7568519  53.5215240
  76.6058649  94.7059790  46.2401746  76.1663639  94.2136169  46.9334603
  77.3566766  94.1632758  45.9993821  69.0850988  90.8971331  46.2426374
  69.9109008  90.5975103  45.8625018  68.7345040  90.1278954  46.6916163
  74.0532521  90.2497799  48.3124048  73.4312530  89.5868504  48.0126276
  74.7237388  90.2758931  47.6297696  67.2859593  88.8157658  47.2015308
  66.4491501  88.3879832  47.0199309  67.2583239  89.0090101  48.1386099
  84.6111894  89.2720711  57.1857691  83.8207438  89.2544850  56.6462190
  84.3745249  89.8109004  57.9406728  84.7309769  86.1213177  54.4990420
  84.7807774  85.9563185  55.4405942  84.6223693  85.2540436  54.1088300
  73.6146028  88.8001723  41.7882508  73.7634148  89.4837187  41.1349181
  74.4212472  88.7806813  42.3031964  82.0213532  82.1044105  55.8149726
  82.9223395  81.9650570  55.5233724  82.0961506  82.2698560  56.7547904
  86.2327966  88.5410119  54.7432441  85.9412775  88.9040099  55.5795902
  85.6200098  87.8277127  54.5645773  87.4323649  86.1062998  47.2635011
  88.2670540  86.5452802  47.4272572  87.5682777  85.6301652  46.4443257
  84.4815154  83.6642733  53.2112499  84.9569276  83.8570380  52.4031350
  83.5580720  83.7201919  52.9655883  71.3698661  84.8266900  42.7943577
  71.1244703  83.9229230  42.9923787  71.5394576  84.8284051  41.8523055
  79.0595371  75.6990577  52.1768333  79.5777315  76.4351604  51.8514822
  78.7050504  76.0054570  53.0115092  70.6394309  80.5595258  40.2929739
  69.9463554  80.6339613  39.6369775  70.3946061  79.7955602  40.8151256
  79.3107965  72.1190859  47.6969230  79.5909719  71.4514048  48.3229656
  80.0958572  72.3119955  47.1843893  77.1141434  91.2949853  39.2594256
  76.5415401  91.9140040  38.8064728  77.6874227  91.8449215  39.7934178
  83.1816823  80.5408493  51.4440805  84.1334246  80.6406591  51.4653029
  83.0120274  79.7486762  51.9538889  81.2031203  77.6264077  51.6300206
  80.6081135  77.9069089  50.9346694  80.9180900  78.1157977  52.4016947
  80.3338693  91.5787003  40.3902838  81.2669367  91.5132565  40.5935714
  80.2461906  92.4143270  39.9317371  82.9626710  90.8952874  37.3506786
  82.8840342  90.5612737  38.2442544  83.7836377  91.3874642  37.3498258
  85.6604901  83.7614613  50.5583104  85.6281221  82.8230614  50.7442788
  86.2705525  83.8398650  49.8248929  77.4988232  82.6310666  36.6010308
  78.4447337  82.5016874  36.6698726  77.1202477  81.8925328  37.0779737
  85.8099390  80.5525656  50.6041387  85.2938438  79.7684113  50.4171316
  86.6939338  80.2244373  50.7687907  83.4710117  74.2966672  46.5637200
  83.2734938  73.9881760  47.4480532  84.0809822  75.0228311  46.6935130
  91.4781451  84.8230620  49.6989141  92.2084840  84.5615908  50.2596844
  90.8688397  84.0859342  49.7391209  89.5596748  82.9638482  50.2963592
  88.8329912  82.8294447  49.6880084  89.1444035  83.2715311  51.1020310
  75.6831149  80.5560642  36.5365194  74.7762605  80.2593755  36.6127907
  75.9607130  80.2590460  35.6699480  66.6009090  81.8767006  46.9864240
  66.2811874  81.0232314  46.6938614  66.0542518  82.0915584  47.7422207
  70.3788997  84.5929447  50.7033746  70.5975007  85.5246555  50.7221780
  70.7914771  84.2337421  51.4888550  77.2993215  75.0997532  42.6909435
  76.4893943  74.7544617  43.0664681  77.9877632  74.7905076  43.2797046
  79.2283763  74.1775579  44.3133731  79.7814802  74.5971032  44.9723755
  79.4653850  73.2511327  44.3556688  66.4697350  85.4969917  48.9557362
  65.7760821  85.0823870  48.4427316  67.2170341  85.5390454  48.3590780
  82.6062570  76.2876104  43.8212396  82.0261239  76.9460908  43.4390448
  82.3398503  75.4653449  43.4099813  81.0566137  75.6881162  46.0233716
  81.5565915  75.7997696  45.2148035  81.7001745  75.3842215  46.6634525
  68.3834092  85.4288171  46.8323376  68.3604780  85.5275858  45.8805260
  68.6934729  86.2753322  47.1540543  71.0421470  87.4864326  50.9469991
  71.9964724  87.4548268  50.8799922  70.8433994  87.0254950  51.7620217
  71.6320852  86.0565442  53.5140789  72.4513741  86.5509521  53.5375626
  71.9057660  85.1397410  53.4858356  81.3887448  78.4476194  42.8768744
  80.5013303  78.7325845  42.6588939  81.8041437  78.2869958  42.0296021
  84.7401985  78.4722715  46.5923083  85.5162375  78.9619168  46.8647700
  84.0150119  78.8980770  47.0494953  87.1774543  79.1850335  47.6497024
  87.7719034  78.9446071  46.9390332  87.2501127  78.4657465  48.2770560
  69.3971699  93.0283946  47.9640189  69.2626167  92.2684346  47.3978187
  68.9803761  93.7524845  47.4968978  80.5330662  88.2120869  36.9716764
  81.2366512  88.4170872  37.5874420  79.8093311  88.7797631  37.2365848
  81.3628472  83.9630730  43.0919034  81.3063674  84.4199282  42.2526667
  81.9156815  83.2021415  42.9141877  85.1733278  79.7520462  43.9169154
  84.9170212  79.3517098  44.7477361  84.5486146  80.4664256  43.7919293
  89.4845616  82.4916535  46.4240445  88.9245174  82.5609725  47.1972007
  88.8789119  82.3157520  45.7039941  72.5540825  93.9253263  48.1758631
  72.4373209  94.8698695  48.0737322  71.7333271  93.6226824  48.5644431
  82.4417359  88.6503398  39.0215224  83.2762963  88.2184597  38.8392699
  82.2801702  88.4785412  39.9492119  82.0963251  85.1535512  40.3871563
  82.0412055  84.9879783  39.4460007  81.4709307  85.8611544  40.5433753
  66.8855766  80.3903576  54.2132986  67.5314630  79.8802530  54.7020211
  66.6772918  81.1272258  54.7876411  79.4109159  87.4584423  59.7125126
  80.2800318  87.6325076  59.3511761  78.9315910  88.2778840  59.5900855
  75.4059377  74.6543621  39.9656882  75.3938047  75.5985461  40.1225153
  76.2982799  74.4713766  39.6716343  73.5795339  94.5781524  51.3914560
  74.4822586  94.6105135  51.7081055  73.3532709  93.6481975  51.4060896
  75.3348941  93.3312511  48.0524638  74.3844572  93.3314373  47.9389011
  75.6381427  92.5845246  47.5360673  79.2211496  71.2486397  44.2202819
  78.4543892  70.6944884  44.3659501  79.6322201  71.3208266  45.0816970
  91.0701634  99.1673049  49.1170401  91.7080044  99.0479797  48.4133741
  90.9522477 100.1153893  49.1758353  87.8791341  99.1200478  49.0531926
  87.5409852  99.0041542  48.1652460  88.7481109  98.7191643  49.0332932
  83.7378156 100.9735954  45.0428816  83.1743021 100.8825891  44.2745104
  83.6230551 100.1535858  45.5231309  88.3611124 100.2735329  55.0118131
  88.3499764  99.8788127  54.1398635  88.5231763  99.5401402  55.6051902
  81.2842588 102.4687146  47.8813037  82.0763880 102.1277970  47.4659336
  81.5239238 102.5782121  48.8015190  89.3177715 104.6406922  40.3543281
  88.6665695 105.2261002  39.9677295  90.1122078 105.1713117  40.4138319
  83.2433342 101.7296059  40.7530416  84.0164218 101.1825046  40.6143292
  83.5958741 102.5940308  40.9644877  85.0818385 103.0572441  53.9597315
  84.7908251 103.9618072  53.8443981  85.7175369 103.0988969  54.6741385
  86.0074592 100.4349290  50.5498675  86.6038164 100.2105312  49.8355638
  86.0649563  99.6934035  51.1524123  85.5799620  97.8888725  38.3848866
  85.8325141  97.3670246  37.6232329  84.6424179  97.7254870  38.4875549
  90.6242903  96.8924503  46.1923609  91.4105992  96.4743926  45.8414026
  90.8881607  97.7970595  46.3605257  90.7952980 102.3297354  40.8912266
  90.1598813 102.4031980  41.6033170  90.4650387 102.9190952  40.2131345
  96.0251330  96.8299736  47.0956587  96.7576502  96.2598953  47.3294417
  95.2690686  96.4421337  47.5363093  85.2995909  99.7916831  40.5873241
  85.1832167  99.1161734  41.2554325  85.4098169  99.3049205  39.7705394
  87.6427450  99.2526978  44.2919930  87.2785657  98.7257599  45.0032851
  88.4994566  98.8625447  44.1186415  93.5476750  90.5421311  51.5551196
  93.2160075  91.4116722  51.3312411  92.9522364  90.2257595  52.2345226
  87.2832937  94.2816878  39.2881278  87.4507339  95.1497114  39.6551749
  87.0930106  94.4444159  38.3642568  90.0408270 102.7433857  50.9547109
  89.7408993 103.6458895  50.8462916  89.6959329 102.4766040  51.8068262
  83.4920751  99.1947653  46.9883813  82.5671248  99.0623867  47.1961505
  83.7405165  99.9741873  47.4853756  93.4405414  95.2616397  48.6344546
  92.5322291  95.1931805  48.3403307  93.3893009  95.7388342  49.4626372
  87.2622158  96.7374535  40.2727945  87.1421783  97.1831586  41.1113425
  86.5674746  97.0859853  39.7141483  80.8529562  98.8380927  47.8227602
  80.9821944  99.0915406  48.7367014  80.1727014  99.4308635  47.5032257
  85.0229050 109.5078177  43.9218076  84.9453079 110.4586002  44.0006557
  84.4190693 109.1624049  44.5793003  87.5146279  96.6806042  56.5779443
  86.7379613  97.2399962  56.5682308  88.1536842  97.1662825  57.0994313
  95.3067060  93.4632835  50.4122420  94.6641440  93.7565368  49.7662215
  94.8021989  93.3485755  51.2175617  92.9607224  97.2096008  41.1008279
  93.8725080  97.4423395  40.9255977  92.4516871  97.7933053  40.5383358
  85.7692652  99.4891496  56.1397410  86.5107336 100.0276540  55.8632234
  85.0629637 100.1157784  56.2968962  91.2447991 101.6320636  54.7369572
  91.6531347 101.1903047  53.9924204  90.5225253 101.0573264  54.9903765
  87.5979061  96.5693243  52.1103129  88.4440257  96.9932656  52.2537778
  87.5377699  95.9126867  52.8041692  91.5676806 102.1921827  48.4921861
  90.9385668 102.3567541  47.7897929  91.1802468 102.6063436  49.2632825
  95.4466038 103.1276265  45.8466224  94.7617076 103.5075166  45.2963258
  95.5309887 103.7371591  46.5798172  90.7478507  94.2297611  53.7684302
  90.5039439  94.9839672  53.2318578  91.0238437  94.6082959  54.6031549
  92.7016970 100.7736224  52.4461568  92.9133865 101.4167984  51.7695949
  92.6546718  99.9398540  51.9783498  90.3043198  93.3854044  49.3498140
  89.4427678  93.6835298  49.6414878  90.3305633  93.6024443  48.4179173
  87.1204768 101.9296235  45.7571946  87.5843113 102.2083938  44.9676568
  86.8561566 101.0279679  45.5745036  84.0128849 101.4767716  48.6951709
  84.5830206 101.9054985  48.0569194  84.6036961 101.1950301  49.3935895
  86.0573654  98.0519387  42.5661511  86.7597697  98.5040431  43.0335437
  85.7254282  97.4103206  43.1941404  84.5054015  96.6431144  56.9412720
  83.8752676  97.3247425  57.1748117  84.3990103  96.5314225  55.9965859
  79.7998988  96.3102940  47.8678644  79.0098042  96.5660468  47.3918755
  80.2910235  97.1251278  47.9730685  93.8162797 103.6508179  50.6183925
  94.6380241 103.2488366  50.3366607  93.8125200 103.5476413  51.5700041
  81.7513733  96.6747519  44.8262121  80.9544897  96.7866213  45.3445617
  81.5239325  97.0134171  43.9603012  87.5819401 103.1992222  52.7744636
  87.6463833 103.6612630  53.6102808  86.8730325 102.5689587  52.9026946
  78.0836691  96.5633430  50.2993635  78.3344729  97.4480440  50.5651211
  78.6196239  96.3838032  49.5268727 101.9068791  99.9946928  46.9668897
 101.1532499  99.4254326  46.8112901 102.0416332  99.9609592  47.9139531
  87.2967419 104.8660330  42.6423616  87.1613093 105.7111866  43.0708464
  87.8377231 105.0679607  41.8789550  83.7834758  90.9451910  59.3037971
  83.3901704  90.3918108  59.9785616  84.6000899  91.2562488  59.6944489
  80.7496816 102.3835768  43.2151541  81.2621337 103.1779018  43.3657106
  81.4019529 101.6862058  43.1485143  82.5591701 105.5001524  45.2974294
  82.7358329 106.4219489  45.1095278  83.3548534 105.1859943  45.7268674
  86.7002719  92.3609789  56.8958228  87.4412433  92.9616942  56.8162690
  86.9320642  91.6187427  56.3376270  81.8444057  97.5466156  55.1736458
  81.7297572  96.6451413  55.4743556  80.9888575  97.7929853  54.8221274
  88.9235895 105.4883896  56.7723958  88.4799749 104.7020275  56.4544863
  89.5853109 105.6763047  56.1067849  83.6823016 107.0179698  51.2984637
  84.2330441 106.8896761  50.5261631  82.8434492 107.3174587  50.9479530
  91.0217133 105.7686696  54.8005359  91.0035608 106.5895577  54.3085629
  91.9437053 105.6440772  55.0255501  87.4790187 103.2830826  55.6428868
  88.0118524 102.5219114  55.4128176  86.9504268 102.9904478  56.3853022
  90.6459882  88.3890892  51.1722510  90.3024152  89.2792533  51.0961620
  91.0138845  88.1992549  50.3092095  78.7145733 100.7124422  43.9911112
  79.5520955 101.1221431  43.7744819  78.8924000  99.7723864  43.9611306
  90.6110165  98.3799503  39.6794945  90.0956788  99.1504107  39.9183332
  90.3387473  97.7064639  40.3028006  88.1957276  93.2249204  44.7380183
  87.3398872  92.8356054  44.5585822  88.6084228  93.3041164  43.8779969
  89.7256423  90.7595547  49.1371743  89.2221218  90.7225682  48.3239548
  90.0187029  91.6688290  49.1968399  85.9699308  90.8434277  48.1437925
  86.8352305  90.6477085  47.7843814  86.0376817  90.6144628  49.0707281
  95.5844439 101.1331857  41.6148118  94.8073882 100.7943017  41.1703280
  96.2635920 101.1384481  40.9403083  90.3996468  96.2526595  41.5054726
  90.0946604  96.5672744  42.3564869  91.3526910  96.3308015  41.5482059
  88.8442900 102.4116818  43.1547680  88.3164261 101.6769578  42.8420917
  88.3430403 103.1891495  42.9087648  93.8235746 100.6065839  48.2714726
  93.1659420 101.2965100  48.3594855  94.6276145 100.9962271  48.6148713
  83.5761627  93.0736485  45.5154291  84.1505379  92.8511666  44.7827484
  84.1632610  93.1425179  46.2682893  92.6341205  98.9610211  46.3218668
  93.1473086  99.5940203  46.8240378  93.2842429  98.3611407  45.9562028
  83.9031215  95.1040946  39.5350177  83.0668527  95.4415632  39.8559451
  83.7635984  94.9689925  38.5977314  85.8784295  89.9477733  44.2429361
  85.2248708  89.6326751  43.6185976  85.8364769  89.3253474  44.9689184
  86.9895500 100.2297029  36.1582653  86.0822562  99.9986282  36.3573802
  87.4866532  99.4334648  36.3456634  89.8963579 108.9394536  39.0779339
  89.2225278 109.2426232  39.6864297  90.2829401 109.7423616  38.7284796
  89.1122036  96.4359667  48.5677008  88.1944597  96.6574614  48.4098696
  89.5282179  96.5105977  47.7088716  89.8957083  97.8351083  43.6979689
  90.6428902  98.3472480  43.3886811  90.1648673  97.5135135  44.5584082
  88.1683734 100.3309623  40.6806643  87.2594953 100.0468656  40.7779113
  88.1978817 100.7508702  39.8209950  93.4003001 103.9416213  44.4497811
  92.9465328 103.1007123  44.5063001  92.7696968 104.5777611  44.7872591
  92.3435920  94.8708199  45.6798478  91.6058677  94.3585585  46.0108721
  92.5962694  94.4308581  44.8681755  91.8435940 105.7792710  45.3847629
  92.1358915 106.3397767  44.6659994  92.3534561 106.0721271  46.1400788
  92.4447548  87.6484451  46.2740247  92.7506425  86.7881814  45.9866162
  93.1700153  88.2402071  46.0739241  78.7371904  98.0515138  44.6621845
  78.5396304  97.4584498  43.9372912  78.1818568  97.7467348  45.3797784
  86.7168628  97.9438244  46.7816438  86.7717237  96.9912080  46.7058915
  85.9059830  98.0997683  47.2657737  87.8659821 101.8718367  38.0194722
  87.4279251 101.1554226  37.5600359  88.6070262 102.0994482  37.4579813
  84.6560987  96.5615304  44.5406817  83.8428853  96.8609474  44.9472009
  85.1519982  96.1670992  45.2581299  86.8069565 106.5573061  46.4741082
  86.7645744 106.7833907  45.5449614  87.7232264 106.3236435  46.6226883
  90.2535199  97.0257128  53.3721711  90.6084587  97.2528601  54.2316177
  90.9007330  97.3575505  52.7498966  95.9832936 100.1475564  44.0771040
  95.8450835 100.3377160  43.1492229  95.6269155 100.9094947  44.5339091
  84.1475062  94.1333659  50.1568052  84.7874442  93.9922418  49.4591015
  83.3152593  93.8468173  49.7806654  96.0102316 102.2152091  49.0882312
  96.4438822 102.1227380  49.9365366  96.7233896 102.1909592  48.4502328
  84.9235366 103.4336090  46.2703045  85.7175965 102.9386410  46.0685620
  84.2127059 102.9053953  45.9070750  89.7430211 105.8154185  50.6215412
  89.7967233 106.3845122  51.3893128  88.8744992 105.9856070  50.2569449
  81.2318130  97.5779171  42.3462797  80.3015718  97.5163627  42.5632759
  81.3275602  97.0555124  41.5499439  81.1503679  94.1033984  44.9341039
  81.4110496  95.0179317  44.8250199  81.9720851  93.6358427  45.0837652
  82.6228604  95.5171741  52.1039863  83.2951657  95.3089104  51.4552512
  81.7958391  95.3193827  51.6645096  96.8717865 102.2575792  51.6215197
  97.0653755 103.1621602  51.8674472  96.7718483 101.7983211  52.4553782
  88.5254176  92.1433682  54.1205524  87.8782091  92.8423632  54.0270001
  89.2955191  92.5769826  54.4881773  91.9332974 102.4082534  57.1956078
  91.7818480 102.1793086  56.2786161  91.9237653 103.3653136  57.2087423
  88.7018310  99.9814447  52.1802344  89.6310370 100.1325607  52.0071311
  88.2809340 100.0698468  51.3250991  87.5006642 104.0065112  49.9500882
  87.3617728 103.6383896  50.8226820  86.7121238 104.5212751  49.7784839
  88.0954794 109.1074208  41.2926418  88.2706550 108.6362251  42.1072041
  87.4087582 109.7339974  41.5207679  89.0511857 103.3846714  47.3389719
  88.7161690 103.3447484  48.2347369  88.5515803 102.7191430  46.8660130
  83.0256101  98.7914344  52.8642301  82.8875899  98.0594583  53.4653840
  83.9361025  98.7023244  52.5826488  91.9871049 100.7302749  37.6126779
  91.3700220 100.0049577  37.5159832  91.5187537 101.4912109  37.2693853
  85.6538402  98.5034304  52.3525980  86.3638020  97.8627496  52.3112599
  85.6107710  98.7547199  53.2752161  93.6425181 105.4401657  55.2732559
  93.5837727 104.7560877  54.6063143  94.0444699 106.1820647  54.8213185
  84.3667336  95.4899522  54.1721620  83.8304693  95.0390260  54.8243216
  83.7784044  95.6245430  53.4292084  82.6615879 112.2563571  48.0666278
  82.9012478 112.8882095  48.7445297  81.8185076 111.9051611  48.3531638
  83.7769595  94.9488173  36.7348083  82.8999061  94.8276974  36.3710330
  84.2527348  94.1574251  36.4826972  93.6442588 103.4041241  53.5046539
  92.7569367 103.0667163  53.6272938  94.2141139 102.6724272  53.7415305
  75.2971735  99.7365333  46.8289591  75.9842775  99.4227063  46.2410606
  75.1419864 100.6406697  46.5556842  80.1006457  94.6255529  51.2574614
  80.0164646  94.0181199  50.5225024  79.2789164  95.1164548  51.2584111
  87.1743741 108.0642693  50.4707782  87.1013913 108.8697665  50.9827087
  86.7321134 108.2634659  49.6455804  86.9633521 107.3014463  43.9810604
  86.1801043 107.8436144  44.0748828  87.6626266 107.8188443  44.3804845
  90.2730171  93.1109093  46.6244809  90.7698871  92.3579055  46.3045880
  89.5017152  93.1473409  46.0588019  98.1259928  98.8149458  48.2663101
  98.1149805  99.6974174  47.8957034  97.2577308  98.4621009  48.0717638
  89.6342425 107.9629527  52.6265941  90.3470397 108.5976992  52.5541842
  89.1432453 108.0593393  51.8105943  91.3559952 101.8680780  44.1983233
  90.4216230 101.9882243  44.0287937  91.5336620 100.9653247  43.9343243
  86.8565140  95.2526476  46.3516494  86.4862927  94.6997516  47.0397399
  87.3524232  94.6484609  45.7991494  94.7432503  97.7098099  44.7333267
  95.2092955  98.5426091  44.6593570  95.1940004  97.2443081  45.4378525
  84.6854338 105.7123971  53.4471512  85.3863798 106.3460454  53.6000906
  84.2149453 106.0538702  52.6867151  92.8108734 104.0541921  41.7319419
  93.0868578 103.9398515  42.6413293  91.9413233 103.6559405  41.6931592
  92.7149166  90.0778686  48.7724168  91.8012246  90.3082913  48.9406375
  93.1442267  90.1617130  49.6238201  92.4855624  98.2668578  51.2724062
  91.8327074  98.5144486  50.6176515  92.8636004  97.4532716  50.9386539
  89.4462798 108.3028271  45.3752233  89.6285193 107.4849927  45.8379985
  90.2695784 108.5195964  44.9377122  89.7804964 107.2296457  42.6367281
  90.3092730 106.7188911  42.0237443  90.0433183 106.9138987  43.5012814
  88.5343197  99.0088389  57.7590099  87.8583834  98.9082519  58.4292475
  89.3570831  98.8527603  58.2226097  80.2822056 105.2460326  50.3802615
  80.8675493 104.5004014  50.5130519  80.0846895 105.5564283  51.2639278
  83.1360712 108.2811573  45.3965057  82.4671087 108.7657701  44.9129097
  82.9973581 108.5280794  46.3108435  74.8739711  97.8165926  49.1007058
  74.9123811  97.2829517  49.8944176  74.3680004  97.2901132  48.4818035
  87.2765980 110.3155317  51.9947715  87.8284288 110.4786938  52.7596801
  87.6172174 110.9059755  51.3227740  82.2530473  92.6630467  52.5969600
  82.3171800  93.5245297  52.1846998  82.1897594  92.0504468  51.8641959
  81.7282746  94.7353599  56.2442634  82.3554785  94.3530676  56.8580159
  80.8710665  94.5167801  56.6098327  92.1276854 105.1416574  57.8496370
  92.6716758 105.7546533  57.3551325  91.5463699 105.6996153  58.3663383
  78.5048289  96.5430028  42.1760989  78.8001730  95.6340707  42.1228043
  77.6036324  96.5217768  41.8541991  90.4134367 108.2637292  48.9811397
  90.2885507 107.4627032  48.4722343  91.0713459 108.7583486  48.4925367
  82.0342536  94.6186025  48.1588538  81.3129121  95.2321993  48.0196011
  82.8235791  95.1543790  48.0805184  92.4769276 106.0646312  50.6090948
  91.5299611 105.9451664  50.5369274  92.8252049 105.1768810  50.6917209
  84.8368849  91.9540451  54.4329189  85.3603251  92.2002748  55.1955499
  84.6181182  92.7860486  54.0132327  80.2336130  94.2244126  42.3000314
  79.9048836  93.3441505  42.1175420  80.5875501  94.1691795  43.1876703
  89.4815709 105.8599029  46.8095300  89.3340672 104.9315736  46.9902870
  90.3069203 105.8819119  46.3252375  83.3477953  94.5117096  42.6675792
  83.6874026  95.0403017  41.9454400  83.7950074  94.8497502  43.4434358
  93.0849831 106.6827587  47.8960173  94.0096378 106.4770449  47.7584624
  92.9165134 106.4343989  48.8049514  86.0421394  92.8954146  52.1178860
  85.7018215  92.0961959  52.5199540  85.3360401  93.1955857  51.5455693
  86.6937866  89.9803459  50.5706183  87.5163935  89.5063937  50.4485073
  86.9375930  90.7593943  51.0704869  85.3346101  93.0091717  40.8669085
  86.0554463  93.3872970  40.3632802  84.7111405  93.7280594  40.9704063
  89.4777223  93.7136866  41.8027417  89.6940838  94.5961504  41.5016245
  88.9971291  93.3223080  41.0733059  84.2176445  96.6722579  48.3798162
  84.0721026  96.9862883  49.2722443  83.7401648  97.2907480  47.8269060
  86.0772828  93.6625127  48.4279051  86.0634396  92.7666221  48.0911349
  86.7945256  93.6695791  49.0617337  87.9298958  94.0962468  50.4732179
  87.6716736  95.0179538  50.4716509  87.3983999  93.6992902  51.1632643
  92.8745147 107.2013255  43.2522264  93.0482025 106.6359677  42.4996116
  93.3674038 108.0014150  43.0701754  78.6922107  99.2127924  51.3185823
  78.1475575  99.9887732  51.4506097  79.5701457  99.5598728  51.1604944
  85.4809724  92.5439508  43.6966621  85.6025635  91.6156154  43.8957509
  85.1911766  92.5578194  42.7844937  88.3500914  90.2294418  46.8333341
  88.3722611  90.2933751  45.8785321  88.7668973  89.3898927  47.0273847
  98.7284538  99.9649678  44.8712564  99.1715684  99.2157003  44.4731687
  97.8511049  99.9559814  44.4886296  93.8620320 106.5180019  40.3519162
  94.5571224 107.1386712  40.5706477  94.2043470 105.6675370  40.6271540
  79.4788129  98.3397820  54.2115980  78.7369865  98.4880456  54.7980610
  79.1580873  98.6006086  53.3482729  95.7611743 103.9679725  41.8806493
  96.2863067 104.3066997  41.1555813  95.6734095 103.0326740  41.6969628
  87.4231791 107.8813798  54.0096370  87.7318918 107.6362945  54.8819069
  88.2207274 108.0860437  53.5215240  87.4452404 110.0351708  46.2401746
  87.0057394 109.5428087  46.9334603  88.1960520 109.4924676  45.9993821
  79.9244743 106.2263249  46.2426374  80.7502762 105.9267021  45.8625018
  79.5738795 105.4570871  46.6916163  84.8926276 105.5789717  48.3124048
  84.2706285 104.9160422  48.0126276  85.5631143 105.6050849  47.6297696
  78.1253348 104.1449575  47.2015308  77.2885256 103.7171750  47.0199309
  78.0976993 104.3382019  48.1386099  84.9650803  94.0571505  57.9056554
  85.0138959  94.9333628  57.5234324  85.5073317  93.5148898  57.3328197
  95.4505649 104.6012628  57.1857691  94.6601193 104.5836767  56.6462190
  95.2139003 105.1400922  57.9406728  95.5703524 101.4505095  54.4990420
  95.6201529 101.2855102  55.4405942  95.4617447 100.5832354  54.1088300
  84.4539783 104.1293640  41.7882508  84.6027903 104.8129105  41.1349181
  85.2606226 104.1098730  42.3031964  92.8607286  97.4336023  55.8149726
  93.7617149  97.2942488  55.5233724  92.9355261  97.5990478  56.7547904
  87.1950092  94.8102878  54.6602913  86.3253401  95.1036444  54.3885501
  87.4309572  95.3943323  55.3810176  97.0721721 103.8702036  54.7432441
  96.7806529 104.2332017  55.5795902  96.4593852 103.1569045  54.5645773
  98.2717403 101.4354916  47.2635011  99.1064294 101.8744720  47.4272572
  98.4076532 100.9593569  46.4443257  95.3208909  98.9934651  53.2112499
  95.7963031  99.1862297  52.4031350  94.3974474  99.0493837  52.9655883
  82.2092416 100.1558818  42.7943577  81.9638458  99.2521148  42.9923787
  82.3788330 100.1575969  41.8523055  89.8989125  91.0282494  52.1768333
  90.4171069  91.7643521  51.8514822  89.5444258  91.3346488  53.0115092
  81.4788063  95.8887176  40.2929739  80.7857308  95.9631531  39.6369775
  81.2339815  95.1247519  40.8151256  90.1501720  87.4482777  47.6969230
  90.4303473  86.7805966  48.3229656  90.9352327  87.6411873  47.1843893
  87.9535188 106.6241771  39.2594256  87.3809155 107.2431958  38.8064728
  88.5267982 107.1741133  39.7934178  94.0210578  95.8700411  51.4440805
  94.9728001  95.9698509  51.4653029  93.8514028  95.0778680  51.9538889
  92.0424957  92.9555994  51.6300206  91.4474890  93.2361007  50.9346694
  91.7574654  93.4449895  52.4016947  91.1732448 106.9078921  40.3902838
  92.1063121 106.8424483  40.5935714  91.0855661 107.7435188  39.9317371
  93.8020465 106.2244791  37.3506786  93.7234096 105.8904655  38.2442544
  94.6230131 106.7166559  37.3498258  96.4998656  99.0906531  50.5583104
  96.4674976  98.1522531  50.7442788  97.1099279  99.1690567  49.8248929
  88.3381987  97.9602584  36.6010308  89.2841091  97.8308792  36.6698726
  87.9596232  97.2217246  37.0779737  96.6493144  95.8817574  50.6041387
  96.1332193  95.0976031  50.4171316  97.5333093  95.5536291  50.7687907
  94.3103871  89.6258590  46.5637200  94.1128692  89.3173678  47.4480532
  94.9203577  90.3520229  46.6935130 102.3175206 100.1522538  49.6989141
 103.0478594  99.8907826  50.2596844 101.7082151  99.4151259  49.7391209
 100.3990503  98.2930400  50.2963592  99.6723666  98.1586365  49.6880084
  99.9837790  98.6007229  51.1020310  88.2220679 102.0120330  58.0610965
  89.1423689 102.1898929  58.2551012  88.1870262 101.0676375  57.9090665
  86.5224904  95.8852560  36.5365194  85.6156359  95.5885673  36.6127907
  86.8000885  95.5882378  35.6699480  77.4402844  97.2058923  46.9864240
  77.1205628  96.3524232  46.6938614  76.8936272  97.4207502  47.7422207
  81.2182752  99.9221364  50.7033746  81.4368761 100.8538472  50.7221780
  81.6308526  99.5629339  51.4888550  88.1386969  90.4289450  42.6909435
  87.3287698  90.0836535  43.0664681  88.8271386  90.1196993  43.2797046
  90.0677518  89.5067497  44.3133731  90.6208556  89.9262950  44.9723755
  90.3047604  88.5803245  44.3556688  86.0910617  95.4954570  60.0936495
  85.9907344  96.4448927  60.0248587  85.8732159  95.1672809  59.2212565
  85.2923688  92.7439495  36.6777173  86.1542852  93.0694394  36.9372990
  85.4774033  91.9570991  36.1650239  77.3091104 100.8261835  48.9557362
  76.6154576 100.4115788  48.4427316  78.0564095 100.8682371  48.3590780
  93.4456325  91.6168022  43.8212396  92.8654994  92.2752826  43.4390448
  93.1792258  90.7945366  43.4099813  91.8959891  91.0173079  46.0233716
  92.3959670  91.1289614  45.2148035  92.5395499  90.7134132  46.6634525
  85.9541887  98.9251709  58.9101557  85.4708969  99.7252069  59.1165446
  86.0402826  98.9359654  57.9569001  79.2227847 100.7580089  46.8323376
  79.1998535 100.8567776  45.8805260  79.5328483 101.6045240  47.1540543
  81.8815225 102.8156244  50.9469991  82.8358478 102.7840186  50.8799922
  81.6827748 102.3546867  51.7620217  82.4714607 101.3857360  53.5140789
  83.2907496 101.8801438  53.5375626  82.7451414 100.4689328  53.4858356
  92.2281203  93.7768112  42.8768744  91.3407058  94.0617763  42.6588939
  92.6435192  93.6161875  42.0296021  95.5795739  93.8014633  46.5923083
  96.3556129  94.2911086  46.8647700  94.8543873  94.2272687  47.0494953
  98.0168298  94.5142252  47.6497024  98.6112788  94.2737988  46.9390332
  98.0894881  93.7949383  48.2770560  80.2365453 108.3575863  47.9640189
  80.1019921 107.5976264  47.3978187  79.8197516 109.0816763  47.4968978
  91.3724416 103.5412787  36.9716764  92.0760266 103.7462789  37.5874420
  90.6487065 104.1089549  37.2365848  92.2022227  99.2922648  43.0919034
  92.1457428  99.7491199  42.2526667  92.7550569  98.5313333  42.9141877
  96.0127033  95.0812380  43.9169154  95.7563967  94.6809016  44.7477361
  95.3879901  95.7956174  43.7919293 100.3239370  97.8208453  46.4240445
  99.7638928  97.8901642  47.1972007  99.7182874  97.6449438  45.7039941
  83.3934579 109.2545180  48.1758631  83.2766963 110.1990613  48.0737322
  82.5727025 108.9518742  48.5644431  93.2811114 103.9795316  39.0215224
  94.1156718 103.5476514  38.8392699  93.1195457 103.8077330  39.9492119
  92.9357006 100.4827429  40.3871563  92.8805810 100.3171701  39.4460007
  92.3103061 101.1903462  40.5433753  77.7249521  95.7195494  54.2132986
  78.3708385  95.2094448  54.7020211  77.5166672  96.4564175  54.7876411
  90.2502913 102.7876341  59.7125126  91.1194073 102.9616993  59.3511761
  89.7709665 103.6070758  59.5900855  86.2453131  89.9835538  39.9656882
  86.2331801  90.9277378  40.1225153  87.1376553  89.8005684  39.6716343
  84.4189093 109.9073442  51.3914560  85.3216340 109.9397052  51.7081055
  84.1926463 108.9773893  51.4060896  86.1742695 108.6604429  48.0524638
  85.2238326 108.6606290  47.9389011  86.4775182 107.9137163  47.5360673
  90.0605251  86.5778315  44.2202819  89.2937647  86.0236802  44.3659501
  90.4715956  86.6500184  45.0816970  82.0647012  92.8663111  58.3108000
  82.9278473  92.5099916  58.5211324  81.4912423  92.5277006  58.9983404
 101.9095389 114.4964967  49.1170401 102.5473799 114.3771714  48.4133741
 101.7916232 115.4445811  49.1758353  98.7185095 114.4492395  49.0531926
  98.3803607 114.3333460  48.1652460  99.5874863 114.0483560  49.0332932
  94.5771911 116.3027872  45.0428816  94.0136776 116.2117809  44.2745104
  94.4624306 115.4827776  45.5231309  99.2004878 115.6027247  55.0118131
  99.1893519 115.2080045  54.1398635  99.3625518 114.8693320  55.6051902
  92.1236343 117.7979063  47.8813037  92.9157635 117.4569888  47.4659336
  92.3632993 117.9074038  48.8015190  94.0827097 117.0587976  40.7530416
  94.8557973 116.5116964  40.6143292  94.4352496 117.9232226  40.9644877
  95.9212139 118.3864359  53.9597315  95.6302005 119.2909990  53.8443981
  96.5569124 118.4280886  54.6741385  96.8468346 115.7641207  50.5498675
  97.4431918 115.5397230  49.8355638  96.9043318 115.0225953  51.1524123
  96.4193375 113.2180643  38.3848866  96.6718895 112.6962164  37.6232329
  95.4817934 113.0546788  38.4875549 101.4636657 112.2216421  46.1923609
 102.2499747 111.8035844  45.8414026 101.7275362 113.1262513  46.3605257
 106.8645084 112.1591654  47.0956587 107.5970256 111.5890871  47.3294417
 106.1084440 111.7713255  47.5363093  96.1389663 115.1208749  40.5873241
  96.0225921 114.4453652  41.2554325  96.2491923 114.6341122  39.7705394
  98.4821204 114.5818896  44.2919930  98.1179411 114.0549517  45.0032851
  99.3388320 114.1917365  44.1186415 104.3870505 105.8713228  51.5551196
 104.0553830 106.7408639  51.3312411 103.7916118 105.5549512  52.2345226
  98.1226691 109.6108795  39.2881278  98.2901094 110.4789032  39.6551749
  97.9323860 109.7736077  38.3642568  94.3314506 114.5239571  46.9883813
  93.4065002 114.3915785  47.1961505  94.5798919 115.3033790  47.4853756
 104.2799168 110.5908314  48.6344546 103.3716045 110.5223723  48.3403307
 104.2286764 111.0680259  49.4626372  98.1015912 112.0666453  40.2727945
  97.9815537 112.5123504  41.1113425  97.4068500 112.4151770  39.7141483
  91.6923317 114.1672845  47.8227602  91.8215698 114.4207324  48.7367014
  91.0120768 114.7600553  47.5032257  98.3540034 112.0097960  56.5779443
  97.5773368 112.5691880  56.5682308  98.9930597 112.4954743  57.0994313
 106.1460815 108.7924753  50.4122420 105.5035195 109.0857286  49.7662215
 105.6415743 108.6777673  51.2175617 103.8000978 112.5387926  41.1008279
 104.7118834 112.7715313  40.9255977 103.2910625 113.1224970  40.5383358
  96.6086406 114.8183413  56.1397410  97.3501091 115.3568457  55.8632234
  95.9023392 115.4449702  56.2968962 102.0841746 116.9612554  54.7369572
 102.4925102 116.5194964  53.9924204 101.3619007 116.3865181  54.9903765
  98.4372816 111.8985161  52.1103129  99.2834011 112.3224574  52.2537778
  98.3771454 111.2418785  52.8041692 101.5872261 109.5589529  53.7684302
 101.3433193 110.3131589  53.2318578 101.8632192 109.9374877  54.6031549
 101.1436953 108.7145962  49.3498140 100.2821432 109.0127216  49.6414878
 101.1699388 108.9316361  48.4179173  97.9598522 117.2588153  45.7571946
  98.4236868 117.5375856  44.9676568  97.6955320 116.3571597  45.5745036
  94.8522603 116.8059634  48.6951709  95.4223961 117.2346902  48.0569194
  95.4430715 116.5242219  49.3935895  96.8967408 113.3811305  42.5661511
  97.5991452 113.8332349  43.0335437  96.5648037 112.7395124  43.1941404
  95.3447770 111.9723062  56.9412720  94.7146431 112.6539342  57.1748117
  95.2383858 111.8606143  55.9965859  90.6392742 111.6394858  47.8678644
  89.8491796 111.8952386  47.3918755  91.1303990 112.4543195  47.9730685
  92.5907488 112.0039437  44.8262121  91.7938651 112.1158131  45.3445617
  92.3633080 112.3426089  43.9603012  98.4213155 118.5284140  52.7744636
  98.4857588 118.9904547  53.6102808  97.7124079 117.8981505  52.9026946
  88.9230445 111.8925348  50.2993635  89.1738484 112.7772358  50.5651211
  89.4589994 111.7129950  49.5268727  94.6228513 106.2743827  59.3037971
  94.2295458 105.7210026  59.9785616  95.4394653 106.5854406  59.6944489
  91.5890570 117.7127686  43.2151541  92.1015091 118.5070936  43.3657106
  92.2413283 117.0153976  43.1485143  93.3985455 120.8293442  45.2974294
  93.5752083 121.7511407  45.1095278  94.1942289 120.5151861  45.7268674
  97.5396474 107.6901706  56.8958228  98.2806187 108.2908860  56.8162690
  97.7714397 106.9479344  56.3376270  92.6837812 112.8758074  55.1736458
  92.5691327 111.9743331  55.4743556  91.8282329 113.1221770  54.8221274
  94.5216771 122.3471616  51.2984637  95.0724196 122.2188679  50.5261631
  93.6828247 122.6466505  50.9479530  98.3183942 118.6122743  55.6428868
  98.8512278 117.8511032  55.4128176  97.7898023 118.3196395  56.3853022
 101.4853637 103.7182809  51.1722510 101.1417906 104.6084451  51.0961620
 101.8532599 103.5284467  50.3092095  89.5539487 116.0416340  43.9911112
  90.3914709 116.4513348  43.7744819  89.7317755 115.1015782  43.9611306
 101.4503919 113.7091421  39.6794945 100.9350543 114.4796025  39.9183332
 101.1781228 113.0356557  40.3028006  99.0351030 108.5541121  44.7380183
  98.1792627 108.1647972  44.5585822  99.4477982 108.6333082  43.8779969
 100.5650177 106.0887465  49.1371743 100.0614973 106.0517600  48.3239548
 100.8580784 106.9980207  49.1968399  96.8093063 106.1726194  48.1437925
  97.6746060 105.9769003  47.7843814  96.8770572 105.9436546  49.0707281
 101.2390223 111.5818513  41.5054726 100.9340358 111.8964662  42.3564869
 102.1920665 111.6599932  41.5482059  99.6836654 117.7408736  43.1547680
  99.1558016 117.0061496  42.8420917  99.1824157 118.5183412  42.9087648
  94.4155382 108.4028402  45.5154291  94.9899134 108.1803584  44.7827484
  95.0026364 108.4717097  46.2682893 103.4734959 114.2902129  46.3218668
 103.9866841 114.9232121  46.8240378 104.1236183 113.6903325  45.9562028
  94.7424969 110.4332863  39.5350177  93.9062281 110.7707550  39.8559451
  94.6029739 110.2981843  38.5977314  96.7178050 105.2769651  44.2429361
  96.0642462 104.9618668  43.6185976  96.6758524 104.6545392  44.9689184
  97.8289255 115.5588946  36.1582653  96.9216316 115.3278200  36.3573802
  98.3260287 114.7626565  36.3456634  99.9515790 111.7651585  48.5677008
  99.0338351 111.9866532  48.4098696 100.3675934 111.8397895  47.7088716
 100.7350838 113.1643000  43.6979689 101.4822657 113.6764398  43.3886811
 101.0042427 112.8427053  44.5584082  99.0077488 115.6601541  40.6806643
  98.0988707 115.3760574  40.7779113  99.0372572 116.0800620  39.8209950
 103.1829675 110.2000117  45.6798478 102.4452432 109.6877503  46.0108721
 103.4356449 109.7600498  44.8681755 103.2841302 102.9776369  46.2740247
 103.5900179 102.1173732  45.9866162 104.0093907 103.5693989  46.0739241
  89.5765658 113.3807055  44.6621845  89.3790058 112.7876416  43.9372912
  89.0212322 113.0759265  45.3797784  97.5562382 113.2730162  46.7816438
  97.6110992 112.3203998  46.7058915  96.7453584 113.4289601  47.2657737
  98.7053576 117.2010285  38.0194722  98.2673006 116.4846144  37.5600359
  99.4464017 117.4286400  37.4579813  95.4954742 111.8907221  44.5406817
  94.6822607 112.1901392  44.9472009  95.9913736 111.4962910  45.2581299
 101.0928954 112.3549046  53.3721711 101.4478341 112.5820519  54.2316177
 101.7401085 112.6867423  52.7498966  94.9868817 109.4625577  50.1568052
  95.6268196 109.3214336  49.4591015  94.1546347 109.1760090  49.7806654
  95.7629121 118.7628007  46.2703045  96.5569719 118.2678327  46.0685620
  95.0520813 118.2345870  45.9070750  92.0711884 112.9071089  42.3462797
  91.1409472 112.8455545  42.5632759  92.1669356 112.3847042  41.5499439
  91.9897433 109.4325902  44.9341039  92.2504250 110.3471235  44.8250199
  92.8114605 108.9650344  45.0837652  93.4622358 110.8463659  52.1039863
  94.1345412 110.6381021  51.4552512  92.6352145 110.6485745  51.6645096
  99.3647930 107.4725600  54.1205524  98.7175846 108.1715550  54.0270001
 100.1348946 107.9061744  54.4881773  99.5412065 115.3106365  52.1802344
 100.4704125 115.4617525  52.0071311  99.1203095 115.3990386  51.3250991
  98.3400397 119.3357029  49.9500882  98.2011482 118.9675814  50.8226820
  97.5514993 119.8504669  49.7784839  99.8905612 118.7138632  47.3389719
  99.5555444 118.6739402  48.2347369  99.3909557 118.0483348  46.8660130
  93.8649856 114.1206262  52.8642301  93.7269654 113.3886501  53.4653840
  94.7754779 114.0315162  52.5826488 102.8264803 116.0594666  37.6126779
 102.2093974 115.3341495  37.5159832 102.3581292 116.8204027  37.2693853
  96.4932156 113.8326221  52.3525980  97.2031775 113.1919414  52.3112599
  96.4501465 114.0839116  53.2752161  95.2061090 110.8191439  54.1721620
  94.6698447 110.3682178  54.8243216  94.6177799 110.9537348  53.4292084
  94.6163349 110.2780091  36.7348083  93.7392816 110.1568891  36.3710330
  95.0921102 109.4866169  36.4826972  86.1365489 115.0657250  46.8289591
  86.8236529 114.7518980  46.2410606  85.9813618 115.9698615  46.5556842
  90.9400212 109.9547447  51.2574614  90.8558400 109.3473117  50.5225024
  90.1182918 110.4456465  51.2584111 101.1123925 108.4401010  46.6244809
 101.6092625 107.6870973  46.3045880 100.3410907 108.4765327  46.0588019
 102.1953706 117.1972698  44.1983233 101.2609985 117.3174160  44.0287937
 102.3730375 116.2945164  43.9343243  97.6958894 110.5818393  46.3516494
  97.3256682 110.0289434  47.0397399  98.1917987 109.9776527  45.7991494
 105.5826258 113.0390017  44.7333267 106.0486710 113.8718009  44.6593570
 106.0333758 112.5734999  45.4378525  95.5248093 121.0415889  53.4471512
  96.2257552 121.6752371  53.6000906  95.0543208 121.3830620  52.6867151
 103.5542920 105.4070604  48.7724168 102.6406000 105.6374831  48.9406375
 103.9836022 105.4909048  49.6238201 103.3249379 113.5960496  51.2724062
 102.6720829 113.8436403  50.6176515 103.7029759 112.7824634  50.9386539
  99.3736952 114.3380307  57.7590099  98.6977589 114.2374436  58.4292475
 100.1964586 114.1819521  58.2226097  91.1215811 120.5752244  50.3802615
  91.7069248 119.8295931  50.5130519  90.9240649 120.8856200  51.2639278
  85.7133466 113.1457844  49.1007058  85.7517565 112.6121434  49.8944176
  85.2073758 112.6193049  48.4818035  93.0924228 107.9922384  52.5969600
  93.1565554 108.8537215  52.1846998  93.0291348 107.3796386  51.8641959
  92.5676500 110.0645517  56.2442634  93.1948539 109.6822594  56.8580159
  91.7104419 109.8459719  56.6098327  89.3442043 111.8721946  42.1760989
  89.6395484 110.9632624  42.1228043  88.4430079 111.8509685  41.8541991
  92.8736290 109.9477942  48.1588538  92.1522876 110.5613910  48.0196011
  93.6629546 110.4835707  48.0805184  95.6762604 107.2832369  54.4329189
  96.1997005 107.5294666  55.1955499  95.4574937 108.1152404  54.0132327
  91.0729885 109.5536044  42.3000314  90.7442591 108.6733422  42.1175420
  91.4269255 109.4983712  43.1876703  94.1871708 109.8409013  42.6675792
  94.5267780 110.3694935  41.9454400  94.6343828 110.1789419  43.4434358
  96.8815149 108.2246064  52.1178860  96.5411969 107.4253877  52.5199540
  96.1754155 108.5247775  51.5455693  97.5331621 105.3095377  50.5706183
  98.3557690 104.8355855  50.4485073  97.7769684 106.0885860  51.0704869
  96.1739855 108.3383635  40.8669085  96.8948218 108.7164888  40.3632802
  95.5505159 109.0572512  40.9704063 100.3170978 109.0428784  41.8027417
 100.5334592 109.9253422  41.5016245  99.8365045 108.6514997  41.0733059
  95.0570199 112.0014497  48.3798162  94.9114780 112.3154800  49.2722443
  94.5795403 112.6199397  47.8269060  96.9166582 108.9917045  48.4279051
  96.9028151 108.0958138  48.0911349  97.6339010 108.9987709  49.0617337
  98.7692713 109.4254385  50.4732179  98.5110491 110.3471456  50.4716509
  98.2377753 109.0284820  51.1632643  89.5315861 114.5419842  51.3185823
  88.9869330 115.3179650  51.4506097  90.4095211 114.8890646  51.1604944
  96.3203478 107.8731425  43.6966621  96.4419389 106.9448072  43.8957509
  96.0305520 107.8870111  42.7844937  99.1894669 105.5586336  46.8333341
  99.2116365 105.6225669  45.8785321  99.6062728 104.7190845  47.0273847
  90.3181883 113.6689738  54.2115980  89.5763619 113.8172373  54.7980610
  89.9974628 113.9298003  53.3482729  90.7638497 121.5555167  46.2426374
  91.5896517 121.2558938  45.8625018  90.4132549 120.7862789  46.6916163
  95.7320030 120.9081635  48.3124048  95.1100039 120.2452340  48.0126276
  96.4024897 120.9342767  47.6297696  88.9647102 119.4741493  47.2015308
  88.1279010 119.0463667  47.0199309  88.9370747 119.6673936  48.1386099
  95.8044558 109.3863423  57.9056554  95.8532713 110.2625546  57.5234324
  96.3467072 108.8440816  57.3328197  95.2933537 119.4585558  41.7882508
  95.4421657 120.1421023  41.1349181  96.0999981 119.4390648  42.3031964
 103.7001041 112.7627940  55.8149726 104.6010904 112.6234405  55.5233724
 103.7749015 112.9282395  56.7547904  98.0343846 110.1394795  54.6602913
  97.1647156 110.4328361  54.3885501  98.2703326 110.7235240  55.3810176
  93.0486170 115.4850736  42.7943577  92.8032212 114.5813066  42.9923787
  93.2182085 115.4867886  41.8523055 100.7382880 106.3574412  52.1768333
 101.2564824 107.0935439  51.8514822 100.3838013 106.6638405  53.0115092
  92.3181818 111.2179093  40.2929739  91.6251063 111.2923448  39.6369775
  92.0733569 110.4539437  40.8151256 100.9895474 102.7774695  47.6969230
 101.2697228 102.1097884  48.3229656 101.7746081 102.9703790  47.1843893
 104.8604332 111.1992329  51.4440805 105.8121755 111.2990426  51.4653029
 104.6907783 110.4070597  51.9538889 102.8818712 108.2847912  51.6300206
 102.2868644 108.5652925  50.9346694 102.5968409 108.7741813  52.4016947
  99.1775741 113.2894501  36.6010308 100.1234846 113.1600709  36.6698726
  98.7989986 112.5509163  37.0779737 107.4886899 111.2109492  50.6041387
 106.9725947 110.4267948  50.4171316 108.3726847 110.8828208  50.7687907
 105.1497626 104.9550507  46.5637200 104.9522447 104.6465596  47.4480532
 105.7597331 105.6812146  46.6935130  99.0614434 117.3412247  58.0610965
  99.9817443 117.5190846  58.2551012  99.0264017 116.3968293  57.9090665
  97.3618658 111.2144478  36.5365194  96.4550114 110.9177590  36.6127907
  97.6394639 110.9174296  35.6699480  88.2796599 112.5350841  46.9864240
  87.9599383 111.6816149  46.6938614  87.7330027 112.7499419  47.7422207
  92.0576506 115.2513282  50.7033746  92.2762516 116.1830390  50.7221780
  92.4702280 114.8921257  51.4888550  98.9780724 105.7581367  42.6909435
  98.1681452 105.4128452  43.0664681  99.6665141 105.4488911  43.2797046
 100.9071272 104.8359414  44.3133731 101.4602311 105.2554868  44.9723755
 101.1441359 103.9095162  44.3556688  96.9304372 110.8246488  60.0936495
  96.8301098 111.7740845  60.0248587  96.7125914 110.4964727  59.2212565
  96.1317443 108.0731413  36.6777173  96.9936607 108.3986311  36.9372990
  96.3167787 107.2862909  36.1650239  88.1484859 116.1553753  48.9557362
  87.4548330 115.7407705  48.4427316  88.8957850 116.1974289  48.3590780
 104.2850079 106.9459939  43.8212396 103.7048748 107.6044743  43.4390448
 104.0186012 106.1237284  43.4099813 102.7353646 106.3464997  46.0233716
 103.2353424 106.4581532  45.2148035 103.3789254 106.0426050  46.6634525
  96.7935642 114.2543627  58.9101557  96.3102723 115.0543987  59.1165446
  96.8796581 114.2651572  57.9569001  90.0621601 116.0872006  46.8323376
  90.0392289 116.1859694  45.8805260  90.3722238 116.9337157  47.1540543
  92.7208979 118.1448161  50.9469991  93.6752233 118.1132104  50.8799922
  92.5221503 117.6838785  51.7620217  93.3108361 116.7149277  53.5140789
  94.1301250 117.2093356  53.5375626  93.5845169 115.7981246  53.4858356
 103.0674957 109.1060030  42.8768744 102.1800812 109.3909680  42.6588939
 103.4828946 108.9453793  42.0296021 106.4189494 109.1306551  46.5923083
 107.1949884 109.6203003  46.8647700 105.6937628 109.5564605  47.0494953
 108.8562052 109.8434170  47.6497024 109.4506543 109.6029906  46.9390332
 108.9288636 109.1241301  48.2770560  91.0759208 123.6867781  47.9640189
  90.9413676 122.9268182  47.3978187  90.6591270 124.4108681  47.4968978
 103.0415981 114.6214566  43.0919034 102.9851183 115.0783117  42.2526667
 103.5944324 113.8605250  42.9141877 106.8520787 110.4104298  43.9169154
 106.5957721 110.0100933  44.7477361 106.2273655 111.1248092  43.7919293
 103.7750760 115.8119347  40.3871563 103.7199564 115.6463618  39.4460007
 103.1496816 116.5195380  40.5433753  88.5643275 111.0487411  54.2132986
  89.2102139 110.5386365  54.7020211  88.3560427 111.7856093  54.7876411
  97.0846886 105.3127456  39.9656882  97.0725556 106.2569296  40.1225153
  97.9770308 105.1297601  39.6716343 100.8999005 101.9070233  44.2202819
 100.1331401 101.3528719  44.3659501 101.3109710 101.9792101  45.0816970
  92.9040766 108.1955028  58.3108000  93.7672228 107.8391833  58.5211324
  92.3306177 107.8568923  58.9983404  36.8732863  -0.4724416  35.8415707
  37.5111273  -0.5917669  35.1379048  36.7553706   0.4756428  35.9003660
  33.6822569  -0.5196988  35.7777232  33.3441081  -0.6355924  34.8897767
  34.5512338  -0.9205823  35.7578238  34.1642352   0.6337863  41.7363438
  34.1530993   0.2390662  40.8643941  34.3262992  -0.0996064  42.3297209
  27.0873817   2.8289680  34.6058344  27.8795109   2.4880504  34.1904643
  27.3270467   2.9384655  35.5260497  30.8849614   3.4174975  40.6842622
  30.5939480   4.3220606  40.5689288  31.5206598   3.4591503  41.3986691
  31.8105820   0.7951824  37.2743981  32.4069393   0.5707846  36.5600944
  31.8680792   0.0536569  37.8769429  41.8282559  -2.8097729  33.8201894
  42.5607731  -3.3798513  34.0539723  41.0721914  -3.1976129  34.2608400
  35.8439499   3.1036391  37.6792415  35.5440222   4.0061430  37.5708223
  35.4990558   2.8368574  38.5313568  39.2436642  -4.3781069  35.3589853
  38.3353520  -4.4465661  35.0648614  39.1924238  -3.9009124  36.1871678
  30.8260278   9.8680711  30.6463383  30.7484308  10.8188536  30.7251864
  30.2221922   9.5226584  31.3038309  33.3177508  -2.9591423  43.3024750
  32.5410842  -2.3997503  43.2927615  33.9568071  -2.4734640  43.8239620
  41.1098289  -6.1764631  37.1367727  40.4672669  -5.8832098  36.4907521
  40.6053217  -6.2911710  37.9420923  31.5723881  -0.1505970  42.8642717
  32.3138565   0.3879074  42.5877541  30.8660866   0.4760319  43.0214269
  37.0479220   1.9923170  41.4614878  37.4562576   1.5505581  40.7169511
  36.3256482   1.4175798  41.7149071  33.4010290  -3.0704223  38.8348435
  34.2471485  -2.6464809  38.9783084  33.3408928  -3.7270599  39.5286998
  37.3708035   2.5524361  35.2167167  36.7416897   2.7170075  34.5143235
  36.9833697   2.9665971  35.9878131  41.2497267   3.4878799  32.5711531
  40.5648305   3.8677700  32.0208564  41.3341116   4.0974125  33.3043479
  36.5509736  -5.4099855  40.4929609  36.3070667  -4.6557794  39.9563885
  36.8269666  -5.0314507  41.3276856  38.5048198   1.1338758  39.1706875
  38.7165094   1.7770518  38.4941256  38.4577947   0.3001074  38.7028805
  29.8160078   1.8370251  35.4197016  30.3861435   2.2657519  34.7814500
  30.4068190   1.5552835  36.1181201  39.6194026   4.0110713  37.3429232
  40.4411470   3.6090901  37.0611914  39.6156429   3.9078947  38.2945348
  33.3850630   3.5594757  39.4989942  33.4495062   4.0215164  40.3348114
  32.6761554   2.9292121  39.6272252  47.7100019   0.3549462  33.6914203
  46.9563728  -0.2143140  33.5358208  47.8447561   0.3212126  34.6384838
  28.3622929   5.8604058  32.0219601  28.5389558   6.7822023  31.8340585
  29.1579763   5.5462478  32.4513981  34.7267124   5.8486431  43.4969265
  34.2830978   5.0622809  43.1790169  35.3884337   6.0365581  42.8313156
  29.4854245   7.3782232  38.0229943  30.0361670   7.2499296  37.2506937
  28.6465721   7.6777121  37.6724836  36.8248362   6.1289230  41.5250666
  36.8066837   6.9498112  41.0330935  37.7468282   6.0043306  41.7500807
  33.2821416   3.6433360  42.3674174  33.8149753   2.8821648  42.1373482
  32.7535497   3.3507012  43.1098329  39.6266975   0.9668373  34.9960033
  38.9690649   1.6567634  35.0840161  40.4307374   1.3564805  35.3394019
  38.4372434  -0.6787254  33.0463975  38.9504315  -0.0457263  33.5485684
  39.0873657  -1.2786059  32.6807335  34.9153264  -3.2037799  35.2922315
  33.9975826  -2.9822852  35.1344003  35.3313408  -3.1291488  34.4334022
  39.2034230   4.3018747  31.1743117  38.7496557   3.4609657  31.2308308
  38.5728196   4.9380145  31.5117897  37.6467169   6.1395244  32.1092935
  37.9390143   6.7000301  31.3905301  38.1565790   6.4323805  32.8646094
  32.6100794   6.9175595  33.1986389  32.5676973   7.1436441  32.2694921
  33.5263493   6.6838969  33.3472190  36.0566428  -2.6140338  40.0967018
  36.4115816  -2.3868864  40.9561483  36.7038559  -2.2821961  39.4744273
  41.7864165   0.5078098  30.8016347  41.6482063   0.6979694  29.8737536
  41.4300384   1.2697481  31.2584398  41.8133545   2.5754625  35.8127618
  42.2470051   2.4829914  36.6610672  42.5265125   2.5512126  35.1747634
  35.5461439   6.1756719  37.3460719  35.5998462   6.7447656  38.1138435
  34.6776221   6.3458604  36.9814756  42.6749094   2.6178326  38.3460504
  42.8684984   3.5224136  38.5919779  42.5749712   2.1585745  39.1799089
  37.7364203   2.7685069  43.9201384  37.5849709   2.5395620  43.0031468
  37.7268882   3.7255670  43.9332729  34.5049539   0.3416981  38.9047651
  35.4341599   0.4928141  38.7316618  34.0840569   0.4301002  38.0496297
  33.3037871   4.3667646  36.6746188  33.1648957   3.9986430  37.5472126
  32.5152467   4.8815285  36.5030146  33.8986023   9.4676742  28.0171725
  34.0737779   8.9964786  28.8317348  33.2118811  10.0942509  28.2452986
  34.8543086   3.7449249  34.0635026  34.5192919   3.7050019  34.9592676
  34.3547032   3.0793964  33.5905436  28.8287330  -0.8483121  39.5887607
  28.6907128  -1.5802883  40.1899146  29.7392254  -0.9374221  39.3071795
  31.4569631  -1.1363162  39.0771287  32.1669249  -1.7769970  39.0357905
  31.4138939  -0.8850267  39.9997468  39.4456409   5.8004191  41.9977866
  39.3868956   5.1163411  41.3308449  39.8475928   6.5423181  41.5458492
  28.4647108  12.6166105  34.7911585  28.7043706  13.2484629  35.4690604
  27.6216305  12.2654145  35.0776944  39.4473817   3.7643775  40.2291846
  38.5600595   3.4269697  40.3518245  40.0172368   3.0326806  40.4660611
  32.9774970   8.4245228  37.1953089  32.9045142   9.2300199  37.7072394
  32.5352363   8.6237193  36.3701110  32.7664750   7.6616998  30.7055911
  31.9832272   8.2038678  30.7994135  33.4657495   8.1790977  31.1050152
  43.9291157  -0.8248007  34.9908407  43.9181033   0.0576708  34.6202341
  43.0608537  -1.1776457  34.7962945  35.4373654   8.3232062  39.3511248
  36.1501626   8.9579526  39.2787149  34.9463682   8.4195928  38.5351250
  30.4885567   6.0726505  40.1716818  31.1895027   6.7062988  40.3246213
  30.0180682   6.4141237  39.4112458  38.2886853  -1.3728888  37.9969369
  37.6358303  -1.1252980  37.3421822  38.6667233  -2.1864749  37.6631846
  35.2494027   8.6630806  32.0997539  35.4316421   7.8452462  32.5625291
  36.0727013   8.8798498  31.6622429  35.5836192   7.5898991  29.3612588
  36.1123959   7.0791445  28.7482750  35.8464412   7.2741521  30.2258121
  34.3374426  -0.6309076  44.4835406  33.6615063  -0.7314947  45.1537781
  35.1602060  -0.7869863  44.9471403  26.0853285   5.6062860  37.1047921
  26.6706722   4.8606548  37.2375825  25.8878124   5.9166817  37.9884585
  28.9391940   8.6414107  32.1210364  28.2702316   9.1260235  31.6374404
  28.8004810   8.8883328  33.0353742  33.0797209  10.6757851  38.7193022
  33.6315517  10.8389472  39.4842107  33.4203402  11.2662289  38.0473047
  37.9308083   5.5019109  44.5741676  38.4747987   6.1149067  44.0796631
  37.3494928   6.0598687  45.0908689  36.2165596   8.6239827  35.7056704
  36.0916736   7.8229566  35.1967650  36.8744687   9.1186020  35.2170674
  38.2800505   6.4248847  37.3336254  37.3330840   6.3054198  37.2614581
  38.6283278   5.5371345  37.4162516  35.2846938   6.2201563  33.5340606
  35.1371900   5.2918270  33.7148176  36.1100431   6.2421654  33.0497682
  38.8881060   7.0430122  34.6205479  39.8127607   6.8372983  34.4829930
  38.7196363   6.7946523  35.5294821  38.6776376   7.5615789  29.9767571
  38.8513254   6.9962211  29.2241423  39.1705267   8.3616684  29.7947061
  44.5315767   0.3252212  31.5957870  44.9746913  -0.4240463  31.1976994
  43.6542277   0.3162348  31.2131602  39.6651548   6.8782553  27.0764469
  40.3602453   7.4989246  27.2951784  40.0074699   6.0277905  27.3516847
  41.5642972   4.3282259  28.6051800  42.0894296   4.6669532  27.8801120
  41.4765324   3.3929274  28.4214934  33.2263020   8.2416333  40.7341676
  33.5350147   7.9965479  41.6064376  34.0238502   8.4462971  40.2460547
  33.2483632  10.3954242  32.9647053  32.8088623   9.9030621  33.6579910
  33.9991749   9.8527210  32.7239128  25.7275971   6.5865783  32.9671681
  26.5533991   6.2869555  32.5870324  25.3770023   5.8173406  33.4161470
  30.6957504   5.9392251  35.0369355  30.0737514   5.2762956  34.7371582
  31.3662371   5.9653383  34.3543002  41.2536878   4.9615163  43.9102998
  40.4632421   4.9439301  43.3707497  41.0170232   5.5003456  44.6652034
  41.3734753   1.8107629  41.2235726  41.4232758   1.6457636  42.1651249
  41.2648676   0.9434888  40.8333607  38.6638515  -2.2061443  42.5395033
  39.5648378  -2.3454978  42.2479031  38.7386490  -2.0406988  43.4793210
  42.8752950   4.2304570  41.4677748  42.5837758   4.5934551  42.3041209
  42.2625081   3.5171579  41.2891080  44.0748632   1.7957450  33.9880318
  44.9095523   2.2347254  34.1517878  44.2107761   1.3196103  33.1688564
  41.1240138  -0.6462815  39.9357806  41.5994259  -0.4535169  39.1276657
  40.2005703  -0.5903629  39.6901189  39.8241807  -3.7697055  38.1686111
  40.7759230  -3.6698957  38.1898335  39.6545257  -4.5618786  38.6784196
  37.8456186  -6.6841472  38.3545512  37.2506118  -6.4036459  37.6592001
  37.5605883  -6.1947571  39.1262253  42.3029885  -0.5490935  37.2828411
  42.2706205  -1.4874934  37.4688095  42.9130508  -0.4706898  36.5494236
  42.4524373  -3.7579892  37.3286694  41.9363422  -4.5421435  37.1416623
  43.3364322  -4.0861175  37.4933214  48.1206434   0.5125072  36.4234448
  48.8509823   0.2510360  36.9842151  47.5113380  -0.2246206  36.4636516
  46.2021732  -1.3467066  37.0208899  45.4754895  -1.4811101  36.4125391
  45.7869018  -1.0390237  37.8265617  34.0251908   2.3722864  44.7856272
  34.9454917   2.5501463  44.9796318  33.9901491   1.4278909  44.6335971
  27.0213981   0.2823899  37.4279053  27.2399990   1.2141006  37.4467087
  27.4339754  -0.0768127  38.2133857  31.7573116  -0.7145757  45.6346864
  31.2740198   0.0854603  45.8410753  31.8434055  -0.7037812  44.6814308
  27.6846453   3.1758778  37.6715297  28.6389707   3.1442720  37.6045229
  27.4858977   2.7149402  38.4865523  28.2745835   1.7459894  40.2386095
  29.0938724   2.2403973  40.2620932  28.5482643   0.8291862  40.2103663
  43.8199526  -5.1255213  34.3742331  44.4144017  -5.3659478  33.6635639
  43.8926110  -5.8448083  35.0015867  26.0396682   8.7178397  34.6885495
  25.9051150   7.9578798  34.1223493  25.6228744   9.4419297  34.2214284
  46.1270599  -1.8189013  33.1485752  45.5670157  -1.7495823  33.9217314
  45.5214103  -1.9948028  32.4285248  29.1965808   9.6147714  34.9003938
  29.0798192  10.5593147  34.7982628  28.3758254   9.3121276  35.2889737
  36.0534142   3.1478875  46.4370433  36.9225302   3.3219528  46.0757068
  35.5740893   3.9673292  46.3146162  30.2220322  10.2675976  38.1159866
  31.1247569  10.2999587  38.4326361  29.9957692   9.3376427  38.1306202
  31.9773924   9.0206963  34.7769945  31.0269555   9.0208824  34.6634317
  32.2806410   8.2739697  34.2605980  47.7126618  14.8567501  35.8415707
  48.3505028  14.7374249  35.1379048  47.5947461  15.8048345  35.9003660
  44.5216324  14.8094929  35.7777232  44.1834835  14.6935994  34.8897767
  45.3906092  14.4086094  35.7578238  40.3803140  16.6630406  31.7674123
  39.8168005  16.5720343  30.9990411  40.2655535  15.8430310  32.2476616
  45.0036107  15.9629781  41.7363438  44.9924748  15.5682579  40.8643941
  45.1656746  15.2295854  42.3297209  37.9267572  18.1581597  34.6058344
  38.7188863  17.8172422  34.1904643  38.1664222  18.2676572  35.5260497
  45.9602698  20.3301373  27.0788588  45.3090678  20.9155454  26.6922602
  46.7547061  20.8607568  27.1383625  39.8858326  17.4190511  27.4775722
  40.6589202  16.8719498  27.3388598  40.2383724  18.2834760  27.6890184
  41.7243368  18.7466893  40.6842622  41.4333234  19.6512524  40.5689288
  42.3600352  18.7883421  41.3986691  42.6499575  16.1243741  37.2743981
  43.2463147  15.8999764  36.5600944  42.7074546  15.3828487  37.8769429
  42.2224603  13.5783177  25.1094172  42.4750124  13.0564698  24.3477635
  41.2849162  13.4149322  25.2120856  47.2667886  12.5818955  32.9168915
  48.0530975  12.1638378  32.5659332  47.5306590  13.4865047  33.0850564
  47.4377964  18.0191805  27.6157572  46.8023796  18.0926432  28.3278477
  47.1075370  18.6085404  26.9376652  52.6676313  12.5194188  33.8201894
  53.4001485  11.9493405  34.0539723  51.9115669  12.1315789  34.2608400
  41.9420892  15.4811283  27.3118547  41.8257150  14.8056186  27.9799632
  42.0523152  14.9943657  26.4950700  44.2852433  14.9421430  31.0165236
  43.9210640  14.4152051  31.7278158  45.1419549  14.5519899  30.8431722
  50.1901734   6.2315762  38.2796503  49.8585058   7.1011173  38.0557718
  49.5947347   5.9152046  38.9590533  43.9257920   9.9711330  26.0126585
  44.0932322  10.8391566  26.3797056  43.7355089  10.1338611  25.0887874
  46.6833253  18.4328308  37.6792415  46.3833976  19.3353347  37.5708223
  46.3384313  18.1660492  38.5313568  40.1345735  14.8842105  33.7129120
  39.2096231  14.7518319  33.9206812  40.3830148  15.6636325  34.2099062
  50.0830397  10.9510849  35.3589853  49.1747274  10.8826257  35.0648614
  50.0317993  11.4282794  36.1871678  43.9047141  12.4268987  26.9973252
  43.7846766  12.8726038  27.8358732  43.2099729  12.7754305  26.4386790
  37.4954546  14.5275379  34.5472909  37.6246927  14.7809858  35.4612321
  36.8151997  15.1203087  34.2277564  41.6654033  25.1972629  30.6463383
  41.5878063  26.1480454  30.7251864  41.0615677  24.8518501  31.3038309
  44.1571263  12.3700494  43.3024750  43.3804597  12.9294414  43.2927615
  44.7961826  12.8557277  43.8239620  51.9492043   9.1527287  37.1367727
  51.3066424   9.4459820  36.4907521  51.4446972   9.0380207  37.9420923
  49.6032207  12.8990460  27.8253586  50.5150063  13.1317847  27.6501283
  49.0941854  13.4827504  27.2628664  42.4117635  15.1785948  42.8642717
  43.1532319  15.7170992  42.5877541  41.7054621  15.8052236  43.0214269
  47.8872975  17.3215088  41.4614878  48.2956331  16.8797499  40.7169511
  47.1650236  16.7467716  41.7149071  44.2404045  12.2587695  38.8348435
  45.0865240  12.6827108  38.9783084  44.1802682  11.6021319  39.5286998
  48.2101789  17.8816279  35.2167167  47.5810652  18.0461993  34.5143235
  47.8227451  18.2957888  35.9878131  52.0891021  18.8170717  32.5711531
  51.4042059  19.1969618  32.0208564  52.1734871  19.4266043  33.3043479
  47.3903490   9.9192063  40.4929609  47.1464422  10.6734124  39.9563885
  47.6663421  10.2977411  41.3276856  49.3441953  16.4630676  39.1706875
  49.5558848  17.1062435  38.4941256  49.2971701  15.6292992  38.7028805
  46.9468182   9.0748496  36.0743447  46.0852661   9.3729750  36.3660184
  46.9730616   9.2918895  35.1424479  43.7629751  17.6190687  32.4817252
  44.2268097  17.8978390  31.6921875  43.4986549  16.7174131  32.2990343
  40.6553832  17.1662168  35.4197016  41.2255189  17.5949437  34.7814500
  41.2461944  16.8844753  36.1181201  42.6998637  13.7413839  29.2906818
  43.4022681  14.1934883  29.7580744  42.3679266  13.0997658  29.9186711
  41.1478999  12.3325596  43.6658027  40.5177659  13.0141877  43.8993424
  41.0415087  12.2208677  42.7211165  36.4423971  11.9997392  34.5923951
  35.6523025  12.2554920  34.1164062  36.9335219  12.8145730  34.6975992
  50.4587781  19.3402631  37.3429232  51.2805225  18.9382818  37.0611914
  50.4550184  19.2370865  38.2945348  38.3938717  12.3641971  31.5507428
  37.5969880  12.4760665  32.0690923  38.1664309  12.7028623  30.6848318
  44.2244384  18.8886674  39.4989942  44.2888817  19.3507081  40.3348114
  43.5155308  18.2584039  39.6272252  34.7261674  12.2527882  37.0238942
  34.9769713  13.1374892  37.2896518  35.2621223  12.0732484  36.2514034
  58.5493774  15.6841379  33.6914203  57.7957482  15.1148778  33.5358208
  58.6841315  15.6504044  34.6384838  43.9392402  20.5554782  29.3668923
  43.8038077  21.4006317  29.7953771  44.4802214  20.7574059  28.6034857
  40.4259742   6.6346362  46.0283278  40.0326687   6.0812560  46.7030922
  41.2425882   6.9456940  46.4189795  37.3921799  18.0730220  29.9396848
  37.9046320  18.8673470  30.0902413  38.0444512  17.3756510  29.8730449
  39.2016684  21.1895976  32.0219601  39.3783312  22.1113941  31.8340585
  39.9973517  20.8754395  32.4513981  43.3427703   8.0504241  43.6203535
  44.0837416   8.6511394  43.5407997  43.5745625   7.3081878  43.0621577
  38.4869041  13.2360608  41.8981764  38.3722556  12.3345865  42.1988863
  37.6313558  13.4824305  41.5466581  45.5660878  21.1778348  43.4969265
  45.1224732  20.3914727  43.1790169  46.2278092  21.3657499  42.8313156
  40.3247999  22.7074150  38.0229943  40.8755425  22.5791213  37.2506937
  39.4859475  23.0069039  37.6724836  47.6642116  21.4581148  41.5250666
  47.6460592  22.2790029  41.0330935  48.5862036  21.3335223  41.7500807
  44.1215170  18.9725278  42.3674174  44.6543507  18.2113566  42.1373482
  43.5929252  18.6798929  43.1098329  47.2884865   4.0785344  37.8967816
  46.9449135   4.9686985  37.8206927  47.6563828   3.8887001  37.0337401
  35.3570716  16.4018874  30.7156418  36.1945938  16.8115882  30.4990126
  35.5348984  15.4618316  30.6856612  47.2535148  14.0693955  26.4040251
  46.7381772  14.8398559  26.6428639  46.9812457  13.3959091  27.0273313
  44.8382259   8.9143656  31.4625490  43.9823856   8.5250506  31.2831128
  45.2509211   8.9935616  30.6025275  46.3681406   6.4489999  35.8617049
  45.8646201   6.4120134  35.0484855  46.6612013   7.3582741  35.9213706
  42.6124292   6.5328728  34.8683231  43.4777288   6.3371537  34.5089121
  42.6801801   6.3039080  35.7952588  52.2269422  16.8226309  28.3393425
  51.4498865  16.4837469  27.8948587  52.9060903  16.8278933  27.6648390
  47.0421451  11.9421047  28.2300032  46.7371587  12.2567196  29.0810176
  47.9951893  12.0202467  28.2727365  45.4867883  18.1011270  29.8792986
  44.9589245  17.3664030  29.5666224  44.9855386  18.8785946  29.6332955
  50.4660729  16.2960291  34.9960033  49.8084404  16.9859552  35.0840161
  51.2701128  16.6856723  35.3394019  40.2186611   8.7630936  32.2399598
  40.7930363   8.5406118  31.5072791  40.8057593   8.8319631  32.9928199
  49.2766188  14.6504663  33.0463975  49.7898070  15.2834655  33.5485684
  49.9267412  14.0505859  32.6807335  40.5456198  10.7935397  26.2595483
  39.7093510  11.1310084  26.5804758  40.4060968  10.6584377  25.3222620
  42.5209279   5.6372185  30.9674667  41.8673691   5.3221202  30.3431282
  42.4789753   5.0147926  31.6934490  43.6320483  15.9191480  22.8827960
  42.7247545  15.6880734  23.0819108  44.1291515  15.1229100  23.0701941
  46.5388562  24.6288988  25.8024646  45.8650261  24.9320684  26.4109604
  46.9254384  25.4318068  25.4530103  45.7547019  12.1254119  35.2922315
  44.8369580  12.3469066  35.1344003  46.1707162  12.2000429  34.4334022
  46.5382067  13.5245535  30.4224995  47.2853886  14.0366932  30.1132117
  46.8073656  13.2029587  31.2829389  44.8108717  16.0204075  27.4051950
  43.9019936  15.7363108  27.5024419  44.8403801  16.4403154  26.5455256
  50.0427984  19.6310665  31.1743117  49.5890311  18.7901575  31.2308308
  49.4121951  20.2672063  31.5117897  48.9860904  10.5602651  32.4043785
  48.2483661  10.0480037  32.7354027  49.2387677  10.1203032  31.5927061
  48.4860923  21.4687161  32.1092935  48.7783898  22.0292219  31.3905301
  48.9959544  21.7615722  32.8646094  49.0872531   3.3378903  32.9985554
  49.3931408   2.4776266  32.7111469  49.8125136   3.9296523  32.7984548
  35.3796887  13.7409589  31.3867152  35.1821287  13.1478950  30.6618218
  34.8243551  13.4361800  32.1043091  43.3593611  13.6332696  33.5061745
  43.4142221  12.6806532  33.4304222  42.5484813  13.7892135  33.9903043
  44.5084805  17.5612819  24.7440028  44.0704235  16.8448678  24.2845666
  45.2495245  17.7888934  24.1825120  41.2985971  12.2509756  31.2652124
  40.4853836  12.5503926  31.6717316  41.7944965  11.8565444  31.9826606
  43.4494549  22.2467513  33.1986389  43.4070727  22.4728359  32.2694921
  44.3657248  22.0130887  33.3472190  46.8960182  12.7151580  40.0967018
  47.2509570  12.9423053  40.9561483  47.5432314  13.0469957  39.4744273
  52.6257919  15.8370016  30.8016347  52.4875818  16.0271612  29.8737536
  52.2694138  16.5989399  31.2584398  40.7900046   9.8228111  36.8813359
  41.4299425   9.6816870  36.1836322  39.9577576   9.5362625  36.5051961
  52.6527299  17.9046543  35.8127618  53.0863806  17.8121832  36.6610672
  53.3658880  17.8804043  35.1747634  41.5660349  19.1230542  32.9948351
  42.3600948  18.6280862  32.7930926  40.8552042  18.5948405  32.6316057
  46.3855194  21.5048637  37.3460719  46.4392216  22.0739573  38.1138435
  45.5169975  21.6750522  36.9814756  37.8743113  13.2673623  29.0708104
  36.9440701  13.2058079  29.2878066  37.9700585  12.7449576  28.2744745
  37.7928662   9.7928436  31.6586346  38.0535479  10.7073769  31.5495506
  38.6145834   9.3252879  31.8082958  39.2653587  11.2066193  38.8285170
  39.9376641  10.9983555  38.1797819  38.4383374  11.0088279  38.3890402
  53.5142849  17.9470244  38.3460504  53.7078739  18.8516054  38.5919779
  53.4143467  17.4877663  39.1799089  45.1679159   7.8328134  40.8450831
  44.5207074   8.5318084  40.7515307  45.9380175   8.2664278  41.2127079
  48.5757957  18.0976986  43.9201384  48.4243464  17.8687538  43.0031468
  48.5662637  19.0547588  43.9332729  45.3443294  15.6708899  38.9047651
  46.2735354  15.8220059  38.7316618  44.9234324  15.7592920  38.0496297
  44.1431625  19.6959564  36.6746188  44.0042711  19.3278348  37.5472126
  43.3546222  20.2107203  36.5030146  44.7379777  24.7968660  28.0171725
  44.9131533  24.3256703  28.8317348  44.0512565  25.4234426  28.2452986
  45.6936841  19.0741166  34.0635026  45.3586673  19.0341936  34.9592676
  45.1940786  18.4085882  33.5905436  39.6681085  14.4808796  39.5887607
  39.5300882  13.7489035  40.1899146  40.5786008  14.3917696  39.3071795
  48.6296032  16.4197201  24.3372086  48.0125203  15.6944029  24.2405138
  48.1612521  17.1806561  23.9939160  42.2963385  14.1928756  39.0771287
  43.0063004  13.5521948  39.0357905  42.2532693  14.4441650  39.9997468
  50.2850164  21.1296109  41.9977866  50.2262710  20.4455329  41.3308449
  50.6869682  21.8715099  41.5458492  41.0092319  11.1793973  40.8966926
  40.4729676  10.7284712  41.5488523  40.4209028  11.3139882  40.1537391
  39.3040863  27.9458023  34.7911585  39.5437461  28.5776547  35.4690604
  38.4610059  27.5946063  35.0776944  50.2867571  19.0935693  40.2291846
  49.3994350  18.7561615  40.3518245  50.8566122  18.3618724  40.4660611
  31.9396718  15.4259785  33.5534897  32.6267758  15.1121515  32.9655913
  31.7844847  16.3301149  33.2802149  36.7431440  10.3149981  37.9819921
  36.6589629   9.7075651  37.2470331  35.9214147  10.8058999  37.9829417
  43.8168725  23.7537145  37.1953089  43.7438896  24.5592117  37.7072394
  43.3746118  23.9529111  36.3701110  43.6058504  22.9908915  30.7055911
  42.8226026  23.5330595  30.7994135  44.3051249  23.5082895  31.1050152
  46.9155154   8.8003545  33.3490116  47.4123854   8.0473507  33.0291186
  46.1442136   8.8367861  32.7833325  54.7684912  14.5043910  34.9908407
  54.7574788  15.3868626  34.6202341  53.9002291  14.1515461  34.7962945
  46.2767408  23.6523979  39.3511248  46.9895380  24.2871444  39.2787149
  45.7857437  23.7487845  38.5351250  47.9984935  17.5575232  30.9228539
  47.0641214  17.6776694  30.7533244  48.1761603  16.6547699  30.6588549
  43.4990123  10.9420928  33.0761801  43.1287911  10.3891968  33.7642706
  43.9949215  10.3379061  32.5236801  51.3857486  13.3992551  31.4578573
  51.8517939  14.2320543  31.3838876  51.8364987  12.9337533  32.1623832
  41.3279322  21.4018423  40.1716818  42.0288781  22.0354906  40.3246213
  40.8574437  21.7433154  39.4112458  49.4533717  19.7436373  28.4564726
  49.7293561  19.6292967  29.3658600  48.5838216  19.3453857  28.4176899
  49.3574149   5.7673138  35.4969475  48.4437229   5.9977365  35.6651682
  49.7867251   5.8511582  36.3483507  49.1280608  13.9563030  37.9969369
  48.4752058  14.2038938  37.3421822  49.5060987  13.1427168  37.6631846
  46.0887781  23.9922723  32.0997539  46.2710176  23.1744379  32.5625291
  46.9120767  24.2090416  31.6622429  46.4229947  22.9190908  29.3612588
  46.9517713  22.4083363  28.7482750  46.6858167  22.6033439  30.2258121
  45.1768181  14.6982841  44.4835406  44.5008818  14.5976971  45.1537781
  45.9995814  14.5422055  44.9471403  36.9247040  20.9354778  37.1047921
  37.5100476  20.1898466  37.2375825  36.7271878  21.2458734  37.9884585
  39.7785695  23.9706025  32.1210364  39.1096070  24.4552153  31.6374404
  39.6398565  24.2175246  33.0353742  31.5164694  13.5060378  35.8252364
  31.5548794  12.9723969  36.6189482  31.0104987  12.9795583  35.2063342
  43.9190963  26.0049769  38.7193022  44.4709271  26.1681390  39.4842107
  44.2597157  26.5954207  38.0473047  38.8955457   8.3524918  39.3214907
  38.9596783   9.2139749  38.9092304  38.8322577   7.7398920  38.5887265
  38.3707729  10.4248051  42.9687941  38.9979768  10.0425128  43.5825465
  37.5135648  10.2062253  43.3343633  48.7701838  20.8311026  44.5741676
  49.3141742  21.4440984  44.0796631  48.1888683  21.3890605  45.0908689
  35.1473272  12.2324480  28.9006296  35.4426713  11.3235159  28.8473349
  34.2461308  12.2112220  28.5787298  47.0559351  23.9531744  35.7056704
  46.9310490  23.1521484  35.1967650  47.7138442  24.4477938  35.2170674
  38.6767519  10.3080477  34.8833844  37.9554105  10.9216444  34.7441318
  39.4660775  10.8438242  34.8050490  49.1194259  21.7540764  37.3336254
  48.1724595  21.6346115  37.2614581  49.4677032  20.8663262  37.4162516
  41.4793832   7.6434903  41.1574496  42.0028234   7.8897200  41.9200805
  41.2606166   8.4754938  40.7377633  36.8761114   9.9138578  29.0245621
  36.5473820   9.0335957  28.8420727  37.2300484   9.8586246  29.9122010
  46.1240692  21.5493481  33.5340606  45.9765655  20.6210188  33.7148176
  46.9494186  21.5713571  33.0497682  39.9902937  10.2011548  29.3921099
  40.3299009  10.7297469  28.6699707  40.4375057  10.5391954  30.1679665
  49.7274814  22.3722039  34.6205479  50.6521362  22.1664901  34.4829930
  49.5590118  22.1238440  35.5294821  42.6846378   8.5848598  38.8424167
  42.3443198   7.7856411  39.2444846  41.9785384   8.8850309  38.2701000
  43.3362849   5.6697911  37.2951490  44.1588919   5.1958389  37.1730380
  43.5800913   6.4488394  37.7950176  41.9771084   8.6986169  27.5914391
  42.6979446   9.0767422  27.0878108  41.3536388   9.4175046  27.6949369
  46.1202207   9.4031318  28.5272724  46.3365821  10.2855956  28.2261552
  45.6396274   9.0117532  27.7978366  40.8601428  12.3617031  35.1043468
  40.7146009  12.6757334  35.9967750  40.3826632  12.9801932  34.5514367
  42.7197811   9.3519579  35.1524358  42.7059380   8.4560673  34.8156656
  43.4370239   9.3590243  35.7862644  44.5723942   9.7856920  37.1977485
  44.3141720  10.7073990  37.1961816  44.0408982   9.3887354  37.8877949
  49.5170130  22.8907707  29.9767571  49.6907008  22.3254129  29.2241423
  50.0099022  23.6908602  29.7947061  35.3347090  14.9022376  38.0431129
  34.7900558  15.6782184  38.1751404  36.2126440  15.2493180  37.8850251
  42.1234707   8.2333960  30.4211928  42.2450618   7.3050606  30.6202815
  41.8336749   8.2472646  29.5090243  44.9925897   5.9188870  33.5578648
  45.0147594   5.9828203  32.6030627  45.4093956   5.0793379  33.7519154
  55.3709522  15.6544130  31.5957870  55.8140668  14.9051455  31.1976994
  54.4936032  15.6454266  31.2131602  50.5045303  22.2074471  27.0764469
  51.1996208  22.8281164  27.2951784  50.8468453  21.3569822  27.3516847
  36.1213112  14.0292272  40.9361286  35.3794848  14.1774907  41.5225917
  35.8005856  14.2900538  40.0728036  52.4036726  19.6574177  28.6051800
  52.9288050  19.9961449  27.8801120  52.3159079  18.7221192  28.4214934
  44.0656775  23.5708250  40.7341676  44.3743901  23.3257397  41.6064376
  44.8632257  23.7754889  40.2460547  44.0877387  25.7246160  32.9647053
  43.6482377  25.2322539  33.6579910  44.8385504  25.1819128  32.7239128
  36.5669726  21.9157701  32.9671681  37.3927746  21.6161473  32.5870324
  36.2163778  21.1465323  33.4161470  41.5351259  21.2684169  35.0369355
  40.9131268  20.6054874  34.7371582  42.2056126  21.2945301  34.3543002
  34.7678331  19.8344027  33.9260615  33.9310239  19.4066202  33.7444616
  34.7401976  20.0276471  34.8631406  41.6075786   9.7465957  44.6301861
  41.6563942  10.6228080  44.2479630  42.1498301   9.2043350  44.0573504
  52.0930632  20.2907080  43.9102998  51.3026176  20.2731219  43.3707497
  51.8563987  20.8295374  44.6652034  52.2128507  17.1399547  41.2235726
  52.2626512  16.9749554  42.1651249  52.1042431  16.2726806  40.8333607
  41.0964766  19.8188092  28.5127815  41.2452886  20.5023557  27.8594488
  41.9031209  19.7993182  29.0277271  49.5032270  13.1230475  42.5395033
  50.4042132  12.9836940  42.2479031  49.5780244  13.2884929  43.4793210
  43.8375075  10.4997329  41.3848219  42.9678384  10.7930895  41.1130808
  44.0734555  11.0837774  42.1055483  53.7146704  19.5596488  41.4677748
  53.4231512  19.9226469  42.3041209  53.1018835  18.8463496  41.2891080
  54.9142386  17.1249368  33.9880318  55.7489278  17.5639172  34.1517878
  55.0501515  16.6488021  33.1688564  51.9633892  14.6829103  39.9357806
  52.4388014  14.8756749  39.1276657  51.0399458  14.7388289  39.6901189
  38.8517399  15.8453270  29.5188884  38.6063441  14.9415600  29.7169094
  39.0213313  15.8470420  28.5768362  46.5414109   6.7176946  38.9013640
  47.0596053   7.4537973  38.5760128  46.1869242   7.0240940  39.7360399
  38.1213046  11.5781628  27.0175045  37.4282291  11.6525983  26.3615081
  37.8764798  10.8141971  27.5396562  46.7926703   3.1377229  34.4214536
  47.0728457   2.4700418  35.0474963  47.5777310   3.3306324  33.9089200
  44.5960171  22.3136223  25.9839562  44.0234139  22.9326410  25.5310034
  45.1692965  22.8635584  26.5179484  50.6635561  11.5594863  38.1686111
  51.6152984  11.6592961  38.1898335  50.4939012  10.7673131  38.6784196
  48.6849941   8.6450446  38.3545512  48.0899873   8.9255459  37.6592001
  48.3999637   9.1344347  39.1262253  47.8157431  22.5973373  27.1148145
  48.7488104  22.5318935  27.3181020  47.7280644  23.4329640  26.6562677
  50.4445448  21.9139243  24.0752092  50.3659079  21.5799107  24.9687850
  51.2655115  22.4061011  24.0743565  53.1423639  14.7800983  37.2828411
  53.1099959  13.8416983  37.4688095  53.7524263  14.8585019  36.5494236
  44.9806970  13.6497036  23.3255615  45.9266075  13.5203244  23.3944033
  44.6021215  12.9111697  23.8025043  53.2918128  11.5712026  37.3286694
  52.7757176  10.7870483  37.1416623  54.1758076  11.2430743  37.4933214
  50.9528854   5.3153042  33.2882507  50.7553676   5.0068130  34.1725839
  51.5628560   6.0414680  33.4180437  58.9600189  15.8416989  36.4234448
  59.6903577  15.5802278  36.9842151  58.3507134  15.1045711  36.4636516
  57.0415486  13.9824852  37.0208899  56.3148650  13.8480817  36.4125391
  56.6262773  14.2901681  37.8265617  44.8645662  17.7014782  44.7856272
  45.7848672  17.8793381  44.9796318  44.8295245  16.7570827  44.6335971
  34.0827827  12.8953375  33.7109547  33.7630612  12.0418684  33.4183921
  33.5361256  13.1101953  34.4667514  37.8607735  15.6115816  37.4279053
  38.0793745  16.5432924  37.4467087  38.2733509  15.2523791  38.2133857
  44.7811953   6.1183902  29.4154741  43.9712681   5.7730987  29.7909988
  45.4696370   5.8091445  30.0042353  46.7102501   5.1961948  31.0379038
  47.2633540   5.6157402  31.6969061  46.9472587   4.2697697  31.0801994
  42.7335600  11.1849022  46.8181802  42.6332327  12.1343379  46.7493893
  42.5157142  10.8567261  45.9457872  33.9516087  16.5156287  35.6802668
  33.2579559  16.1010240  35.1672623  34.6989078  16.5576823  35.0836087
  50.0881308   7.3062474  30.5457702  49.5079977   7.9647278  30.1635755
  49.8217241   6.4839818  30.1345120  48.5384875   6.7067531  32.7479023
  49.0384653   6.8184066  31.9393342  49.1820482   6.4028584  33.3879831
  42.5966870  14.6146161  45.6346864  42.1133952  15.4146521  45.8410753
  42.6827809  14.6254106  44.6814308  35.8652830  16.4474541  33.5568683
  35.8423518  16.5462228  32.6050566  36.1753466  17.2939691  33.8785849
  38.5240208  18.5050696  37.6715297  39.4783461  18.4734638  37.6045229
  38.3252731  18.0441319  38.4865523  39.1139590  17.0751812  40.2386095
  39.9332479  17.5695890  40.2620932  39.3876398  16.1583780  40.2103663
  48.8706186   9.4662564  29.6014051  47.9832041   9.7512215  29.3834245
  49.2860175   9.3056327  28.7541328  52.2220722   9.4909085  33.3168390
  52.9981112   9.9805537  33.5893007  51.4968856   9.9167139  33.7740259
  54.6593281  10.2036704  34.3742331  55.2537772   9.9632440  33.6635639
  54.7319865   9.4843835  35.0015867  36.8790437  24.0470315  34.6885495
  36.7444905  23.2870716  34.1223493  36.4622499  24.7711215  34.2214284
  48.0149400  19.2307239  23.6962071  48.7185250  19.4357241  24.3119726
  47.2912048  19.7984001  23.9611154  48.8447210  14.9817100  29.8164341
  48.7882411  15.4385651  28.9771973  49.3975552  14.2207785  29.6387184
  52.6552016  10.7706832  30.6414460  52.3988950  10.3703467  31.4722668
  52.0304884  11.4850626  30.5164599  56.9664354  13.5102905  33.1485752
  56.4063912  13.5796094  33.9217314  56.3607857  13.3343890  32.4285248
  40.0359563  24.9439632  34.9003938  39.9191947  25.8885065  34.7982628
  39.2152009  24.6413194  35.2889737  49.9236097  19.6689768  25.7460531
  50.7581701  19.2370966  25.5638005  49.7620440  19.4971782  26.6737425
  49.5781989  16.1721881  27.1116870  49.5230793  16.0066153  26.1705314
  48.9528045  16.8797914  27.2679060  34.3674504  11.4089946  40.9378292
  35.0133368  10.8988900  41.4265517  34.1591655  12.1458627  41.5121717
  46.8927896  18.4770793  46.4370433  47.7619056  18.6511445  46.0757068
  46.4134648  19.2965210  46.3146162  42.8878115   5.6729990  26.6902188
  42.8756785   6.6171830  26.8470459  43.7801537   5.4900136  26.3961650
  41.0614077  25.5967894  38.1159866  41.9641323  25.6291504  38.4326361
  40.8351447  24.6668345  38.1306202  42.8167679  24.3498881  34.7769945
  41.8663310  24.3500742  34.6634317  43.1200165  23.6031615  34.2605980
  46.7030234   2.2672767  30.9448125  45.9362630   1.7131254  31.0904808
  47.1140939   2.3394636  31.8062277  38.7071995   8.5557563  45.0353306
  39.5703457   8.1994367  45.2456631  38.1337406   8.2171457  45.7228711
  58.5520372  30.1859419  35.8415707  59.1898782  30.0666166  35.1379048
  58.4341215  31.1340263  35.9003660  55.3610078  30.1386847  35.7777232
  55.0228590  30.0227912  34.8897767  56.2299847  29.7378012  35.7578238
  51.2196894  31.9922323  31.7674123  50.6561759  31.9012260  30.9990411
  51.1049289  31.1722228  32.2476616  55.8429861  31.2921699  41.7363438
  55.8318502  30.8974497  40.8643941  56.0050501  30.5587771  42.3297209
  48.7661326  33.4873515  34.6058344  49.5582618  33.1464340  34.1904643
  49.0057976  33.5968490  35.5260497  56.7996453  35.6593291  27.0788588
  56.1484433  36.2447372  26.6922602  57.5940816  36.1899486  27.1383625
  50.7252080  32.7482428  27.4775722  51.4982956  32.2011415  27.3388598
  51.0777479  33.6126678  27.6890184  52.5637123  34.0758811  40.6842622
  52.2726989  34.9804441  40.5689288  53.1994107  34.1175338  41.3986691
  53.4893329  31.4535659  37.2743981  54.0856902  31.2291682  36.5600944
  53.5468301  30.7120405  37.8769429  53.0618358  28.9075094  25.1094172
  53.3143879  28.3856616  24.3477635  52.1242917  28.7441240  25.2120856
  58.1061641  27.9110873  32.9168915  58.8924730  27.4930296  32.5659332
  58.3700345  28.8156965  33.0850564  58.2771718  33.3483723  27.6157572
  57.6417551  33.4218350  28.3278477  57.9469124  33.9377322  26.9376652
  63.5070068  27.8486106  33.8201894  64.2395240  27.2785323  34.0539723
  62.7509423  27.4607706  34.2608400  52.7814647  30.8103200  27.3118547
  52.6650905  30.1348104  27.9799632  52.8916906  30.3235574  26.4950700
  55.1246187  30.2713348  31.0165236  54.7604395  29.7443968  31.7278158
  55.9813303  29.8811817  30.8431722  61.0295488  21.5607680  38.2796503
  60.6978813  22.4303091  38.0557718  60.4341102  21.2443964  38.9590533
  54.7651674  25.3003247  26.0126585  54.9326077  26.1683484  26.3797056
  54.5748844  25.4630529  25.0887874  57.5227008  33.7620226  37.6792415
  57.2227731  34.6645265  37.5708223  57.1778067  33.4952409  38.5313568
  50.9739489  30.2134023  33.7129120  50.0489986  30.0810237  33.9206812
  51.2223902  30.9928242  34.2099062  60.9224151  26.2802766  35.3589853
  60.0141029  26.2118175  35.0648614  60.8711747  26.7574711  36.1871678
  54.7440895  27.7560905  26.9973252  54.6240521  28.2017955  27.8358732
  54.0493484  28.1046222  26.4386790  48.3348300  29.8567296  34.5472909
  48.4640681  30.1101775  35.4612321  47.6545751  30.4495004  34.2277564
  52.5047787  40.5264546  30.6463383  52.4271817  41.4772372  30.7251864
  51.9009431  40.1810419  31.3038309  54.9965017  27.6992412  43.3024750
  54.2198351  28.2586332  43.2927615  55.6355580  28.1849195  43.8239620
  62.7885798  24.4819205  37.1367727  62.1460178  24.7751738  36.4907521
  62.2840726  24.3672125  37.9420923  60.4425962  28.2282378  27.8253586
  61.3543818  28.4609765  27.6501283  59.9335609  28.8119422  27.2628664
  53.2511390  30.5077865  42.8642717  53.9926074  31.0462909  42.5877541
  52.5448375  31.1344154  43.0214269  58.7266729  32.6507006  41.4614878
  59.1350085  32.2089416  40.7169511  58.0043991  32.0759633  41.7149071
  55.0797799  27.5879612  38.8348435  55.9258994  28.0119026  38.9783084
  55.0196437  26.9313237  39.5286998  59.0495544  33.2108196  35.2167167
  58.4204406  33.3753910  34.5143235  58.6621206  33.6249806  35.9878131
  62.9284776  34.1462634  32.5711531  62.2435814  34.5261536  32.0208564
  63.0128625  34.7557961  33.3043479  58.2297245  25.2483981  40.4929609
  57.9858176  26.0026041  39.9563885  58.5057175  25.6269328  41.3276856
  60.1835707  31.7922593  39.1706875  60.3952603  32.4354353  38.4941256
  60.1365456  30.9584910  38.7028805  57.7861936  24.4040414  36.0743447
  56.9246415  24.7021667  36.3660184  57.8124371  24.6210813  35.1424479
  54.6023506  32.9482604  32.4817252  55.0661851  33.2270307  31.6921875
  54.3380304  32.0466049  32.2990343  51.4947587  32.4954086  35.4197016
  52.0648944  32.9241354  34.7814500  52.0855699  32.2136671  36.1181201
  53.5392392  29.0705757  29.2906818  54.2416435  29.5226800  29.7580744
  53.2073020  28.4289576  29.9186711  51.9872753  27.6617513  43.6658027
  51.3571414  28.3433794  43.8993424  51.8808841  27.5500595  42.7211165
  47.2817726  27.3289309  34.5923951  46.4916780  27.5846838  34.1164062
  47.7728973  28.1437647  34.6975992  61.2981535  34.6694549  37.3429232
  62.1198979  34.2674736  37.0611914  61.2943938  34.5662783  38.2945348
  49.2332471  27.6933889  31.5507428  48.4363634  27.8052583  32.0690923
  49.0058063  28.0320541  30.6848318  55.0638139  34.2178592  39.4989942
  55.1282571  34.6798999  40.3348114  54.3549063  33.5875957  39.6272252
  45.5655429  27.5819800  37.0238942  45.8163467  28.4666810  37.2896518
  46.1014977  27.4024401  36.2514034  69.3887528  31.0133297  33.6914203
  68.6351237  30.4440695  33.5358208  69.5235070  30.9795962  34.6384838
  54.7786156  35.8846699  29.3668923  54.6431831  36.7298235  29.7953771
  55.3195969  36.0865977  28.6034857  51.2653496  21.9638279  46.0283278
  50.8720442  21.4104478  46.7030922  52.0819636  22.2748858  46.4189795
  48.2315554  33.4022137  29.9396848  48.7440074  34.1965388  30.0902413
  48.8838267  32.7048428  29.8730449  50.0410438  36.5187894  32.0219601
  50.2177067  37.4405858  31.8340585  50.8367272  36.2046313  32.4513981
  54.1821457  23.3796158  43.6203535  54.9231170  23.9803311  43.5407997
  54.4139380  22.6373796  43.0621577  49.3262795  28.5652526  41.8981764
  49.2116310  27.6637783  42.1988863  48.4707313  28.8116222  41.5466581
  56.4054633  36.5070266  43.4969265  55.9618487  35.7206644  43.1790169
  57.0671846  36.6949416  42.8313156  51.1641754  38.0366068  38.0229943
  51.7149179  37.9083131  37.2506937  50.3253230  38.3360957  37.6724836
  58.5035871  36.7873066  41.5250666  58.4854346  37.6081947  41.0330935
  59.4255791  36.6627141  41.7500807  54.9608925  34.3017195  42.3674174
  55.4937262  33.5405484  42.1373482  54.4323006  34.0090847  43.1098329
  58.1278620  19.4077261  37.8967816  57.7842889  20.2978903  37.8206927
  58.4957583  19.2178919  37.0337401  46.1964471  31.7310792  30.7156418
  47.0339693  32.1407800  30.4990126  46.3742738  30.7910234  30.6856612
  58.0928903  29.3985872  26.4040251  57.5775526  30.1690477  26.6428639
  57.8206211  28.7251009  27.0273313  55.6776014  24.2435573  31.4625490
  54.8217610  23.8542424  31.2831128  56.0902965  24.3227534  30.6025275
  57.2075160  21.7781916  35.8617049  56.7039956  21.7412052  35.0484855
  57.5005767  22.6874659  35.9213706  53.4518046  21.8620646  34.8683231
  54.3171043  21.6663455  34.5089121  53.5195555  21.6330998  35.7952588
  63.0663177  32.1518227  28.3393425  62.2892620  31.8129387  27.8948587
  63.7454658  32.1570850  27.6648390  57.8815206  27.2712964  28.2300032
  57.5765341  27.5859114  29.0810176  58.8345648  27.3494384  28.2727365
  56.3261638  33.4303188  29.8792986  55.7982999  32.6955947  29.5666224
  55.8249140  34.2077864  29.6332955  61.3054484  31.6252208  34.9960033
  60.6478158  32.3151470  35.0840161  62.1094883  32.0148640  35.3394019
  51.0580365  24.0922854  32.2399598  51.6324117  23.8698036  31.5072791
  51.6451348  24.1611549  32.9928199  60.1159942  29.9796581  33.0463975
  60.6291824  30.6126573  33.5485684  60.7661166  29.3797777  32.6807335
  51.3849952  26.1227315  26.2595483  50.5487265  26.4602002  26.5804758
  51.2454722  25.9876295  25.3222620  53.3603033  20.9664103  30.9674667
  52.7067445  20.6513120  30.3431282  53.3183507  20.3439843  31.6934490
  54.4714238  31.2483398  22.8827960  53.5641300  31.0172652  23.0819108
  54.9685270  30.4521017  23.0701941  57.3782317  39.9580905  25.8024646
  56.7044015  40.2612602  26.4109604  57.7648139  40.7609986  25.4530103
  56.5940773  27.4546037  35.2922315  55.6763335  27.6760984  35.1344003
  57.0100917  27.5292347  34.4334022  57.3775821  28.8537452  30.4224995
  58.1247640  29.3658849  30.1132117  57.6467411  28.5321505  31.2829389
  55.6502471  31.3495993  27.4051950  54.7413691  31.0655026  27.5024419
  55.6797555  31.7695072  26.5455256  60.8821739  34.9602582  31.1743117
  60.4284066  34.1193492  31.2308308  60.2515705  35.5963981  31.5117897
  59.8254658  25.8894568  32.4043785  59.0877415  25.3771955  32.7354027
  60.0781432  25.4494950  31.5927061  59.3254678  36.7979079  32.1092935
  59.6177652  37.3584136  31.3905301  59.8353299  37.0907640  32.8646094
  59.9266286  18.6670820  32.9985554  60.2325162  17.8068184  32.7111469
  60.6518890  19.2588441  32.7984548  46.2190642  29.0701507  31.3867152
  46.0215041  28.4770868  30.6618218  45.6637306  28.7653717  32.1043091
  54.1987365  28.9624614  33.5061745  54.2535975  28.0098450  33.4304222
  53.3878567  29.1184053  33.9903043  55.3478559  32.8904737  24.7440028
  54.9097989  32.1740596  24.2845666  56.0889000  33.1180851  24.1825120
  52.1379725  27.5801673  31.2652124  51.3247591  27.8795844  31.6717316
  52.6338719  27.1857362  31.9826606  54.2888303  37.5759430  33.1986389
  54.2464482  37.8020277  32.2694921  55.2051002  37.3422805  33.3472190
  57.7353937  28.0443498  40.0967018  58.0903325  28.2714971  40.9561483
  58.3826068  28.3761875  39.4744273  63.4651674  31.1661934  30.8016347
  63.3269572  31.3563530  29.8737536  63.1087893  31.9281316  31.2584398
  51.6293800  25.1520029  36.8813359  52.2693179  25.0108788  36.1836322
  50.7971331  24.8654542  36.5051961  63.4921053  33.2338461  35.8127618
  63.9257560  33.1413750  36.6610672  64.2052634  33.2095961  35.1747634
  52.4054104  34.4522459  32.9948351  53.1994702  33.9572779  32.7930926
  51.6945796  33.9240322  32.6316057  57.2248948  36.8340555  37.3460719
  57.2785971  37.4031491  38.1138435  56.3563730  37.0042440  36.9814756
  48.7136867  28.5965541  29.0708104  47.7834455  28.5349996  29.2878066
  48.8094339  28.0741494  28.2744745  48.6322416  25.1220354  31.6586346
  48.8929234  26.0365687  31.5495506  49.4539589  24.6544796  31.8082958
  50.1047342  26.5358111  38.8285170  50.7770395  26.3275473  38.1797819
  49.2777128  26.3380197  38.3890402  64.3536603  33.2762161  38.3460504
  64.5472493  34.1807972  38.5919779  64.2537221  32.8169580  39.1799089
  56.0072914  23.1620052  40.8450831  55.3600829  23.8610002  40.7515307
  56.7773929  23.5956196  41.2127079  59.4151712  33.4268904  43.9201384
  59.2637218  33.1979456  43.0031468  59.4056391  34.3839505  43.9332729
  56.1837048  31.0000817  38.9047651  57.1129108  31.1511976  38.7316618
  55.7628078  31.0884838  38.0496297  54.9825380  35.0251481  36.6746188
  54.8436466  34.6570266  37.5472126  54.1939976  35.5399121  36.5030146
  55.5773532  40.1260578  28.0171725  55.7525288  39.6548621  28.8317348
  54.8906320  40.7526344  28.2452986  56.5330595  34.4033084  34.0635026
  56.1980428  34.3633854  34.9592676  56.0334541  33.7377800  33.5905436
  50.5074839  29.8100714  39.5887607  50.3694637  29.0780953  40.1899146
  51.4179762  29.7209614  39.3071795  59.4689787  31.7489118  24.3372086
  58.8518957  31.0235946  24.2405138  59.0006275  32.5098479  23.9939160
  53.1357140  29.5220673  39.0771287  53.8456758  28.8813865  39.0357905
  53.0926448  29.7733568  39.9997468  61.1243918  36.4588027  41.9977866
  61.0656465  35.7747247  41.3308449  61.5263437  37.2007017  41.5458492
  51.8486074  26.5085891  40.8966926  51.3123431  26.0576630  41.5488523
  51.2602782  26.6431800  40.1537391  50.1434617  43.2749940  34.7911585
  50.3831215  43.9068465  35.4690604  49.3003814  42.9237980  35.0776944
  51.2588333  25.9674543  23.4593390  50.3817799  25.8463343  23.0955637
  51.7346086  25.1760621  23.2072279  61.1261326  34.4227611  40.2291846
  60.2388104  34.0853532  40.3518245  61.6959877  33.6910642  40.4660611
  42.7790473  30.7551702  33.5534897  43.4661513  30.4413432  32.9655913
  42.6238601  31.6593067  33.2802149  47.5825195  25.6441899  37.9819921
  47.4983384  25.0367568  37.2470331  46.7607901  26.1350917  37.9829417
  54.6562479  39.0829063  37.1953089  54.5832651  39.8884034  37.7072394
  54.2139872  39.2821029  36.3701110  54.4452259  38.3200833  30.7055911
  53.6619781  38.8622513  30.7994135  55.1445004  38.8374813  31.1050152
  57.7548909  24.1295462  33.3490116  58.2517608  23.3765425  33.0291186
  56.9835890  24.1659779  32.7833325  65.6078666  29.8335828  34.9908407
  65.5968542  30.7160543  34.6202341  64.7396046  29.4807379  34.7962945
  57.1161163  38.9815897  39.3511248  57.8289135  39.6163362  39.2787149
  56.6251191  39.0779763  38.5351250  58.8378689  32.8867150  30.9228539
  57.9034968  33.0068612  30.7533244  59.0155358  31.9839616  30.6588549
  54.3383878  26.2712845  33.0761801  53.9681665  25.7183886  33.7642706
  54.8342970  25.6670979  32.5236801  62.2251241  28.7284469  31.4578573
  62.6911693  29.5612460  31.3838876  62.6758741  28.2629450  32.1623832
  52.1673076  36.7310340  40.1716818  52.8682536  37.3646823  40.3246213
  51.6968191  37.0725072  39.4112458  60.2927472  35.0728290  28.4564726
  60.5687316  34.9584885  29.3658600  59.4231971  34.6745775  28.4176899
  60.1967904  21.0965056  35.4969475  59.2830983  21.3269283  35.6651682
  60.6261005  21.1803500  36.3483507  59.9674362  29.2854948  37.9969369
  59.3145812  29.5330855  37.3421822  60.3454742  28.4719086  37.6631846
  56.9281536  39.3214641  32.0997539  57.1103930  38.5036297  32.5625291
  57.7514522  39.5382333  31.6622429  57.2623701  38.2482826  29.3612588
  57.7911468  37.7375281  28.7482750  57.5251921  37.9325356  30.2258121
  56.0161935  30.0274759  44.4835406  55.3402572  29.9268888  45.1537781
  56.8389569  29.8713973  44.9471403  47.7640794  36.2646695  37.1047921
  48.3494231  35.5190383  37.2375825  47.5665633  36.5750652  37.9884585
  50.6179449  39.2997943  32.1210364  49.9489825  39.7844070  31.6374404
  50.4792319  39.5467163  33.0353742  42.3558449  28.8352296  35.8252364
  42.3942548  28.3015886  36.6189482  41.8498742  28.3087501  35.2063342
  54.7584718  41.3341686  38.7193022  55.3103026  41.4973308  39.4842107
  55.0990911  41.9246124  38.0473047  49.7349211  23.6816836  39.3214907
  49.7990538  24.5431667  38.9092304  49.6716331  23.0690838  38.5887265
  49.2101484  25.7539969  42.9687941  49.8373523  25.3717046  43.5825465
  48.3529403  25.5354171  43.3343633  59.6095592  36.1602944  44.5741676
  60.1535496  36.7732902  44.0796631  59.0282437  36.7182522  45.0908689
  45.9867026  27.5616398  28.9006296  46.2820468  26.6527076  28.8473349
  45.0855062  27.5404137  28.5787298  57.8953105  39.2823662  35.7056704
  57.7704245  38.4813402  35.1967650  58.5532196  39.7769855  35.2170674
  49.5161273  25.6372394  34.8833844  48.7947859  26.2508362  34.7441318
  50.3054529  26.1730159  34.8050490  59.9588014  37.0832682  37.3336254
  59.0118349  36.9638033  37.2614581  60.3070787  36.1955180  37.4162516
  52.3187587  22.9726821  41.1574496  52.8421989  23.2189117  41.9200805
  52.0999920  23.8046856  40.7377633  47.7154868  25.2430495  29.0245621
  47.3867574  24.3627874  28.8420727  48.0694239  25.1878164  29.9122010
  56.9634447  36.8785398  33.5340606  56.8159409  35.9502106  33.7148176
  57.7887940  36.9005489  33.0497682  50.8296691  25.5303465  29.3921099
  51.1692764  26.0589387  28.6699707  51.2768812  25.8683871  30.1679665
  60.5668569  37.7013957  34.6205479  61.4915116  37.4956818  34.4829930
  60.3983872  37.4530358  35.5294821  53.5240132  23.9140516  38.8424167
  53.1836952  23.1148329  39.2444846  52.8179138  24.2142227  38.2701000
  54.1756604  20.9989828  37.2951490  54.9982673  20.5250307  37.1730380
  54.4194667  21.7780312  37.7950176  52.8164838  24.0278087  27.5914391
  53.5373201  24.4059340  27.0878108  52.1930142  24.7466964  27.6949369
  56.9595961  24.7323236  28.5272724  57.1759576  25.6147874  28.2261552
  56.4790028  24.3409449  27.7978366  51.6995183  27.6908949  35.1043468
  51.5539763  28.0049252  35.9967750  51.2220386  28.3093849  34.5514367
  53.5591565  24.6811497  35.1524358  53.5453134  23.7852590  34.8156656
  54.2763994  24.6882161  35.7862644  55.4117696  25.1148837  37.1977485
  55.1535474  26.0365908  37.1961816  54.8802737  24.7179272  37.8877949
  60.3563885  38.2199624  29.9767571  60.5300762  37.6546047  29.2241423
  60.8492776  39.0200519  29.7947061  46.1740845  30.2314293  38.0431129
  45.6294313  31.0074101  38.1751404  47.0520195  30.5785098  37.8850251
  52.9628461  23.5625877  30.4211928  53.0844373  22.6342523  30.6202815
  52.6730504  23.5764563  29.5090243  55.8319652  21.2480788  33.5578648
  55.8541349  21.3120121  32.6030627  56.2487711  20.4085296  33.7519154
  66.2103276  30.9836047  31.5957870  66.6534422  30.2343373  31.1976994
  65.3329786  30.9746184  31.2131602  61.3439057  37.5366389  27.0764469
  62.0389962  38.1573081  27.2951784  61.6862208  36.6861740  27.3516847
  46.9606867  29.3584190  40.9361286  46.2188603  29.5066825  41.5225917
  46.6399611  29.6192455  40.0728036  63.2430481  34.9866094  28.6051800
  63.7681805  35.3253367  27.8801120  63.1552833  34.0513110  28.4214934
  54.9050529  38.9000168  40.7341676  55.2137656  38.6549315  41.6064376
  55.7026011  39.1046806  40.2460547  54.9271141  41.0538078  32.9647053
  54.4876132  40.5614456  33.6579910  55.6779258  40.5111045  32.7239128
  47.4063480  37.2449618  32.9671681  48.2321500  36.9453390  32.5870324
  47.0557532  36.4757241  33.4161470  52.3745013  36.5976087  35.0369355
  51.7525023  35.9346792  34.7371582  53.0449880  36.6237219  34.3543002
  45.6072085  35.1635945  33.9260615  44.7703994  34.7358119  33.7444616
  45.5795731  35.3568388  34.8631406  52.4469541  25.0757875  44.6301861
  52.4957696  25.9519997  44.2479630  52.9892055  24.5335268  44.0573504
  62.9324387  35.6198998  43.9102998  62.1419930  35.6023137  43.3707497
  62.6957741  36.1587292  44.6652034  63.0522262  32.4691464  41.2235726
  63.1020267  32.3041472  42.1651249  62.9436185  31.6018723  40.8333607
  51.9358520  35.1480010  28.5127815  52.0846641  35.8315474  27.8594488
  52.7424964  35.1285100  29.0277271  60.3426024  28.4522392  42.5395033
  61.2435887  28.3128857  42.2479031  60.4173999  28.6176847  43.4793210
  54.6768829  25.8289247  41.3848219  53.8072139  26.1222813  41.1130808
  54.9128310  26.4129692  42.1055483  64.5540459  34.8888406  41.4677748
  64.2625267  35.2518386  42.3041209  63.9412590  34.1755414  41.2891080
  65.7536141  32.4541286  33.9880318  66.5883032  32.8931090  34.1517878
  65.8895270  31.9779939  33.1688564  62.8027647  30.0121020  39.9357806
  63.2781768  30.2048667  39.1276657  61.8793212  30.0680206  39.6901189
  49.6911153  31.1745188  29.5188884  49.4457195  30.2707518  29.7169094
  49.8607068  31.1762338  28.5768362  57.3807863  22.0468864  38.9013640
  57.8989807  22.7829891  38.5760128  57.0262996  22.3532857  39.7360399
  48.9606801  26.9073545  27.0175045  48.2676046  26.9817900  26.3615081
  48.7158553  26.1433889  27.5396562  57.6320457  18.4669147  34.4214536
  57.9122211  17.7992336  35.0474963  58.4171064  18.6598242  33.9089200
  55.4353926  37.6428140  25.9839562  54.8627893  38.2618328  25.5310034
  56.0086720  38.1927502  26.5179484  61.5029316  26.8886781  38.1686111
  62.4546739  26.9884878  38.1898335  61.3332766  26.0965049  38.6784196
  59.5243695  23.9742364  38.3545512  58.9293627  24.2547376  37.6592001
  59.2393392  24.4636265  39.1262253  58.6551186  37.9265291  27.1148145
  59.5881859  37.8610852  27.3181020  58.5674399  38.7621557  26.6562677
  61.2839202  37.2431161  24.0752092  61.2052834  36.9091025  24.9687850
  62.1048869  37.7352929  24.0743565  63.9817394  30.1092900  37.2828411
  63.9493714  29.1708901  37.4688095  64.5918017  30.1876937  36.5494236
  55.8200724  28.9788953  23.3255615  56.7659829  28.8495161  23.3944033
  55.4414969  28.2403615  23.8025043  64.1311882  26.9003944  37.3286694
  63.6150931  26.1162400  37.1416623  65.0151831  26.5722660  37.4933214
  61.7922609  20.6444959  33.2882507  61.5947430  20.3360047  34.1725839
  62.4022315  21.3706598  33.4180437  69.7993943  31.1708907  36.4234448
  70.5297332  30.9094195  36.9842151  69.1900889  30.4337629  36.4636516
  67.8809241  29.3116770  37.0208899  67.1542404  29.1772735  36.4125391
  67.4656527  29.6193598  37.8265617  55.7039417  33.0306699  44.7856272
  56.6242426  33.2085298  44.9796318  55.6689000  32.0862745  44.6335971
  54.0043642  26.9038930  23.2610500  53.0975097  26.6072042  23.3373214
  54.2819623  26.6068748  22.3944786  44.9221582  28.2245293  33.7109547
  44.6024366  27.3710601  33.4183921  44.3755010  28.4393871  34.4667514
  48.7001489  30.9407734  37.4279053  48.9187499  31.8724842  37.4467087
  49.1127263  30.5815708  38.2133857  55.6205707  21.4475819  29.4154741
  54.8106436  21.1022904  29.7909988  56.3090124  21.1383363  30.0042353
  57.5496256  20.5253866  31.0379038  58.1027294  20.9449320  31.6969061
  57.7866342  19.5989614  31.0801994  53.5729355  26.5140940  46.8181802
  53.4726082  27.4635297  46.7493893  53.3550897  26.1859179  45.9457872
  52.7742426  23.7625865  23.4022479  53.6361590  24.0880763  23.6618297
  52.9592770  22.9757361  22.8895545  44.7909842  31.8448204  35.6802668
  44.0973313  31.4302157  35.1672623  45.5382833  31.8868741  35.0836087
  60.9275063  22.6354391  30.5457702  60.3473732  23.2939195  30.1635755
  60.6610995  21.8131736  30.1345120  59.3778629  22.0359449  32.7479023
  59.8778407  22.1475984  31.9393342  60.0214237  21.7320502  33.3879831
  53.4360625  29.9438079  45.6346864  52.9527707  30.7438439  45.8410753
  53.5221564  29.9546023  44.6814308  46.7046584  31.7766458  33.5568683
  46.6817273  31.8754146  32.6050566  47.0147221  32.6231609  33.8785849
  49.3633962  33.8342613  37.6715297  50.3177216  33.8026556  37.6045229
  49.1646486  33.3733237  38.4865523  49.9533344  32.4043729  40.2386095
  50.7726233  32.8987808  40.2620932  50.2270152  31.4875697  40.2103663
  59.7099941  24.7954482  29.6014051  58.8225796  25.0804132  29.3834245
  60.1253930  24.6348245  28.7541328  63.0614477  24.8201003  33.3168390
  63.8374867  25.3097455  33.5893007  62.3362611  25.2459057  33.7740259
  65.4987035  25.5328622  34.3742331  66.0931526  25.2924358  33.6635639
  65.5713619  24.8135752  35.0015867  47.7184191  39.3762233  34.6885495
  47.5838659  38.6162634  34.1223493  47.3016253  40.1003133  34.2214284
  58.8543154  34.5599156  23.6962071  59.5579004  34.7649159  24.3119726
  58.1305803  35.1275918  23.9611154  59.6840964  30.3109018  29.8164341
  59.6276166  30.7677569  28.9771973  60.2369307  29.5499702  29.6387184
  63.4945770  26.0998749  30.6414460  63.2382705  25.6995385  31.4722668
  62.8698638  26.8142543  30.5164599  67.8058108  28.8394823  33.1485752
  67.2457666  28.9088012  33.9217314  67.2001612  28.6635807  32.4285248
  50.8753317  40.2731550  34.9003938  50.7585701  41.2176982  34.7982628
  50.0545763  39.9705111  35.2889737  60.7629852  34.9981686  25.7460531
  61.5975455  34.5662884  25.5638005  60.6014194  34.8263699  26.6737425
  60.4175744  31.5013799  27.1116870  60.3624548  31.3358070  26.1705314
  59.7921799  32.2089832  27.2679060  45.2068259  26.7381863  40.9378292
  45.8527122  26.2280817  41.4265517  44.9985410  27.4750545  41.5121717
  57.7321651  33.8062711  46.4370433  58.6012811  33.9803363  46.0757068
  57.2528402  34.6257128  46.3146162  53.7271869  21.0021908  26.6902188
  53.7150539  21.9463748  26.8470459  54.6195291  20.8192053  26.3961650
  51.9007831  40.9259812  38.1159866  52.8035078  40.9583422  38.4326361
  51.6745201  39.9960263  38.1306202  53.6561433  39.6790798  34.7769945
  52.7057064  39.6792660  34.6634317  53.9593919  38.9323533  34.2605980
  57.5423989  17.5964684  30.9448125  56.7756384  17.0423171  31.0904808
  57.9534694  17.6686553  31.8062277  49.5465750  23.8849480  45.0353306
  50.4097211  23.5286285  45.2456631  48.9731160  23.5463375  45.7228711
  62.1047250  37.2930197  46.0283278  61.7114196  36.7396395  46.7030922
  62.9213391  37.6040775  46.4189795  60.1656549  43.8944443  41.8981764
  60.0510065  42.9929701  42.1988863  59.3101067  44.1408140  41.5466581
  57.0358225  47.0602709  30.7156418  57.8733447  47.4699718  30.4990126
  57.2136493  46.1202152  30.6856612  64.2911801  37.1912564  34.8683231
  65.1564797  36.9955373  34.5089121  64.3589310  36.9622916  35.7952588
  61.8974120  39.4214772  32.2399598  62.4717872  39.1989953  31.5072791
  62.4845102  39.4903466  32.9928199  64.1996787  36.2956021  30.9674667
  63.5461200  35.9805038  30.3431282  64.1577262  35.6731761  31.6934490
  65.3107992  46.5775316  22.8827960  64.4035054  46.3464569  23.0819108
  65.8079024  45.7812935  23.0701941  70.7660040  33.9962738  32.9985554
  71.0718917  33.1360102  32.7111469  71.4912645  34.5880358  32.7984548
  57.0584396  44.3993425  31.3867152  56.8608796  43.8062785  30.6618218
  56.5031060  44.0945635  32.1043091  59.5530622  43.9257459  29.0708104
  58.6228210  43.8641914  29.2878066  59.6488094  43.4033411  28.2744745
  59.4716171  40.4512271  31.6586346  59.7322988  41.3657605  31.5495506
  60.2933343  39.9836714  31.8082958  62.0982087  41.2966460  23.4593390
  61.2211553  41.1755261  23.0955637  62.5739840  40.5052539  23.2072279
  53.6184227  46.0843620  33.5534897  54.3055267  45.7705350  32.9655913
  53.4632356  46.9884985  33.2802149  53.1952203  44.1644213  35.8252364
  53.2336303  43.6307804  36.6189482  52.6892496  43.6379419  35.2063342
  60.5742966  39.0108754  39.3214907  60.6384292  39.8723585  38.9092304
  60.5110086  38.3982755  38.5887265  60.0495238  41.0831886  42.9687941
  60.6767277  40.7008964  43.5825465  59.1923157  40.8646088  43.3343633
  56.8260781  42.8908315  28.9006296  57.1214222  41.9818994  28.8473349
  55.9248817  42.8696055  28.5787298  63.1581341  38.3018739  41.1574496
  63.6815743  38.5481035  41.9200805  62.9393675  39.1338773  40.7377633
  58.5548623  40.5722413  29.0245621  58.2261329  39.6919792  28.8420727
  58.9087993  40.5170082  29.9122010  66.6713406  36.5772705  33.5578648
  66.6935103  36.6412039  32.6030627  67.0881465  35.7377214  33.7519154
  57.8000621  44.6876107  40.9361286  57.0582357  44.8358743  41.5225917
  57.4793365  44.9484373  40.0728036  59.8000555  42.2365463  27.0175045
  59.1069800  42.3109818  26.3615081  59.5552307  41.4725807  27.5396562
  68.4714212  33.7961064  34.4214536  68.7515966  33.1284253  35.0474963
  69.2564819  33.9890160  33.9089200  66.6594479  44.3080871  23.3255615
  67.6053584  44.1787079  23.3944033  66.2808724  43.5695533  23.8025043
  55.7615336  43.5537211  33.7109547  55.4418121  42.7002519  33.4183921
  55.2148765  43.7685789  34.4667514  68.3890010  35.8545784  31.0379038
  68.9421049  36.2741237  31.6969061  68.6260096  34.9281532  31.0801994
  63.6136181  39.0917782  23.4022479  64.4755345  39.4172681  23.6618297
  63.7986525  38.3049278  22.8895545  55.6303596  47.1740122  35.6802668
  54.9367068  46.7594075  35.1672623  56.3776587  47.2160659  35.0836087
  57.5440339  47.1058376  33.5568683  57.5211027  47.2046063  32.6050566
  57.8540975  47.9523527  33.8785849  56.0462013  42.0673781  40.9378292
  56.6920877  41.5572735  41.4265517  55.8379164  42.8042463  41.5121717
  64.5665624  36.3313826  26.6902188  64.5544294  37.2755665  26.8470459
  65.4589046  36.1483971  26.3961650  68.3817743  32.9256602  30.9448125
  67.6150139  32.3715089  31.0904808  68.7928448  32.9978471  31.8062277
  60.3859504  39.2141398  45.0353306  61.2490966  38.8578203  45.2456631
  59.8124915  38.8755293  45.7228711  78.4783962  66.3177127  27.0788588
  77.8271942  66.9031207  26.6922602  79.2728325  66.8483321  27.1383625
  79.9559227  64.0067558  27.6157572  79.3205060  64.0802185  28.3278477
  79.6256633  64.5961157  26.9376652  85.1857577  58.5069941  33.8201894
  85.9182749  57.9369158  34.0539723  84.4296932  58.1191542  34.2608400
  74.1835296  71.1848382  30.6463383  74.1059326  72.1356207  30.7251864
  73.5796940  70.8394254  31.3038309  82.1213470  58.8866213  27.8253586
  83.0331327  59.1193600  27.6501283  81.6123118  59.4703257  27.2628664
  91.0675037  61.6717132  33.6914203  90.3138746  61.1024531  33.5358208
  91.2022579  61.6379797  34.6384838  76.4573665  66.5430535  29.3668923
  76.3219340  67.3882070  29.7953771  76.9983478  66.7449812  28.6034857
  79.7716412  60.0569708  26.4040251  79.2563035  60.8274312  26.6428639
  79.4993720  59.3834844  27.0273313  84.7450686  62.8102062  28.3393425
  83.9680129  62.4713222  27.8948587  85.4242167  62.8154686  27.6648390
  76.1501747  61.9067233  22.8827960  75.2428809  61.6756487  23.0819108
  76.6472779  61.1104853  23.0701941  79.0569826  70.6164741  25.8024646
  78.3831524  70.9196437  26.4109604  79.4435648  71.4193821  25.4530103
  77.0266068  63.5488572  24.7440028  76.5885498  62.8324431  24.2845666
  77.7676509  63.7764687  24.1825120  75.9675812  68.2343266  33.1986389
  75.9251991  68.4604112  32.2694921  76.8838511  68.0006640  33.3472190
  85.1439183  61.8245769  30.8016347  85.0057081  62.0147365  29.8737536
  84.7875402  62.5865152  31.2584398  77.2561041  70.7844413  28.0171725
  77.4312797  70.3132456  28.8317348  76.5693829  71.4110179  28.2452986
  81.1477296  62.4072954  24.3372086  80.5306466  61.6819782  24.2405138
  80.6793784  63.1682314  23.9939160  76.1239768  68.9784668  30.7055911
  75.3407290  69.5206348  30.7994135  76.8232513  69.4958648  31.1050152
  87.2866175  60.4919663  34.9908407  87.2756051  61.3744379  34.6202341
  86.4183555  60.1391214  34.7962945  83.9038750  59.3868304  31.4578573
  84.3699202  60.2196296  31.3838876  84.3546250  58.9213286  32.1623832
  81.9714981  65.7312126  28.4564726  82.2474825  65.6168720  29.3658600
  81.1019480  65.3329610  28.4176899  76.4372227  71.9925522  38.7193022
  76.9890535  72.1557143  39.4842107  76.7778420  72.5829960  38.0473047
  81.2883101  66.8186779  44.5741676  81.8323005  67.4316737  44.0796631
  80.7069946  67.3766358  45.0908689  87.8890785  61.6419883  31.5957870
  88.3321931  60.8927208  31.1976994  87.0117295  61.6330019  31.2131602
  83.0226566  68.1950224  27.0764469  83.7177471  68.8156917  27.2951784
  83.3649717  67.3445575  27.3516847  84.9217990  65.6449930  28.6051800
  85.4469314  65.9837202  27.8801120  84.8340342  64.7096945  28.4214934
  76.6058650  71.7121913  32.9647053  76.1663641  71.2198292  33.6579910
  77.3566767  71.1694881  32.7239128  84.6111896  66.2782833  43.9102998
  83.8207439  66.2606972  43.3707497  84.3745250  66.8171127  44.6652034
  86.2327968  65.5472241  41.4677748  85.9412776  65.9102222  42.3041209
  85.6200099  64.8339249  41.2891080  87.4323650  63.1125121  33.9880318
  88.2670541  63.5514925  34.1517878  87.5682779  62.6363774  33.1688564
  77.1141435  68.3011976  25.9839562  76.5415402  68.9202163  25.5310034
  77.6874229  68.8511337  26.5179484  80.3338695  68.5849126  27.1148145
  81.2669368  68.5194688  27.3181020  80.2461908  69.4205393  26.6562677
  82.9626711  67.9014996  24.0752092  82.8840343  67.5674860  24.9687850
  83.7836378  68.3936764  24.0743565  77.4988233  59.6372789  23.3255615
  78.4447338  59.5078997  23.3944033  77.1202478  58.8987450  23.8025043
  91.4781452  61.8292742  36.4234448  92.2084841  61.5678031  36.9842151
  90.8688398  61.0921464  36.4636516  89.5596750  59.9700605  37.0208899
  88.8329913  59.8356570  36.4125391  89.1444036  60.2777434  37.8265617
  87.1774544  56.1912457  34.3742331  87.7719035  55.9508193  33.6635639
  87.2501128  55.4719588  35.0015867  80.5330663  65.2182992  23.6962071
  81.2366513  65.4232994  24.3119726  79.8093312  65.7859754  23.9611154
  81.3628473  60.9692853  29.8164341  81.3063675  61.4261404  28.9771973
  81.9156816  60.2083538  29.6387184  85.1733279  56.7582585  30.6414460
  84.9170214  56.3579220  31.4722668  84.5486147  57.4726379  30.5164599
  89.4845617  59.4978658  33.1485752  88.9245175  59.5671847  33.9217314
  88.8789121  59.3219643  32.4285248  82.4417361  65.6565521  25.7460531
  83.2762964  65.2246719  25.5638005  82.2801703  65.4847535  26.6737425
  82.0963253  62.1597634  27.1116870  82.0412057  61.9941906  26.1705314
  81.4709308  62.8673667  27.2679060  79.4109160  64.4646546  46.4370433
  80.2800320  64.6387198  46.0757068  78.9315911  65.2840963  46.3146162
  91.0701636  76.1735172  35.8415707  91.7080046  76.0541919  35.1379048
  90.9522479  77.1216016  35.9003660  87.8791342  76.1262600  35.7777232
  87.5409853  76.0103665  34.8897767  88.7481110  75.7253765  35.7578238
  83.7378158  77.9798077  31.7674123  83.1743023  77.8888013  30.9990411
  83.6230553  77.1597981  32.2476616  88.3611125  77.2797452  41.7363438
  88.3499766  76.8850250  40.8643941  88.5231764  76.5463524  42.3297209
  81.2842590  79.4749268  34.6058344  82.0763881  79.1340093  34.1904643
  81.5239240  79.5844243  35.5260497  89.3177716  81.6469044  27.0788588
  88.6665696  82.2323125  26.6922602  90.1122079  82.1775239  27.1383625
  83.2433343  78.7358181  27.4775722  84.0164219  78.1887168  27.3388598
  83.5958742  79.6002431  27.6890184  85.0818386  80.0634564  40.6842622
  84.7908252  80.9680194  40.5689288  85.7175370  80.1051091  41.3986691
  86.0074593  77.4411412  37.2743981  86.6038165  77.2167435  36.5600944
  86.0649564  76.6996158  37.8769429  85.5799621  74.8950847  25.1094172
  85.8325142  74.3732369  24.3477635  84.6424180  74.7316993  25.2120856
  90.6242904  73.8986626  32.9168915  91.4105993  73.4806049  32.5659332
  90.8881608  74.8032718  33.0850564  90.7952981  79.3359476  27.6157572
  90.1598814  79.4094103  28.3278477  90.4650388  79.9253075  26.9376652
  96.0251331  73.8361859  33.8201894  96.7576503  73.2661076  34.0539723
  95.2690687  73.4483459  34.2608400  85.2995910  76.7978953  27.3118547
  85.1832168  76.1223857  27.9799632  85.4098170  76.3111327  26.4950700
  87.6427451  76.2589101  31.0165236  87.2785658  75.7319722  31.7278158
  88.4994567  75.8687570  30.8431722  93.5476752  67.5483433  38.2796503
  93.2160076  68.4178844  38.0557718  92.9522365  67.2319717  38.9590533
  87.2832938  71.2879000  26.0126585  87.4507340  72.1559237  26.3797056
  87.0930107  71.4506282  25.0887874  90.0408271  79.7495979  37.6792415
  89.7408994  80.6521018  37.5708223  89.6959331  79.4828162  38.5313568
  83.4920753  76.2009776  33.7129120  82.5671249  76.0685990  33.9206812
  83.7405166  76.9803995  34.2099062  93.4405415  72.2678519  35.3589853
  92.5322292  72.1993928  35.0648614  93.3893011  72.7450464  36.1871678
  87.2622159  73.7436658  26.9973252  87.1421784  74.1893708  27.8358732
  86.5674747  74.0921975  26.4386790  80.8529564  75.8443050  34.5472909
  80.9821945  76.0977528  35.4612321  80.1727015  76.4370758  34.2277564
  85.0229051  86.5140299  30.6463383  84.9453081  87.4648125  30.7251864
  84.4190695  86.1686172  31.3038309  87.5146281  73.6868165  43.3024750
  86.7379615  74.2462085  43.2927615  88.1536844  74.1724948  43.8239620
  95.3067061  70.4694958  37.1367727  94.6641442  70.7627491  36.4907521
  94.8021990  70.3547878  37.9420923  92.9607225  74.2158131  27.8253586
  93.8725081  74.4485518  27.6501283  92.4516872  74.7995175  27.2628664
  85.7692653  76.4953618  42.8642717  86.5107337  77.0338662  42.5877541
  85.0629638  77.1219907  43.0214269  91.2447993  78.6382759  41.4614878
  91.6531349  78.1965169  40.7169511  90.5225254  78.0635386  41.7149071
  87.5979063  73.5755366  38.8348435  88.4440258  73.9994779  38.9783084
  87.5377700  72.9188990  39.5286998  91.5676807  79.1983949  35.2167167
  90.9385670  79.3629663  34.5143235  91.1802469  79.6125559  35.9878131
  95.4466039  80.1338387  32.5711531  94.7617077  80.5137289  32.0208564
  95.5309888  80.7433714  33.3043479  90.7478508  71.2359734  40.4929609
  90.5039440  71.9901794  39.9563885  91.0238439  71.6145081  41.3276856
  92.7016971  77.7798346  39.1706875  92.9133866  78.4230106  38.4941256
  92.6546719  76.9460663  38.7028805  90.3043200  70.3916167  36.0743447
  89.4427679  70.6897420  36.3660184  90.3305634  70.6086566  35.1424479
  87.1204769  78.9358357  32.4817252  87.5843115  79.2146060  31.6921875
  86.8561567  78.0341802  32.2990343  84.0128850  78.4829839  35.4197016
  84.5830207  78.9117107  34.7814500  84.6036962  78.2012424  36.1181201
  86.0573655  75.0581510  29.2906818  86.7597699  75.5102553  29.7580744
  85.7254284  74.4165329  29.9186711  84.5054017  73.6493266  43.6658027
  83.8752677  74.3309547  43.8993424  84.3990105  73.5376348  42.7211165
  79.7998989  73.3165062  34.5923951  79.0098043  73.5722591  34.1164062
  80.2910237  74.1313400  34.6975992  93.8162799  80.6570302  37.3429232
  94.6380242  80.2550489  37.0611914  93.8125202  80.5538536  38.2945348
  81.7513735  73.6809642  31.5507428  80.9544898  73.7928336  32.0690923
  81.5239327  74.0196294  30.6848318  87.5819402  80.2054345  39.4989942
  87.6463835  80.6674752  40.3348114  86.8730326  79.5751710  39.6272252
  78.0836692  73.5695553  37.0238942  78.3344731  74.4542563  37.2896518
  78.6196241  73.3900154  36.2514034 101.9068792  77.0009050  33.6914203
 101.1532500  76.4316448  33.5358208 102.0416333  76.9671715  34.6384838
  87.2967420  81.8722452  29.3668923  87.1613095  82.7173988  29.7953771
  87.8377232  82.0741730  28.6034857  83.7834759  67.9514032  46.0283278
  83.3901705  67.3980231  46.7030922  84.6000900  68.2624611  46.4189795
  80.7496817  79.3897890  29.9396848  81.2621338  80.1841141  30.0902413
  81.4019530  78.6924181  29.8730449  82.5591702  82.5063647  32.0219601
  82.7358330  83.4281611  31.8340585  83.3548535  82.1922066  32.4513981
  86.7002720  69.3671911  43.6203535  87.4412434  69.9679065  43.5407997
  86.9320643  68.6249549  43.0621577  81.8444058  74.5528279  41.8981764
  81.7297574  73.6513536  42.1988863  80.9888576  74.7991975  41.5466581
  88.9235896  82.4946019  43.4969265  88.4799750  81.7082398  43.1790169
  89.5853110  82.6825169  42.8313156  83.6823017  84.0241821  38.0229943
  84.2330443  83.8958884  37.2506937  82.8434493  84.3236710  37.6724836
  91.0217134  82.7748819  41.5250666  91.0035610  83.5957700  41.0330935
  91.9437054  82.6502894  41.7500807  87.4790188  80.2892948  42.3674174
  88.0118525  79.5281237  42.1373482  86.9504270  79.9966600  43.1098329
  90.6459883  65.3953014  37.8967816  90.3024153  66.2854656  37.8206927
  91.0138846  65.2054672  37.0337401  78.7145734  77.7186545  30.7156418
  79.5520956  78.1283553  30.4990126  78.8924002  76.7785987  30.6856612
  90.6110166  75.3861625  26.4040251  90.0956790  76.1566230  26.6428639
  90.3387475  74.7126762  27.0273313  88.1957277  70.2311326  31.4625490
  87.3398873  69.8418177  31.2831128  88.6084229  70.3103287  30.6025275
  89.7256424  67.7657669  35.8617049  89.2221219  67.7287805  35.0484855
  90.0187031  68.6750412  35.9213706  85.9699310  67.8496399  34.8683231
  86.8352306  67.6539208  34.5089121  86.0376819  67.6206751  35.7952588
  95.5844440  78.1393980  28.3393425  94.8073883  77.8005140  27.8948587
  96.2635921  78.1446603  27.6648390  90.3996469  73.2588718  28.2300032
  90.0946605  73.5734867  29.0810176  91.3526911  73.3370137  28.2727365
  88.8442901  79.4178941  29.8792986  88.3164263  78.6831700  29.5666224
  88.3430404  80.1953617  29.6332955  93.8235747  77.6127961  34.9960033
  93.1659422  78.3027223  35.0840161  94.6276146  78.0024393  35.3394019
  83.5761629  70.0798607  32.2399598  84.1505381  69.8573789  31.5072791
  84.1632611  70.1487302  32.9928199  92.6341206  75.9672334  33.0463975
  93.1473088  76.6002326  33.5485684  93.2842430  75.3673530  32.6807335
  83.9031216  72.1103068  26.2595483  83.0668528  72.4477755  26.5804758
  83.7635986  71.9752048  25.3222620  85.8784296  66.9539856  30.9674667
  85.2248709  66.6388873  30.3431282  85.8364771  66.3315596  31.6934490
  86.9895501  77.2359151  22.8827960  86.0822563  77.0048405  23.0819108
  87.4866533  76.4396770  23.0701941  89.8963580  85.9456658  25.8024646
  89.2225279  86.2488355  26.4109604  90.2829402  86.7485739  25.4530103
  89.1122037  73.4421790  35.2922315  88.1944598  73.6636737  35.1344003
  89.5282180  73.5168100  34.4334022  89.8957085  74.8413205  30.4224995
  90.6428904  75.3534602  30.1132117  90.1648674  74.5197258  31.2829389
  88.1683735  77.3371746  27.4051950  87.2594954  77.0530779  27.5024419
  88.1978819  77.7570825  26.5455256  93.4003002  80.9478335  31.1743117
  92.9465329  80.1069245  31.2308308  92.7696969  81.5839734  31.5117897
  92.3435922  71.8770322  32.4043785  91.6058679  71.3647708  32.7354027
  92.5962695  71.4370703  31.5927061  91.8435941  82.7854832  32.1092935
  92.1358916  83.3459889  31.3905301  92.3534562  83.0783393  32.8646094
  92.4447549  64.6546574  32.9985554  92.7506426  63.7943937  32.7111469
  93.1700154  65.2464194  32.7984548  78.7371905  75.0577260  31.3867152
  78.5396305  74.4646621  30.6618218  78.1818569  74.7529470  32.1043091
  86.7168629  74.9500367  33.5061745  86.7717239  73.9974203  33.4304222
  85.9059831  75.1059806  33.9903043  87.8659823  78.8780490  24.7440028
  87.4279252  78.1616349  24.2845666  88.6070263  79.1056604  24.1825120
  84.6560989  73.5677426  31.2652124  83.8428854  73.8671597  31.6717316
  85.1519983  73.1733115  31.9826606  86.8069567  83.5635183  33.1986389
  86.7645745  83.7896030  32.2694921  87.7232265  83.3298558  33.3472190
  90.2535200  74.0319251  40.0967018  90.6084588  74.2590724  40.9561483
  90.9007332  74.3637628  39.4744273  95.9832937  77.1537687  30.8016347
  95.8450836  77.3439283  29.8737536  95.6269156  77.9157070  31.2584398
  84.1475063  71.1395782  36.8813359  84.7874443  70.9984541  36.1836322
  83.3152594  70.8530295  36.5051961  96.0102317  79.2214214  35.8127618
  96.4438824  79.1289503  36.6610672  96.7233898  79.1971714  35.1747634
  84.9235367  80.4398212  32.9948351  85.7175966  79.9448532  32.7930926
  84.2127060  79.9116075  32.6316057  89.7430212  82.8216308  37.3460719
  89.7967234  83.3907244  38.1138435  88.8744993  82.9918193  36.9814756
  81.2318131  74.5841294  29.0708104  80.3015719  74.5225749  29.2878066
  81.3275603  74.0617247  28.2744745  82.6228605  72.5233864  38.8285170
  83.2951659  72.3151226  38.1797819  81.7958392  72.3255950  38.3890402
  96.8717867  79.2637914  38.3460504  97.0653757  80.1683725  38.5919779
  96.7718485  78.8045333  39.1799089  88.5254177  69.1495805  40.8450831
  87.8782092  69.8485755  40.7515307  89.2955193  69.5831949  41.2127079
  91.9332975  79.4144657  43.9201384  91.7818482  79.1855209  43.0031468
  91.9237655  80.3715259  43.9332729  88.7018312  76.9876570  38.9047651
  89.6310372  77.1387729  38.7316618  88.2809342  77.0760591  38.0496297
  87.5006643  81.0127234  36.6746188  87.3617729  80.6446019  37.5472126
  86.7121240  81.5274874  36.5030146  88.0954795  86.1136331  28.0171725
  88.2706551  85.6424374  28.8317348  87.4087583  86.7402097  28.2452986
  89.0511859  80.3908837  34.0635026  88.7161691  80.3509607  34.9592676
  88.5515804  79.7253553  33.5905436  83.0256102  75.7976467  39.5887607
  82.8875900  75.0656706  40.1899146  83.9361026  75.7085367  39.3071795
  91.9871050  77.7364871  24.3372086  91.3700221  77.0111699  24.2405138
  91.5187539  78.4974232  23.9939160  85.6538403  75.5096426  39.0771287
  86.3638022  74.8689618  39.0357905  85.6107711  75.7609321  39.9997468
  93.6425182  82.4463780  41.9977866  93.5837728  81.7623000  41.3308449
  94.0444700  83.1882770  41.5458492  84.3667337  72.4961644  40.8966926
  83.8304694  72.0452383  41.5488523  83.7784046  72.6307553  40.1537391
  82.6615881  89.2625693  34.7911585  82.9012479  89.8944218  35.4690604
  81.8185077  88.9113734  35.0776944  83.7769596  71.9550296  23.4593390
  82.8999062  71.8339096  23.0955637  84.2527349  71.1636374  23.2072279
  93.6442589  80.4103364  40.2291846  92.7569368  80.0729285  40.3518245
  94.2141140  79.6786395  40.4660611  87.1743743  85.0704816  37.1953089
  87.1013914  85.8759787  37.7072394  86.7321136  85.2696782  36.3701110
  86.9633522  84.3076586  30.7055911  86.1801044  84.8498266  30.7994135
  87.6626267  84.8250566  31.1050152  90.2730172  70.1171215  33.3490116
  90.7698872  69.3641178  33.0291186  89.5017154  70.1535532  32.7833325
  98.1259930  75.8211581  34.9908407  98.1149806  76.7036296  34.6202341
  97.2577309  75.4683132  34.7962945  89.6342426  84.9691650  39.3511248
  90.3470398  85.6039115  39.2787149  89.1432455  85.0655516  38.5351250
  91.3559953  78.8742903  30.9228539  90.4216232  78.9944365  30.7533244
  91.5336621  77.9715369  30.6588549  86.8565141  72.2588598  33.0761801
  86.4862929  71.7059639  33.7642706  87.3524233  71.6546732  32.5236801
  94.7432504  74.7160222  31.4578573  95.2092956  75.5488214  31.3838876
  95.1940005  74.2505203  32.1623832  84.6854340  82.7186093  40.1716818
  85.3863799  83.3522576  40.3246213  84.2149455  83.0600825  39.4112458
  92.8108735  81.0604043  28.4564726  93.0868579  80.9460638  29.3658600
  91.9413234  80.6621528  28.4176899  92.7149167  67.0840809  35.4969475
  91.8012247  67.3145036  35.6651682  93.1442268  67.1679253  36.3483507
  92.4855626  75.2730701  37.9969369  91.8327076  75.5206608  37.3421822
  92.8636005  74.4594839  37.6631846  89.4462799  85.3090394  32.0997539
  89.6285194  84.4912050  32.5625291  90.2695785  85.5258086  31.6622429
  89.7804965  84.2358579  29.3612588  90.3092731  83.7251034  28.7482750
  90.0433184  83.9201109  30.2258121  88.5343199  76.0150512  44.4835406
  87.8583836  75.9144641  45.1537781  89.3570832  75.8589726  44.9471403
  80.2822058  82.2522448  37.1047921  80.8675494  81.5066136  37.2375825
  80.0846896  82.5626405  37.9884585  83.1360713  85.2873696  32.1210364
  82.4671088  85.7719823  31.6374404  82.9973583  85.5342916  33.0353742
  87.2765981  87.3217439  38.7193022  87.8284289  87.4849061  39.4842107
  87.6172175  87.9121877  38.0473047  81.7282747  71.7415722  42.9687941
  82.3554786  71.3592799  43.5825465  80.8710666  71.5229924  43.3343633
  92.1276856  82.1478697  44.5741676  92.6716760  82.7608655  44.0796631
  91.5463701  82.7058275  45.0908689  78.5048290  73.5492151  28.9006296
  78.8001731  72.6402829  28.8473349  77.6036326  73.5279890  28.5787298
  90.4134369  85.2699415  35.7056704  90.2885508  84.4689155  35.1967650
  91.0713460  85.7645608  35.2170674  82.0342537  71.6248147  34.8833844
  81.3129123  72.2384115  34.7441318  82.8235793  72.1605912  34.8050490
  92.4769277  83.0708435  37.3336254  91.5299613  82.9513786  37.2614581
  92.8252050  82.1830933  37.4162516  84.8368850  68.9602574  41.1574496
  85.3603252  69.2064870  41.9200805  84.6181184  69.7922609  40.7377633
  80.2336132  71.2306248  29.0245621  79.9048838  70.3503627  28.8420727
  80.5875502  71.1753917  29.9122010  89.4815710  82.8661151  33.5340606
  89.3340673  81.9377859  33.7148176  90.3069204  82.8881242  33.0497682
  83.3477955  71.5179218  29.3921099  83.6874027  72.0465140  28.6699707
  83.7950075  71.8559624  30.1679665  93.0849832  83.6889710  34.6205479
  94.0096380  83.4832571  34.4829930  92.9165136  83.4406111  35.5294821
  86.0421396  69.9016269  38.8424167  85.7018216  69.1024082  39.2444846
  85.3360402  70.2017980  38.2701000  86.6937867  66.9865581  37.2951490
  87.5163937  66.5126060  37.1730380  86.9375931  67.7656065  37.7950176
  85.3346102  70.0153840  27.5914391  86.0554464  70.3935093  27.0878108
  84.7111406  70.7342717  27.6949369  89.4777225  70.7198989  28.5272724
  89.6940839  71.6023627  28.2261552  88.9971292  70.3285202  27.7978366
  84.2176446  73.6784702  35.1043468  84.0721027  73.9925005  35.9967750
  83.7401650  74.2969602  34.5514367  86.0772829  70.6687250  35.1524358
  86.0634398  69.7728343  34.8156656  86.7945257  70.6757914  35.7862644
  87.9298960  71.1024590  37.1977485  87.6716738  72.0241661  37.1961816
  87.3984000  70.7055025  37.8877949  92.8745148  84.2075377  29.9767571
  93.0482026  83.6421800  29.2241423  93.3674040  85.0076272  29.7947061
  78.6922108  76.2190046  38.0431129  78.1475576  76.9949854  38.1751404
  79.5701458  76.5660851  37.8850251  85.4809725  69.5501630  30.4211928
  85.6025636  68.6218277  30.6202815  85.1911767  69.5640316  29.5090243
  88.3500915  67.2356541  33.5578648  88.3722612  67.2995874  32.6030627
  88.7668974  66.3961049  33.7519154  98.7284540  76.9711800  31.5957870
  99.1715686  76.2219126  31.1976994  97.8511050  76.9621937  31.2131602
  93.8620321  83.5242142  27.0764469  94.5571226  84.1448834  27.2951784
  94.2043471  82.6737493  27.3516847  79.4788130  75.3459943  40.9361286
  78.7369866  75.4942578  41.5225917  79.1580874  75.6068208  40.0728036
  95.7611744  80.9741847  28.6051800  96.2863068  81.3129120  27.8801120
  95.6734097  80.0388863  28.4214934  87.4231793  84.8875921  40.7341676
  87.7318919  84.6425068  41.6064376  88.2207275  85.0922559  40.2460547
  87.4452405  87.0413831  32.9647053  87.0057395  86.5490209  33.6579910
  88.1960522  86.4986798  32.7239128  79.9244744  83.2325371  32.9671681
  80.7502764  82.9329143  32.5870324  79.5738796  82.4632994  33.4161470
  84.8926277  82.5851840  35.0369355  84.2706286  81.9222545  34.7371582
  85.5631144  82.6112972  34.3543002  78.1253349  81.1511698  33.9260615
  77.2885257  80.7233872  33.7444616  78.0976994  81.3444141  34.8631406
  84.9650804  71.0633628  44.6301861  85.0138960  71.9395751  44.2479630
  85.5073319  70.5211021  44.0573504  95.4505650  81.6074751  43.9102998
  94.6601194  81.5898890  43.3707497  95.2139005  82.1463045  44.6652034
  95.5703525  78.4567217  41.2235726  95.6201530  78.2917225  42.1651249
  95.4617449  77.5894476  40.8333607  84.4539784  81.1355763  28.5127815
  84.6027904  81.8191227  27.8594488  85.2606227  81.1160853  29.0277271
  92.8607288  74.4398145  42.5395033  93.7617150  74.3004610  42.2479031
  92.9355262  74.6052600  43.4793210  87.1950093  71.8165000  41.3848219
  86.3253402  72.1098566  41.1130808  87.4309573  72.4005445  42.1055483
  97.0721722  80.8764159  41.4677748  96.7806530  81.2394139  42.3041209
  96.4593853  80.1631167  41.2891080  98.2717404  78.4417039  33.9880318
  99.1064296  78.8806843  34.1517878  98.4076533  77.9655692  33.1688564
  95.3208910  75.9996773  39.9357806  95.7963032  76.1924420  39.1276657
  94.3974476  76.0555959  39.6901189  82.2092417  77.1620941  29.5188884
  81.9638459  76.2583271  29.7169094  82.3788331  77.1638091  28.5768362
  89.8989127  68.0344617  38.9013640  90.4171071  68.7705644  38.5760128
  89.5444259  68.3408610  39.7360399  81.4788064  72.8949298  27.0175045
  80.7857309  72.9693653  26.3615081  81.2339816  72.1309642  27.5396562
  90.1501721  64.4544900  34.4214536  90.4303475  63.7868089  35.0474963
  90.9352328  64.6473995  33.9089200  87.9535189  83.6303893  25.9839562
  87.3809156  84.2494081  25.5310034  88.5267983  84.1803255  26.5179484
  94.0210579  72.8762534  38.1686111  94.9728002  72.9760631  38.1898335
  93.8514030  72.0840802  38.6784196  92.0424959  69.9618117  38.3545512
  91.4474891  70.2423130  37.6592001  91.7574655  70.4512018  39.1262253
  91.1732449  83.9141044  27.1148145  92.1063122  83.8486605  27.3181020
  91.0855662  84.7497310  26.6562677  93.8020466  83.2306914  24.0752092
  93.7234097  82.8966778  24.9687850  94.6230133  83.7228682  24.0743565
  96.4998657  76.0968653  37.2828411  96.4674977  75.1584654  37.4688095
  97.1099281  76.1752690  36.5494236  88.3381988  74.9664706  23.3255615
  89.2841093  74.8370914  23.3944033  87.9596233  74.2279368  23.8025043
  96.6493146  72.8879697  37.3286694  96.1332194  72.1038153  37.1416623
  97.5333094  72.5598413  37.4933214  94.3103872  66.6320712  33.2882507
  94.1128694  66.3235800  34.1725839  94.9203578  67.3582351  33.4180437
 102.3175207  77.1584660  36.4234448 103.0478595  76.8969948  36.9842151
 101.7082152  76.4213382  36.4636516 100.3990504  75.2992523  37.0208899
  99.6723668  75.1648488  36.4125391  99.9837791  75.6069351  37.8265617
  88.2220680  79.0182452  44.7856272  89.1423690  79.1961051  44.9796318
  88.1870263  78.0738498  44.6335971  86.5224905  72.8914683  23.2610500
  85.6156360  72.5947795  23.3373214  86.8000886  72.5944501  22.3944786
  81.2182753  76.9283487  37.4279053  81.4368763  77.8600595  37.4467087
  81.6308527  76.5691461  38.2133857  88.1386971  67.4351572  29.4154741
  87.3287699  67.0898657  29.7909988  88.8271388  67.1259116  30.0042353
  90.0677519  66.5129619  31.0379038  90.6208558  66.9325073  31.6969061
  90.3047605  65.5865367  31.0801994  86.0910618  72.5016693  46.8181802
  85.9907345  73.4511050  46.7493893  85.8732160  72.1734932  45.9457872
  85.2923690  69.7501618  23.4022479  86.1542854  70.0756516  23.6618297
  85.4774034  68.9633114  22.8895545  93.4456326  68.6230144  30.5457702
  92.8654995  69.2814948  30.1635755  93.1792259  67.8007489  30.1345120
  91.8959893  68.0235202  32.7479023  92.3959671  68.1351737  31.9393342
  92.5395500  67.7196255  33.3879831  85.9541888  75.9313832  45.6346864
  85.4708970  76.7314192  45.8410753  86.0402827  75.9421776  44.6814308
  79.2227848  77.7642211  33.5568683  79.1998536  77.8629899  32.6050566
  79.5328484  78.6107362  33.8785849  81.8815226  79.8218366  37.6715297
  82.8358479  79.7902309  37.6045229  81.6827749  79.3608990  38.4865523
  82.4714608  78.3919482  40.2386095  83.2907497  78.8863561  40.2620932
  82.7451416  77.4751451  40.2103663  92.2281204  70.7830235  29.6014051
  91.3407059  71.0679885  29.3834245  92.6435193  70.6223998  28.7541328
  95.5795740  70.8076756  33.3168390  96.3556130  71.2973208  33.5893007
  94.8543874  71.2334810  33.7740259  98.0168299  71.5204375  34.3742331
  98.6112790  71.2800111  33.6635639  98.0894883  70.8011505  35.0015867
  80.2365455  85.3637986  34.6885495  80.1019923  84.6038387  34.1223493
  79.8197517  86.0878886  34.2214284  91.3724418  80.5474909  23.6962071
  92.0760268  80.7524912  24.3119726  90.6487066  81.1151671  23.9611154
  92.2022228  76.2984771  29.8164341  92.1457429  76.7553322  28.9771973
  92.7550570  75.5375455  29.6387184  96.0127034  72.0874502  30.6414460
  95.7563968  71.6871138  31.4722668  95.3879902  72.8018296  30.5164599
 100.3239372  74.8270576  33.1485752  99.7638930  74.8963765  33.9217314
  99.7182875  74.6511560  32.4285248  83.3934580  86.2607303  34.9003938
  83.2766965  87.2052735  34.7982628  82.5727027  85.9580864  35.2889737
  93.2811115  80.9857439  25.7460531  94.1156719  80.5538637  25.5638005
  93.1195458  80.8139452  26.6737425  92.9357007  77.4889552  27.1116870
  92.8805811  77.3233823  26.1705314  92.3103062  78.1965585  27.2679060
  77.7249522  72.7257616  40.9378292  78.3708386  72.2156570  41.4265517
  77.5166673  73.4626298  41.5121717  90.2502914  79.7938464  46.4370433
  91.1194074  79.9679116  46.0757068  89.7709666  80.6132881  46.3146162
  86.2453133  66.9897661  26.6902188  86.2331802  67.9339501  26.8470459
  87.1376555  66.8067806  26.3961650  84.4189095  86.9135565  38.1159866
  85.3216341  86.9459175  38.4326361  84.1926465  85.9836016  38.1306202
  86.1742697  85.6666551  34.7769945  85.2238328  85.6668413  34.6634317
  86.4775183  84.9199286  34.2605980  90.0605252  63.5840438  30.9448125
  89.2937648  63.0298924  31.0904808  90.4715957  63.6562306  31.8062277
  82.0647013  69.8725233  45.0353306  82.9278475  69.5162038  45.2456631
  81.4912424  69.5339128  45.7228711 101.9095390  91.5027090  35.8415707
 102.5473800  91.3833837  35.1379048 101.7916233  92.4507934  35.9003660
  98.7185096  91.4554518  35.7777232  98.3803608  91.3395582  34.8897767
  99.5874865  91.0545683  35.7578238  94.5771912  93.3089994  31.7674123
  94.0136777  93.2179931  30.9990411  94.4624307  92.4889899  32.2476616
  99.2004879  92.6089369  41.7363438  99.1893520  92.2142168  40.8643941
  99.3625519  91.8755442  42.3297209  92.1236344  94.8041186  34.6058344
  92.9157636  94.4632010  34.1904643  92.3632994  94.9136161  35.5260497
 100.1571471  96.9760962  27.0788588  99.5059451  97.5615042  26.6922602
 100.9515834  97.5067157  27.1383625  94.0827098  94.0650099  27.4775722
  94.8557974  93.5179086  27.3388598  94.4352497  94.9294348  27.6890184
  95.9212141  95.3926481  40.6842622  95.6302007  96.2972112  40.5689288
  96.5569125  95.4343009  41.3986691  96.8468347  92.7703330  37.2743981
  97.4431920  92.5459352  36.5600944  96.9043319  92.0288075  37.8769429
  96.4193376  90.2242765  25.1094172  96.6718896  89.7024286  24.3477635
  95.4817935  90.0608911  25.2120856 101.4636659  89.2278544  32.9168915
 102.2499748  88.8097967  32.5659332 101.7275363  90.1324636  33.0850564
 101.6346736  94.6651394  27.6157572 100.9992569  94.7386020  28.3278477
 101.3044142  95.2544993  26.9376652 106.8645086  89.1653777  33.8201894
 107.5970258  88.5952994  34.0539723 106.1084441  88.7775377  34.2608400
  96.1389665  92.1270871  27.3118547  96.0225923  91.4515774  27.9799632
  96.2491924  91.6403245  26.4950700  98.4821205  91.5881018  31.0165236
  98.1179413  91.0611639  31.7278158  99.3388321  91.1979487  30.8431722
 104.3870506  82.8775351  38.2796503 104.0553831  83.7470762  38.0557718
 103.7916119  82.5611635  38.9590533  98.1226692  86.6170918  26.0126585
  98.2901095  87.4851154  26.3797056  97.9323862  86.7798200  25.0887874
 100.8802026  95.0787897  37.6792415 100.5802749  95.9812936  37.5708223
 100.5353085  94.8120080  38.5313568  94.3314507  91.5301694  33.7129120
  93.4065004  91.3977908  33.9206812  94.5798920  92.3095913  34.2099062
 104.2799169  87.5970437  35.3589853 103.3716047  87.5285845  35.0648614
 104.2286765  88.0742382  36.1871678  98.1015913  89.0728575  26.9973252
  97.9815539  89.5185626  27.8358732  97.4068502  89.4213893  26.4386790
  91.6923318  91.1734967  34.5472909  91.8215699  91.4269446  35.4612321
  91.0120769  91.7662675  34.2277564  95.8622805 101.8432217  30.6463383
  95.7846835 102.7940042  30.7251864  95.2584449 101.4978090  31.3038309
  98.3540035  89.0160083  43.3024750  97.5773369  89.5754003  43.2927615
  98.9930598  89.5016866  43.8239620 106.1460816  85.7986875  37.1367727
 105.5035196  86.0919409  36.4907521 105.6415744  85.6839796  37.9420923
 103.8000979  89.5450049  27.8253586 104.7118836  89.7777435  27.6501283
 103.2910627  90.1287093  27.2628664  96.6086407  91.8245536  42.8642717
  97.3501092  92.3630580  42.5877541  95.9023393  92.4511825  43.0214269
 102.0841747  93.9674676  41.4614878 102.4925103  93.5257087  40.7169511
 101.3619009  93.3927304  41.7149071  98.4372817  88.9047283  38.8348435
  99.2834012  89.3286697  38.9783084  98.3771455  88.2480907  39.5286998
 102.4070562  94.5275867  35.2167167 101.7779424  94.6921581  34.5143235
 102.0196224  94.9417477  35.9878131 106.2859794  95.4630305  32.5711531
 105.6010832  95.8429206  32.0208564 106.3703643  96.0725632  33.3043479
 101.5872263  86.5651652  40.4929609 101.3433194  87.3193712  39.9563885
 101.8632193  86.9436999  41.3276856 103.5410725  93.1090264  39.1706875
 103.7527621  93.7522024  38.4941256 103.4940474  92.2752580  38.7028805
 101.1436954  85.7208085  36.0743447 100.2821433  86.0189338  36.3660184
 101.1699389  85.9378483  35.1424479  97.9598524  94.2650275  32.4817252
  98.4236869  94.5437978  31.6921875  97.6955322  93.3633720  32.2990343
  94.8522605  93.8121757  35.4197016  95.4223962  94.2409025  34.7814500
  95.4430717  93.5304341  36.1181201  96.8967410  90.3873428  29.2906818
  97.5991453  90.8394471  29.7580744  96.5648038  89.7457246  29.9186711
  95.3447771  88.9785184  43.6658027  94.7146432  89.6601465  43.8993424
  95.2383859  88.8668266  42.7211165  90.6392744  88.6456980  34.5923951
  89.8491798  88.9014509  34.1164062  91.1303991  89.4605318  34.6975992
 104.6556553  95.9862219  37.3429232 105.4773997  95.5842407  37.0611914
 104.6518956  95.8830453  38.2945348  92.5907489  89.0101559  31.5507428
  91.7938652  89.1220254  32.0690923  92.3633081  89.3488212  30.6848318
  98.4213157  95.5346263  39.4989942  98.4857589  95.9966670  40.3348114
  97.7124081  94.9043628  39.6272252  88.9230447  88.8987471  37.0238942
  89.1738485  89.7834481  37.2896518  89.4589995  88.7192072  36.2514034
 112.7462546  92.3300968  33.6914203 111.9926255  91.7608366  33.5358208
 112.8810087  92.2963632  34.6384838  98.1361174  97.2014370  29.3668923
  98.0006849  98.0465906  29.7953771  98.6770987  97.4033648  28.6034857
  94.6228514  83.2805950  46.0283278  94.2295460  82.7272149  46.7030922
  95.4394654  83.5916528  46.4189795  91.5890572  94.7189808  29.9396848
  92.1015092  95.5133058  30.0902413  92.2413285  94.0216099  29.8730449
  93.3985456  97.8355564  32.0219601  93.5752085  98.7573529  31.8340585
  94.1942290  97.5213984  32.4513981  97.5396475  84.6963829  43.6203535
  98.2806188  85.2970982  43.5407997  97.7714398  83.9541467  43.0621577
  92.6837813  89.8820196  41.8981764  92.5691328  88.9805454  42.1988863
  91.8282331  90.1283893  41.5466581  99.7629651  97.8237937  43.4969265
  99.3193505  97.0374315  43.1790169 100.4246864  98.0117087  42.8313156
  94.5216772  99.3533738  38.0229943  95.0724197  99.2250802  37.2506937
  93.6828248  99.6528627  37.6724836 101.8610889  98.1040737  41.5250666
 101.8429364  98.9249618  41.0330935 102.7830809  97.9794812  41.7500807
  98.3183943  95.6184866  42.3674174  98.8512280  94.8573154  42.1373482
  97.7898024  95.3258518  43.1098329 101.4853638  80.7244932  37.8967816
 101.1417907  81.6146574  37.8206927 101.8532600  80.5346590  37.0337401
  89.5539488  93.0478462  30.7156418  90.3914711  93.4575471  30.4990126
  89.7317756  92.1077905  30.6856612 101.4503921  90.7153543  26.4040251
 100.9350544  91.4858148  26.6428639 101.1781229  90.0418679  27.0273313
  99.0351032  85.5603244  31.4625490  98.1792628  85.1710094  31.2831128
  99.4477983  85.6395205  30.6025275 100.5650178  83.0949587  35.8617049
 100.0614974  83.0579722  35.0484855 100.8580785  84.0042330  35.9213706
  96.8093064  83.1788317  34.8683231  97.6746061  82.9831126  34.5089121
  96.8770573  82.9498669  35.7952588 106.4238195  93.4685898  28.3393425
 105.6467638  93.1297057  27.8948587 107.1029676  93.4738521  27.6648390
 101.2390224  88.5880635  28.2300032 100.9340359  88.9026784  29.0810176
 102.1920666  88.6662055  28.2727365  99.6836656  94.7470859  29.8792986
  99.1558017  94.0123618  29.5666224  99.1824158  95.5245535  29.6332955
 104.6629502  92.9419879  34.9960033 104.0053176  93.6319140  35.0840161
 105.4669901  93.3316311  35.3394019  94.4155383  85.4090525  32.2399598
  94.9899135  85.1865706  31.5072791  95.0026366  85.4779219  32.9928199
 103.4734960  91.2964252  33.0463975 103.9866842  91.9294244  33.5485684
 104.1236184  90.6965447  32.6807335  94.7424970  87.4394986  26.2595483
  93.9062283  87.7769672  26.5804758  94.6029740  87.3043966  25.3222620
  96.7178051  82.2831774  30.9674667  96.0642463  81.9680791  30.3431282
  96.6758525  81.6607514  31.6934490  97.8289256  92.5651069  22.8827960
  96.9216318  92.3340322  23.0819108  98.3260288  91.7688688  23.0701941
  99.9515791  88.7713707  35.2922315  99.0338353  88.9928654  35.1344003
 100.3675935  88.8460018  34.4334022 100.7350839  90.1705123  30.4224995
 101.4822658  90.6826520  30.1132117 101.0042429  89.8489176  31.2829389
  99.0077489  92.6663664  27.4051950  98.0988709  92.3822696  27.5024419
  99.0372573  93.0862742  26.5455256 104.2396757  96.2770253  31.1743117
 103.7859084  95.4361163  31.2308308 103.6090723  96.9131652  31.5117897
 103.1829676  87.2062239  32.4043785 102.4452433  86.6939625  32.7354027
 103.4356450  86.7662621  31.5927061 102.6829696  98.1146750  32.1092935
 102.9752670  98.6751807  31.3905301 103.1928316  98.4075311  32.8646094
 103.2841304  79.9838491  32.9985554 103.5900180  79.1235855  32.7111469
 104.0093908  80.5756111  32.7984548  89.5765660  90.3869178  31.3867152
  89.3790059  89.7938538  30.6618218  89.0212324  90.0821388  32.1043091
  97.5562383  90.2792284  33.5061745  97.6110993  89.3266121  33.4304222
  96.7453585  90.4351723  33.9903043  98.7053577  94.2072407  24.7440028
  98.2673007  93.4908266  24.2845666  99.4464018  94.4348522  24.1825120
  95.4954743  88.8969344  31.2652124  94.6822609  89.1963515  31.6717316
  95.9913737  88.5025033  31.9826606  97.6463321  98.8927101  33.1986389
  97.6039500  99.1187947  32.2694921  98.5626020  98.6590476  33.3472190
 101.0928955  89.3611168  40.0967018 101.4478343  89.5882642  40.9561483
 101.7401086  89.6929545  39.4744273 106.8226692  92.4829604  30.8016347
 106.6844590  92.6731200  29.8737536 106.4662911  93.2448987  31.2584398
  94.9868818  86.4687700  36.8813359  95.6268197  86.3276459  36.1836322
  94.1546349  86.1822213  36.5051961 106.8496071  94.5506131  35.8127618
 107.2832578  94.4581420  36.6610672 107.5627652  94.5263632  35.1747634
  95.7629122  95.7690130  32.9948351  96.5569720  95.2740450  32.7930926
  95.0520814  95.2407993  32.6316057 100.5823966  98.1508225  37.3460719
 100.6360989  98.7199162  38.1138435  99.7138748  98.3210111  36.9814756
  92.0711885  89.9133212  29.0708104  91.1409473  89.8517667  29.2878066
  92.1669357  89.3909164  28.2744745  91.9897434  86.4388025  31.6586346
  92.2504252  87.3533358  31.5495506  92.8114607  85.9712467  31.8082958
  93.4622360  87.8525782  38.8285170  94.1345413  87.6443144  38.1797819
  92.6352146  87.6547868  38.3890402 107.7111621  94.5929832  38.3460504
 107.9047511  95.4975643  38.5919779 107.6112239  94.1337251  39.1799089
  99.3647932  84.4787723  40.8450831  98.7175847  85.1777672  40.7515307
 100.1348947  84.9123867  41.2127079 102.7726730  94.7436575  43.9201384
 102.6212236  94.5147126  43.0031468 102.7631409  95.7007176  43.9332729
  99.5412066  92.3168488  38.9047651 100.4704126  92.4679647  38.7316618
  99.1203096  92.4052508  38.0496297  98.3400398  96.3419152  36.6746188
  98.2011484  95.9737936  37.5472126  97.5514994  96.8566791  36.5030146
  98.9348550 101.4428248  28.0171725  99.1100306 100.9716292  28.8317348
  98.2481338 102.0694015  28.2452986  99.8905613  95.7200755  34.0635026
  99.5555446  95.6801525  34.9592676  99.3909559  95.0545471  33.5905436
  93.8649857  91.1268385  39.5887607  93.7269655  90.3948623  40.1899146
  94.7754780  91.0377285  39.3071795 102.8264805  93.0656789  24.3372086
 102.2093975  92.3403617  24.2405138 102.3581293  93.8266149  23.9939160
  96.4932158  90.8388344  39.0771287  97.2031776  90.1981536  39.0357905
  96.4501466  91.0901239  39.9997468 104.4818936  97.7755697  41.9977866
 104.4231482  97.0914917  41.3308449 104.8838455  98.5174687  41.5458492
  95.2061092  87.8253562  40.8966926  94.6698449  87.3744300  41.5488523
  94.6177800  87.9599471  40.1537391  93.5009635 104.5917611  34.7911585
  93.7406233 105.2236135  35.4690604  92.6578832 104.2405651  35.0776944
  94.6163351  87.2842213  23.4593390  93.7392817  87.1631014  23.0955637
  95.0921104  86.4928292  23.2072279 104.4836344  95.7395281  40.2291846
 103.5963122  95.4021203  40.3518245 105.0534895  95.0078312  40.4660611
  86.1365491  92.0719373  33.5534897  86.8236531  91.7581103  32.9655913
  85.9813619  92.9760738  33.2802149  90.9400213  86.9609570  37.9819921
  90.8558402  86.3535239  37.2470331  90.1182919  87.4518588  37.9829417
  98.0137497 100.3996734  37.1953089  97.9407668 101.2051705  37.7072394
  97.5714890 100.5988699  36.3701110  97.8027277  99.6368504  30.7055911
  97.0194799 100.1790184  30.7994135  98.5020022 100.1542483  31.1050152
 101.1123927  85.4463133  33.3490116 101.6092626  84.6933095  33.0291186
 100.3410908  85.4827450  32.7833325 108.9653684  91.1503499  34.9908407
 108.9543560  92.0328214  34.6202341 108.0971064  90.7975049  34.7962945
 100.4736181 100.2983568  39.3511248 101.1864153 100.9331032  39.2787149
  99.9826209 100.3947434  38.5351250 102.1953707  94.2034820  30.9228539
 101.2609986  94.3236283  30.7533244 102.3730376  93.3007287  30.6588549
  97.6958895  87.5880516  33.0761801  97.3256683  87.0351556  33.7642706
  98.1917988  86.9838650  32.5236801 105.5826259  90.0452140  31.4578573
 106.0486711  90.8780131  31.3838876 106.0333759  89.5797121  32.1623832
  95.5248094  98.0478011  40.1716818  96.2257554  98.6814494  40.3246213
  95.0543209  98.3892743  39.4112458 103.6502490  96.3895961  28.4564726
 103.9262334  96.2752555  29.3658600 102.7806989  95.9913446  28.4176899
 103.5542922  82.4132727  35.4969475 102.6406001  82.6436953  35.6651682
 103.9836023  82.4971171  36.3483507 103.3249380  90.6022619  37.9969369
 102.6720830  90.8498526  37.3421822 103.7029760  89.7886757  37.6631846
 100.2856554 100.6382312  32.0997539 100.4678948  99.8203968  32.5625291
 101.1089540 100.8550004  31.6622429 100.6198719  99.5650497  29.3612588
 101.1486486  99.0542951  28.7482750 100.8826939  99.2493027  30.2258121
  99.3736953  91.3442430  44.4835406  98.6977590  91.2436559  45.1537781
 100.1964587  91.1881643  44.9471403  91.1215812  97.5814366  37.1047921
  91.7069249  96.8358054  37.2375825  90.9240651  97.8918323  37.9884585
  93.9754467 100.6165614  32.1210364  93.3064843 101.1011741  31.6374404
  93.8367337 100.8634834  33.0353742  85.7133467  90.1519966  35.8252364
  85.7517566  89.6183557  36.6189482  85.2073760  89.6255172  35.2063342
  98.1159736 102.6509357  38.7193022  98.6678044 102.8140979  39.4842107
  98.4565929 103.2413795  38.0473047  93.0924229  84.9984507  39.3214907
  93.1565556  85.8599338  38.9092304  93.0291349  84.3858509  38.5887265
  92.5676502  87.0707639  42.9687941  93.1948540  86.6884717  43.5825465
  91.7104421  86.8521841  43.3343633 102.9670610  97.4770615  44.5741676
 103.5110514  98.0900573  44.0796631 102.3857455  98.0350193  45.0908689
  89.3442044  88.8784069  28.9006296  89.6395486  87.9694747  28.8473349
  88.4430080  88.8571808  28.5787298 101.2528123 100.5991333  35.7056704
 101.1279263  99.7981072  35.1967650 101.9107214 101.0937526  35.2170674
  92.8736291  86.9540065  34.8833844  92.1522877  87.5676033  34.7441318
  93.6629547  87.4897830  34.8050490 103.3163032  98.4000353  37.3336254
 102.3693367  98.2805704  37.2614581 103.6645805  97.5122851  37.4162516
  95.6762605  84.2894492  41.1574496  96.1997007  84.5356788  41.9200805
  95.4574938  85.1214526  40.7377633  91.0729886  86.5598166  29.0245621
  90.7442592  85.6795545  28.8420727  91.4269257  86.5045835  29.9122010
 100.3209465  98.1953069  33.5340606 100.1734427  97.2669776  33.7148176
 101.1462958  98.2173160  33.0497682  94.1871709  86.8471136  29.3921099
  94.5267782  87.3757057  28.6699707  94.6343830  87.1851542  30.1679665
 103.9243587  99.0181628  34.6205479 104.8490134  98.8124489  34.4829930
 103.7558890  98.7698029  35.5294821  96.8815150  85.2308187  38.8424167
  96.5411970  84.4316000  39.2444846  96.1754156  85.5309898  38.2701000
  97.5331622  82.3157499  37.2951490  98.3557691  81.8417977  37.1730380
  97.7769685  83.0947983  37.7950176  96.1739856  85.3445758  27.5914391
  96.8948219  85.7227010  27.0878108  95.5505160  86.0634634  27.6949369
 100.3170979  86.0490907  28.5272724 100.5334594  86.9315544  28.2261552
  99.8365046  85.6577120  27.7978366  95.0570201  89.0076620  35.1043468
  94.9114781  89.3216923  35.9967750  94.5795404  89.6261520  34.5514367
  96.9166583  85.9979168  35.1524358  96.9028152  85.1020261  34.8156656
  97.6339012  86.0049831  35.7862644  98.7692714  86.4316508  37.1977485
  98.5110492  87.3533579  37.1961816  98.2377755  86.0346942  37.8877949
 103.7138903  99.5367295  29.9767571 103.8875780  98.9713718  29.2241423
 104.2067794 100.3368190  29.7947061  89.5315863  91.5481964  38.0431129
  88.9869331  92.3241772  38.1751404  90.4095213  91.8952769  37.8850251
  96.3203479  84.8793548  30.4211928  96.4419391  83.9510194  30.6202815
  96.0305522  84.8932234  29.5090243  99.1894670  82.5648458  33.5578648
  99.2116367  82.6287792  32.6030627  99.6062729  81.7252967  33.7519154
 109.5678294  92.3003718  31.5957870 110.0109440  91.5511043  31.1976994
 108.6904804  92.2913854  31.2131602 104.7014075  98.8534059  27.0764469
 105.3964980  99.4740752  27.2951784 105.0437226  98.0029411  27.3516847
  90.3181885  90.6751860  40.9361286  89.5763621  90.8234496  41.5225917
  89.9974629  90.9360126  40.0728036 106.6005499  96.3033765  28.6051800
 107.1256823  96.6421038  27.8801120 106.5127851  95.3680780  28.4214934
  98.2625547 100.2167839  40.7341676  98.5712674  99.9716985  41.6064376
  99.0601029 100.4214477  40.2460547  98.2846159 102.3705748  32.9647053
  97.8451150 101.8782127  33.6579910  99.0354276 101.8278716  32.7239128
  90.7638498  98.5617289  32.9671681  91.5896518  98.2621061  32.5870324
  90.4132550  97.7924912  33.4161470  95.7320031  97.9143757  35.0369355
  95.1100041  97.2514462  34.7371582  96.4024898  97.9404889  34.3543002
  88.9647103  96.4803616  33.9260615  88.1279012  96.0525790  33.7444616
  88.9370749  96.6736059  34.8631406  95.8044559  86.3925545  44.6301861
  95.8532714  87.2687668  44.2479630  96.3467073  85.8502938  44.0573504
 106.2899405  96.9366669  43.9102998 105.4994948  96.9190807  43.3707497
 106.0532759  97.4754962  44.6652034 106.4097280  93.7859135  41.2235726
 106.4595285  93.6209142  42.1651249 106.3011203  92.9186394  40.8333607
  95.2933538  96.4647681  28.5127815  95.4421659  97.1483145  27.8594488
  96.0999982  96.4452771  29.0277271 103.7001042  89.7690063  42.5395033
 104.6010905  89.6296528  42.2479031 103.7749017  89.9344518  43.4793210
  98.0343847  87.1456918  41.3848219  97.1647157  87.4390484  41.1130808
  98.2703328  87.7297363  42.1055483 107.9115476  96.2056077  41.4677748
 107.6200285  96.5686057  42.3041209 107.2987608  95.4923085  41.2891080
 109.1111159  93.7708956  33.9880318 109.9458050  94.2098760  34.1517878
 109.2470288  93.2947610  33.1688564 106.1602665  91.3288691  39.9357806
 106.6356786  91.5216337  39.1276657 105.2368230  91.3847877  39.6901189
  93.0486171  92.4912858  29.5188884  92.8032213  91.5875188  29.7169094
  93.2182086  92.4930009  28.5768362 100.7382881  83.3636535  38.9013640
 101.2564825  84.0997562  38.5760128 100.3838014  83.6700528  39.7360399
  92.3181819  88.2241216  27.0175045  91.6251064  88.2985571  26.3615081
  92.0733571  87.4601560  27.5396562 100.9895475  79.7836817  34.4214536
 101.2697229  79.1160006  35.0474963 101.7746082  79.9765913  33.9089200
  98.7928944  98.9595811  25.9839562  98.2202911  99.5785998  25.5310034
  99.3661738  99.5095173  26.5179484 104.8604334  88.2054451  38.1686111
 105.8121757  88.3052549  38.1898335 104.6907784  87.4132720  38.6784196
 102.8818713  85.2910034  38.3545512 102.2868645  85.5715047  37.6592001
 102.5968410  85.7803935  39.1262253 102.0126204  99.2432961  27.1148145
 102.9456877  99.1778523  27.3181020 101.9249416 100.0789228  26.6562677
 107.3392412  91.4260571  37.2828411 107.3068732  90.4876572  37.4688095
 107.9493035  91.5044608  36.5494236  99.1775742  90.2956624  23.3255615
 100.1234847  90.1662832  23.3944033  98.7989987  89.5571286  23.8025043
 107.4886900  88.2171614  37.3286694 106.9725949  87.4330071  37.1416623
 108.3726849  87.8890331  37.4933214 105.1497627  81.9612630  33.2882507
 104.9522448  81.6527718  34.1725839 105.7597332  82.6874269  33.4180437
 113.1568961  92.4876578  36.4234448 113.8872350  92.2261866  36.9842151
 112.5475907  91.7505300  36.4636516 111.2384258  90.6284440  37.0208899
 110.5117422  90.4940405  36.4125391 110.8231545  90.9361269  37.8265617
  99.0614435  94.3474370  44.7856272  99.9817444  94.5252969  44.9796318
  99.0264018  93.4030415  44.6335971  97.3618660  88.2206600  23.2610500
  96.4550115  87.9239713  23.3373214  97.6394641  87.9236418  22.3944786
  88.2796600  89.5412964  33.7109547  87.9599384  88.6878272  33.4183921
  87.7330028  89.7561542  34.4667514  92.0576507  92.2575405  37.4279053
  92.2762517  93.1892513  37.4467087  92.4702281  91.8983379  38.2133857
  98.9780725  82.7643490  29.4154741  98.1681454  82.4190575  29.7909988
  99.6665142  82.4551034  30.0042353 100.9071274  81.8421537  31.0379038
 101.4602312  82.2616990  31.6969061 101.1441360  80.9157285  31.0801994
  96.9304373  87.8308610  46.8181802  96.8301100  88.7802967  46.7493893
  96.7125915  87.5026849  45.9457872  96.1317444  85.0793536  23.4022479
  96.9936608  85.4048434  23.6618297  96.3167788  84.2925031  22.8895545
  88.1484860  93.1615875  35.6802668  87.4548331  92.7469828  35.1672623
  88.8957851  93.2036412  35.0836087 104.2850081  83.9522062  30.5457702
 103.7048750  84.6106866  30.1635755 104.0186013  83.1299407  30.1345120
 102.7353647  83.3527120  32.7479023 103.2353425  83.4643654  31.9393342
 103.3789255  83.0488173  33.3879831  96.7935643  91.2605749  45.6346864
  96.3102725  92.0606109  45.8410753  96.8796582  91.2713694  44.6814308
  90.0621602  93.0934129  33.5568683  90.0392291  93.1921816  32.6050566
  90.3722239  93.9399280  33.8785849  92.7208980  95.1510284  37.6715297
  93.6752234  95.1194226  37.6045229  92.5221504  94.6900908  38.4865523
  93.3108362  93.7211400  40.2386095  94.1301251  94.2155479  40.2620932
  93.5845170  92.8043368  40.2103663 103.0674959  86.1122152  29.6014051
 102.1800814  86.3971803  29.3834245 103.4828948  85.9515916  28.7541328
 106.4189495  86.1368673  33.3168390 107.1949885  86.6265126  33.5893007
 105.6937629  86.5626728  33.7740259 108.8562053  86.8496293  34.3742331
 109.4506544  86.6092029  33.6635639 108.9288637  86.1303423  35.0015867
  91.0759209 100.6929903  34.6885495  90.9413677  99.9330304  34.1223493
  90.6591271 101.4170803  34.2214284 103.0415982  91.6276688  29.8164341
 102.9851184  92.0845240  28.9771973 103.5944325  90.8667373  29.6387184
 106.8520788  87.4166420  30.6414460 106.5957723  87.0163056  31.4722668
 106.2273656  88.1310214  30.5164599 111.1633126  90.1562493  33.1485752
 110.6032684  90.2255683  33.9217314 110.5576630  89.9803478  32.4285248
  94.2328335 101.5899221  34.9003938  94.1160719 102.5344653  34.7982628
  93.4120781 101.2872782  35.2889737 104.1204870  96.3149356  25.7460531
 104.9550473  95.8830555  25.5638005 103.9589212  96.1431370  26.6737425
 103.7750762  92.8181470  27.1116870 103.7199565  92.6525741  26.1705314
 103.1496817  93.5257502  27.2679060  88.5643277  88.0549534  40.9378292
  89.2102140  87.5448488  41.4265517  88.3560428  88.7918216  41.5121717
 101.0896669  95.1230381  46.4370433 101.9587829  95.2971034  46.0757068
 100.6103420  95.9424798  46.3146162  97.0846887  82.3189579  26.6902188
  97.0725557  83.2631418  26.8470459  97.9770309  82.1359724  26.3961650
  95.2582849 102.2427482  38.1159866  96.1610096 102.2751093  38.4326361
  95.0320219 101.3127933  38.1306202  97.0136451 100.9958469  34.7769945
  96.0632082 100.9960331  34.6634317  97.3168937 100.2491204  34.2605980
 100.8999007  78.9132355  30.9448125 100.1331402  78.3590842  31.0904808
 101.3109712  78.9854224  31.8062277  92.9040768  85.2017151  45.0353306
  93.7672229  84.8453956  45.2456631  92.3306178  84.8631046  45.7228711
 112.7489145 106.8319007  35.8415707 113.3867555 106.7125755  35.1379048
 112.6309987 107.7799851  35.9003660 109.5578851 106.7846435  35.7777232
 109.2197362 106.6687500  34.8897767 110.4268619 106.3837601  35.7578238
 110.0398634 107.9381287  41.7363438 110.0287275 107.5434085  40.8643941
 110.2019273 107.2047360  42.3297209 102.9630099 110.1333103  34.6058344
 103.7551390 109.7923928  34.1904643 103.2026749 110.2428079  35.5260497
 106.7605895 110.7218399  40.6842622 106.4695761 111.6264030  40.5689288
 107.3962879 110.7634927  41.3986691 107.6862102 108.0995248  37.2743981
 108.2825674 107.8751270  36.5600944 107.7437073 107.3579993  37.8769429
 115.2264261  98.2067268  38.2796503 114.8947585  99.0762679  38.0557718
 114.6309874  97.8903553  38.9590533 105.1708262 106.8593611  33.7129120
 104.2458758 106.7269825  33.9206812 105.4192675 107.6387831  34.2099062
 115.1192924 102.9262355  35.3589853 114.2109801 102.8577763  35.0648614
 115.0680520 103.4034300  36.1871678 102.5317073 106.5026885  34.5472909
 102.6609454 106.7561364  35.4612321 101.8514524 107.0954593  34.2277564
 109.1933790 104.3452000  43.3024750 108.4167124 104.9045920  43.2927615
 109.8324353 104.8308783  43.8239620 116.9854570 101.1278793  37.1367727
 116.3428951 101.4211326  36.4907521 116.4809499 101.0131713  37.9420923
 107.4480162 107.1537454  42.8642717 108.1894846 107.6922498  42.5877541
 106.7417147 107.7803742  43.0214269 112.9235502 109.2966594  41.4614878
 113.3318858 108.8549005  40.7169511 112.2012763 108.7219222  41.7149071
 109.2766572 104.2339201  38.8348435 110.1227767 104.6578614  38.9783084
 109.2165209 103.5772825  39.5286998 112.4266017 101.8943569  40.4929609
 112.1826949 102.6485630  39.9563885 112.7025948 102.2728917  41.3276856
 111.9830709 101.0500002  36.0743447 111.1215188 101.3481256  36.3660184
 112.0093143 101.2670401  35.1424479 105.6916359 109.1413674  35.4197016
 106.2617716 109.5700943  34.7814500 106.2824471 108.8596259  36.1181201
 106.1841526 104.3077102  43.6658027 105.5540186 104.9893383  43.8993424
 106.0777614 104.1960183  42.7211165 101.4786498 103.9748898  34.5923951
 100.6885552 104.2306426  34.1164062 101.9697746 104.7897236  34.6975992
 103.4301244 104.3393477  31.5507428 102.6332407 104.4512171  32.0690923
 103.2026836 104.6780129  30.6848318 109.2606911 110.8638180  39.4989942
 109.3251344 111.3258588  40.3348114 108.5517835 110.2335545  39.6272252
  99.7624201 104.2279388  37.0238942 100.0132240 105.1126398  37.2896518
 100.2983750 104.0483990  36.2514034 105.4622268  98.6097868  46.0283278
 105.0689214  98.0564066  46.7030922 106.2788409  98.9208446  46.4189795
 108.3790229 100.0255747  43.6203535 109.1199943 100.6262900  43.5407997
 108.6108152  99.2833385  43.0621577 103.5231567 105.2112114  41.8981764
 103.4085083 104.3097371  42.1988863 102.6676085 105.4575811  41.5466581
 105.3610526 114.6825656  38.0229943 105.9117951 114.5542719  37.2506937
 104.5222002 114.9820545  37.6724836 109.1577697 110.9476784  42.3674174
 109.6906034 110.1865072  42.1373482 108.6291779 110.6550436  43.1098329
 112.3247392  96.0536850  37.8967816 111.9811662  96.9438491  37.8206927
 112.6926355  95.8638507  37.0337401 109.8744786 100.8895162  31.4625490
 109.0186382 100.5002012  31.2831128 110.2871738 100.9687122  30.6025275
 111.4043933  98.4241505  35.8617049 110.9008728  98.3871640  35.0484855
 111.6974540  99.3334248  35.9213706 107.6486819  98.5080235  34.8683231
 108.5139815  98.3123043  34.5089121 107.7164328  98.2790586  35.7952588
 105.2549138 100.7382442  32.2399598 105.8292890 100.5157624  31.5072791
 105.8420120 100.8071137  32.9928199 107.5571805  97.6123691  30.9674667
 106.9036218  97.2972709  30.3431282 107.5152280  96.9899432  31.6934490
 110.7909546 104.1005625  35.2922315 109.8732107 104.3220572  35.1344003
 111.2069689 104.1751935  34.4334022 114.1235058  95.3130409  32.9985554
 114.4293935  94.4527772  32.7111469 114.8487663  95.9048029  32.7984548
 100.4159414 105.7161095  31.3867152 100.2183814 105.1230456  30.6618218
  99.8606078 105.4113306  32.1043091 108.3956138 105.6084202  33.5061745
 108.4504748 104.6558038  33.4304222 107.5847340 105.7643641  33.9903043
 106.3348498 104.2261262  31.2652124 105.5216363 104.5255432  31.6717316
 106.8307492 103.8316950  31.9826606 111.9322709 104.6903086  40.0967018
 112.2872097 104.9174559  40.9561483 112.5794841 105.0221463  39.4744273
 105.8262572 101.7979617  36.8813359 106.4661952 101.6568376  36.1836322
 104.9940103 101.5114131  36.5051961 102.8291189 101.7679942  31.6586346
 103.0898006 102.6825275  31.5495506 103.6508361 101.3004385  31.8082958
 104.3016114 103.1817699  38.8285170 104.9739168 102.9735061  38.1797819
 103.4745901 102.9839785  38.3890402 110.2041686  99.8079640  40.8450831
 109.5569601 100.5069590  40.7515307 110.9742702 100.2415784  41.2127079
 110.3805821 107.6460405  38.9047651 111.3097881 107.7971565  38.7316618
 109.9596851 107.7344426  38.0496297 109.1794152 111.6711070  36.6746188
 109.0405238 111.3029854  37.5472126 108.3908749 112.1858709  36.5030146
 104.7043611 106.4560302  39.5887607 104.5663409 105.7240541  40.1899146
 105.6148535 106.3669202  39.3071795 107.3325912 106.1680262  39.0771287
 108.0425531 105.5273454  39.0357905 107.2895220 106.4193157  39.9997468
 106.0454846 103.1545480  40.8966926 105.5092203 102.7036218  41.5488523
 105.4571555 103.2891388  40.1537391  96.9759245 107.4011291  33.5534897
  97.6630285 107.0873021  32.9655913  96.8207374 108.3052655  33.2802149
 101.7793967 102.2901487  37.9819921 101.6952156 101.6827157  37.2470331
 100.9576674 102.7810506  37.9829417 111.9517681 100.7755051  33.3490116
 112.4486381 100.0225013  33.0291186 111.1804663 100.8119367  32.7833325
 108.5352650 102.9172434  33.0761801 108.1650437 102.3643474  33.7642706
 109.0311742 102.3130567  32.5236801 106.3641849 113.3769929  40.1716818
 107.0651308 114.0106412  40.3246213 105.8936964 113.7184660  39.4112458
 114.3936676  97.7424644  35.4969475 113.4799756  97.9728871  35.6651682
 114.8229777  97.8263088  36.3483507 114.1643135 105.9314536  37.9969369
 113.5114585 106.1790444  37.3421822 114.5423514 105.1178674  37.6631846
 110.2130708 106.6734347  44.4835406 109.5371345 106.5728477  45.1537781
 111.0358341 106.5173561  44.9471403 101.9609567 112.9106284  37.1047921
 102.5463003 112.1649972  37.2375825 101.7634405 113.2210241  37.9884585
  96.5527221 105.4811884  35.8252364  96.5911321 104.9475475  36.6189482
  96.0467514 104.9547090  35.2063342 103.9317984 100.3276425  39.3214907
 103.9959310 101.1891255  38.9092304 103.8685104  99.7150426  38.5887265
 103.4070256 102.3999557  42.9687941 104.0342295 102.0176634  43.5825465
 102.5498175 102.1813759  43.3343633 100.1835799 104.2075986  28.9006296
 100.4789240 103.2986665  28.8473349  99.2823835 104.1863726  28.5787298
 103.7130046 102.2831983  34.8833844 102.9916632 102.8967950  34.7441318
 104.5023302 102.8189748  34.8050490 106.5156359  99.6186409  41.1574496
 107.0390761  99.8648706  41.9200805 106.2968693 100.4506444  40.7377633
 101.9123641 101.8890084  29.0245621 101.5836347 101.0087463  28.8420727
 102.2663011 101.8337753  29.9122010 107.7208904 100.5600104  38.8424167
 107.3805725  99.7607917  39.2444846 107.0147911 100.8601815  38.2701000
 108.3725376  97.6449417  37.2951490 109.1951446  97.1709895  37.1730380
 108.6163440  98.4239901  37.7950176 105.8963955 104.3368537  35.1043468
 105.7508536 104.6508841  35.9967750 105.4189159 104.9553438  34.5514367
 107.7560338 101.3271085  35.1524358 107.7421907 100.4312179  34.8156656
 108.4732766 101.3341749  35.7862644 109.6086469 101.7608426  37.1977485
 109.3504246 102.6825496  37.1961816 109.0771509 101.3638860  37.8877949
 100.3709617 106.8773882  38.0431129  99.8263085 107.6533690  38.1751404
 101.2488967 107.2244686  37.8850251 107.1597234 100.2085466  30.4211928
 107.2813145  99.2802112  30.6202815 106.8699276 100.2224152  29.5090243
 110.0288424  97.8940376  33.5578648 110.0510121  97.9579709  32.6030627
 110.4456483  97.0544885  33.7519154 101.1575639 106.0043778  40.9361286
 100.4157375 106.1526413  41.5225917 100.8368383 106.2652044  40.0728036
  99.8040858 111.8095533  33.9260615  98.9672766 111.3817708  33.7444616
  99.7764503 112.0027977  34.8631406 106.6438313 101.7217463  44.6301861
 106.6926469 102.5979586  44.2479630 107.1860828 101.1794856  44.0573504
 114.5394797 105.0981981  42.5395033 115.4404659 104.9588446  42.2479031
 114.6142771 105.2636436  43.4793210 108.8737602 102.4748835  41.3848219
 108.0040911 102.7682402  41.1130808 109.1097082 103.0589280  42.1055483
 111.5776636  98.6928452  38.9013640 112.0958580  99.4289479  38.5760128
 111.2231768  98.9992446  39.7360399 111.8289230  95.1128735  34.4214536
 112.1090984  94.4451924  35.0474963 112.6139837  95.3057831  33.9089200
 115.6998088 103.5346369  38.1686111 116.6515511 103.6344467  38.1898335
 115.5301539 102.7424637  38.6784196 113.7212468 100.6201952  38.3545512
 113.1262400 100.9006965  37.6592001 113.4362164 101.1095853  39.1262253
 118.3280654 103.5463532  37.3286694 117.8119703 102.7621989  37.1416623
 119.2120603 103.2182249  37.4933214 115.9891381  97.2904548  33.2882507
 115.7916203  96.9819636  34.1725839 116.5991087  98.0166187  33.4180437
 109.9008189 109.6766288  44.7856272 110.8211199 109.8544887  44.9796318
 109.8657772 108.7322333  44.6335971  99.1190354 104.8704881  33.7109547
  98.7993139 104.0170190  33.4183921  98.5723783 105.0853460  34.4667514
 102.8970262 107.5867322  37.4279053 103.1156272 108.5184430  37.4467087
 103.3096036 107.2275297  38.2133857 109.8174480  98.0935408  29.4154741
 109.0075208  97.7482493  29.7909988 110.5058897  97.7842951  30.0042353
 111.7465028  97.1713455  31.0379038 112.2996067  97.5908908  31.6969061
 111.9835114  96.2449203  31.0801994 107.7698127 103.1600528  46.8181802
 107.6694854 104.1094885  46.7493893 107.5519669 102.8318767  45.9457872
  98.9878614 108.4907793  35.6802668  98.2942086 108.0761746  35.1672623
  99.7351605 108.5328329  35.0836087 113.5747401  98.6819037  32.7479023
 114.0747180  98.7935572  31.9393342 114.2183009  98.3780090  33.3879831
 107.6329397 106.5897667  45.6346864 107.1496479 107.3898027  45.8410753
 107.7190336 106.6005612  44.6814308 100.9015357 108.4226047  33.5568683
 100.8786045 108.5213734  32.6050566 101.2115993 109.2691197  33.8785849
 103.5602735 110.4802202  37.6715297 104.5145988 110.4486144  37.6045229
 103.3615258 110.0192825  38.4865523 104.1502117 109.0503318  40.2386095
 104.9695006 109.5447396  40.2620932 104.4238925 108.1335286  40.2103663
  99.4037031 103.3841452  40.9378292 100.0495895 102.8740406  41.4265517
  99.1954182 104.1210133  41.5121717 111.7392761  94.2424273  30.9448125
 110.9725157  93.6882760  31.0904808 112.1503466  94.3146142  31.8062277
 103.7434522 100.5309069  45.0353306 104.6065984 100.1745874  45.2456631
 103.1699933 100.1922963  45.7228711  50.2850165  -1.8641768  28.7223173
  50.2262711  -2.5482548  28.0553756  50.6869684  -1.1222778  28.2703799
  48.7701839  -2.1626851  31.2986983  49.3141743  -1.5496893  30.8041938
  48.1888684  -1.6047273  31.8153996  52.0930633  -2.7030797  30.6348304
  51.3026177  -2.7206658  30.0952804  51.8563988  -2.1642503  31.3897341
  53.7146705  -3.4341389  28.1923054  53.4231514  -3.0711409  29.0286515
  53.1018837  -4.1474381  28.0136386  46.8927898  -4.5167084  33.1615739
  47.7619057  -4.3426432  32.8002374  46.4134649  -3.6972668  33.0391469
  58.5520373   7.1921542  22.5661014  59.1898783   7.0728289  21.8624354
  58.4341216   8.1402386  22.6248966  55.3610080   7.1448970  22.5022539
  55.0228591   7.0290034  21.6143074  56.2299848   6.7440135  22.4823545
  55.8429863   8.2983821  28.4608744  55.8318503   7.9036620  27.5889248
  56.0050502   7.5649894  29.0542516  48.7661327  10.4935638  21.3303650
  49.5582619  10.1526462  20.9149949  49.0057977  10.6030613  22.2505803
  52.5637124  11.0820933  27.4087928  52.2726990  11.9866564  27.2934595
  53.1994108  11.1237461  28.1231998  53.4893331   8.4597782  23.9989288
  54.0856903   8.2353804  23.2846251  53.5468302   7.7182527  24.6014736
  63.5070069   4.8548229  20.5447201  64.2395241   4.2847445  20.7785030
  62.7509425   4.4669829  20.9853706  61.0295489  -1.4330197  25.0041809
  60.6978814  -0.5634786  24.7803024  60.4341103  -1.7493913  25.6835840
  57.5227009  10.7682349  24.4037722  57.2227732  11.6707388  24.2953529
  57.1778068  10.5014532  25.2558875  60.9224153   3.2864889  22.0835159
  60.0141030   3.2180297  21.7893920  60.8711748   3.7636834  22.9116985
  52.5047789  17.5326669  17.3708690  52.4271818  18.4834494  17.4497170
  51.9009432  17.1872542  18.0283616  54.9965018   4.7054534  30.0270057
  54.2198353   5.2648455  30.0172921  55.6355582   5.1911317  30.5484927
  62.7885799   1.4881327  23.8613033  62.1460179   1.7813860  23.2152828
  62.2840728   1.3734248  24.6666230  53.2511391   7.5139988  29.5888024
  53.9926075   8.0525032  29.3122847  52.5448376   8.1406277  29.7459575
  58.7266730   9.6569128  28.1860185  59.1350086   9.2151539  27.4414817
  58.0043992   9.0821756  28.4394378  55.0797800   4.5941735  25.5593742
  55.9258996   5.0181149  25.7028391  55.0196438   3.9375359  26.2532305
  59.0495545  10.2170319  21.9412474  58.4204408  10.3816033  21.2388542
  58.6621207  10.6311928  22.7123438  62.9284777  11.1524757  19.2956838
  62.2435815  11.5323658  18.7453871  63.0128626  11.7620083  20.0288785
  58.2297246   2.2546103  27.2174916  57.9858178   3.0088164  26.6809191
  58.5057176   2.6331451  28.0522163  60.1835709   8.7984716  25.8952181
  60.3952604   9.4416476  25.2186562  60.1365457   7.9647032  25.4274111
  51.4947588   9.5016209  22.1442322  52.0648945   9.9303477  21.5059807
  52.0855700   9.2198793  22.8426508  51.9872755   4.6679636  30.3903334
  51.3571415   5.3495917  30.6238730  51.8808842   4.5562718  29.4456472
  61.2981537  11.6756671  24.0674539  62.1198980  11.2736859  23.7857220
  61.2943939  11.5724905  25.0190654  55.0638140  11.2240715  26.2235249
  55.1282572  11.6861122  27.0593421  54.3549064  10.5938079  26.3517559
  69.3887530   8.0195420  20.4159510  68.6351238   7.4502818  20.2603514
  69.5235071   7.9858084  21.3630145  51.2653497  -1.0299598  32.7528585
  50.8720443  -1.5833400  33.4276229  52.0819638  -0.7189020  33.1435102
  50.0410440  13.5250016  18.7464908  50.2177068  14.4467981  18.5585892
  50.8367273  13.2108436  19.1759287  54.1821458   0.3858281  30.3448841
  54.9231172   0.9865434  30.2653304  54.4139381  -0.3564081  29.7866884
  49.3262796   5.5714648  28.6227071  49.2116311   4.6699905  28.9234170
  48.4707314   5.8178345  28.2711887  56.4054634  13.5132389  30.2214571
  55.9618488  12.7268767  29.9035476  57.0671848  13.7011539  29.5558462
  51.1641755  15.0428190  24.7475250  51.7149180  14.9145253  23.9752244
  50.3253231  15.3423079  24.3970143  58.5035872  13.7935188  28.2495973
  58.4854347  14.6144069  27.7576242  59.4255792  13.6689264  28.4746114
  54.9608926  11.3079318  29.0919481  55.4937263  10.5467606  28.8618789
  54.4323007  11.0152970  29.8343636  61.3054485   8.6314331  21.7205339
  60.6478159   9.3213592  21.8085468  62.1094884   9.0210763  22.0639326
  60.1159944   6.9858704  19.7709281  60.6291825   7.6188695  20.2730991
  60.7661168   6.3859899  19.4052641  56.5940775   4.4608159  22.0167622
  55.6763336   4.6823106  21.8589310  57.0100918   4.5354470  21.1579329
  60.8821740  11.9664705  17.8988424  60.4284067  11.1255615  17.9553614
  60.2515707  12.6026103  18.2363204  59.3254679  13.8041202  18.8338242
  59.6177654  14.3646259  18.1150608  59.8353300  14.0969763  19.5891401
  54.2888304  14.5821553  19.9231695  54.2464483  14.8082399  18.9940227
  55.2051003  14.3484927  20.0717496  57.7353938   5.0505620  26.8212324
  58.0903326   5.2777093  27.6806790  58.3826069   5.3823997  26.1989580
  63.4651675   8.1724056  17.5261653  63.3269574   8.3625652  16.5982843
  63.1087894   8.9343439  17.9829705  63.4921055  10.2400583  22.5372925
  63.9257561  10.1475872  23.3855979  64.2052635  10.2158084  21.8992941
  57.2248950  13.8402677  24.0706025  57.2785972  14.4093614  24.8383741
  56.3563731  14.0104562  23.7060063  50.1047343   3.5420234  25.5530477
  50.7770396   3.3337596  24.9043126  49.2777130   3.3442320  25.1135709
  64.3536604  10.2824284  25.0705810  64.5472494  11.1870094  25.3165085
  64.2537222   9.8231703  25.9044395  56.0072915   0.1682174  27.5696138
  55.3600830   0.8672124  27.4760614  56.7773930   0.6018318  27.9372386
  59.4151713  10.4331027  30.6446691  59.2637219  10.2041578  29.7276775
  59.4056392  11.3901628  30.6578036  56.1837049   8.0062939  25.6292957
  57.1129109   8.1574099  25.4561925  55.7628079   8.0946960  24.7741604
  54.9825381  12.0313604  23.3991495  54.8436467  11.6632388  24.2717433
  54.1939977  12.5461243  23.2275453  55.5773533  17.1322700  14.7417031
  55.7525289  16.6610743  15.5562654  54.8906321  17.7588466  14.9698292
  56.5330596  11.4095207  20.7880333  56.1980429  11.3695976  21.6837983
  56.0334542  10.7439922  20.3150743  50.5074840   6.8162837  26.3132914
  50.3694638   6.0843075  26.9144453  51.4179764   6.7271737  26.0317102
  53.1357141   6.5282796  25.8016594  53.8456759   5.8875988  25.7603212
  53.0926449   6.7795691  26.7242774  61.1243920  13.4650149  28.7223173
  61.0656466  12.7809369  28.0553756  61.5263438  14.2069139  28.2703799
  51.8486075   3.5148014  27.6212233  51.3123432   3.0638752  28.2733829
  51.2602783   3.6493923  26.8782697  50.1434618  20.2812063  21.5156892
  50.3831217  20.9130587  22.1935910  49.3003815  19.9300103  21.8022251
  61.1261327  11.4289733  26.9537152  60.2388106  11.0915655  27.0763551
  61.6959878  10.6972764  27.1905918  54.6562480  16.0891185  23.9198396
  54.5832652  16.8946157  24.4317700  54.2139873  16.2883151  23.0946417
  54.4452260  15.3262956  17.4301217  53.6619782  15.8684636  17.5239442
  55.1445005  15.8436935  17.8295458  65.6078667   6.8397951  21.7153714
  65.5968544   7.7222666  21.3447647  64.7396047   6.4869501  21.5208251
  57.1161164  15.9878020  26.0756554  57.8289136  16.6225484  26.0032456
  56.6251192  16.0841886  25.2596556  52.1673077  13.7372463  26.8962125
  52.8682537  14.3708946  27.0491519  51.6968192  14.0787195  26.1357764
  59.9674363   6.2917070  24.7214675  59.3145814   6.5392978  24.0667128
  60.3454743   5.4781209  24.3877153  56.9281537  16.3276764  18.8242846
  57.1103932  15.5098420  19.2870598  57.7514523  16.5444456  18.3867736
  57.2623703  15.2544949  16.0857894  57.7911469  14.7437403  15.4728056
  57.5251922  14.9387479  16.9503427  56.0161936   7.0336881  31.2080713
  55.3402573   6.9331011  31.8783088  56.8389570   6.8776095  31.6716710
  47.7640795  13.2708818  23.8293228  48.3494232  12.5252506  23.9621132
  47.5665634  13.5812775  24.7129892  50.6179451  16.3060065  18.8455670
  49.9489826  16.7906193  18.3619710  50.4792320  16.5529286  19.7599049
  54.7584719  18.3403809  25.4438329  55.3103027  18.5035430  26.2087414
  55.0990913  18.9308247  24.7718353  49.2101485   2.7602091  29.6933248
  49.8373524   2.3779169  30.3070772  48.3529404   2.5416293  30.0588940
  59.6095594  13.1665066  31.2986983  60.1535498  13.7795025  30.8041938
  59.0282438  13.7244645  31.8153996  57.8953106  16.2885784  22.4302011
  57.7704246  15.4875524  21.9212956  58.5532198  16.7831978  21.9415981
  59.9588015  14.0894805  24.0581561  59.0118350  13.9700156  23.9859888
  60.3070788  13.2017303  24.1407822  52.3187588  -0.0211057  27.8819803
  52.8421990   0.2251240  28.6446112  52.0999922   0.8108978  27.4622940
  56.9634448  13.8847521  20.2585913  56.8159411  12.9564228  20.4393483
  57.7887942  13.9067611  19.7742988  60.5668570  14.7076079  21.3450786
  61.4915117  14.5018941  21.2075237  60.3983873  14.4592481  22.2540127
  53.5240133   0.9202639  25.5669473  53.1836954   0.1210452  25.9690153
  52.8179140   1.2204349  24.9946306  55.4117697   2.1210960  23.9222792
  55.1535475   3.0428030  23.9207122  54.8802738   1.7241394  24.6123256
  60.3563886  15.2261747  16.7012877  60.5300764  14.6608169  15.9486730
  60.8492777  16.0262642  16.5192367  46.1740846   7.2376416  24.7676436
  45.6294314   8.0136224  24.8996710  47.0520196   7.5847221  24.6095557
  66.2103277   7.9898170  18.3203177  66.6534423   7.2405495  17.9222300
  65.3329788   7.9808306  17.9376909  61.3439059  14.5428511  13.8009776
  62.0389963  15.1635204  14.0197090  61.6862209  13.6923863  14.0762153
  46.9606868   6.3646312  27.6606593  46.2188604   6.5128948  28.2471223
  46.6399612   6.6254578  26.7973342  63.2430482  11.9928217  15.3297106
  63.7681806  12.3315490  14.6046426  63.1552834  11.0575232  15.1460241
  54.9050531  15.9062291  27.4586983  55.2137657  15.6611437  28.3309683
  55.7026013  16.1108929  26.9705853  54.9271143  18.0600200  19.6892359
  54.4876133  17.5676579  20.3825216  55.6779260  17.5173168  19.4484435
  47.4063482  14.2511741  19.6916988  48.2321501  13.9515513  19.3115631
  47.0557534  13.4819363  20.1406776  52.3745015  13.6038209  21.7614661
  51.7525024  12.9408914  21.4616889  53.0449882  13.6299341  21.0788309
  52.4469542   2.0819997  31.3547167  52.4957698   2.9582120  30.9724937
  52.9892056   1.5397390  30.7818810  62.9324388  12.6261121  30.6348304
  62.1419932  12.6085259  30.0952804  62.6957742  13.1649414  31.3897341
  63.0522263   9.4753587  27.9481033  63.1020268   9.3103594  28.8896556
  62.9436186   8.6080846  27.5578914  60.3426025   5.4584515  29.2640339
  61.2435888   5.3190980  28.9724337  60.4174000   5.6238970  30.2038517
  54.6768831   2.8351370  28.1093526  53.8072140   3.1284936  27.8376114
  54.9128311   3.4191815  28.8300789  64.5540460  11.8950528  28.1923054
  64.2625268  12.2580509  29.0286515  63.9412591  11.1817537  28.0136386
  65.7536142   9.4603408  20.7125625  66.5883033   9.8993212  20.8763185
  65.8895271   8.9842061  19.8933870  62.8027648   7.0183143  26.6603112
  63.2781770   7.2110789  25.8521964  61.8793213   7.0742329  26.4146496
  57.3807865  -0.9469013  25.6258946  57.8989808  -0.2107986  25.3005435
  57.0262997  -0.6405020  26.4605705  61.5029317   3.8948903  24.8931418
  62.4546740   3.9947001  24.9143642  61.3332767   3.1027172  25.4029502
  59.5243696   0.9804486  25.0790819  58.9293629   1.2609499  24.3837307
  59.2393393   1.4698387  25.8507560  63.9817395   7.1155023  24.0073718
  63.9493715   6.1771024  24.1933401  64.5918018   7.1939060  23.2739542
  64.1311883   3.9066066  24.0532001  63.6150932   3.1224523  23.8661930
  65.0151832   3.5784783  24.2178520  69.7993945   8.1771030  23.1479754
  70.5297333   7.9156318  23.7087458  69.1900890   7.4399752  23.1881822
  67.8809242   6.3178892  23.7454206  67.1542405   6.1834857  23.1370697
  67.4656529   6.6255721  24.5510924  55.7039418  10.0368822  31.5101579
  56.6242428  10.2147421  31.7041625  55.6689001   9.0924867  31.3581278
  48.7001491   7.9469857  24.1524360  48.9187501   8.8786964  24.1712394
  49.1127265   7.5877831  24.9379164  53.5729356   3.5203062  33.5427109
  53.4726083   4.4697419  33.4739200  53.3550898   3.1921301  32.6703179
  53.4360626   6.9500201  32.3592170  52.9527708   7.7500561  32.5656059
  53.5221565   6.9608146  31.4059614  49.3633964  10.8404736  24.3960604
  50.3177217  10.8088678  24.3290536  49.1646487  10.3795360  25.2110830
  49.9533346   9.4105852  26.9631402  50.7726235   9.9049931  26.9866239
  50.2270153   8.4937820  26.9348969  65.4987037   2.5390744  21.0987637
  66.0931528   2.2986480  20.3880945  65.5713620   1.8197875  21.7261173
  47.7184192  16.3824355  21.4130802  47.5838660  15.6224756  20.8468800
  47.3016255  17.1065255  20.9459591  67.8058109   5.8456945  19.8731058
  67.2457667   5.9150135  20.6462620  67.2001613   5.6697930  19.1530555
  50.8753318  17.2793672  21.6249245  50.7585702  18.2239105  21.5227935
  50.0545765  16.9767234  22.0135044  45.2068260   3.7443986  27.6623599
  45.8527124   3.2342940  28.1510824  44.9985411   4.4812667  28.2367024
  57.7321652  10.8124833  33.1615739  58.6012812  10.9865486  32.8002374
  57.2528404  11.6319250  33.0391469  51.9007832  17.9321934  24.8405173
  52.8035079  17.9645545  25.1571668  51.6745202  17.0022385  24.8551509
  53.6561434  16.6852921  21.5015252  52.7057065  16.6854782  21.3879624
  53.9593921  15.9385655  20.9851286  49.5465751   0.8911603  31.7598613
  50.4097213   0.5348408  31.9701938  48.9731162   0.5525498  32.4474017
  69.3914128  22.5213459  22.5661014  70.0292538  22.4020207  21.8624354
  69.2734971  23.4694303  22.6248966  66.2003834  22.4740887  22.5022539
  65.8622346  22.3581952  21.6143074  67.0693602  22.0732052  22.4823545
  62.0590650  24.3276364  18.4919430  61.4955515  24.2366301  17.7235717
  61.9443045  23.5076268  18.9721922  66.6823617  23.6275739  28.4608744
  66.6712258  23.2328537  27.5889248  66.8444257  22.8941812  29.0542516
  59.6055082  25.8227555  21.3303650  60.3976374  25.4818380  20.9149949
  59.8451732  25.9322530  22.2505803  67.6390209  27.9947331  13.8033895
  66.9878188  28.5801412  13.4167908  68.4334571  28.5253526  13.8628932
  61.5645836  25.0836469  14.2021029  62.3376712  24.5365456  14.0633905
  61.9171235  25.9480718  14.4135490  63.4030878  26.4112851  27.4087928
  63.1120744  27.3158482  27.2934595  64.0387863  26.4529378  28.1231998
  64.3287085  23.7889699  23.9989288  64.9250657  23.5645722  23.2846251
  64.3862057  23.0474445  24.6014736  63.9012114  21.2429135  11.8339479
  64.1537634  20.7210656  11.0722942  62.9636673  21.0795280  11.9366162
  68.9455396  20.2464913  19.6414222  69.7318486  19.8284336  19.2904639
  69.2094101  21.1511005  19.8095870  69.1165474  25.6837763  14.3402879
  68.4811307  25.7572390  15.0523784  68.7862880  26.2731362  13.6621958
  74.3463824  20.1840146  20.5447201  75.0788995  19.6139363  20.7785030
  73.5903179  19.7961747  20.9853706  63.6208402  23.1457241  14.0363854
  63.5044660  22.4702144  14.7044938  63.7310662  22.6589615  13.2196007
  65.9639943  22.6067388  17.7410543  65.5998150  22.0798009  18.4523465
  66.8207059  22.2165857  17.5677028  71.8689244  13.8961720  25.0041809
  71.5372569  14.7657131  24.7803024  71.2734857  13.5798004  25.6835840
  65.6045430  17.6357287  12.7371892  65.7719833  18.5037524  13.1042363
  65.4142599  17.7984569  11.8133181  68.3620763  26.0974266  24.4037722
  68.0621486  26.9999305  24.2953529  68.0171823  25.8306450  25.2558875
  61.8133245  22.5488063  20.4374426  60.8883741  22.4164277  20.6452118
  62.0617658  23.3282282  20.9344369  71.7617907  18.6156807  22.0835159
  70.8534785  18.5472215  21.7893920  71.7105503  19.0928751  22.9116985
  65.5834651  20.0914945  13.7218558  65.4634276  20.5371996  14.5604039
  64.8887239  20.4400263  13.1632097  59.1742056  22.1921337  21.2718215
  59.3034437  22.4455816  22.1857627  58.4939507  22.7849045  20.9522871
  63.3441543  32.8618587  17.3708690  63.2665573  33.8126412  17.4497170
  62.7403187  32.5164459  18.0283616  65.8358773  20.0346452  30.0270057
  65.0592107  20.5940372  30.0172921  66.4749336  20.5203235  30.5484927
  73.6279554  16.8173245  23.8613033  72.9853934  17.1105778  23.2152828
  73.1234482  16.7026165  24.6666230  71.2819717  20.5636418  14.5498892
  72.1937573  20.7963805  14.3746590  70.7729364  21.1473462  13.9873971
  64.0905145  22.8431906  29.5888024  64.8319830  23.3816949  29.3122847
  63.3842131  23.4698194  29.7459575  69.5660485  24.9861046  28.1860185
  69.9743841  24.5443457  27.4414817  68.8437746  24.4113673  28.4394378
  65.9191555  19.9233653  25.5593742  66.7652750  20.3473066  25.7028391
  65.8590193  19.2667277  26.2532305  69.8889300  25.5462237  21.9412474
  69.2598162  25.7107951  21.2388542  69.5014962  25.9603846  22.7123438
  73.7678531  26.4816674  19.2956838  73.0829570  26.8615576  18.7453871
  73.8522381  27.0912001  20.0288785  69.0691000  17.5838021  27.2174916
  68.8251932  18.3380082  26.6809191  69.3450931  17.9623369  28.0522163
  71.0229463  24.1276633  25.8952181  71.2346358  24.7708393  25.2186562
  70.9759211  23.2938950  25.4274111  68.6255692  16.7394454  22.7988753
  67.7640171  17.0375708  23.0905491  68.6518127  16.9564853  21.8669786
  65.4417261  25.2836645  19.2062559  65.9055607  25.5624348  18.4167182
  65.1774060  24.3820089  19.0235650  62.3341343  24.8308126  22.1442322
  62.9042700  25.2595395  21.5059807  62.9249454  24.5490711  22.8426508
  64.3786147  21.4059797  16.0152124  65.0810191  21.8580841  16.4826051
  64.0466776  20.7643616  16.6432017  62.8266509  19.9971554  30.3903334
  62.1965170  20.6787835  30.6238730  62.7202597  19.8854635  29.4456472
  58.1211481  19.6643350  21.3169258  57.3310535  19.9200878  20.8409368
  58.6122729  20.4791688  21.4221298  72.1375291  27.0048589  24.0674539
  72.9592735  26.6028776  23.7857220  72.1337694  26.9016823  25.0190654
  60.0726227  20.0287929  18.2752734  59.2757390  20.1406623  18.7936230
  59.8451819  20.3674581  17.4093625  65.9031894  26.5532632  26.2235249
  65.9676327  27.0153039  27.0593421  65.1942818  25.9229997  26.3517559
  56.4049184  19.9173840  23.7484249  56.6557223  20.8020850  24.0141824
  56.9408733  19.7378442  22.9759340  80.2281284  23.3487337  20.4159510
  79.4744992  22.7794735  20.2603514  80.3628825  23.3150002  21.3630145
  65.6179912  28.2200740  16.0914229  65.4825587  29.0652275  16.5199077
  66.1589725  28.4220017  15.3280163  62.1047252  14.2992320  32.7528585
  61.7114197  13.7458518  33.4276229  62.9213392  14.6102898  33.1435102
  59.0709310  25.7376178  16.6642154  59.5833830  26.5319428  16.8147719
  59.7232022  25.0402468  16.5975756  60.8804194  28.8541934  18.7464908
  61.0570823  29.7759899  18.5585892  61.6761028  28.5400353  19.1759287
  65.0215213  15.7150199  30.3448841  65.7624926  16.3157352  30.2653304
  65.2533136  14.9727836  29.7866884  60.1656551  20.9006566  28.6227071
  60.0510066  19.9991823  28.9234170  59.3101069  21.1470263  28.2711887
  67.2448388  28.8424306  30.2214571  66.8012243  28.0560685  29.9035476
  67.9065602  29.0303457  29.5558462  62.0035510  30.3720108  24.7475250
  62.5542935  30.2437171  23.9752244  61.1646986  30.6714997  24.3970143
  69.3429627  29.1227106  28.2495973  69.3248102  29.9435987  27.7576242
  70.2649547  28.9981181  28.4746114  65.8002681  26.6371236  29.0919481
  66.3331018  25.8759524  28.8618789  65.2716762  26.3444887  29.8343636
  68.9672376  11.7431302  24.6213123  68.6236645  12.6332943  24.5452233
  69.3351338  11.5532959  23.7582708  57.0358226  24.0664832  17.4401725
  57.8733448  24.4761840  17.2235433  57.2136494  23.1264274  17.4101919
  68.9322658  21.7339913  13.1285558  68.4169282  22.5044517  13.3673945
  68.6599967  21.0605049  13.7518619  66.5169769  16.5789613  18.1870796
  65.6611366  16.1896464  18.0076435  66.9296721  16.6581574  17.3270582
  68.0468916  14.1135957  22.5862356  67.5433712  14.0766092  21.7730161
  68.3399523  15.0228699  22.6459013  64.2911802  14.1974686  21.5928538
  65.1564799  14.0017495  21.2334427  64.3589311  13.9685038  22.5197895
  73.9056933  24.4872267  15.0638731  73.1286375  24.1483427  14.6193894
  74.5848414  24.4924890  14.3893696  68.7208962  19.6067005  14.9545339
  68.4159097  19.9213154  15.8055482  69.6739404  19.6848425  14.9972672
  67.1655393  25.7657228  16.6038293  66.6376755  25.0309988  16.2911531
  66.6642896  26.5431904  16.3578261  72.1448239  23.9606249  21.7205339
  71.4871914  24.6505510  21.8085468  72.9488639  24.3502681  22.0639326
  61.8974121  16.4276894  18.9644905  62.4717873  16.2052076  18.2318098
  62.4845103  16.4965589  19.7173506  70.9553698  22.3150621  19.7709281
  71.4685580  22.9480613  20.2730991  71.6054922  21.7151817  19.4052641
  62.2243708  18.4581355  12.9840790  61.3881020  18.7956042  13.3050065
  62.0848478  18.3230335  12.0467927  64.1996789  13.3018143  17.6919974
  63.5461201  12.9867160  17.0676589  64.1577263  12.6793884  18.4179797
  65.3107994  23.5837438   9.6073266  64.4035055  23.3526692   9.8064415
  65.8079026  22.7875058   9.7947248  68.2176072  32.2934946  12.5269952
  67.5437771  32.5966642  13.1354910  68.6041894  33.0964026  12.1775409
  67.4334529  19.7900077  22.0167622  66.5157090  20.0115024  21.8589310
  67.8494673  19.8646387  21.1579329  68.2169577  21.1891492  17.1470302
  68.9641396  21.7012890  16.8377424  68.4861166  20.8675545  18.0074696
  66.4896227  23.6850033  14.1297256  65.5807446  23.4009066  14.2269726
  66.5191311  24.1049112  13.2700563  71.7215494  27.2956623  17.8988424
  71.2677822  26.4547533  17.9553614  71.0909461  27.9318021  18.2363204
  70.6648414  18.2248609  19.1289091  69.9271171  17.7125995  19.4599334
  70.9175188  17.7848990  18.3172368  70.1648434  29.1333119  18.8338242
  70.4571408  29.6938177  18.1150608  70.6747054  29.4261680  19.5891401
  70.7660041  11.0024861  19.7230861  71.0718918  10.1422224  19.4356776
  71.4912646  11.5942481  19.5229854  57.0584397  21.4055547  18.1112458
  56.8608797  20.8124908  17.3863525  56.5031061  21.1007758  18.8288397
  65.0381121  21.2978654  20.2307052  65.0929731  20.3452490  20.1549528
  64.2272323  21.4538093  20.7148350  66.1872315  25.2258777  11.4685335
  65.7491745  24.5094636  11.0090972  66.9282756  25.4534892  10.9070426
  62.9773481  19.9155714  17.9897430  62.1641347  20.2149884  18.3962623
  63.4732475  19.5211402  18.7071913  65.1282059  29.9113470  19.9231695
  65.0858238  30.1374317  18.9940227  66.0444758  29.6776845  20.0717496
  68.5747693  20.3797538  26.8212324  68.9297080  20.6069011  27.6806790
  69.2219824  20.7115915  26.1989580  74.3045430  23.5015974  17.5261653
  74.1663328  23.6917570  16.5982843  73.9481648  24.2635357  17.9829705
  62.4687556  17.4874069  23.6058665  63.1086935  17.3462828  22.9081629
  61.6365086  17.2008582  23.2297267  74.3314809  25.5692501  22.5372925
  74.7651316  25.4767790  23.3855979  75.0446390  25.5450001  21.8992941
  63.2447860  26.7876500  19.7193658  64.0388458  26.2926820  19.5176233
  62.5339552  26.2594363  19.3561363  68.0642704  29.1694595  24.0706025
  68.1179726  29.7385531  24.8383741  67.1957486  29.3396480  23.7060063
  59.5530623  20.9319581  15.7953411  58.6228211  20.8704037  16.0123373
  59.6488095  20.4095534  14.9990052  59.4716172  17.4574394  18.3831652
  59.7322989  18.3719727  18.2740813  60.2933345  16.9898837  18.5328265
  60.9441098  18.8712151  25.5530477  61.6164151  18.6629513  24.9043126
  60.1170884  18.6734237  25.1135709  75.1930359  25.6116202  25.0705810
  75.3866249  26.5162012  25.3165085  75.0930977  25.1523621  25.9044395
  66.8466670  15.4974092  27.5696138  66.1994585  16.1964042  27.4760614
  67.6167685  15.9310236  27.9372386  70.2545467  25.7622944  30.6446691
  70.1030974  25.5333496  29.7276775  70.2450147  26.7193546  30.6578036
  67.0230804  23.3354857  25.6292957  67.9522864  23.4866017  25.4561925
  66.6021834  23.4238878  24.7741604  65.8219136  27.3605521  23.3991495
  65.6830221  26.9924306  24.2717433  65.0333732  27.8753161  23.2275453
  66.4167288  32.4614618  14.7417031  66.5919043  31.9902661  15.5562654
  65.7300076  33.0880384  14.9698292  67.3724351  26.7387124  20.7880333
  67.0374183  26.6987894  21.6837983  66.8728296  26.0731840  20.3150743
  61.3468595  22.1454754  26.3132914  61.2088393  21.4134993  26.9144453
  62.2573518  22.0563654  26.0317102  70.3083542  24.0843159  11.0617392
  69.6912713  23.3589987  10.9650445  69.8400031  24.8452519  10.7184467
  63.9750895  21.8574714  25.8016594  64.6850514  21.2167906  25.7603212
  63.9320204  22.1087608  26.7242774  71.9637674  28.7942067  28.7223173
  71.9050220  28.1101287  28.0553756  72.3657192  29.5361057  28.2703799
  62.6879829  18.8439931  27.6212233  62.1517186  18.3930670  28.2733829
  62.0996538  18.9785840  26.8782697  60.9828373  35.6103981  21.5156892
  61.2224971  36.2422505  22.1935910  60.1397569  35.2592021  21.8022251
  71.9655081  26.7581651  26.9537152  71.0781860  26.4207573  27.0763551
  72.5353632  26.0264682  27.1905918  53.6184228  23.0905743  20.2780204
  54.3055268  22.7767473  19.6901219  53.4632357  23.9947107  20.0047455
  58.4218951  17.9795939  24.7065228  58.3377139  17.3721609  23.9715637
  57.6001657  18.4704957  24.7074724  65.4956235  31.4183103  23.9198396
  65.4226406  32.2238075  24.4317700  65.0533628  31.6175069  23.0946417
  65.2846014  30.6554873  17.4301217  64.5013536  31.1976553  17.5239442
  65.9838760  31.1728853  17.8295458  68.5942665  16.4649503  20.0735423
  69.0911364  15.7119465  19.7536493  67.8229646  16.5013819  19.5078632
  76.4472422  22.1689868  21.7153714  76.4362298  23.0514584  21.3447647
  75.5789801  21.8161419  21.5208251  67.9554918  31.3169937  26.0756554
  68.6682891  31.9517402  26.0032456  67.4644947  31.4133803  25.2596556
  69.6772445  25.2221190  17.6473846  68.7428724  25.3422652  17.4778550
  69.8549114  24.3193657  17.3833856  65.1777633  18.6066886  19.8007107
  64.8075421  18.0537926  20.4888013  65.6736726  18.0025019  19.2482107
  73.0644997  21.0638509  18.1823880  73.5305449  21.8966501  18.1084183
  73.5152497  20.5983491  18.8869139  63.0066832  29.0664381  26.8962125
  63.7076291  29.7000864  27.0491519  62.5361947  29.4079112  26.1357764
  71.1321228  27.4082330  15.1810032  71.4081072  27.2938925  16.0903906
  70.2625726  27.0099815  15.1422205  71.0361659  13.4319096  22.2214781
  70.1224739  13.6623323  22.3896988  71.4654761  13.5157540  23.0728814
  70.8068118  21.6208988  24.7214675  70.1539568  21.8684896  24.0667128
  71.1848498  20.8073126  24.3877153  67.7675292  31.6568681  18.8242846
  67.9497686  30.8390337  19.2870598  68.5908278  31.8736374  18.3867736
  68.1017457  30.5836866  16.0857894  68.6305224  30.0729321  15.4728056
  68.3645677  30.2679397  16.9503427  66.8555691  22.3628799  31.2080713
  66.1796328  22.2622928  31.8783088  67.6783325  22.2068013  31.6716710
  58.6034550  28.6000736  23.8293228  59.1887987  27.8544424  23.9621132
  58.4059388  28.9104692  24.7129892  61.4573205  31.6351983  18.8455670
  60.7883580  32.1198111  18.3619710  61.3186075  31.8821204  19.7599049
  53.1952205  21.1706336  22.5497671  53.2336304  20.6369927  23.3434789
  52.6892497  20.6441541  21.9308648  65.5978474  33.6695727  25.4438329
  66.1496782  33.8327348  26.2087414  65.9384667  34.2600164  24.7718353
  60.5742967  16.0170876  26.0460213  60.6384293  16.8785707  25.6337611
  60.5110087  15.4044878  25.3132572  60.0495239  18.0894009  29.6933248
  60.6767278  17.7071086  30.3070772  59.1923158  17.8708211  30.0588940
  70.4489348  28.4956984  31.2986983  70.9929252  29.1086942  30.8041938
  69.8676193  29.0536563  31.8153996  56.8260782  19.8970438  15.6251602
  57.1214223  18.9881116  15.5718656  55.9248818  19.8758178  15.3032605
  68.7346861  31.6177702  22.4302011  68.6098000  30.8167442  21.9212956
  69.3925952  32.1123896  21.9415981  60.3555029  17.9726435  21.6079151
  59.6341615  18.5862402  21.4686624  61.1448285  18.5084199  21.5295797
  70.7981769  29.4186722  24.0581561  69.8512105  29.2992073  23.9859888
  71.1464542  28.5309220  24.1407822  63.1581343  15.3080861  27.8819803
  63.6815745  15.5543158  28.6446112  62.9393676  16.1400896  27.4622940
  58.5548624  17.5784536  15.7490927  58.2261330  16.6981915  15.5666033
  58.9087994  17.5232204  16.6367317  67.8028203  29.2139438  20.2585913
  67.6553165  28.2856146  20.4393483  68.6281696  29.2359529  19.7742988
  61.6690447  17.8657506  16.1166405  62.0086519  18.3943427  15.3945014
  62.1162567  18.2037912  16.8924972  71.4062324  30.0367997  21.3450786
  72.3308872  29.8310859  21.2075237  71.2377628  29.7884398  22.2540127
  64.3633888  16.2494556  25.5669473  64.0230708  15.4502369  25.9690153
  63.6572894  16.5496267  24.9946306  65.0150360  13.3343869  24.0196796
  65.8376429  12.8604347  23.8975687  65.2588423  14.1134352  24.5195483
  63.6558594  16.3632127  14.3159698  64.3766957  16.7413380  13.8123415
  63.0323898  17.0821004  14.4194676  67.7989717  17.0677276  15.2518030
  68.0153331  17.9501914  14.9506858  67.3183784  16.6763490  14.5223672
  62.5388938  20.0262989  21.8288775  62.3933519  20.3403292  22.7213056
  62.0614142  20.6447890  21.2759674  64.3985321  17.0165537  21.8769664
  64.3846890  16.1206631  21.5401962  65.1157749  17.0236201  22.5107950
  66.2511452  17.4502878  23.9222792  65.9929230  18.3719948  23.9207122
  65.7196492  17.0533312  24.6123256  71.1957641  30.5553665  16.7012877
  71.3694518  29.9900087  15.9486730  71.6886532  31.3554560  16.5192367
  57.0134601  22.5668334  24.7676436  56.4688069  23.3428142  24.8996710
  57.8913950  22.9139138  24.6095557  63.8022217  15.8979918  17.1457235
  63.9238128  14.9696564  17.3448122  63.5124260  15.9118604  16.2335550
  66.6713408  13.5834828  20.2823954  66.6935104  13.6474161  19.3275934
  67.0881467  12.7439337  20.4764461  77.0497032  23.3190088  18.3203177
  77.4928178  22.5697413  17.9222300  76.1723542  23.3100224  17.9376909
  72.1832813  29.8720429  13.8009776  72.8783718  30.4927122  14.0197090
  72.5255963  29.0215780  14.0762153  57.8000622  21.6938230  27.6606593
  57.0582358  21.8420865  28.2471223  57.4793367  21.9546496  26.7973342
  74.0824236  27.3220135  15.3297106  74.6075560  27.6607407  14.6046426
  73.9946589  26.3867150  15.1460241  65.7444285  31.2354208  27.4586983
  66.0531411  30.9903355  28.3309683  66.5419767  31.4400847  26.9705853
  65.7664897  33.3892118  19.6892359  65.3269887  32.8968497  20.3825216
  66.5173014  32.8465086  19.4484435  58.2457236  29.5803659  19.6916988
  59.0715256  29.2807431  19.3115631  57.8951288  28.8111281  20.1406776
  63.2138769  28.9330127  21.7614661  62.5918779  28.2700832  21.4616889
  63.8843636  28.9591259  21.0788309  56.4465841  27.4989985  20.6505921
  55.6097749  27.0712160  20.4689922  56.4189487  27.6922429  21.5876712
  63.2863297  17.4111915  31.3547167  63.3351452  18.2874038  30.9724937
  63.8285811  16.8689308  30.7818810  73.7718142  27.9553038  30.6348304
  72.9813686  27.9377177  30.0952804  73.5351497  28.4941332  31.3897341
  73.8916017  24.8045505  27.9481033  73.9414022  24.6395512  28.8896556
  73.7829941  23.9372764  27.5578914  62.7752276  27.4834050  15.2373122
  62.9240396  28.1669515  14.5839794  63.5818720  27.4639140  15.7522577
  71.1819780  20.7876433  29.2640339  72.0829643  20.6482897  28.9724337
  71.2567754  20.9530887  30.2038517  65.5162585  18.1643287  28.1093526
  64.6465895  18.4576853  27.8376114  65.7522066  18.7483732  28.8300789
  75.3934214  27.2242446  28.1923054  75.1019023  27.5872427  29.0286515
  74.7806346  26.5109454  28.0136386  76.5929897  24.7895326  20.7125625
  77.4276788  25.2285130  20.8763185  76.7289025  24.3133979  19.8933870
  73.6421403  22.3475061  26.6603112  74.1175524  22.5402707  25.8521964
  72.7186968  22.4034247  26.4146496  60.5304909  23.5099228  16.2434191
  60.2850951  22.6061558  16.4414401  60.7000824  23.5116378  15.3013669
  68.2201619  14.3822904  25.6258946  68.7383563  15.1183931  25.3005435
  67.8656752  14.6886898  26.4605705  59.8000557  19.2427585  13.7420352
  59.1069802  19.3171940  13.0860388  59.5552309  18.4787929  14.2641869
  68.4714213  10.8023187  21.1459843  68.7515967  10.1346376  21.7720269
  69.2564820  10.9952282  20.6334507  66.2747682  29.9782181  12.7084869
  65.7021649  30.5972368  12.2555341  66.8480475  30.5281542  13.2424791
  72.3423072  19.2240821  24.8931418  73.2940494  19.3238918  24.9143642
  72.1726522  18.4319089  25.4029502  70.3637451  16.3096404  25.0790819
  69.7687383  16.5901417  24.3837307  70.0787148  16.7990305  25.8507560
  69.4944941  30.2619331  13.8393451  70.4275615  30.1964893  14.0426327
  69.4068154  31.0975598  13.3807984  72.1232958  29.5785201  10.7997399
  72.0446590  29.2445065  11.6933157  72.9442625  30.0706969  10.7988871
  74.8211149  22.4446941  24.0073718  74.7887469  21.5062941  24.1933401
  75.4311773  22.5230977  23.2739542  66.6594480  21.3142993  10.0500922
  67.6053585  21.1849202  10.1189340  66.2808725  20.5757655  10.5270350
  74.9705638  19.2357984  24.0532001  74.4544686  18.4516441  23.8661930
  75.8545586  18.9076701  24.2178520  72.6316365  12.9799000  20.0127813
  72.4341186  12.6714088  20.8971145  73.2416070  13.7060638  20.1425743
  80.6387699  23.5062947  23.1479754  81.3691088  23.2448235  23.7087458
  80.0294645  22.7691669  23.1881822  78.7202996  21.6470810  23.7454206
  77.9936160  21.5126775  23.1370697  78.3050283  21.9547639  24.5510924
  66.5433173  25.3660740  31.5101579  67.4636182  25.5439339  31.7041625
  66.5082756  24.4216785  31.3581278  55.7615338  20.5599333  20.4354853
  55.4418122  19.7064641  20.1429227  55.2148766  20.7747911  21.1912821
  59.5395245  23.2761774  24.1524360  59.7581255  24.2078882  24.1712394
  59.9521019  22.9169749  24.9379164  66.4599463  13.7829860  16.1400048
  65.6500191  13.4376945  16.5155294  67.1483880  13.4737403  16.7287660
  68.3890011  12.8607906  17.7624345  68.9421050  13.2803360  18.4214368
  68.6260098  11.9343654  17.8047301  64.4123111  18.8494980  33.5427109
  64.3119837  19.7989337  33.4739200  64.1944653  18.5213219  32.6703179
  55.6303598  24.1802245  22.4047975  54.9367069  23.7656198  21.8917929
  56.3776589  24.2222781  21.8081394  71.7668818  14.9708432  17.2703009
  71.1867487  15.6293236  16.8881061  71.5004751  14.1485776  16.8590427
  70.2172385  14.3713489  19.4724329  70.7172163  14.4830024  18.6638648
  70.8607993  14.0674542  20.1125138  64.2754381  22.2792119  32.3592170
  63.7921462  23.0792479  32.5656059  64.3615320  22.2900064  31.4059614
  57.5440340  24.1120499  20.2813990  57.5211028  24.2108186  19.3295873
  57.8540977  24.9585649  20.6031156  60.2027718  26.1696654  24.3960604
  61.1570972  26.1380596  24.3290536  60.0040242  25.7087277  25.2110830
  60.7927100  24.7397770  26.9631402  61.6119989  25.2341848  26.9866239
  61.0663908  23.8229738  26.9348969  70.5493696  17.1308522  16.3259357
  69.6619551  17.4158173  16.1079552  70.9647686  16.9702285  15.4786634
  73.9008233  17.1555043  20.0413697  74.6768623  17.6451495  20.3138313
  73.1756367  17.5813097  20.4985566  76.3380791  17.8682662  21.0987637
  76.9325282  17.6278398  20.3880945  76.4107375  17.1489793  21.7261173
  58.5577947  31.7116273  21.4130802  58.4232415  30.9516674  20.8468800
  58.1410009  32.4357173  20.9459591  69.6936910  26.8953197  10.4207377
  70.3972760  27.1003199  11.0365033  68.9699559  27.4629958  10.6856461
  70.5234720  22.6463058  16.5409647  70.4669922  23.1031609  15.7017280
  71.0763063  21.8853742  16.3632490  74.3339526  18.4352790  17.3659767
  74.0776460  18.0349425  18.1967975  73.7092394  19.1496584  17.2409906
  78.6451864  21.1748863  19.8731058  78.0851422  21.2442052  20.6462620
  78.0395367  20.9989848  19.1530555  61.7147073  32.6085590  21.6249245
  61.5979457  33.5531023  21.5227935  60.8939519  32.3059152  22.0135044
  71.6023607  27.3335726  12.4705837  72.4369211  26.9016924  12.2883312
  71.4407950  27.1617739  13.3982732  71.2569499  23.8367839  13.8362177
  71.2018303  23.6712111  12.8950621  70.6315555  24.5443872  13.9924366
  56.0462014  19.0735903  27.6623599  56.6920878  18.5634857  28.1510824
  55.8379166  19.8104585  28.2367024  68.5715407  26.1416751  33.1615739
  69.4406566  26.3157403  32.8002374  68.0922158  26.9611168  33.0391469
  64.5665625  13.3375948  13.4147495  64.5544295  14.2817788  13.5715766
  65.4589047  13.1546094  13.1206956  62.7401587  33.2613852  24.8405173
  63.6428834  33.2937462  25.1571668  62.5138957  32.3314303  24.8551509
  64.4955189  32.0144839  21.5015252  63.5450820  32.0146700  21.3879624
  64.7987675  31.2677573  20.9851286  68.3817744   9.9318725  17.6693432
  67.6150140   9.3777211  17.8150114  68.7928449  10.0040594  18.5307583
  60.3859505  16.2203521  31.7598613  61.2490967  15.8640325  31.9701938
  59.8124916  15.8817415  32.4474017  80.2307882  37.8505377  22.5661014
  80.8686292  37.7312124  21.8624354  80.1128725  38.7986221  22.6248966
  77.0397589  37.8032805  22.5022539  76.7016100  37.6873870  21.6143074
  77.9087357  37.4023970  22.4823545  72.8984404  39.6568281  18.4919430
  72.3349270  39.5658218  17.7235717  72.7836799  38.8368186  18.9721922
  70.4448836  41.1519473  21.3303650  71.2370128  40.8110298  20.9149949
  70.6845486  41.2614448  22.2505803  78.4783963  43.3239249  13.8033895
  77.8271943  43.9093330  13.4167908  79.2728326  43.8545444  13.8628932
  72.4039590  40.4128386  14.2021029  73.1770466  39.8657373  14.0633905
  72.7564989  41.2772636  14.4135490  75.1680840  39.1181617  23.9989288
  75.7644412  38.8937639  23.2846251  75.2255811  38.3766363  24.6014736
  74.7405868  36.5721052  11.8339479  74.9931389  36.0502574  11.0722942
  73.8030427  36.4087198  11.9366162  79.7849151  35.5756831  19.6414222
  80.5712240  35.1576254  19.2904639  80.0487855  36.4802923  19.8095870
  79.9559228  41.0129681  14.3402879  79.3205061  41.0864308  15.0523784
  79.6256635  41.6023280  13.6621958  85.1857578  35.5132064  20.5447201
  85.9182750  34.9431281  20.7785030  84.4296934  35.1253664  20.9853706
  74.4602157  38.4749158  14.0363854  74.3438415  37.7994062  14.7044938
  74.5704417  37.9881532  13.2196007  76.8033698  37.9359305  17.7410543
  76.4391905  37.4089926  18.4523465  77.6600814  37.5457775  17.5677028
  82.7082998  29.2253638  25.0041809  82.3766323  30.0949049  24.7803024
  82.1128612  28.9089922  25.6835840  76.4439185  32.9649205  12.7371892
  76.6113587  33.8329442  13.1042363  76.2536354  33.1276487  11.8133181
  79.2014518  41.4266184  24.4037722  78.9015241  42.3291223  24.2953529
  78.8565577  41.1598367  25.2558875  72.6526999  37.8779981  20.4374426
  71.7277496  37.7456195  20.6452118  72.9011413  38.6574200  20.9344369
  82.6011662  33.9448724  22.0835159  81.6928539  33.8764133  21.7893920
  82.5499257  34.4220669  22.9116985  76.4228406  35.4206863  13.7218558
  76.3028031  35.8663913  14.5604039  75.7280994  35.7692180  13.1632097
  70.0135810  37.5213254  21.2718215  70.1428192  37.7747733  22.1857627
  69.3333262  38.1140962  20.9522871  74.1835298  48.1910504  17.3708690
  74.1059327  49.1418329  17.4497170  73.5796941  47.8456377  18.0283616
  84.4673308  32.1465163  23.8613033  83.8247688  32.4397696  23.2152828
  83.9628237  32.0318083  24.6666230  82.1213472  35.8928336  14.5498892
  83.0331328  36.1255723  14.3746590  81.6123119  36.4765380  13.9873971
  74.9298900  38.1723823  29.5888024  75.6713584  38.7108867  29.3122847
  74.2235885  38.7990112  29.7459575  76.7585309  35.2525570  25.5593742
  77.6046505  35.6764984  25.7028391  76.6983947  34.5959195  26.2532305
  80.7283054  40.8754154  21.9412474  80.0991916  41.0399868  21.2388542
  80.3408716  41.2895764  22.7123438  84.6072286  41.8108592  19.2956838
  83.9223324  42.1907493  18.7453871  84.6916135  42.4203919  20.0288785
  79.9084755  32.9129939  27.2174916  79.6645687  33.6671999  26.6809191
  80.1844685  33.2915286  28.0522163  81.8623218  39.4568551  25.8952181
  82.0740113  40.1000311  25.2186562  81.8152966  38.6230868  25.4274111
  79.4649447  32.0686372  22.7988753  78.6033926  32.3667625  23.0905491
  79.4911881  32.2856771  21.8669786  76.2811016  40.6128562  19.2062559
  76.7449361  40.8916265  18.4167182  76.0167814  39.7112007  19.0235650
  73.1735097  40.1600044  22.1442322  73.7436454  40.5887312  21.5059807
  73.7643209  39.8782629  22.8426508  75.2179902  36.7351715  16.0152124
  75.9203945  37.1872758  16.4826051  74.8860530  36.0935534  16.6432017
  73.6660264  35.3263471  30.3903334  73.0358924  36.0079752  30.6238730
  73.5596351  35.2146553  29.4456472  68.9605236  34.9935267  21.3169258
  68.1704290  35.2492796  20.8409368  69.4516483  35.8083605  21.4221298
  82.9769046  42.3340507  24.0674539  83.7986489  41.9320694  23.7857220
  82.9731448  42.2308741  25.0190654  70.9119981  35.3579847  18.2752734
  70.1151145  35.4698541  18.7936230  70.6845574  35.6966499  17.4093625
  67.2442939  35.2465758  23.7484249  67.4950977  36.1312768  24.0141824
  67.7802487  35.0670359  22.9759340  91.0675039  38.6779255  20.4159510
  90.3138747  38.1086653  20.2603514  91.2022580  38.6441920  21.3630145
  76.4573667  43.5492657  16.0914229  76.3219341  44.3944193  16.5199077
  76.9983479  43.7511935  15.3280163  72.9441006  29.6284237  32.7528585
  72.5507952  29.0750436  33.4276229  73.7607147  29.9394816  33.1435102
  69.9103064  41.0668095  16.6642154  70.4227585  41.8611346  16.8147719
  70.5625777  40.3694386  16.5975756  71.7197949  44.1833852  18.7464908
  71.8964577  45.1051816  18.5585892  72.5154782  43.8692271  19.1759287
  71.0050305  36.2298484  28.6227071  70.8903820  35.3283741  28.9234170
  70.1494823  36.4762180  28.2711887  79.8066130  27.0723219  24.6213123
  79.4630400  27.9624861  24.5452233  80.1745093  26.8824877  23.7582708
  67.8751981  39.3956750  17.4401725  68.7127203  39.8053758  17.2235433
  68.0530248  38.4556192  17.4101919  79.7716413  37.0631830  13.1285558
  79.2563036  37.8336435  13.3673945  79.4993721  36.3896967  13.7518619
  77.3563524  31.9081531  18.1870796  76.5005120  31.5188382  18.0076435
  77.7690476  31.9873492  17.3270582  78.8862671  29.4427874  22.5862356
  78.3827466  29.4058010  21.7730161  79.1793277  30.3520617  22.6459013
  75.1305556  29.5266604  21.5928538  75.9958553  29.3309413  21.2334427
  75.1983065  29.2976956  22.5197895  84.7450687  39.8164185  15.0638731
  83.9680130  39.4775344  14.6193894  85.4242168  39.8216808  14.3893696
  79.5602716  34.9358922  14.9545339  79.2552852  35.2505072  15.8055482
  80.5133158  35.0140342  14.9972672  78.0049148  41.0949146  16.6038293
  77.4770509  40.3601905  16.2911531  77.5036651  41.8723822  16.3578261
  82.9841994  39.2898166  21.7205339  82.3265668  39.9797428  21.8085468
  83.7882393  39.6794598  22.0639326  72.7367876  31.7568812  18.9644905
  73.3111627  31.5343994  18.2318098  73.3238858  31.8257507  19.7173506
  81.7947453  37.6442539  19.7709281  82.3079334  38.2772531  20.2730991
  82.4448677  37.0443734  19.4052641  73.0637463  33.7873273  12.9840790
  72.2274775  34.1247960  13.3050065  72.9242232  33.6522253  12.0467927
  75.0390543  28.6310061  17.6919974  74.3854956  28.3159078  17.0676589
  74.9971017  28.0085801  18.4179797  76.1501748  38.9129356   9.6073266
  75.2428810  38.6818609   9.8064415  76.6472780  38.1166975   9.7947248
  79.0569827  47.6226863  12.5269952  78.3831526  47.9258560  13.1354910
  79.4435649  48.4255944  12.1775409  78.2728284  35.1191994  22.0167622
  77.3550845  35.3406941  21.8589310  78.6888427  35.1938305  21.1579329
  79.0563331  36.5183410  17.1470302  79.8035150  37.0304807  16.8377424
  79.3254921  36.1967463  18.0074696  77.3289982  39.0141951  14.1297256
  76.4201201  38.7300984  14.2269726  77.3585065  39.4341029  13.2700563
  82.5609249  42.6248540  17.8988424  82.1071576  41.7839450  17.9553614
  81.9303216  43.2609939  18.2363204  81.5042169  33.5540526  19.1289091
  80.7664925  33.0417913  19.4599334  81.7568942  33.1140908  18.3172368
  81.0042188  44.4625037  18.8338242  81.2965163  45.0230094  18.1150608
  81.5140809  44.7553598  19.5891401  81.6053796  26.3316778  19.7230861
  81.9112673  25.4714142  19.4356776  82.3306401  26.9234399  19.5229854
  67.8978152  36.7347465  18.1112458  67.7002552  36.1416826  17.3863525
  67.3424816  36.4299675  18.8288397  75.8774876  36.6270571  20.2307052
  75.9323485  35.6744408  20.1549528  75.0666078  36.7830011  20.7148350
  77.0266069  40.5550695  11.4685335  76.5885499  39.8386553  11.0090972
  77.7676510  40.7826809  10.9070426  73.8167235  35.2447631  17.9897430
  73.0035101  35.5441802  18.3962623  74.3126230  34.8503320  18.7071913
  75.9675813  45.2405388  19.9231695  75.9251992  45.4666234  18.9940227
  76.8838512  45.0068763  20.0717496  79.4141447  35.7089456  26.8212324
  79.7690835  35.9360929  27.6806790  80.0613578  36.0407833  26.1989580
  85.1439184  38.8307892  17.5261653  85.0057083  39.0209488  16.5982843
  84.7875403  39.5927274  17.9829705  73.3081310  32.8165987  23.6058665
  73.9480690  32.6754746  22.9081629  72.4758841  32.5300500  23.2297267
  85.1708564  40.8984419  22.5372925  85.6045070  40.8059708  23.3855979
  85.8840144  40.8741919  21.8992941  74.0841614  42.1168417  19.7193658
  74.8782213  41.6218737  19.5176233  73.3733307  41.5886280  19.3561363
  70.3924378  36.2611499  15.7953411  69.4621966  36.1995954  16.0123373
  70.4881850  35.7387452  14.9990052  70.3109927  32.7866312  18.3831652
  70.5716744  33.7011645  18.2740813  71.1327099  32.3190754  18.5328265
  71.7834852  34.2004069  25.5530477  72.4557905  33.9921431  24.9043126
  70.9564639  34.0026155  25.1135709  86.0324113  40.9408119  25.0705810
  86.2260003  41.8453930  25.3165085  85.9324731  40.4815538  25.9044395
  77.8624558  38.6646775  25.6292957  78.7916618  38.8157934  25.4561925
  77.4415588  38.7530796  24.7741604  76.6612890  42.6897439  23.3991495
  76.5223976  42.3216224  24.2717433  75.8727486  43.2045079  23.2275453
  77.2561042  47.7906536  14.7417031  77.4312798  47.3194579  15.5562654
  76.5693830  48.4172302  14.9698292  78.2118105  42.0679042  20.7880333
  77.8767938  42.0279812  21.6837983  77.7122051  41.4023758  20.3150743
  72.1862349  37.4746672  26.3132914  72.0482147  36.7426911  26.9144453
  73.0967273  37.3855572  26.0317102  81.1477297  39.4135076  11.0617392
  80.5306468  38.6881904  10.9650445  80.6793785  40.1744436  10.7184467
  74.8144650  37.1866631  25.8016594  75.5244268  36.5459823  25.7603212
  74.7713958  37.4379526  26.7242774  82.8031429  44.1233985  28.7223173
  82.7443975  43.4393205  28.0553756  83.2050947  44.8652975  28.2703799
  73.5273584  34.1731849  27.6212233  72.9910941  33.7222588  28.2733829
  72.9390292  34.3077758  26.8782697  72.9375843  33.6320501  10.1838697
  72.0605309  33.5109301   9.8200943  73.4133596  32.8406579   9.9317585
  82.8048836  42.0873569  26.9537152  81.9175615  41.7499490  27.0763551
  83.3747387  41.3556600  27.1905918  64.4577983  38.4197660  20.2780204
  65.1449023  38.1059390  19.6901219  64.3026112  39.3239025  20.0047455
  69.2612705  33.3087857  24.7065228  69.1770894  32.7013526  23.9715637
  68.4395412  33.7996875  24.7074724  76.1239769  45.9846791  17.4301217
  75.3407291  46.5268471  17.5239442  76.8232514  46.5020771  17.8295458
  79.4336419  31.7941420  20.0735423  79.9305119  31.0411383  19.7536493
  78.6623401  31.8305737  19.5078632  87.2866176  37.4981786  21.7153714
  87.2756053  38.3806501  21.3447647  86.4183556  37.1453337  21.5208251
  80.5166200  40.5513108  17.6473846  79.5822478  40.6714570  17.4778550
  80.6942868  39.6485574  17.3833856  76.0171388  33.9358803  19.8007107
  75.6469175  33.3829844  20.4888013  76.5130480  33.3316937  19.2482107
  83.9038751  36.3930427  18.1823880  84.3699203  37.2258418  18.1084183
  84.3546252  35.9275408  18.8869139  81.9714982  42.7374248  15.1810032
  82.2474826  42.6230843  16.0903906  81.1019481  42.3391733  15.1422205
  81.8755414  28.7611014  22.2214781  80.9618494  28.9915241  22.3896988
  82.3048515  28.8449458  23.0728814  81.6461872  36.9500906  24.7214675
  80.9933323  37.1976813  24.0667128  82.0242252  36.1365044  24.3877153
  78.6069046  46.9860599  18.8242846  78.7891441  46.1682255  19.2870598
  79.4302032  47.2028291  18.3867736  78.9411212  45.9128784  16.0857894
  79.4698978  45.4021239  15.4728056  79.2039431  45.5971314  16.9503427
  69.4428304  43.9292653  23.8293228  70.0281741  43.1836341  23.9621132
  69.2453143  44.2396610  24.7129892  72.2966960  46.9643901  18.8455670
  71.6277335  47.4490028  18.3619710  72.1579829  47.2113121  19.7599049
  64.0345959  36.4998254  22.5497671  64.0730059  35.9661844  23.3434789
  63.5286252  35.9733459  21.9308648  71.4136721  31.3462794  26.0460213
  71.4778048  32.2077625  25.6337611  71.3503842  30.7336796  25.3132572
  70.8888994  33.4185927  29.6933248  71.5161033  33.0363004  30.3070772
  70.0316913  33.2000129  30.0588940  67.6654537  35.2262356  15.6251602
  67.9607978  34.3173034  15.5718656  66.7642572  35.2050095  15.3032605
  79.5740615  46.9469620  22.4302011  79.4491755  46.1459360  21.9212956
  80.2319707  47.4415813  21.9415981  71.1948784  33.3018352  21.6079151
  70.4735369  33.9154320  21.4686624  71.9842039  33.8376117  21.5295797
  81.6375524  44.7478640  24.0581561  80.6905859  44.6283991  23.9859888
  81.9858297  43.8601138  24.1407822  73.9975097  30.6372779  27.8819803
  74.5209499  30.8835075  28.6446112  73.7787430  31.4692814  27.4622940
  69.3942378  32.9076453  15.7490927  69.0655084  32.0273832  15.5666033
  69.7481749  32.8524122  16.6367317  78.6421957  44.5431356  20.2585913
  78.4946920  43.6148064  20.4393483  79.4675451  44.5651447  19.7742988
  72.5084201  33.1949423  16.1166405  72.8480274  33.7235344  15.3945014
  72.9556322  33.5329829  16.8924972  82.2456079  45.3659915  21.3450786
  83.1702626  45.1602776  21.2075237  82.0771382  45.1176316  22.2540127
  75.2027642  31.5786474  25.5669473  74.8624463  30.7794287  25.9690153
  74.4966649  31.8788185  24.9946306  75.8544114  28.6635786  24.0196796
  76.6770183  28.1896265  23.8975687  76.0982178  29.4426270  24.5195483
  74.4952349  31.6924045  14.3159698  75.2160711  32.0705298  13.8123415
  73.8717653  32.4112922  14.4194676  78.6383471  32.3969194  15.2518030
  78.8547086  33.2793832  14.9506858  78.1577539  32.0055407  14.5223672
  73.3782693  35.3554907  21.8288775  73.2327274  35.6695210  22.7213056
  72.9007896  35.9739807  21.2759674  75.2379076  32.3457455  21.8769664
  75.2240644  31.4498548  21.5401962  75.9551504  32.3528119  22.5107950
  77.0905206  32.7794795  23.9222792  76.8322984  33.7011866  23.9207122
  76.5590247  32.3825230  24.6123256  82.0351395  45.8845582  16.7012877
  82.2088273  45.3192005  15.9486730  82.5280286  46.6846477  16.5192367
  67.8528355  37.8960251  24.7676436  67.3081823  38.6720059  24.8996710
  68.7307705  38.2431056  24.6095557  74.6415972  31.2271835  17.1457235
  74.7631883  30.2988481  17.3448122  74.3518014  31.2410521  16.2335550
  77.5107162  28.9126746  20.2823954  77.5328859  28.9766079  19.3275934
  77.9275221  28.0731254  20.4764461  87.8890786  38.6482005  18.3203177
  88.3321932  37.8989330  17.9222300  87.0117297  38.6392142  17.9376909
  83.0226568  45.2012347  13.8009776  83.7177472  45.8219039  14.0197090
  83.3649718  44.3507698  14.0762153  68.6394377  37.0230148  27.6606593
  67.8976113  37.1712783  28.2471223  68.3187121  37.2838413  26.7973342
  84.9217991  42.6512052  15.3297106  85.4469315  42.9899325  14.6046426
  84.8340343  41.7159068  15.1460241  76.6058652  48.7184036  19.6892359
  76.1663642  48.2260414  20.3825216  77.3566769  48.1757003  19.4484435
  69.0850991  44.9095576  19.6916988  69.9109010  44.6099348  19.3115631
  68.7345043  44.1403199  20.1406776  74.0532524  44.2622045  21.7614661
  73.4312533  43.5992750  21.4616889  74.7237391  44.2883177  21.0788309
  67.2859596  42.8281903  20.6505921  66.4491504  42.4004077  20.4689922
  67.2583241  43.0214346  21.5876712  84.7309772  40.1337422  27.9481033
  84.7807777  39.9687430  28.8896556  84.6223695  39.2664681  27.5578914
  73.6146031  42.8125968  15.2373122  73.7634151  43.4961432  14.5839794
  74.4212474  42.7931058  15.7522577  87.4323651  40.1187244  20.7125625
  88.2670542  40.5577048  20.8763185  87.5682780  39.6425897  19.8933870
  84.4815157  37.6766978  26.6603112  84.9569279  37.8694625  25.8521964
  83.5580722  37.7326164  26.4146496  71.3698664  38.8391146  16.2434191
  71.1244706  37.9353476  16.4414401  71.5394578  38.8408296  15.3013669
  79.0595373  29.7114822  25.6258946  79.5777317  30.4475849  25.3005435
  78.7050506  30.0178815  26.4605705  70.6394311  34.5719503  13.7420352
  69.9463556  34.6463858  13.0860388  70.3946063  33.8079847  14.2641869
  79.3107968  26.1315104  21.1459843  79.5909721  25.4638294  21.7720269
  80.0958575  26.3244200  20.6334507  77.1141436  45.3074098  12.7084869
  76.5415403  45.9264286  12.2555341  77.6874230  45.8573460  13.2424791
  83.1816826  34.5532738  24.8931418  84.1334249  34.6530836  24.9143642
  83.0120276  33.7611007  25.4029502  81.2031205  31.6388322  25.0790819
  80.6081138  31.9193334  24.3837307  80.9180902  32.1282223  25.8507560
  80.3338696  45.5911249  13.8393451  81.2669369  45.5256810  14.0426327
  80.2461909  46.4267515  13.3807984  82.9626713  44.9077119  10.7997399
  82.8840344  44.5736982  11.6933157  83.7836379  45.3998887  10.7988871
  85.6604904  37.7738858  24.0073718  85.6281224  36.8354859  24.1933401
  86.2705527  37.8522895  23.2739542  77.4988235  36.6434911  10.0500922
  78.4447339  36.5141119  10.1189340  77.1202480  35.9049573  10.5270350
  85.8099392  34.5649902  24.0532001  85.2938441  33.7808358  23.8661930
  86.6939341  34.2368618  24.2178520  83.4710119  28.3090917  20.0127813
  83.2734940  28.0006005  20.8971145  84.0809825  29.0352556  20.1425743
  91.4781454  38.8354865  23.1479754  92.2084842  38.5740153  23.7087458
  90.8688399  38.0983587  23.1881822  89.5596751  36.9762728  23.7454206
  88.8329914  36.8418693  23.1370697  89.1444038  37.2839556  24.5510924
  75.6831152  34.5684888   9.9855807  74.7762607  34.2718000  10.0618520
  75.9607133  34.2714706   9.1190093  66.6009092  35.8891251  20.4354853
  66.2811877  35.0356559  20.1429227  66.0542520  36.1039829  21.1912821
  70.3789000  38.6053692  24.1524360  70.5975010  39.5370800  24.1712394
  70.7914774  38.2461666  24.9379164  77.2993218  29.1121777  16.1400048
  76.4893946  28.7668862  16.5155294  77.9877634  28.8029321  16.7287660
  79.2283766  28.1899824  17.7624345  79.7814804  28.6095277  18.4214368
  79.4653852  27.2635572  17.8047301  74.4529936  31.4271823  10.1267786
  75.3149100  31.7526721  10.3863603  74.6380281  30.6403319   9.6140852
  66.4697352  39.5094162  22.4047975  65.7760824  39.0948115  21.8917929
  67.2170343  39.5514699  21.8081394  82.6062573  30.3000349  17.2703009
  82.0261242  30.9585153  16.8881061  82.3398506  29.4777694  16.8590427
  81.0566139  29.7005407  19.4724329  81.5565918  29.8121941  18.6638648
  81.7001747  29.3966460  20.1125138  68.3834095  39.4412416  20.2813990
  68.3604783  39.5400103  19.3295873  68.6934731  40.2877567  20.6031156
  81.3887451  32.4600440  16.3259357  80.5013306  32.7450090  16.1079552
  81.8041440  32.2994203  15.4786634  84.7401987  32.4846961  20.0413697
  85.5162377  32.9743413  20.3138313  84.0150121  32.9105015  20.4985566
  87.1774546  33.1974580  21.0987637  87.7719036  32.9570316  20.3880945
  87.2501129  32.4781710  21.7261173  69.3971701  47.0408191  21.4130802
  69.2626169  46.2808592  20.8468800  68.9803764  47.7649091  20.9459591
  80.5330664  42.2245114  10.4207377  81.2366515  42.4295117  11.0365033
  79.8093313  42.7921876  10.6856461  81.3628475  37.9754976  16.5409647
  81.3063676  38.4323527  15.7017280  81.9156817  37.2145660  16.3632490
  85.1733281  33.7644707  17.3659767  84.9170215  33.3641343  18.1967975
  84.5486149  34.4788501  17.2409906  89.4845618  36.5040781  19.8731058
  88.9245176  36.5733970  20.6462620  88.8789122  36.3281765  19.1530555
  82.4417362  42.6627643  12.4705837  83.2762966  42.2308842  12.2883312
  82.2801705  42.4909657  13.3982732  82.0963254  39.1659757  13.8362177
  82.0412058  39.0004028  12.8950621  81.4709309  39.8735790  13.9924366
  66.8855769  34.4027821  27.6623599  67.5314633  33.8926775  28.1510824
  66.6772920  35.1396503  28.2367024  75.4059379  28.6667866  13.4147495
  75.3938049  29.6109706  13.5715766  76.2982801  28.4838011  13.1206956
  75.3348943  47.3436756  21.5015252  74.3844574  47.3438618  21.3879624
  75.6381430  46.5969491  20.9851286  79.2211499  25.2610642  17.6693432
  78.4543895  24.7069129  17.8150114  79.6322204  25.3332511  18.5307583
  71.2253260  31.5495438  31.7598613  72.0884722  31.1932243  31.9701938
  70.6518671  31.2109333  32.4474017  91.0701637  53.1797295  22.5661014
  91.7080047  53.0604042  21.8624354  90.9522480  54.1278139  22.6248966
  87.8791343  53.1324723  22.5022539  87.5409855  53.0165787  21.6143074
  88.7481111  52.7315888  22.4823545  83.7378159  54.9860199  18.4919430
  83.1743024  54.8950136  17.7235717  83.6230554  54.1660104  18.9721922
  88.3611126  54.2859574  28.4608744  88.3499767  53.8912373  27.5889248
  88.5231766  53.5525647  29.0542516  81.2842591  56.4811391  21.3303650
  82.0763883  56.1402215  20.9149949  81.5239241  56.5906366  22.2505803
  89.3177718  58.6531167  13.8033895  88.6665697  59.2385247  13.4167908
  90.1122080  59.1837362  13.8628932  83.2433345  55.7420304  14.2021029
  84.0164221  55.1949291  14.0633905  83.5958744  56.6064553  14.4135490
  85.0818387  57.0696686  27.4087928  84.7908253  57.9742317  27.2934595
  85.7175372  57.1113214  28.1231998  86.0074594  54.4473535  23.9989288
  86.6038166  54.2229557  23.2846251  86.0649566  53.7058280  24.6014736
  85.5799623  51.9012970  11.8339479  85.8325143  51.3794491  11.0722942
  84.6424182  51.7379116  11.9366162  90.6242905  50.9048748  19.6414222
  91.4105995  50.4868172  19.2904639  90.8881610  51.8094841  19.8095870
  90.7952983  56.3421599  14.3402879  90.1598816  56.4156225  15.0523784
  90.4650389  56.9315198  13.6621958  96.0251333  50.8423982  20.5447201
  96.7576504  50.2723198  20.7785030  95.2690688  50.4545582  20.9853706
  85.2995911  53.8041076  14.0363854  85.1832169  53.1285979  14.7044938
  85.4098171  53.3173450  13.2196007  87.6427452  53.2651223  17.7410543
  87.2785659  52.7381844  18.4523465  88.4994568  52.8749692  17.5677028
  93.5476753  44.5545556  25.0041809  93.2160078  45.4240967  24.7803024
  92.9522366  44.2381840  25.6835840  87.2832939  48.2941123  12.7371892
  87.4507342  49.1621359  13.1042363  87.0930108  48.4568405  11.8133181
  90.0408272  56.7558102  24.4037722  89.7408995  57.6583141  24.2953529
  89.6959332  56.4890285  25.2558875  83.4920754  53.2071899  20.4374426
  82.5671250  53.0748113  20.6452118  83.7405167  53.9866118  20.9344369
  93.4405416  49.2740642  22.0835159  92.5322294  49.2056050  21.7893920
  93.3893012  49.7512587  22.9116985  87.2622160  50.7498780  13.7218558
  87.1421785  51.1955831  14.5604039  86.5674748  51.0984098  13.1632097
  80.8529565  52.8505172  21.2718215  80.9821946  53.1039651  22.1857627
  80.1727016  53.4432880  20.9522871  85.0229052  63.5202422  17.3708690
  84.9453082  64.4710247  17.4497170  84.4190696  63.1748295  18.0283616
  87.5146282  50.6930288  30.0270057  86.7379616  51.2524208  30.0172921
  88.1536845  51.1787070  30.5484927  95.3067063  47.4757080  23.8613033
  94.6641443  47.7689613  23.2152828  94.8021991  47.3610001  24.6666230
  92.9607226  51.2220254  14.5498892  93.8725082  51.4547640  14.3746590
  92.4516873  51.8057298  13.9873971  85.7692654  53.5015741  29.5888024
  86.5107339  54.0400785  29.3122847  85.0629640  54.1282030  29.7459575
  91.2447994  55.6444881  28.1860185  91.6531350  55.2027292  27.4414817
  90.5225255  55.0697509  28.4394378  87.5979064  50.5817488  25.5593742
  88.4440259  51.0056902  25.7028391  87.5377702  49.9251112  26.2532305
  91.5676809  56.2046072  21.9412474  90.9385671  56.3691786  21.2388542
  91.1802471  56.6187682  22.7123438  95.4466040  57.1400510  19.2956838
  94.7617079  57.5199411  18.7453871  95.5309890  57.7495836  20.0288785
  90.7478509  48.2421856  27.2174916  90.5039441  48.9963917  26.6809191
  91.0238440  48.6207204  28.0522163  92.7016972  54.7860469  25.8952181
  92.9133867  55.4292229  25.2186562  92.6546720  53.9522785  25.4274111
  90.3043201  47.3978289  22.7988753  89.4427680  47.6959543  23.0905491
  90.3305636  47.6148688  21.8669786  87.1204770  55.9420480  19.2062559
  87.5843116  56.2208183  18.4167182  86.8561569  55.0403925  19.0235650
  84.0128851  55.4891962  22.1442322  84.5830209  55.9179230  21.5059807
  84.6036963  55.2074546  22.8426508  86.0573656  52.0643632  16.0152124
  86.7597700  52.5164676  16.4826051  85.7254285  51.4227451  16.6432017
  84.5054018  50.6555389  30.3903334  83.8752679  51.3371670  30.6238730
  84.3990106  50.5438471  29.4456472  79.7998990  50.3227185  21.3169258
  79.0098044  50.5784714  20.8409368  80.2910238  51.1375523  21.4221298
  93.8162800  57.6632424  24.0674539  94.6380244  57.2612612  23.7857220
  93.8125203  57.5600658  25.0190654  81.7513736  50.6871764  18.2752734
  80.9544899  50.7990459  18.7936230  81.5239328  51.0258417  17.4093625
  87.5819403  57.2116468  26.2235249  87.6463836  57.6736875  27.0593421
  86.8730327  56.5813832  26.3517559 101.9068793  54.0071173  20.4159510
 101.1532501  53.4378571  20.2603514 102.0416334  53.9733837  21.3630145
  87.2967421  58.8784575  16.0914229  87.1613096  59.7236111  16.5199077
  87.8377234  59.0803853  15.3280163  83.7834761  44.9576155  32.7528585
  83.3901706  44.4042353  33.4276229  84.6000901  45.2686733  33.1435102
  80.7496818  56.3960013  16.6642154  81.2621339  57.1903263  16.8147719
  81.4019531  55.6986304  16.5975756  82.5591703  59.5125769  18.7464908
  82.7358332  60.4343734  18.5585892  83.3548537  59.1984189  19.1759287
  88.9235897  59.5008142  30.2214571  88.4799752  58.7144520  29.9035476
  89.5853111  59.6887292  29.5558462  83.6823019  61.0303943  24.7475250
  84.2330444  60.9021007  23.9752244  82.8434495  61.3298832  24.3970143
  91.0217136  59.7810941  28.2495973  91.0035611  60.6019823  27.7576242
  91.9437056  59.6565017  28.4746114  87.4790190  57.2955071  29.0919481
  88.0118526  56.5343359  28.8618789  86.9504271  57.0028723  29.8343636
  90.6459885  42.4015137  24.6213123  90.3024154  43.2916779  24.5452233
  91.0138847  42.2116795  23.7582708  78.7145735  54.7248667  17.4401725
  79.5520957  55.1345676  17.2235433  78.8924003  53.7848110  17.4101919
  90.6110167  52.3923748  13.1285558  90.0956791  53.1628353  13.3673945
  90.3387476  51.7188884  13.7518619  88.1957278  47.2373449  18.1870796
  87.3398875  46.8480299  18.0076435  88.6084230  47.3165410  17.3270582
  89.7256425  44.7719792  22.5862356  89.2221221  44.7349927  21.7730161
  90.0187032  45.6812535  22.6459013  85.9699311  44.8558522  21.5928538
  86.8352308  44.6601330  21.2334427  86.0376820  44.6268874  22.5197895
  95.5844442  55.1456103  15.0638731  94.8073884  54.8067262  14.6193894
  96.2635922  55.1508726  14.3893696  90.3996471  50.2650840  14.9545339
  90.0946606  50.5796989  15.8055482  91.3526913  50.3432260  14.9972672
  88.8442902  56.4241063  16.6038293  88.3164264  55.6893823  16.2911531
  88.3430405  57.2015740  16.3578261  93.8235748  54.6190084  21.7205339
  93.1659423  55.3089345  21.8085468  94.6276148  55.0086516  22.0639326
  83.5761630  47.0860730  18.9644905  84.1505382  46.8635911  18.2318098
  84.1632612  47.1549424  19.7173506  92.6341207  52.9734457  19.7709281
  93.1473089  53.6064448  20.2730991  93.2842431  52.3735652  19.4052641
  83.9031217  49.1165191  12.9840790  83.0668529  49.4539877  13.3050065
  83.7635987  48.9814171  12.0467927  85.8784298  43.9601979  17.6919974
  85.2248710  43.6450996  17.0676589  85.8364772  43.3377719  18.4179797
  86.9895503  54.2421274   9.6073266  86.0822564  54.0110527   9.8064415
  87.4866535  53.4458893   9.7947248  89.8963581  62.9518781  12.5269952
  89.2225280  63.2550478  13.1354910  90.2829403  63.7547861  12.1775409
  89.1122038  50.4483912  22.0167622  88.1944599  50.6698859  21.8589310
  89.5282182  50.5230223  21.1579329  89.8957086  51.8475328  17.1470302
  90.6428905  52.3596725  16.8377424  90.1648675  51.5259381  18.0074696
  88.1683736  54.3433869  14.1297256  87.2594955  54.0592901  14.2269726
  88.1978820  54.7632947  13.2700563  93.4003003  57.9540458  17.8988424
  92.9465331  57.1131368  17.9553614  92.7696970  58.5901856  18.2363204
  92.3435923  48.8832444  19.1289091  91.6058680  48.3709830  19.4599334
  92.5962697  48.4432826  18.3172368  91.8435943  59.7916955  18.8338242
  92.1358917  60.3522012  18.1150608  92.3534563  60.0845516  19.5891401
  92.4447550  41.6608696  19.7230861  92.7506427  40.8006060  19.4356776
  93.1700155  42.2526316  19.5229854  78.7371906  52.0639383  18.1112458
  78.5396306  51.4708743  17.3863525  78.1818570  51.7591593  18.8288397
  86.7168630  51.9562489  20.2307052  86.7717240  51.0036326  20.1549528
  85.9059832  52.1121928  20.7148350  87.8659824  55.8842612  11.4685335
  87.4279254  55.1678471  11.0090972  88.6070265  56.1118727  10.9070426
  84.6560990  50.5739549  17.9897430  83.8428856  50.8733719  18.3962623
  85.1519984  50.1795238  18.7071913  86.8069568  60.5697306  19.9231695
  86.7645747  60.7958152  18.9940227  87.7232267  60.3360680  20.0717496
  90.2535202  51.0381373  26.8212324  90.6084589  51.2652847  27.6806790
  90.9007333  51.3699750  26.1989580  95.9832939  54.1599809  17.5261653
  95.8450837  54.3501405  16.5982843  95.6269157  54.9219192  17.9829705
  84.1475065  48.1457904  23.6058665  84.7874444  48.0046664  22.9081629
  83.3152595  47.8592418  23.2297267  96.0102318  56.2276336  22.5372925
  96.4438825  56.1351625  23.3855979  96.7233899  56.2033837  21.8992941
  84.9235369  57.4460335  19.7193658  85.7175967  56.9510655  19.5176233
  84.2127061  56.9178198  19.3561363  89.7430213  59.8278430  24.0706025
  89.7967235  60.3969367  24.8383741  88.8744994  59.9980315  23.7060063
  81.2318132  51.5903417  15.7953411  80.3015720  51.5287872  16.0123373
  81.3275604  51.0679369  14.9990052  81.1503681  48.1158229  18.3831652
  81.4110498  49.0303563  18.2740813  81.9720853  47.6482672  18.5328265
  82.6228606  49.5295987  25.5530477  83.2951660  49.3213349  24.9043126
  81.7958393  49.3318073  25.1135709  96.8717868  56.2700037  25.0705810
  97.0653758  57.1745847  25.3165085  96.7718486  55.8107456  25.9044395
  88.5254179  46.1557928  27.5696138  87.8782094  46.8547877  27.4760614
  89.2955194  46.5894071  27.9372386  91.9332976  56.4206780  30.6446691
  91.7818483  56.1917331  29.7276775  91.9237656  57.3777381  30.6578036
  88.7018313  53.9938692  25.6292957  89.6310373  54.1449852  25.4561925
  88.2809343  54.0822713  24.7741604  87.5006645  58.0189357  23.3991495
  87.3617730  57.6508141  24.2717433  86.7121241  58.5336996  23.2275453
  88.0954797  63.1198453  14.7417031  88.2706552  62.6486497  15.5562654
  87.4087585  63.7464220  14.9698292  89.0511860  57.3970960  20.7880333
  88.7161692  57.3571730  21.6837983  88.5515805  56.7315675  20.3150743
  83.0256104  52.8038590  26.3132914  82.8875902  52.0718828  26.9144453
  83.9361027  52.7147490  26.0317102  91.9871051  54.7426994  11.0617392
  91.3700222  54.0173822  10.9650445  91.5187540  55.5036354  10.7184467
  85.6538404  52.5158549  25.8016594  86.3638023  51.8751741  25.7603212
  85.6107713  52.7671444  26.7242774  93.6425183  59.4525902  28.7223173
  93.5837729  58.7685122  28.0553756  94.0444701  60.1944892  28.2703799
  84.3667338  49.5023767  27.6212233  83.8304695  49.0514505  28.2733829
  83.7784047  49.6369676  26.8782697  82.6615882  66.2687816  21.5156892
  82.9012480  66.9006340  22.1935910  81.8185078  65.9175856  21.8022251
  83.7769597  48.9612418  10.1838697  82.8999064  48.8401219   9.8200943
  84.2527350  48.1698496   9.9317585  93.6442590  57.4165486  26.9537152
  92.7569369  57.0791408  27.0763551  94.2141141  56.6848517  27.1905918
  75.2971737  53.7489578  20.2780204  75.9842777  53.4351308  19.6901219
  75.1419866  54.6530943  20.0047455  87.1743744  62.0766939  23.9198396
  87.1013915  62.8821910  24.4317700  86.7321137  62.2758904  23.0946417
  86.9633523  61.3138709  17.4301217  86.1801045  61.8560389  17.5239442
  87.6626269  61.8312688  17.8295458  90.2730173  47.1233338  20.0735423
  90.7698873  46.3703300  19.7536493  89.5017155  47.1597655  19.5078632
  98.1259931  52.8273704  21.7153714  98.1149807  53.7098419  21.3447647
  97.2577310  52.4745254  21.5208251  89.6342427  61.9753773  26.0756554
  90.3470399  62.6101237  26.0032456  89.1432456  62.0717639  25.2596556
  91.3559954  55.8805025  17.6473846  90.4216233  56.0006488  17.4778550
  91.5336623  54.9777492  17.3833856  86.8565142  49.2650721  19.8007107
  86.4862930  48.7121761  20.4888013  87.3524235  48.6608854  19.2482107
  94.7432506  51.7222345  18.1823880  95.2092958  52.5550336  18.1084183
  95.1940006  51.2567326  18.8869139  84.6854341  59.7248216  26.8962125
  85.3863800  60.3584699  27.0491519  84.2149456  60.0662948  26.1357764
  92.8108737  58.0666166  15.1810032  93.0868581  57.9522760  16.0903906
  91.9413235  57.6683651  15.1422205  92.7149168  44.0902932  22.2214781
  91.8012248  44.3207158  22.3896988  93.1442270  44.1741376  23.0728814
  92.4855627  52.2792823  24.7214675  91.8327077  52.5268731  24.0667128
  92.8636007  51.4656962  24.3877153  89.4462801  62.3152517  18.8242846
  89.6285195  61.4974173  19.2870598  90.2695787  62.5320209  18.3867736
  89.7804966  61.2420702  16.0857894  90.3092733  60.7313156  15.4728056
  90.0433186  60.9263232  16.9503427  88.5343200  53.0212635  31.2080713
  87.8583837  52.9206764  31.8783088  89.3570834  52.8651848  31.6716710
  80.2822059  59.2584571  23.8293228  80.8675496  58.5128259  23.9621132
  80.0846897  59.5688528  24.7129892  83.1360714  62.2935818  18.8455670
  82.4671089  62.7781946  18.3619710  82.9973584  62.5405039  19.7599049
  74.8739714  51.8290171  22.5497671  74.9123813  51.2953762  23.3434789
  74.3680006  51.3025377  21.9308648  87.2765983  64.3279562  25.4438329
  87.8284291  64.4911183  26.2087414  87.6172176  64.9184000  24.7718353
  82.2530476  46.6754712  26.0460213  82.3171802  47.5369543  25.6337611
  82.1897596  46.0628713  25.3132572  92.1276857  59.1540819  31.2986983
  92.6716761  59.7670778  30.8041938  91.5463702  59.7120398  31.8153996
  78.5048291  50.5554273  15.6251602  78.8001732  49.6464952  15.5718656
  77.6036327  50.5342013  15.3032605  90.4134370  62.2761538  22.4302011
  90.2885509  61.4751277  21.9212956  91.0713461  62.7707731  21.9415981
  82.0342538  48.6310270  21.6079151  81.3129124  49.2446238  21.4686624
  82.8235794  49.1668035  21.5295797  92.4769278  60.0770558  24.0581561
  91.5299614  59.9575909  23.9859888  92.8252051  59.1893056  24.1407822
  84.8368852  45.9664697  27.8819803  85.3603254  46.2126993  28.6446112
  84.6181185  46.7984731  27.4622940  80.2336133  48.2368371  15.7490927
  79.9048839  47.3565750  15.5666033  80.5875503  48.1816040  16.6367317
  89.4815712  59.8723274  20.2585913  89.3340674  58.9439981  20.4393483
  90.3069205  59.8943365  19.7742988  83.3477956  48.5241341  16.1166405
  83.6874028  49.0527262  15.3945014  83.7950076  48.8621747  16.8924972
  93.0849833  60.6951833  21.3450786  94.0096381  60.4894694  21.2075237
  92.9165137  60.4468234  22.2540127  86.0421397  46.9078392  25.5669473
  85.7018217  46.1086205  25.9690153  85.3360403  47.2080102  24.9946306
  86.6937869  43.9927704  24.0196796  87.5163938  43.5188182  23.8975687
  86.9375932  44.7718188  24.5195483  85.3346103  47.0215962  14.3159698
  86.0554466  47.3997215  13.8123415  84.7111407  47.7404839  14.4194676
  89.4777226  47.7261111  15.2518030  89.6940840  48.6085749  14.9506858
  88.9971293  47.3347325  14.5223672  84.2176447  50.6846825  21.8288775
  84.0721028  50.9987128  22.7213056  83.7401651  51.3031725  21.2759674
  86.0772830  47.6749373  21.8769664  86.0634399  46.7790466  21.5401962
  86.7945258  47.6820036  22.5107950  87.9298961  48.1086713  23.9222792
  87.6716739  49.0303784  23.9207122  87.3984001  47.7117147  24.6123256
  92.8745150  61.2137500  16.7012877  93.0482027  60.6483922  15.9486730
  93.3674041  62.0138395  16.5192367  85.4809726  46.5563753  17.1457235
  85.6025637  45.6280399  17.3448122  85.1911769  46.5702439  16.2335550
  88.3500917  44.2418663  20.2823954  88.3722613  44.3057996  19.3275934
  88.7668976  43.4023172  20.4764461  98.7284541  53.9773923  18.3203177
  99.1715687  53.2281248  17.9222300  97.8511051  53.9684059  17.9376909
  93.8620322  60.5304264  13.8009776  94.5571227  61.1510957  14.0197090
  94.2043472  59.6799616  14.0762153  95.7611745  57.9803970  15.3297106
  96.2863069  58.3191243  14.6046426  95.6734098  57.0450985  15.1460241
  87.4231794  61.8938044  27.4586983  87.7318920  61.6487190  28.3309683
  88.2207276  62.0984682  26.9705853  87.4452406  64.0475953  19.6892359
  87.0057396  63.5552332  20.3825216  88.1960523  63.5048921  19.4484435
  79.9244745  60.2387494  19.6916988  80.7502765  59.9391266  19.3115631
  79.5738797  59.4695116  20.1406776  84.8926278  59.5913962  21.7614661
  84.2706287  58.9284667  21.4616889  85.5631145  59.6175094  21.0788309
  78.1253350  58.1573821  20.6505921  77.2885258  57.7295995  20.4689922
  78.0976996  58.3506264  21.5876712  84.9650806  48.0695750  31.3547167
  85.0138961  48.9457873  30.9724937  85.5073320  47.5273143  30.7818810
  95.4505651  58.6136874  30.6348304  94.6601195  58.5961012  30.0952804
  95.2139006  59.1525167  31.3897341  95.5703526  55.4629340  27.9481033
  95.6201531  55.2979347  28.8896556  95.4617450  54.5956599  27.5578914
  84.4539785  58.1417886  15.2373122  84.6027905  58.8253350  14.5839794
  85.2606229  58.1222976  15.7522577  92.8607289  51.4460268  29.2640339
  93.7617152  51.3066733  28.9724337  92.9355263  51.6114723  30.2038517
  87.1950094  48.8227123  28.1093526  86.3253404  49.1160689  27.8376114
  87.4309574  49.4067568  28.8300789  97.0721723  57.8826281  28.1923054
  96.7806532  58.2456262  29.0286515  96.4593855  57.1693290  28.0136386
  98.2717406  55.4479161  20.7125625  99.1064297  55.8868965  20.8763185
  98.4076534  54.9717814  19.8933870  95.3208911  53.0058896  26.6603112
  95.7963033  53.1986542  25.8521964  94.3974477  53.0618082  26.4146496
  82.2092418  54.1683063  16.2434191  81.9638460  53.2645393  16.4414401
  82.3788333  54.1700214  15.3013669  89.8989128  45.0406740  25.6258946
  90.4171072  45.7767767  25.3005435  89.5444261  45.3470733  26.4605705
  81.4788066  49.9011421  13.7420352  80.7857311  49.9755776  13.0860388
  81.2339818  49.1371764  14.2641869  90.1501722  41.4607022  21.1459843
  90.4303476  40.7930211  21.7720269  90.9352329  41.6536118  20.6334507
  87.9535191  60.6366016  12.7084869  87.3809158  61.2556203  12.2555341
  88.5267984  61.1865378  13.2424791  94.0210580  49.8824656  24.8931418
  94.9728003  49.9822754  24.9143642  93.8514031  49.0902925  25.4029502
  92.0424960  46.9680239  25.0790819  91.4474892  47.2485252  24.3837307
  91.7574657  47.4574140  25.8507560  91.1732450  60.9203166  13.8393451
  92.1063124  60.8548728  14.0426327  91.0855663  61.7559433  13.3807984
  93.8020467  60.2369037  10.7997399  93.7234099  59.9028900  11.6933157
  94.6230134  60.7290804  10.7988871  96.4998658  53.1030776  24.0073718
  96.4674978  52.1646777  24.1933401  97.1099282  53.1814813  23.2739542
  88.3381989  51.9726829  10.0500922  89.2841094  51.8433037  10.1189340
  87.9596234  51.2341491  10.5270350  96.6493147  49.8941819  24.0532001
  96.1332195  49.1100276  23.8661930  97.5333095  49.5660536  24.2178520
  94.3103874  43.6382835  20.0127813  94.1128695  43.3297923  20.8971145
  94.9203579  44.3644474  20.1425743 102.3175208  54.1646783  23.1479754
 103.0478597  53.9032071  23.7087458 101.7082154  53.4275505  23.1881822
 100.3990505  52.3054645  23.7454206  99.6723669  52.1710610  23.1370697
  99.9837792  52.6131474  24.5510924  88.2220682  56.0244575  31.5101579
  89.1423691  56.2023174  31.7041625  88.1870265  55.0800620  31.3581278
  86.5224906  49.8976805   9.9855807  85.6156362  49.6009918  10.0618520
  86.8000887  49.6006623   9.1190093  77.4402847  51.2183169  20.4354853
  77.1205631  50.3648477  20.1429227  76.8936275  51.4331747  21.1912821
  88.1386972  44.4413695  16.1400048  87.3287700  44.0960780  16.5155294
  88.8271389  44.1321239  16.7287660  90.0677520  43.5191742  17.7624345
  90.6208559  43.9387195  18.4214368  90.3047607  42.5927490  17.8047301
  86.0910620  49.5078815  33.5427109  85.9907346  50.4573172  33.4739200
  85.8732162  49.1797054  32.6703179  85.2923691  46.7563740  10.1267786
  86.1542855  47.0818639  10.3863603  85.4774035  45.9695236   9.6140852
  77.3091107  54.8386080  22.4047975  76.6154578  54.4240033  21.8917929
  78.0564098  54.8806617  21.8081394  93.4456327  45.6292267  17.2703009
  92.8654996  46.2877071  16.8881061  93.1792260  44.8069611  16.8590427
  91.8959894  45.0297325  19.4724329  92.3959672  45.1413859  18.6638648
  92.5395502  44.7258377  20.1125138  79.2227849  54.7704334  20.2813990
  79.1998537  54.8692021  19.3295873  79.5328486  55.6169485  20.6031156
  81.8815227  56.8280489  24.3960604  82.8358481  56.7964431  24.3290536
  81.6827751  56.3671113  25.2110830  92.2281205  47.7892357  16.3259357
  91.3407060  48.0742008  16.1079552  92.6435194  47.6286121  15.4786634
  95.5795742  47.8138878  20.0413697  96.3556132  48.3035331  20.3138313
  94.8543876  48.2396932  20.4985566  98.0168300  48.5266497  21.0987637
  98.6112791  48.2862233  20.3880945  98.0894884  47.8073628  21.7261173
  80.2365456  62.3700108  21.4130802  80.1019924  61.6100509  20.8468800
  79.8197518  63.0941008  20.9459591  91.3724419  57.5537032  10.4207377
  92.0760269  57.7587034  11.0365033  90.6487068  58.1213794  10.6856461
  92.2022229  53.3046893  16.5409647  92.1457431  53.7615445  15.7017280
  92.7550572  52.5437578  16.3632490  96.0127035  49.0936625  17.3659767
  95.7563969  48.6933261  18.1967975  95.3879903  49.8080419  17.2409906
 100.3239373  51.8332698  19.8731058  99.7638931  51.9025888  20.6462620
  99.7182876  51.6573683  19.1530555  83.3934582  63.2669425  21.6249245
  83.2766966  64.2114858  21.5227935  82.5727028  62.9642987  22.0135044
  93.2811116  57.9919561  12.4705837  94.1156720  57.5600760  12.2883312
  93.1195459  57.8201575  13.3982732  92.9357008  54.4951674  13.8362177
  92.8805812  54.3295946  12.8950621  92.3103064  55.2027707  13.9924366
  90.2502916  56.8000586  33.1615739  91.1194075  56.9741239  32.8002374
  89.7709667  57.6195003  33.0391469  86.2453134  43.9959783  13.4147495
  86.2331804  44.9401623  13.5715766  87.1376556  43.8129929  13.1206956
  84.4189096  63.9197687  24.8405173  85.3216343  63.9521298  25.1571668
  84.1926466  62.9898138  24.8551509  86.1742698  62.6728674  21.5015252
  85.2238329  62.6730535  21.3879624  86.4775184  61.9261408  20.9851286
  90.0605253  40.5902560  17.6693432  89.2937649  40.0361047  17.8150114
  90.4715958  40.6624429  18.5307583 101.9095391  68.5089212  22.5661014
 102.5473801  68.3895960  21.8624354 101.7916234  69.4570056  22.6248966
  98.7185098  68.4616640  22.5022539  98.3803609  68.3457705  21.6143074
  99.5874866  68.0607805  22.4823545  94.5771913  70.3152117  18.4919430
  94.0136778  70.2242054  17.7235717  94.4624308  69.4952021  18.9721922
  99.2004881  69.6151492  28.4608744  99.1893521  69.2204290  27.5889248
  99.3625520  68.8817565  29.0542516  92.1236345  71.8103308  21.3303650
  92.9157637  71.4694133  20.9149949  92.3632995  71.9198283  22.2505803
 100.1571472  73.9823084  13.8033895  99.5059452  74.5677165  13.4167908
 100.9515835  74.5129279  13.8628932  94.0827099  71.0712222  14.2021029
  94.8557975  70.5241209  14.0633905  94.4352498  71.9356471  14.4135490
  95.9212142  72.3988604  27.4087928  95.6302008  73.3034235  27.2934595
  96.5569126  72.4405132  28.1231998  96.8468349  69.7765452  23.9989288
  97.4431921  69.5521475  23.2846251  96.9043320  69.0350198  24.6014736
  96.4193377  67.2304888  11.8339479  96.6718898  66.7086409  11.0722942
  95.4817936  67.0671033  11.9366162 101.4636660  66.2340666  19.6414222
 102.2499749  65.8160089  19.2904639 101.7275364  67.1386758  19.8095870
 101.6346737  71.6713516  14.3402879 100.9992570  71.7448143  15.0523784
 101.3044144  72.2607115  13.6621958 106.8645087  66.1715899  20.5447201
 107.5970259  65.6015116  20.7785030 106.1084443  65.7837500  20.9853706
  96.1389666  69.1332994  14.0363854  96.0225924  68.4577897  14.7044938
  96.2491926  68.6465368  13.2196007  98.4821207  68.5943141  17.7410543
  98.1179414  68.0673762  18.4523465  99.3388323  68.2041610  17.5677028
 104.3870507  59.8837473  25.0041809 104.0553832  60.7532884  24.7803024
 103.7916121  59.5673757  25.6835840  98.1226694  63.6233040  12.7371892
  98.2901096  64.4913277  13.1042363  97.9323863  63.7860322  11.8133181
 100.8802027  72.0850019  24.4037722 100.5802750  72.9875058  24.2953529
 100.5353086  71.8182203  25.2558875  94.3314508  68.5363816  20.4374426
  93.4065005  68.4040030  20.6452118  94.5798922  69.3158035  20.9344369
 104.2799171  64.6032560  22.0835159 103.3716048  64.5347968  21.7893920
 104.2286766  65.0804505  22.9116985  98.1015915  66.0790698  13.7218558
  97.9815540  66.5247749  14.5604039  97.4068503  66.4276016  13.1632097
  91.6923319  68.1797090  21.2718215  91.8215701  68.4331569  22.1857627
  91.0120771  68.7724798  20.9522871  95.8622807  78.8494340  17.3708690
  95.7846836  79.8002165  17.4497170  95.2584450  78.5040212  18.0283616
  98.3540036  66.0222205  30.0270057  97.5773371  66.5816125  30.0172921
  98.9930599  66.5078988  30.5484927 106.1460817  62.8048998  23.8613033
 105.5035197  63.0981531  23.2152828 105.6415746  62.6901918  24.6666230
 103.8000981  66.5512171  14.5498892 104.7118837  66.7839558  14.3746590
 103.2910628  67.1349215  13.9873971  96.6086409  68.8307659  29.5888024
  97.3501093  69.3692703  29.3122847  95.9023394  69.4573947  29.7459575
 102.0841748  70.9736799  28.1860185 102.4925104  70.5319210  27.4414817
 101.3619010  70.3989427  28.4394378  98.4372818  65.9109406  25.5593742
  99.2834014  66.3348819  25.7028391  98.3771456  65.2543030  26.2532305
 102.4070563  71.5337990  21.9412474 101.7779425  71.6983704  21.2388542
 102.0196225  71.9479599  22.7123438 106.2859795  72.4692427  19.2956838
 105.6010833  72.8491329  18.7453871 106.3703644  73.0787754  20.0288785
 101.5872264  63.5713774  27.2174916 101.3433196  64.3255835  26.6809191
 101.8632194  63.9499122  28.0522163 103.5410727  70.1152387  25.8952181
 103.7527622  70.7584146  25.2186562 103.4940475  69.2814703  25.4274111
 101.1436955  62.7270207  22.7988753 100.2821435  63.0251461  23.0905491
 101.1699390  62.9440606  21.8669786  97.9598525  71.2712398  19.2062559
  98.4236870  71.5500101  18.4167182  97.6955323  70.3695842  19.0235650
  94.8522606  70.8183879  22.1442322  95.4223963  71.2471148  21.5059807
  95.4430718  70.5366464  22.8426508  96.8967411  67.3935550  16.0152124
  97.5991454  67.8456594  16.4826051  96.5648039  66.7519369  16.6432017
  95.3447772  65.9847307  30.3903334  94.7146433  66.6663588  30.6238730
  95.2383860  65.8730388  29.4456472  90.6392745  65.6519103  21.3169258
  89.8491799  65.9076631  20.8409368  91.1303992  66.4667441  21.4221298
 104.6556554  72.9924342  24.0674539 105.4773998  72.5904529  23.7857220
 104.6518957  72.8892576  25.0190654  92.5907490  66.0163682  18.2752734
  91.7938654  66.1282376  18.7936230  92.3633083  66.3550334  17.4093625
  98.4213158  72.5408385  26.2235249  98.4857590  73.0028792  27.0593421
  97.7124082  71.9105750  26.3517559  88.9230448  65.9049593  23.7484249
  89.1738486  66.7896603  24.0141824  89.4589996  65.7254195  22.9759340
 112.7462548  69.3363090  20.4159510 111.9926256  68.7670488  20.2603514
 112.8810089  69.3025755  21.3630145  98.1361176  74.2076493  16.0914229
  98.0006850  75.0528028  16.5199077  98.6770988  74.4095770  15.3280163
  94.6228515  60.2868073  32.7528585  94.2295461  59.7334271  33.4276229
  95.4394656  60.5978651  33.1435102  91.5890573  71.7251931  16.6642154
  92.1015094  72.5195181  16.8147719  92.2413286  71.0278221  16.5975756
  93.3985458  74.8417687  18.7464908  93.5752086  75.7635652  18.5585892
  94.1942291  74.5276106  19.1759287  97.5396476  61.7025952  30.3448841
  98.2806190  62.3033105  30.2653304  97.7714399  60.9603589  29.7866884
  92.6837814  66.8882319  28.6227071  92.5691329  65.9867576  28.9234170
  91.8282332  67.1346016  28.2711887  99.7629652  74.8300059  30.2214571
  99.3193506  74.0436438  29.9035476 100.4246866  75.0179210  29.5558462
  94.5216773  76.3595861  24.7475250  95.0724198  76.2312924  23.9752244
  93.6828249  76.6590750  24.3970143 101.8610890  75.1102859  28.2495973
 101.8429365  75.9311740  27.7576242 102.7830810  74.9856934  28.4746114
  98.3183944  72.6246989  29.0919481  98.8512281  71.8635277  28.8618789
  97.7898025  72.3320640  29.8343636 101.4853639  57.7307055  24.6213123
 101.1417909  58.6208696  24.5452233 101.8532602  57.5408712  23.7582708
  89.5539490  70.0540585  17.4401725  90.3914712  70.4637593  17.2235433
  89.7317757  69.1140027  17.4101919 101.4503922  67.7215666  13.1285558
 100.9350545  68.4920270  13.3673945 101.1781230  67.0480802  13.7518619
  99.0351033  62.5665366  18.1870796  98.1792629  62.1772217  18.0076435
  99.4477985  62.6457327  17.3270582 100.5650180  60.1011710  22.5862356
 100.0614975  60.0641845  21.7730161 100.8580786  61.0104452  22.6459013
  96.8093065  60.1850439  21.5928538  97.6746062  59.9893248  21.2334427
  96.8770574  59.9560791  22.5197895 106.4238196  70.4748020  15.0638731
 105.6467639  70.1359180  14.6193894 107.1029677  70.4800644  14.3893696
 101.2390225  65.5942758  14.9545339 100.9340361  65.9088907  15.8055482
 102.1920667  65.6724178  14.9972672  99.6836657  71.7532981  16.6038293
  99.1558018  71.0185741  16.2911531  99.1824160  72.5307657  16.3578261
 104.6629503  69.9482002  21.7205339 104.0053177  70.6381263  21.8085468
 105.4669902  70.3378434  22.0639326  94.4155384  62.4152647  18.9644905
  94.9899136  62.1927829  18.2318098  95.0026367  62.4841342  19.7173506
 103.4734962  68.3026374  19.7709281 103.9866843  68.9356366  20.2730991
 104.1236186  67.7027570  19.4052641  94.7424972  64.4457108  12.9840790
  93.9062284  64.7831795  13.3050065  94.6029741  64.3106088  12.0467927
  96.7178052  59.2893896  17.6919974  96.0642465  58.9742913  17.0676589
  96.6758526  58.6669637  18.4179797  97.8289257  69.5713191   9.6073266
  96.9216319  69.3402445   9.8064415  98.3260289  68.7750811   9.7947248
  99.9515793  65.7775830  22.0167622  99.0338354  65.9990777  21.8589310
 100.3675936  65.8522140  21.1579329 100.7350840  67.1767246  17.1470302
 101.4822659  67.6888643  16.8377424 101.0042430  66.8551298  18.0074696
  99.0077491  69.6725786  14.1297256  98.0988710  69.3884819  14.2269726
  99.0372574  70.0924865  13.2700563 104.2396758  73.2832376  17.8988424
 103.7859085  72.4423286  17.9553614 103.6090725  73.9193774  18.2363204
 103.1829677  64.2124362  19.1289091 102.4452434  63.7001748  19.4599334
 103.4356451  63.7724743  18.3172368 102.6829697  75.1208872  18.8338242
 102.9752672  75.6813930  18.1150608 103.1928318  75.4137433  19.5891401
 103.2841305  56.9900614  19.7230861 103.5900182  56.1297977  19.4356776
 104.0093910  57.5818234  19.5229854  89.5765661  67.3931300  18.1112458
  89.3790061  66.8000661  17.3863525  89.0212325  67.0883511  18.8288397
  97.5562385  67.2854407  20.2307052  97.6110994  66.3328243  20.1549528
  96.7453587  67.4413846  20.7148350  98.7053578  71.2134530  11.4685335
  98.2673008  70.4970389  11.0090972  99.4464019  71.4410645  10.9070426
  95.4954744  65.9031467  17.9897430  94.6822610  66.2025637  18.3962623
  95.9913739  65.5087155  18.7071913  97.6463322  75.8989224  19.9231695
  97.6039501  76.1250070  18.9940227  98.5626021  75.6652598  20.0717496
 101.0928956  66.3673291  26.8212324 101.4478344  66.5944764  27.6806790
 101.7401087  66.6991668  26.1989580 106.8226693  69.4891727  17.5261653
 106.6844592  69.6793323  16.5982843 106.4662912  70.2511110  17.9829705
  94.9868819  63.4749822  23.6058665  95.6268199  63.3338581  22.9081629
  94.1546350  63.1884336  23.2297267 106.8496073  71.5568254  22.5372925
 107.2832579  71.4643543  23.3855979 107.5627653  71.5325754  21.8992941
  95.7629123  72.7752253  19.7193658  96.5569722  72.2802573  19.5176233
  95.0520816  72.2470116  19.3561363 100.5823968  75.1570348  24.0706025
 100.6360990  75.7261284  24.8383741  99.7138749  75.3272233  23.7060063
  92.0711887  66.9195334  15.7953411  91.1409475  66.8579790  16.0123373
  92.1669359  66.3971287  14.9990052  91.9897436  63.4450147  18.3831652
  92.2504253  64.3595480  18.2740813  92.8114608  62.9774590  18.5328265
  93.4622361  64.8587904  25.5530477  94.1345414  64.6505266  24.9043126
  92.6352148  64.6609990  25.1135709 107.7111622  71.5991955  25.0705810
 107.9047512  72.5037765  25.3165085 107.6112240  71.1399374  25.9044395
  99.3647933  61.4849845  27.5696138  98.7175848  62.1839795  27.4760614
 100.1348948  61.9185989  27.9372386 102.7726731  71.7498697  30.6446691
 102.6212237  71.5209249  29.7276775 102.7631410  72.7069299  30.6578036
  99.5412067  69.3230610  25.6292957 100.4704127  69.4741770  25.4561925
  99.1203097  69.4114631  24.7741604  98.3400399  73.3481275  23.3991495
  98.2011485  72.9800059  24.2717433  97.5514995  73.8628914  23.2275453
  98.9348551  78.4490371  14.7417031  99.1100307  77.9778414  15.5562654
  98.2481339  79.0756137  14.9698292  99.8905614  72.7262877  20.7880333
  99.5555447  72.6863647  21.6837983  99.3909560  72.0607593  20.3150743
  93.8649858  68.1330507  26.3132914  93.7269656  67.4010746  26.9144453
  94.7754782  68.0439407  26.0317102 102.8264806  70.0718912  11.0617392
 102.2093977  69.3465740  10.9650445 102.3581294  70.8328272  10.7184467
  96.4932159  67.8450467  25.8016594  97.2031777  67.2043659  25.7603212
  96.4501467  68.0963361  26.7242774 104.4818938  74.7817820  28.7223173
 104.4231484  74.0977040  28.0553756 104.8838456  75.5236810  28.2703799
  95.2061093  64.8315684  27.6212233  94.6698450  64.3806423  28.2733829
  94.6177801  64.9661593  26.8782697  93.5009636  81.5979734  21.5156892
  93.7406235  82.2298258  22.1935910  92.6578833  81.2467774  21.8022251
  94.6163352  64.2904336  10.1838697  93.7392818  64.1693137   9.8200943
  95.0921105  63.4990414   9.9317585 104.4836345  72.7457404  26.9537152
 103.5963124  72.4083326  27.0763551 105.0534896  72.0140435  27.1905918
  86.1365492  69.0781496  20.2780204  86.8236532  68.7643226  19.6901219
  85.9813621  69.9822860  20.0047455  90.9400214  63.9671692  24.7065228
  90.8558403  63.3597362  23.9715637  90.1182921  64.4580710  24.7074724
  98.0137498  77.4058856  23.9198396  97.9407670  78.2113828  24.4317700
  97.5714891  77.6050822  23.0946417  97.8027278  76.6430626  17.4301217
  97.0194800  77.1852306  17.5239442  98.5020023  77.1604606  17.8295458
 101.1123928  62.4525256  20.0735423 101.6092628  61.6995218  19.7536493
 100.3410909  62.4889572  19.5078632 108.9653685  68.1565621  21.7153714
 108.9543562  69.0390337  21.3447647 108.0971065  67.8037172  21.5208251
 100.4736182  77.3045690  26.0756554 101.1864154  77.9393155  26.0032456
  99.9826210  77.4009556  25.2596556 102.1953709  71.2096943  17.6473846
 101.2609987  71.3298405  17.4778550 102.3730377  70.3069410  17.3833856
  97.6958897  64.5942639  19.8007107  97.3256684  64.0413679  20.4888013
  98.1917989  63.9900772  19.2482107 105.5826260  67.0514262  18.1823880
 106.0486712  67.8842254  18.1084183 106.0333761  66.5859244  18.8869139
  95.5248095  75.0540134  26.8962125  96.2257555  75.6876617  27.0491519
  95.0543210  75.3954865  26.1357764 103.6502491  73.3958083  15.1810032
 103.9262335  73.2814678  16.0903906 102.7806990  72.9975568  15.1422205
 103.5542923  59.4194849  22.2214781 102.6406003  59.6499076  22.3896988
 103.9836024  59.5033293  23.0728814 103.3249381  67.6084741  24.7214675
 102.6720832  67.8560649  24.0667128 103.7029761  66.7948879  24.3877153
 100.2856555  77.6444434  18.8242846 100.4678950  76.8266090  19.2870598
 101.1089541  77.8612127  18.3867736 100.6198721  76.5712619  16.0857894
 101.1486487  76.0605074  15.4728056 100.8826940  76.2555150  16.9503427
  99.3736954  68.3504552  31.2080713  98.6977591  68.2498682  31.8783088
 100.1964588  68.1943766  31.6716710  91.1215813  74.5876489  23.8293228
  91.7069250  73.8420177  23.9621132  90.9240652  74.8980445  24.7129892
  93.9754469  77.6227736  18.8455670  93.3064844  78.1073864  18.3619710
  93.8367338  77.8696957  19.7599049  85.7133468  67.1582089  22.5497671
  85.7517568  66.6245680  23.3434789  85.2073761  66.6317294  21.9308648
  98.1159737  79.6571480  25.4438329  98.6678045  79.8203101  26.2087414
  98.4565931  80.2475917  24.7718353  93.0924230  62.0046629  26.0460213
  93.1565557  62.8661460  25.6337611  93.0291351  61.3920631  25.3132572
  92.5676503  64.0769762  29.6933248  93.1948542  63.6946839  30.3070772
  91.7104422  63.8583964  30.0588940 102.9670611  74.4832737  31.2986983
 103.5110515  75.0962695  30.8041938 102.3857456  75.0412316  31.8153996
  89.3442046  65.8846191  15.6251602  89.6395487  64.9756870  15.5718656
  88.4430081  65.8633931  15.3032605 101.2528124  77.6053455  22.4302011
 101.1279264  76.8043195  21.9212956 101.9107216  78.0999649  21.9415981
  92.8736293  63.9602188  21.6079151  92.1522878  64.5738155  21.4686624
  93.6629548  64.4959953  21.5295797 103.3163033  75.4062475  24.0581561
 102.3693368  75.2867826  23.9859888 103.6645806  74.5184973  24.1407822
  95.6762606  61.2956614  27.8819803  96.1997008  61.5418911  28.6446112
  95.4574939  62.1276649  27.4622940  91.0729887  63.5660289  15.7490927
  90.7442593  62.6857668  15.5666033  91.4269258  63.5107957  16.6367317
 100.3209466  75.2015191  20.2585913 100.1734429  74.2731899  20.4393483
 101.1462960  75.2235282  19.7742988  94.1871710  63.8533259  16.1166405
  94.5267783  64.3819180  15.3945014  94.6343831  64.1913665  16.8924972
 103.9243588  76.0243750  21.3450786 104.8490135  75.8186612  21.2075237
 103.7558891  75.7760151  22.2540127  96.8815151  62.2370309  25.5669473
  96.5411972  61.4378122  25.9690153  96.1754158  62.5372020  24.9946306
  97.5331623  59.3219622  24.0196796  98.3557692  58.8480100  23.8975687
  97.7769687  60.1010105  24.5195483  96.1739858  62.3507880  14.3159698
  96.8948220  62.7289133  13.8123415  95.5505162  63.0696757  14.4194676
 100.3170980  63.0553029  15.2518030 100.5334595  63.9377667  14.9506858
  99.8365048  62.6639243  14.5223672  95.0570202  66.0138742  21.8288775
  94.9114783  66.3279045  22.7213056  94.5795405  66.6323643  21.2759674
  96.9166585  63.0041290  21.8769664  96.9028153  62.1082384  21.5401962
  97.6339013  63.0111954  22.5107950  98.7692715  63.4378631  23.9222792
  98.5110493  64.3595701  23.9207122  98.2377756  63.0409065  24.6123256
 103.7138904  76.5429418  16.7012877 103.8875782  75.9775840  15.9486730
 104.2067795  77.3430313  16.5192367  89.5315864  68.5544087  24.7676436
  88.9869332  69.3303895  24.8996710  90.4095214  68.9014891  24.6095557
  96.3203481  61.8855671  17.1457235  96.4419392  60.9572317  17.3448122
  96.0305523  61.8994357  16.2335550  99.1894671  59.5710581  20.2823954
  99.2116368  59.6349914  19.3275934  99.6062730  58.7315090  20.4764461
 109.5678295  69.3065841  18.3203177 110.0109441  68.5573166  17.9222300
 108.6904806  69.2975977  17.9376909 104.7014077  75.8596182  13.8009776
 105.3964981  76.4802875  14.0197090 105.0437227  75.0091533  14.0762153
  90.3181886  67.6813983  27.6606593  89.5763622  67.8296618  28.2471223
  89.9974630  67.9422249  26.7973342 106.6005500  73.3095888  15.3297106
 107.1256824  73.6483160  14.6046426 106.5127852  72.3742903  15.1460241
  98.2625548  77.2229961  27.4586983  98.5712675  76.9779108  28.3309683
  99.0601031  77.4276600  26.9705853  98.2846161  79.3767871  19.6892359
  97.8451151  78.8844250  20.3825216  99.0354277  78.8340839  19.4484435
  90.7638500  75.5679412  19.6916988  91.5896519  75.2683184  19.3115631
  90.4132552  74.7987034  20.1406776  95.7320033  74.9205880  21.7614661
  95.1100042  74.2576585  21.4616889  96.4024900  74.9467012  21.0788309
  88.9647105  73.4865738  20.6505921  88.1279013  73.0587913  20.4689922
  88.9370750  73.6798182  21.5876712  95.8044560  63.3987668  31.3547167
  95.8532716  64.2749791  30.9724937  96.3467074  62.8565061  30.7818810
 106.2899406  73.9428791  30.6348304 105.4994950  73.9252930  30.0952804
 106.0532760  74.4817085  31.3897341 106.4097281  70.7921258  27.9481033
 106.4595286  70.6271265  28.8896556 106.3011204  69.9248517  27.5578914
  95.2933540  73.4709803  15.2373122  95.4421660  74.1545268  14.5839794
  96.0999983  73.4514893  15.7522577 103.7001043  66.7752186  29.2640339
 104.6010906  66.6358650  28.9724337 103.7749018  66.9406640  30.2038517
  98.0343849  64.1519040  28.1093526  97.1647158  64.4452606  27.8376114
  98.2703329  64.7359485  28.8300789 107.9115478  73.2118199  28.1923054
 107.6200286  73.5748180  29.0286515 107.2987609  72.4985207  28.0136386
 109.1111160  70.7771079  20.7125625 109.9458051  71.2160883  20.8763185
 109.2470289  70.3009732  19.8933870 106.1602666  68.3350814  26.6603112
 106.6356788  68.5278460  25.8521964 105.2368231  68.3910000  26.4146496
  93.0486173  69.4974981  16.2434191  92.8032215  68.5937311  16.4414401
  93.2182087  69.4992131  15.3013669 100.7382882  60.3698657  25.6258946
 101.2564826  61.1059684  25.3005435 100.3838015  60.6762651  26.4605705
  92.3181820  65.2303339  13.7420352  91.6251065  65.3047694  13.0860388
  92.0733572  64.4663682  14.2641869 100.9895477  56.7898940  21.1459843
 101.2697230  56.1222129  21.7720269 101.7746084  56.9828035  20.6334507
  98.7928945  75.9657934  12.7084869  98.2202912  76.5848121  12.2555341
  99.3661739  76.5157295  13.2424791 104.8604335  65.2116574  24.8931418
 105.8121758  65.3114672  24.9143642 104.6907785  64.4194842  25.4029502
 102.8818714  62.2972157  25.0790819 102.2868647  62.5777170  24.3837307
 102.5968411  62.7866058  25.8507560 102.0126205  76.2495084  13.8393451
 102.9456878  76.1840646  14.0426327 101.9249418  77.0851351  13.3807984
 107.3392413  68.4322694  24.0073718 107.3068733  67.4938694  24.1933401
 107.9493036  68.5106730  23.2739542  99.1775744  67.3018747  10.0500922
 100.1234848  67.1724955  10.1189340  98.7989989  66.5633408  10.5270350
 107.4886901  65.2233737  24.0532001 106.9725950  64.4392194  23.8661930
 108.3726850  64.8952454  24.2178520 105.1497628  58.9674753  20.0127813
 104.9522449  58.6589841  20.8971145 105.7597334  59.6936391  20.1425743
 113.1568963  69.4938700  23.1479754 113.8872351  69.2323989  23.7087458
 112.5475908  68.7567422  23.1881822 111.2384260  67.6346563  23.7454206
 110.5117423  67.5002528  23.1370697 110.8231547  67.9423392  24.5510924
  99.0614436  71.3536493  31.5101579  99.9817446  71.5315092  31.7041625
  99.0264019  70.4092538  31.3581278  97.3618661  65.2268723   9.9855807
  96.4550116  64.9301836  10.0618520  97.6394642  64.9298541   9.1190093
  88.2796601  66.5475086  20.4354853  87.9599386  65.6940394  20.1429227
  87.7330029  66.7623664  21.1912821  92.0576509  69.2637527  24.1524360
  92.2762518  70.1954635  24.1712394  92.4702283  68.9045502  24.9379164
  98.9780727  59.7705613  16.1400048  98.1681455  59.4252698  16.5155294
  99.6665143  59.4613156  16.7287660 100.9071275  58.8483659  17.7624345
 101.4602313  59.2679113  18.4214368 101.1441361  57.9219408  17.8047301
  96.9304374  64.8370733  33.5427109  96.8301101  65.7865090  33.4739200
  96.7125916  64.5088972  32.6703179  96.1317445  62.0855658  10.1267786
  96.9936609  62.4110556  10.3863603  96.3167790  61.2987154   9.6140852
  88.1484861  70.1677998  22.4047975  87.4548333  69.7531951  21.8917929
  88.8957852  70.2098534  21.8081394 104.2850082  60.9584185  17.2703009
 103.7048751  61.6168989  16.8881061 104.0186015  60.1361529  16.8590427
 102.7353648  60.3589242  19.4724329 103.2353427  60.4705777  18.6638648
 103.3789256  60.0550295  20.1125138  96.7935644  68.2667872  32.3592170
  96.3102726  69.0668232  32.5656059  96.8796583  68.2775817  31.4059614
  90.0621604  70.0996252  20.2813990  90.0392292  70.1983939  19.3295873
  90.3722240  70.9461402  20.6031156  92.7208982  72.1572407  24.3960604
  93.6752235  72.1256349  24.3290536  92.5221505  71.6963030  25.2110830
  93.3108364  70.7273523  26.9631402  94.1301253  71.2217601  26.9866239
  93.5845171  69.8105491  26.9348969 103.0674960  63.1184275  16.3259357
 102.1800815  63.4033926  16.1079552 103.4828949  62.9578038  15.4786634
 106.4189496  63.1430796  20.0413697 107.1949886  63.6327248  20.3138313
 105.6937630  63.5688850  20.4985566 108.8562055  63.8558415  21.0987637
 109.4506545  63.6154151  20.3880945 108.9288638  63.1365546  21.7261173
  91.0759210  77.6992026  21.4130802  90.9413678  76.9392427  20.8468800
  90.6591273  78.4232926  20.9459591 103.0415984  68.6338811  16.5409647
 102.9851185  69.0907362  15.7017280 103.5944326  67.8729495  16.3632490
 106.8520790  64.4228543  17.3659767 106.5957724  64.0225178  18.1967975
 106.2273658  65.1372337  17.2409906 111.1633127  67.1624616  19.8731058
 110.6032685  67.2317805  20.6462620 110.5576631  66.9865601  19.1530555
  94.2328336  78.5961343  21.6249245  94.1160720  79.5406776  21.5227935
  93.4120782  78.2934905  22.0135044 104.1204871  73.3211479  12.4705837
 104.9550475  72.8892677  12.2883312 103.9589214  73.1493493  13.3982732
 103.7750763  69.8243592  13.8362177 103.7199567  69.6587864  12.8950621
 103.1496818  70.5319625  13.9924366  88.5643278  65.0611657  27.6623599
  89.2102142  64.5510610  28.1510824  88.3560429  65.7980338  28.2367024
 101.0896670  72.1292504  33.1615739 101.9587830  72.3033156  32.8002374
 100.6103422  72.9486921  33.0391469  97.0846888  59.3251701  13.4147495
  97.0725558  60.2693541  13.5715766  97.9770310  59.1421847  13.1206956
  95.2582850  79.2489605  24.8405173  96.1610097  79.2813215  25.1571668
  95.0320220  78.3190056  24.8551509  97.0136452  78.0020592  21.5015252
  96.0632083  78.0022453  21.3879624  97.3168939  77.2553326  20.9851286
 100.8999008  55.9194478  17.6693432 100.1331404  55.3652964  17.8150114
 101.3109713  55.9916347  18.5307583  92.9040769  62.2079274  31.7598613
  93.7672230  61.8516078  31.9701938  92.3306180  61.8693168  32.4474017
 112.7489146  83.8381130  22.5661014 113.3867556  83.7187877  21.8624354
 112.6309989  84.7861974  22.6248966 109.5578852  83.7908558  22.5022539
 109.2197364  83.6749623  21.6143074 110.4268620  83.3899723  22.4823545
 110.0398635  84.9443410  28.4608744 110.0287276  84.5496208  27.5889248
 110.2019275  84.2109482  29.0542516 102.9630100  87.1395226  21.3303650
 103.7551392  86.7986051  20.9149949 103.2026750  87.2490201  22.2505803
 106.7605896  87.7280522  27.4087928 106.4695762  88.6326152  27.2934595
 107.3962881  87.7697049  28.1231998 107.6862103  85.1057370  23.9989288
 108.2825675  84.8813392  23.2846251 107.7437075  84.3642116  24.6014736
 115.2264262  75.2129391  25.0041809 114.8947587  76.0824802  24.7803024
 114.6309875  74.8965675  25.6835840 111.7195781  87.4141937  24.4037722
 111.4196504  88.3166976  24.2953529 111.3746841  87.1474120  25.2558875
 105.1708263  83.8655734  20.4374426 104.2458759  83.7331948  20.6452118
 105.4192676  84.6449953  20.9344369 115.1192925  79.9324477  22.0835159
 114.2109802  79.8639886  21.7893920 115.0680521  80.4096422  22.9116985
 102.5317074  83.5089007  21.2718215 102.6609455  83.7623486  22.1857627
 101.8514525  84.1016715  20.9522871 109.1933791  81.3514123  30.0270057
 108.4167125  81.9108043  30.0172921 109.8324354  81.8370906  30.5484927
 116.9854572  78.1340916  23.8613033 116.3428952  78.4273449  23.2152828
 116.4809500  78.0193836  24.6666230 107.4480163  84.1599576  29.5888024
 108.1894848  84.6984620  29.3122847 106.7417149  84.7865865  29.7459575
 112.9235503  86.3028717  28.1860185 113.3318859  85.8611127  27.4414817
 112.2012764  85.7281344  28.4394378 109.2766573  81.2401323  25.5593742
 110.1227768  81.6640737  25.7028391 109.2165211  80.5834948  26.2532305
 112.4266018  78.9005692  27.2174916 112.1826950  79.6547752  26.6809191
 112.7025949  79.2791039  28.0522163 114.3804481  85.4444304  25.8952181
 114.5921376  86.0876064  25.2186562 114.3334229  84.6106621  25.4274111
 111.9830710  78.0562125  22.7988753 111.1215189  78.3543378  23.0905491
 112.0093145  78.2732524  21.8669786 105.6916360  86.1475797  22.1442322
 106.2617718  86.5763065  21.5059807 106.2824472  85.8658382  22.8426508
 106.1841527  81.3139224  30.3903334 105.5540188  81.9955505  30.6238730
 106.0777615  81.2022306  29.4456472 101.4786499  80.9811020  21.3169258
 100.6885553  81.2368549  20.8409368 101.9697747  81.7959358  21.4221298
 103.4301245  81.3455600  18.2752734 102.6332408  81.4574294  18.7936230
 103.2026837  81.6842252  17.4093625 109.2606912  87.8700303  26.2235249
 109.3251345  88.3320710  27.0593421 108.5517836  87.2397668  26.3517559
  99.7624202  81.2341511  23.7484249 100.0132241  82.1188521  24.0141824
 100.2983751  81.0546112  22.9759340 105.4622270  75.6159990  32.7528585
 105.0689215  75.0626189  33.4276229 106.2788410  75.9270569  33.1435102
 108.3790231  77.0317869  30.3448841 109.1199944  77.6325022  30.2653304
 108.6108154  76.2895507  29.7866884 103.5231569  82.2174237  28.6227071
 103.4085084  81.3159494  28.9234170 102.6676086  82.4637933  28.2711887
 110.6023406  90.1591977  30.2214571 110.1587261  89.3728355  29.9035476
 111.2640620  90.3471127  29.5558462 105.3610528  91.6887778  24.7475250
 105.9117953  91.5604842  23.9752244 104.5222004  91.9882668  24.3970143
 112.7004645  90.4394777  28.2495973 112.6823120  91.2603658  27.7576242
 113.6224565  90.3148852  28.4746114 109.1577699  87.9538906  29.0919481
 109.6906035  87.1927194  28.8618789 108.6291780  87.6612558  29.8343636
 112.3247394  73.0598972  24.6213123 111.9811663  73.9500614  24.5452233
 112.6926356  72.8700630  23.7582708 109.8744787  77.8957284  18.1870796
 109.0186384  77.5064135  18.0076435 110.2871739  77.9749245  17.3270582
 111.4043934  75.4303627  22.5862356 110.9008730  75.3933763  21.7730161
 111.6974541  76.3396370  22.6459013 107.6486820  75.5142357  21.5928538
 108.5139817  75.3185166  21.2334427 107.7164329  75.2852709  22.5197895
 105.2549139  77.7444565  18.9644905 105.8292891  77.5219747  18.2318098
 105.8420121  77.8133260  19.7173506 107.5571807  74.6185814  17.6919974
 106.9036219  74.3034831  17.0676589 107.5152281  73.9961554  18.4179797
 110.7909547  81.1067748  22.0167622 109.8732108  81.3282695  21.8589310
 111.2069691  81.1814058  21.1579329 114.1235059  72.3192531  19.7230861
 114.4293936  71.4589895  19.4356776 114.8487664  72.9110152  19.5229854
 100.4159415  82.7223218  18.1112458 100.2183815  82.1292579  17.3863525
  99.8606079  82.4175428  18.8288397 108.3956139  82.6146325  20.2307052
 108.4504749  81.6620161  20.1549528 107.5847341  82.7705764  20.7148350
 106.3348499  81.2323384  17.9897430 105.5216364  81.5317555  18.3962623
 106.8307493  80.8379073  18.7071913 111.9322711  81.6965209  26.8212324
 112.2872098  81.9236682  27.6806790 112.5794842  82.0283586  26.1989580
 105.8262574  78.8041740  23.6058665 106.4661953  78.6630499  22.9081629
 104.9940104  78.5176253  23.2297267 102.8291190  78.7742065  18.3831652
 103.0898007  79.6887398  18.2740813 103.6508362  78.3066507  18.5328265
 104.3016115  80.1879822  25.5530477 104.9739169  79.9797184  24.9043126
 103.4745902  79.9901908  25.1135709 110.2041687  76.8141763  27.5696138
 109.5569603  77.5131713  27.4760614 110.9742703  77.2477907  27.9372386
 113.6120485  87.0790615  30.6446691 113.4605992  86.8501167  29.7276775
 113.6025165  88.0361216  30.6578036 110.3805822  84.6522528  25.6292957
 111.3097882  84.8033687  25.4561925 109.9596852  84.7406549  24.7741604
 109.1794154  88.6773192  23.3991495 109.0405239  88.3091977  24.2717433
 108.3908750  89.1920832  23.2275453 104.7043613  83.4622425  26.3132914
 104.5663411  82.7302664  26.9144453 105.6148536  83.3731325  26.0317102
 107.3325913  83.1742384  25.8016594 108.0425532  82.5335576  25.7603212
 107.2895222  83.4255279  26.7242774 115.3212692  90.1109738  28.7223173
 115.2625238  89.4268958  28.0553756 115.7232210  90.8528728  28.2703799
 106.0454847  80.1607602  27.6212233 105.5092204  79.7098341  28.2733829
 105.4571556  80.2953511  26.8782697 115.3230099  88.0749322  26.9537152
 114.4356878  87.7375243  27.0763551 115.8928650  87.3432353  27.1905918
  96.9759246  84.4073413  20.2780204  97.6630286  84.0935143  19.6901219
  96.8207375  85.3114778  20.0047455 101.7793969  79.2963610  24.7065228
 101.6952157  78.6889279  23.9715637 100.9576675  79.7872628  24.7074724
 111.9517682  77.7817173  20.0735423 112.4486382  77.0287136  19.7536493
 111.1804664  77.8181490  19.5078632 108.5352651  79.9234556  19.8007107
 108.1650439  79.3705597  20.4888013 109.0311744  79.3192690  19.2482107
 106.3641850  90.3832051  26.8962125 107.0651309  91.0168534  27.0491519
 105.8936965  90.7246783  26.1357764 114.3936677  74.7486767  22.2214781
 113.4799757  74.9790994  22.3896988 114.8229779  74.8325211  23.0728814
 114.1643136  82.9376659  24.7214675 113.5114586  83.1852566  24.0667128
 114.5423516  82.1240797  24.3877153 110.2130709  83.6796470  31.2080713
 109.5371346  83.5790599  31.8783088 111.0358343  83.5235684  31.6716710
 101.9609568  89.9168406  23.8293228 102.5463005  89.1712094  23.9621132
 101.7634406  90.2272363  24.7129892  96.5527223  82.4874007  22.5497671
  96.5911322  81.9537597  23.3434789  96.0467515  81.9609212  21.9308648
 103.9317985  77.3338547  26.0460213 103.9959311  78.1953378  25.6337611
 103.8685105  76.7212549  25.3132572 103.4070257  79.4061680  29.6933248
 104.0342296  79.0238757  30.3070772 102.5498176  79.1875882  30.0588940
 113.8064366  89.8124655  31.2986983 114.3504270  90.4254613  30.8041938
 113.2251211  90.3704233  31.8153996 100.1835800  81.2138109  15.6251602
 100.4789241  80.3048787  15.5718656  99.2823836  81.1925848  15.3032605
 103.7130047  79.2894105  21.6079151 102.9916633  79.9030073  21.4686624
 104.5023303  79.8251870  21.5295797 106.5156361  76.6248532  27.8819803
 107.0390763  76.8710828  28.6446112 106.2968694  77.4568567  27.4622940
 101.9123642  78.8952206  15.7490927 101.5836348  78.0149585  15.5666033
 102.2663012  78.8399875  16.6367317 107.7208906  77.5662227  25.5669473
 107.3805726  76.7670040  25.9690153 107.0147912  77.8663938  24.9946306
 108.3725378  74.6511539  24.0196796 109.1951447  74.1772018  23.8975687
 108.6163441  75.4302023  24.5195483 105.8963956  81.3430660  21.8288775
 105.7508537  81.6570963  22.7213056 105.4189160  81.9615560  21.2759674
 107.7560339  78.3333208  21.8769664 107.7421908  77.4374301  21.5401962
 108.4732767  78.3403872  22.5107950 109.6086470  78.7670548  23.9222792
 109.3504248  79.6887619  23.9207122 109.0771510  78.3700983  24.6123256
 100.3709618  83.8836004  24.7676436  99.8263087  84.6595812  24.8996710
 101.2488968  84.2306809  24.6095557 107.1597235  77.2147588  17.1457235
 107.2813146  76.2864234  17.3448122 106.8699277  77.2286274  16.2335550
 110.0288426  74.9002499  20.2823954 110.0510122  74.9641832  19.3275934
 110.4456485  74.0607007  20.4764461 101.1575640  83.0105901  27.6606593
 100.4157376  83.1588536  28.2471223 100.8368385  83.2714166  26.7973342
 109.1019303  92.5521879  27.4586983 109.4106429  92.3071026  28.3309683
 109.8994785  92.7568517  26.9705853  99.8040859  88.8157656  20.6505921
  98.9672767  88.3879830  20.4689922  99.7764504  89.0090099  21.5876712
 106.6438315  78.7279586  31.3547167 106.6926470  79.6041708  30.9724937
 107.1860829  78.1856979  30.7818810 117.1293160  89.2720709  30.6348304
 116.3388704  89.2544848  30.0952804 116.8926515  89.8109003  31.3897341
 117.2491035  86.1213175  27.9481033 117.2989040  85.9563183  28.8896556
 117.1404959  85.2540434  27.5578914 114.5394798  82.1044103  29.2640339
 115.4404661  81.9650568  28.9724337 114.6142772  82.2698558  30.2038517
 108.8737603  79.4810958  28.1093526 108.0040913  79.7744524  27.8376114
 109.1097083  80.0651403  28.8300789 118.7509232  88.5410117  28.1923054
 118.4594041  88.9040097  29.0286515 118.1381364  87.8277125  28.0136386
 116.9996420  83.6642731  26.6603112 117.4750542  83.8570378  25.8521964
 116.0761986  83.7201917  26.4146496 111.5776637  75.6990575  25.6258946
 112.0958581  76.4351602  25.3005435 111.2231770  76.0054568  26.4605705
 111.8289231  72.1190858  21.1459843 112.1090985  71.4514047  21.7720269
 112.6139838  72.3119953  20.6334507 115.6998089  80.5408492  24.8931418
 116.6515512  80.6406589  24.9143642 115.5301540  79.7486760  25.4029502
 113.7212469  77.6264075  25.0790819 113.1262401  77.9069087  24.3837307
 113.4362166  78.1157976  25.8507560 118.3280656  80.5525655  24.0532001
 117.8119704  79.7684111  23.8661930 119.2120604  80.2244371  24.2178520
 115.9891383  74.2966670  20.0127813 115.7916204  73.9881758  20.8971145
 116.5991088  75.0228309  20.1425743 109.9008191  86.6828410  31.5101579
 110.8211200  86.8607009  31.7041625 109.8657774  85.7384456  31.3581278
  99.1190356  81.8767004  20.4354853  98.7993140  81.0232312  20.1429227
  98.5723784  82.0915582  21.1912821 102.8970263  84.5929445  24.1524360
 103.1156273  85.5246553  24.1712394 103.3096037  84.2337419  24.9379164
 109.8174481  75.0997530  16.1400048 109.0075209  74.7544615  16.5155294
 110.5058898  74.7905074  16.7287660 111.7465029  74.1775577  17.7624345
 112.2996068  74.5971031  18.4214368 111.9835116  73.2511325  17.8047301
 107.7698129  80.1662651  33.5427109 107.6694855  81.1157008  33.4739200
 107.5519671  79.8380890  32.6703179  98.9878616  85.4969915  22.4047975
  98.2942087  85.0823868  21.8917929  99.7351607  85.5390452  21.8081394
 113.5747403  75.6881160  19.4724329 114.0747181  75.7997694  18.6638648
 114.2183011  75.3842213  20.1125138 107.6329399  83.5959790  32.3592170
 107.1496480  84.3960150  32.5656059 107.7190338  83.6067734  31.4059614
 100.9015358  85.4288169  20.2813990 100.8786046  85.5275857  19.3295873
 101.2115995  86.2753320  20.6031156 103.5602736  87.4864324  24.3960604
 104.5145990  87.4548267  24.3290536 103.3615260  87.0254948  25.2110830
 104.1502118  86.0565440  26.9631402 104.9695007  86.5509519  26.9866239
 104.4238926  85.1397408  26.9348969  99.4037032  80.3903574  27.6623599
 100.0495896  79.8802528  28.1510824  99.1954184  81.1272256  28.2367024
 111.9290425  87.4584422  33.1615739 112.7981584  87.6325074  32.8002374
 111.4497176  88.2778839  33.0391469 106.0976605  94.5781523  24.8405173
 107.0003852  94.6105133  25.1571668 105.8713975  93.6481974  24.8551509
 111.7392762  71.2486395  17.6693432 110.9725158  70.6944882  17.8150114
 112.1503467  71.3208264  18.5307583 103.7434523  77.5371191  31.7598613
 104.6065985  77.1807996  31.9701938 103.1699934  77.1985086  32.4474017
 116.3016024  90.9451908  32.7528585 115.9082970  90.3918106  33.4276229
 117.1182165  91.2562486  33.1435102 119.2183985  92.3609787  30.3448841
 119.9593699  92.9616940  30.2653304 119.4501908  91.6187425  29.7866884
 114.2464012  94.7353597  29.6933248 114.8736051  94.3530675  30.3070772
 113.3891931  94.5167799  30.0588940 117.4832069  94.0571503  31.3547167
 117.5320225  94.9333626  30.9724937 118.0254583  93.5148896  30.7818810
 118.6091883  95.4954568  33.5427109 118.5088610  96.4448925  33.4739200
 118.3913425  95.1672807  32.6703179 110.2430787  95.7195492  27.6623599
 110.8889651  95.2094446  28.1510824 110.0347938  96.4564174  28.2367024
 114.5828278  92.8663109  31.7598613 115.4459739  92.5099914  31.9701938
 114.0093689  92.5277004  32.4474017  71.9637675   5.8004189  15.4468479
  71.9050222   5.1163410  14.7799062  72.3657194   6.5423179  14.9949105
  70.4489349   5.5019107  18.0232290  70.9929253   6.1149065  17.5287244
  69.8676194   6.0598685  18.5399303  73.7718144   4.9615161  17.3593611
  72.9813687   4.9439300  16.8198110  73.5351498   5.5003454  18.1142647
  75.3934216   4.2304569  14.9168361  75.1019024   4.5934549  15.7531822
  74.7806347   3.5171577  14.7381693  68.5715408   3.1478874  19.8861046
  69.4406568   3.3219526  19.5247681  68.0922159   3.9673290  19.7636775
  80.2307884  14.8567500   9.2906321  80.8686294  14.7374247   8.5869661
  80.1128727  15.8048343   9.3494273  77.0397590  14.8094928   9.2267845
  76.7016101  14.6935992   8.3388380  77.9087358  14.4086093   9.2068852
  77.5217373  15.9629779  15.1854051  77.5106014  15.5682578  14.3134555
  77.6838012  15.2295852  15.7787822  70.4448838  18.1581596   8.0548957
  71.2370129  17.8172420   7.6395256  70.6845488  18.2676571   8.9751110
  74.2424634  18.7466891  14.1333235  73.9514500  19.6512522  14.0179901
  74.8781618  18.7883419  14.8477304  75.1680841  16.1243740  10.7234595
  75.7644413  15.8999762  10.0091557  75.2255812  15.3828485  11.3260042
  82.7083000   6.2315761  11.7287116  82.3766324   7.1011172  11.5048331
  82.1128613   5.9152045  12.4081146  79.2014519  18.4328307  11.1283029
  78.9015242  19.3353345  11.0198836  78.8565579  18.1660490  11.9804181
  82.6011663  10.9510847   8.8080466  81.6928540  10.8826255   8.5139227
  82.5499259  11.4282792   9.6362291  74.1835299  25.1972627   4.0953996
  74.1059329  26.1480452   4.1742477  73.5796943  24.8518499   4.7528923
  76.6752529  12.3700492  16.7515363  75.8985863  12.9294413  16.7418228
  77.3143092  12.8557275  17.2730233  74.9298901  15.1785946  16.3133330
  75.6713585  15.7170990  16.0368154  74.2235886  15.8052235  16.4704882
  80.4054241  17.3215086  14.9105492  80.8137597  16.8797497  14.1660124
  79.6831502  16.7467714  15.1639685  76.7585311  12.2587693  12.2839049
  77.6046506  12.6827107  12.4273698  76.6983948  11.6021317  12.9777612
  80.7283055  17.8816277   8.6657781  80.0991918  18.0461991   7.9633848
  80.3408717  18.2957886   9.4368745  84.6072287  18.8170715   6.0202144
  83.9223325  19.1969616   5.4699178  84.6916137  19.4266041   6.7534092
  79.9084756   9.9192061  13.9420222  79.6645688  10.6734122  13.4054498
  80.1844687  10.2977409  14.7767469  81.8623219  16.4630674  12.6197488
  82.0740114  17.1062434  11.9431869  81.8152967  15.6292990  12.1519418
  73.1735098  17.1662167   8.8687629  73.7436455  17.5949435   8.2305113
  73.7643210  16.8844751   9.5671815  73.6660265  12.3325594  17.1148640
  73.0358925  13.0141875  17.3484037  73.5596353  12.2208676  16.1701778
  82.9769047  19.3402629  10.7919845  83.7986490  18.9382816  10.5102527
  82.9731450  19.2370863  11.7435961  76.7425650  18.8886672  12.9480556
  76.8070083  19.3507080  13.7838728  76.0336574  18.2584037  13.0762866
  72.9441007   6.6346360  19.4773891  72.5507953   6.0812558  20.1521535
  73.7607148   6.9456938  19.8680409  71.7197950  21.1895974   5.4710214
  71.8964578  22.1113939   5.2831198  72.5154783  20.8754393   5.9004594
  75.8608968   8.0504239  17.0694148  76.6018682   8.6511392  16.9898610
  76.0926891   7.3081877  16.5112190  71.0050306  13.2360606  15.3472377
  70.8903822  12.3345863  15.6479476  70.1494824  13.4824303  14.9957194
  78.0842144  21.1778346  16.9459878  77.6405998  20.3914725  16.6280783
  78.7459358  21.3657497  16.2803769  72.8429265  22.7074148  11.4720557
  73.3936691  22.5791211  10.6997551  72.0040741  23.0069037  11.1215449
  80.1823382  21.4581146  14.9741279  80.1641858  22.2790027  14.4821549
  81.1043302  21.3335222  15.1991421  76.6396436  18.9725276  15.8164788
  77.1724773  18.2113564  15.5864096  76.1110518  18.6798928  16.5588942
  82.9841995  16.2960289   8.4450646  82.3265670  16.9859550   8.5330775
  83.7882394  16.6856721   8.7884632  78.2728285  12.1254117   8.7412928
  77.3550846  12.3469064   8.5834616  78.6888428  12.2000428   7.8824636
  82.5609250  19.6310663   4.6233730  82.1071577  18.7901573   4.6798921
  81.9303217  20.2672061   4.9608511  81.0042189  21.4687160   5.5583549
  81.2965164  22.0292217   4.8395914  81.5140810  21.7615721   6.3136708
  75.9675815  22.2467511   6.6477002  75.9251993  22.4728357   5.7185534
  76.8838513  22.0130885   6.7962803  79.4141448  12.7151578  13.5457631
  79.7690836  12.9423051  14.4052097  80.0613580  13.0469955  12.9234886
  85.1708565  17.9046541   9.2618232  85.6045072  17.8121830  10.1101286
  85.8840146  17.8804042   8.6238248  78.9036460  21.5048635  10.7951332
  78.9573482  22.0739572  11.5629048  78.0351241  21.6750520  10.4305369
  71.7834853  11.2066192  12.2775783  72.4557907  10.9983554  11.6288432
  70.9564640  11.0088278  11.8381016  86.0324115  17.9470242  11.7951117
  86.2260005  18.8516052  12.0410392  85.9324733  17.4877661  12.6289702
  77.6860425   7.8328132  14.2941444  77.0388340   8.5318082  14.2005921
  78.4561441   8.2664276  14.6617692  81.0939223  18.0976985  17.3691998
  80.9424730  17.8687536  16.4522081  81.0843903  19.0547586  17.3823343
  77.8624560  15.6708897  12.3538264  78.7916620  15.8220057  12.1807231
  77.4415590  15.7592918  11.4986910  76.6612891  19.6959562  10.1236802
  76.5223977  19.3278346  10.9962740  75.8727488  20.2107201   9.9520759
  77.2561043  24.7968658   1.4662338  77.4312799  24.3256701   2.2807961
  76.5693831  25.4234424   1.6943599  78.2118107  19.0741164   7.5125639
  77.8767939  19.0341934   8.4083289  77.7122052  18.4085880   7.0396050
  72.1862351  14.4808794  13.0378221  72.0482148  13.7489033  13.6389760
  73.0967274  14.3917695  12.7562408  74.8144651  14.1928754  12.5261900
  75.5244270  13.5521946  12.4848519  74.7713959  14.4441649  13.4488081
  82.8031430  21.1296107  15.4468479  82.7443976  20.4455327  14.7799062
  83.2050948  21.8715097  14.9949105  73.5273585  11.1793972  14.3457540
  72.9910942  10.7284710  14.9979136  72.9390294  11.3139881  13.6028004
  71.8222129  27.9458021   8.2402198  72.0618727  28.5776545   8.9181217
  70.9791325  27.5946061   8.5267558  82.8048837  19.0935691  13.6782459
  81.9175616  18.7561613  13.8008858  83.3747388  18.3618722  13.9151224
  76.3349991  23.7537143  10.6443702  76.2620162  24.5592115  11.1563007
  75.8927384  23.9529109   9.8191724  76.1239770  22.9908913   4.1546524
  75.3407292  23.5330594   4.2484748  76.8232515  23.5082893   4.5540765
  78.7948674  23.6523977  12.8001861  79.5076646  24.2871442  12.7277762
  78.3038703  23.7487843  11.9841863  73.8460588  21.4018421  13.6207432
  74.5470047  22.0354904  13.7736826  73.3755703  21.7433152  12.8603071
  81.6461874  13.9563028  11.4459982  80.9933324  14.2038936  10.7912435
  82.0242253  13.1427167  11.1122459  78.6069047  23.9922722   5.5488152
  78.7891442  23.1744377   6.0115905  79.4302033  24.2090414   5.1113042
  78.9411213  22.9190907   2.8103201  79.4698979  22.4083361   2.1973363
  79.2039433  22.6033437   3.6748734  77.6949447  14.6982839  17.9326019
  77.0190084  14.5976969  18.6028394  78.5177080  14.5422053  18.3962016
  69.4428306  20.9354776  10.5538534  70.0281742  20.1898464  10.6866439
  69.2453144  21.2458733  11.4375198  72.2966961  23.9706023   5.5700977
  71.6277336  24.4552151   5.0865017  72.1579831  24.2175244   6.4844355
  76.4372229  26.0049767  12.1683635  76.9890537  26.1681388  12.9332720
  76.7778423  26.5954205  11.4963660  70.8888995  10.4248049  16.4178554
  71.5161034  10.0425127  17.0316078  70.0316914  10.2062251  16.7834247
  81.2883104  20.8311024  18.0232290  81.8323008  21.4440983  17.5287244
  80.7069949  21.3890603  18.5399303  79.5740617  23.9531742   9.1547317
  79.4491756  23.1521482   8.6458263  80.2319708  24.4477936   8.6661287
  81.6375525  21.7540763  10.7826867  80.6905861  21.6346114  10.7105194
  81.9858298  20.8663261  10.8653129  73.9975098   7.6434901  14.6065109
  74.5209500   7.8897198  15.3691419  73.7787432   8.4754936  14.1868247
  78.6421958  21.5493479   6.9831220  78.4946921  20.6210186   7.1638790
  79.4675452  21.5713569   6.4988295  82.2456080  22.3722037   8.0696092
  83.1702628  22.1664899   7.9320544  82.0771384  22.1238439   8.9785434
  75.2027644   8.5848597  12.2914780  74.8624464   7.7856410  12.6935460
  74.4966650   8.8850307  11.7191613  77.0905208   9.7856918  10.6468098
  76.8322986  10.7073988  10.6452429  76.5590248   9.3887352  11.3368563
  82.0351396  22.8907705   3.4258184  82.2088274  22.3254127   2.6732036
  82.5280288  23.6908600   3.2437674  67.8528356  14.9022374  11.4921743
  67.3081824  15.6782182  11.6242017  68.7307706  15.2493178  11.3340864
  68.6394378  14.0292270  14.3851900  67.8976114  14.1774906  14.9716530
  68.3187122  14.2900536  13.5218649  76.5838041  23.5708248  14.1832290
  76.8925167  23.3257395  15.0554989  77.3813523  23.7754887  13.6951160
  76.6058653  25.7246158   6.4137666  76.1663643  25.2322537   7.1070523
  77.3566770  25.1819126   6.1729741  69.0850992  21.9157699   6.4162294
  69.9109012  21.6161471   6.0360938  68.7345044  21.1465321   6.8652083
  74.0532525  21.2684167   8.4859968  73.4312534  20.6054872   8.1862196
  74.7237392  21.2945299   7.8033616  74.1257052   9.7465955  18.0792474
  74.1745208  10.6228078  17.6970243  74.6679567   9.2043348  17.5064117
  84.6111898  20.2907078  17.3593611  83.8207442  20.2731217  16.8198110
  84.3745253  20.8295372  18.1142647  84.7309773  17.1399545  14.6726339
  84.7807778  16.9749552  15.6141862  84.6223697  16.2726804  14.2824220
  82.0213536  13.1230473  15.9885646  82.9223398  12.9836938  15.6969644
  82.0961510  13.2884928  16.9283824  76.3556341  10.4997328  14.8338832
  75.4859650  10.7930894  14.5621421  76.5915821  11.0837773  15.5546096
  86.2327970  19.5596486  14.9168361  85.9412778  19.9226467  15.7531822
  85.6200101  18.8463495  14.7381693  84.4815158  14.6829101  13.3848419
  84.9569280  14.8756747  12.5767270  83.5580724  14.7388287  13.1391803
  79.0595375   6.7176945  12.3504253  79.5777319   7.4537971  12.0250741
  78.7050508   7.0240938  13.1851012  83.1816827  11.5594861  11.6176725
  84.1334250  11.6592959  11.6388949  83.0120278  10.7673130  12.1274809
  81.2031207   8.6450444  11.8036125  80.6081139   8.9255457  11.1082614
  80.9180903   9.1344345  12.5752867  85.6604905  14.7800981  10.7319024
  85.6281225  13.8416982  10.9178708  86.2705529  14.8585017   9.9984849
  77.3826928  17.7014780  18.2346885  78.3029938  17.8793379  18.4286932
  77.3476511  16.7570825  18.0826584  70.3789001  15.6115815  10.8769666
  70.5975011  16.5432922  10.8957700  70.7914775  15.2523789  11.6624470
  75.2516866  11.1849020  20.2672415  75.1513593  12.1343377  20.1984506
  75.0338408  10.8567259  19.3948485  75.1148136  14.6146159  19.0837477
  74.6315218  15.4146519  19.2901366  75.2009075  14.6254104  18.1304921
  71.0421474  18.5050694  11.1205911  71.9964727  18.4734636  11.0535842
  70.8433997  18.0441318  11.9356137  71.6320856  17.0751810  13.6876708
  72.4513745  17.5695889  13.7111546  71.9057664  16.1583778  13.6594276
  69.3971703  24.0470313   8.1376109  69.2626171  23.2870714   7.5714107
  68.9803765  24.7711213   7.6704897  72.5540829  24.9439630   8.3494551
  72.4373213  25.8885063   8.2473242  71.7333275  24.6413192   8.7380350
  66.8855770  11.4089944  14.3868905  67.5314634  10.8988898  14.8756131
  66.6772921  12.1458625  14.9612331  79.4109162  18.4770791  19.8861046
  80.2800322  18.6511444  19.5247681  78.9315914  19.2965208  19.7636775
  73.5795343  25.5967892  11.5650480  74.4822589  25.6291503  11.8816975
  73.3532713  24.6668343  11.5796815  75.3348945  24.3498879   8.2260558
  74.3844576  24.3500740   8.1124931  75.6381431  23.6031613   7.7096593
  71.2253261   8.5557561  18.4843920  72.0884723   8.1994366  18.6947244
  70.6518672   8.2171456  19.1719324  91.0701638  30.1859417   9.2906321
  91.7080048  30.0666165   8.5869661  90.9522481  31.1340261   9.3494273
  87.8791344  30.1386845   9.2267845  87.5409856  30.0227910   8.3388380
  88.7481113  29.7378010   9.2068852  83.7378160  31.9922322   5.2164736
  83.1743025  31.9012259   4.4481024  83.6230555  31.1722226   5.6967229
  88.3611127  31.2921697  15.1854051  88.3499768  30.8974495  14.3134555
  88.5231767  30.5587770  15.7787822  81.2842592  33.4873513   8.0548957
  82.0763884  33.1464338   7.6395256  81.5239242  33.5968488   8.9751110
  89.3177719  35.6593289   0.5279201  88.6665699  36.2447370   0.1413215
  90.1122082  36.1899484   0.5874239  83.2433346  32.7482427   0.9266336
  84.0164222  32.2011414   0.7879211  83.5958745  33.6126676   1.1380797
  85.0818389  34.0758809  14.1333235  84.7908255  34.9804440  14.0179901
  85.7175373  34.1175336  14.8477304  86.0074595  31.4535657  10.7234595
  86.6038168  31.2291680  10.0091557  86.0649567  30.7120403  11.3260042
  85.2995913  30.8103199   0.7609160  85.1832171  30.1348102   1.4290245
  85.4098172  30.3235573  -0.0558686  87.6427453  30.2713346   4.4655850
  87.2785661  29.7443967   5.1768771  88.4994569  29.8811815   4.2922335
  93.5476754  21.5607678  11.7287116  93.2160079  22.4303089  11.5048331
  92.9522367  21.2443962  12.4081146  90.0408274  33.7620224  11.1283029
  89.7408997  34.6645263  11.0198836  89.6959333  33.4952408  11.9804181
  83.4920755  30.2134021   7.1619733  82.5671252  30.0810235   7.3697425
  83.7405168  30.9928240   7.6589675  93.4405417  26.2802765   8.8080466
  92.5322295  26.2118173   8.5139227  93.3893013  26.7574709   9.6362291
  80.8529566  29.8567295   7.9963522  80.9821947  30.1101774   8.9102934
  80.1727017  30.4495003   7.6768177  85.0229053  40.5264545   4.0953996
  84.9453083  41.4772370   4.1742477  84.4190697  40.1810417   4.7528923
  87.5146283  27.6992410  16.7515363  86.7379617  28.2586330  16.7418228
  88.1536846  28.1849193  17.2730233  85.7692656  30.5077863  16.3133330
  86.5107340  31.0462907  16.0368154  85.0629641  31.1344152  16.4704882
  91.2447995  32.6507004  14.9105492  91.6531351  32.2089414  14.1660124
  90.5225257  32.0759631  15.1639685  87.5979065  27.5879611  12.2839049
  88.4440260  28.0119024  12.4273698  87.5377703  26.9313235  12.9777612
  91.5676810  33.2108195   8.6657781  90.9385672  33.3753909   7.9633848
  91.1802472  33.6249804   9.4368745  95.4466042  34.1462632   6.0202144
  94.7617080  34.5261534   5.4699178  95.5309891  34.7557959   6.7534092
  90.7478511  25.2483979  13.9420222  90.5039442  26.0026040  13.4054498
  91.0238441  25.6269327  14.7767469  92.7016973  31.7922591  12.6197488
  92.9133869  32.4354351  11.9431869  92.6546722  30.9584908  12.1519418
  90.3043202  24.4040412   9.5234060  89.4427681  24.7021666   9.8150798
  90.3305637  24.6210811   8.5915093  87.1204772  32.9482603   5.9307866
  87.5843117  33.2270306   5.1412488  86.8561570  32.0466047   5.7480956
  84.0128853  32.4954084   8.8687629  84.5830210  32.9241353   8.2305113
  84.6036965  32.2136669   9.5671815  86.0573658  29.0705755   2.7397431
  86.7597701  29.5226799   3.2071357  85.7254286  28.4289574   3.3677324
  84.5054019  27.6617512  17.1148640  83.8752680  28.3433792  17.3484037
  84.3990107  27.5500593  16.1701778  79.7998992  27.3289308   8.0414564
  79.0098046  27.5846836   7.5654675  80.2910239  28.1437646   8.1466605
  93.8162801  34.6694547  10.7919845  94.6380245  34.2674734  10.5102527
  93.8125204  34.5662781  11.7435961  81.7513737  27.6933887   4.9998041
  80.9544900  27.8052581   5.5181537  81.5239329  28.0320539   4.1338932
  87.5819405  34.2178590  12.9480556  87.6463837  34.6798997  13.7838728
  86.8730329  33.5875955  13.0762866  78.0836695  27.5819798  10.4729555
  78.3344733  28.4666808  10.7387131  78.6196243  27.4024400   9.7004647
  87.2967422  35.8846698   2.8159536  87.1613097  36.7298233   3.2444384
  87.8377235  36.0865975   2.0525470  83.7834762  21.9638277  19.4773891
  83.3901708  21.4104476  20.1521535  84.6000902  22.2748856  19.8680409
  80.7496820  33.4022136   3.3887461  81.2621340  34.1965386   3.5393026
  81.4019533  32.7048426   3.3221063  82.5591704  36.5187892   5.4710214
  82.7358333  37.4405857   5.2831198  83.3548538  36.2046311   5.9004594
  86.7002723  23.3796157  17.0694148  87.4412436  23.9803310  16.9898610
  86.9320646  22.6373794  16.5112190  81.8444061  28.5652524  15.3472377
  81.7297576  27.6637781  15.6479476  80.9888579  28.8116221  14.9957194
  88.9235899  36.5070264  16.9459878  88.4799753  35.7206643  16.6280783
  89.5853112  36.6949415  16.2803769  83.6823020  38.0366066  11.4720557
  84.2330445  37.9083129  10.6997551  82.8434496  38.3360955  11.1215449
  91.0217137  36.7873064  14.9741279  91.0035612  37.6081945  14.4821549
  91.9437057  36.6627139  15.1991421  87.4790191  34.3017194  15.8164788
  88.0118528  33.5405482  15.5864096  86.9504272  34.0090845  16.5588942
  78.7145737  31.7310790   4.1647032  79.5520959  32.1407798   3.9480739
  78.8924004  30.7910232   4.1347226  89.7256426  21.7781915   9.3107663
  89.2221222  21.7412050   8.4975468  90.0187033  22.6874657   9.3704319
  85.9699312  21.8620644   8.3173844  86.8352309  21.6663453   7.9579734
  86.0376821  21.6330996   9.2443201  88.8442904  33.4303186   3.3283600
  88.3164265  32.6955946   3.0156837  88.3430406  34.2077862   3.0823568
  93.8235750  31.6252207   8.4450646  93.1659424  32.3151468   8.5330775
  94.6276149  32.0148638   8.7884632  83.5761631  24.0922852   5.6890211
  84.1505383  23.8698034   4.9563404  84.1632614  24.1611547   6.4418813
  89.8963583  39.9580903  -0.7484741  89.2225281  40.2612600  -0.1399783
  90.2829405  40.7609984  -1.0979284  89.1122039  27.4546035   8.7412928
  88.1944601  27.6760982   8.5834616  89.5282183  27.5292345   7.8824636
  93.4003005  34.9602581   4.6233730  92.9465332  34.1193491   4.6798921
  92.7696971  35.5963979   4.9608511  91.8435944  36.7979077   5.5583549
  92.1358918  37.3584134   4.8395914  92.3534565  37.0907638   6.3136708
  78.7371908  29.0701505   4.8357765  78.5396307  28.4770866   4.1108832
  78.1818572  28.7653715   5.5533704  86.7168631  28.9624612   6.9552358
  86.7717241  28.0098448   6.8794835  85.9059833  29.1184051   7.4393657
  84.6560991  27.5801672   4.7142737  83.8428857  27.8795842   5.1207929
  85.1519985  27.1857360   5.4317219  86.8069569  37.5759428   6.6477002
  86.7645748  37.8020275   5.7185534  87.7232268  37.3422803   6.7962803
  90.2535203  28.0443496  13.5457631  90.6084591  28.2714969  14.4052097
  90.9007334  28.3761873  12.9234886  84.1475066  25.1520027  10.3303972
  84.7874445  25.0108786   9.6326935  83.3152597  24.8654540   9.9542574
  96.0102319  33.2338459   9.2618232  96.4438826  33.1413748  10.1101286
  96.7233900  33.2095959   8.6238248  84.9235370  34.4522457   6.4438965
  85.7175968  33.9572778   6.2421539  84.2127062  33.9240321   6.0806670
  89.7430214  36.8340553  10.7951332  89.7967237  37.4031489  11.5629048
  88.8744996  37.0042438  10.4305369  81.2318133  28.5965539   2.5198717
  80.3015721  28.5349995   2.7368679  81.3275605  28.0741492   1.7235358
  81.1503682  25.1220352   5.1076959  81.4110500  26.0365685   4.9986119
  81.9720855  24.6544795   5.2573572  82.6228608  26.5358109  12.2775783
  83.2951661  26.3275471  11.6288432  81.7958394  26.3380195  11.8381016
  96.8717869  33.2762160  11.7951117  97.0653759  34.1807970  12.0410392
  96.7718487  32.8169579  12.6289702  88.5254180  23.1620050  14.2941444
  87.8782095  23.8610000  14.2005921  89.2955195  23.5956194  14.6617692
  91.9332978  33.4268902  17.3691998  91.7818484  33.1979454  16.4522081
  91.9237657  34.3839504  17.3823343  88.7018314  31.0000815  12.3538264
  89.6310374  31.1511975  12.1807231  88.2809344  31.0884836  11.4986910
  87.5006646  35.0251479  10.1236802  87.3617732  34.6570264  10.9962740
  86.7121242  35.5399119   9.9520759  88.0954798  40.1260576   1.4662338
  88.2706554  39.6548619   2.2807961  87.4087586  40.7526342   1.6943599
  89.0511861  34.4033082   7.5125639  88.7161694  34.3633852   8.4083289
  88.5515807  33.7377798   7.0396050  83.0256105  29.8100712  13.0378221
  82.8875903  29.0780951  13.6389760  83.9361028  29.7209612  12.7562408
  85.6538406  29.5220671  12.5261900  86.3638024  28.8813864  12.4848519
  85.6107714  29.7733566  13.4488081  93.6425184  36.4588025  15.4468479
  93.5837731  35.7747245  14.7799062  94.0444703  37.2007015  14.9949105
  84.3667340  26.5085889  14.3457540  83.8304697  26.0576628  14.9979136
  83.7784048  26.6431798  13.6028004  82.6615883  43.2749939   8.2402198
  82.9012481  43.9068463   8.9181217  81.8185080  42.9237979   8.5267558
  93.6442592  34.4227609  13.6782459  92.7569370  34.0853531  13.8008858
  94.2141143  33.6910640  13.9151224  75.2971739  30.7551701   7.0025510
  75.9842779  30.4413431   6.4146526  75.1419867  31.6593065   6.7292762
  80.1006461  25.6441897  11.4310534  80.0164650  25.0367567  10.6960944
  79.2789167  26.1350915  11.4320031  87.1743745  39.0829061  10.6443702
  87.1013916  39.8884033  11.1563007  86.7321138  39.2821027   9.8191724
  86.9633525  38.3200831   4.1546524  86.1801047  38.8622511   4.2484748
  87.6626270  38.8374811   4.5540765  89.6342429  38.9815895  12.8001861
  90.3470401  39.6163360  12.7277762  89.1432457  39.0779761  11.9841863
  91.3559955  32.8867148   4.3719153  90.4216234  33.0068610   4.2023857
  91.5336624  31.9839615   4.1079162  86.8565144  26.2712844   6.5252414
  86.4862931  25.7183884   7.2133319  87.3524236  25.6670977   5.9727414
  84.6854342  36.7310339  13.6207432  85.3863802  37.3646822  13.7736826
  84.2149457  37.0725070  12.8603071  92.4855628  29.2854946  11.4459982
  91.8327078  29.5330854  10.7912435  92.8636008  28.4719084  11.1122459
  89.4462802  39.3214639   5.5488152  89.6285196  38.5036295   6.0115905
  90.2695788  39.5382331   5.1113042  89.7804967  38.2482824   2.8103201
  90.3092734  37.7375279   2.1973363  90.0433187  37.9325355   3.6748734
  88.5343201  30.0274757  17.9326019  87.8583838  29.9268886  18.6028394
  89.3570835  29.8713971  18.3962016  80.2822060  36.2646694  10.5538534
  80.8675497  35.5190382  10.6866439  80.0846899  36.5750650  11.4375198
  83.1360715  39.2997941   5.5700977  82.4671091  39.7844069   5.0865017
  82.9973585  39.5467161   6.4844355  74.8739715  28.8352294   9.2742978
  74.9123814  28.3015885  10.0680096  74.3680008  28.3087499   8.6553955
  87.2765984  41.3341685  12.1683635  87.8284292  41.4973306  12.9332720
  87.6172177  41.9246122  11.4963660  82.2530477  23.6816834  12.7705520
  82.3171804  24.5431665  12.3582918  82.1897597  23.0690836  12.0377878
  81.7282750  25.7539967  16.4178554  82.3554789  25.3717044  17.0316078
  80.8710669  25.5354169  16.7834247  92.1276858  36.1602942  18.0232290
  92.6716762  36.7732900  17.5287244  91.5463703  36.7182520  18.5399303
  78.5048292  27.5616396   2.3496909  78.8001734  26.6527074   2.2963963
  77.6036328  27.5404135   2.0277911  90.4134371  39.2823660   9.1547317
  90.2885511  38.4813400   8.6458263  91.0713462  39.7769853   8.6661287
  82.0342539  25.6372393   8.3324458  81.3129125  26.2508360   8.1931931
  82.8235795  26.1730157   8.2541104  92.4769280  37.0832680  10.7826867
  91.5299615  36.9638031  10.7105194  92.8252053  36.1955178  10.8653129
  84.8368853  22.9726819  14.6065109  85.3603255  23.2189116  15.3691419
  84.6181186  23.8046854  14.1868247  80.2336134  25.2430494   2.4736234
  79.9048840  24.3627873   2.2911340  80.5875505  25.1878162   3.3612623
  89.4815713  36.8785396   6.9831220  89.3340675  35.9502104   7.1638790
  90.3069206  36.9005487   6.4988295  83.3477957  25.5303463   2.8411712
  83.6874030  26.0589385   2.1190320  83.7950078  25.8683870   3.6170278
  93.0849835  37.7013955   8.0696092  94.0096382  37.4956816   7.9320544
  92.9165138  37.4530356   8.9785434  86.0421398  23.9140514  12.2914780
  85.7018218  23.1148327  12.6935460  85.3360404  24.2142225  11.7191613
  86.6937870  20.9989827  10.7442103  87.5163939  20.5250305  10.6220993
  86.9375933  21.7780310  11.2440789  84.2176449  27.6908947   8.5534081
  84.0721029  28.0049250   9.4458363  83.7401652  28.3093848   8.0004980
  86.0772831  24.6811495   8.6014971  86.0634400  23.7852589   8.2647269
  86.7945260  24.6882159   9.2353257  87.9298962  25.1148835  10.6468098
  87.6716740  26.0365906  10.6452429  87.3984003  24.7179270  11.3368563
  92.8745151  38.2199623   3.4258184  93.0482028  37.6546045   2.6732036
  93.3674042  39.0200517   3.2437674  78.6922111  30.2314292  11.4921743
  78.1475579  31.0074100  11.6242017  79.5701461  30.5785096  11.3340864
  79.4788133  29.3584188  14.3851900  78.7369869  29.5066823  14.9716530
  79.1580877  29.6192454  13.5218649  87.4231795  38.9000166  14.1832290
  87.7318922  38.6549313  15.0554989  88.2207277  39.1046805  13.6951160
  87.4452407  41.0538076   6.4137666  87.0057398  40.5614454   7.1070523
  88.1960524  40.5111043   6.1729741  79.9244746  37.2449617   6.4162294
  80.7502766  36.9453389   6.0360938  79.5738798  36.4757239   6.8652083
  84.8926279  36.5976085   8.4859968  84.2706289  35.9346790   8.1862196
  85.5631146  36.6237217   7.8033616  78.1253351  35.1635943   7.3751228
  77.2885260  34.7358117   7.1935229  78.0976997  35.3568386   8.3122019
  84.9650807  25.0757873  18.0792474  85.0138962  25.9519996  17.6970243
  85.5073321  24.5335266  17.5064117  95.4505653  35.6198996  17.3593611
  94.6601196  35.6023135  16.8198110  95.2139007  36.1587290  18.1142647
  95.5703528  32.4691463  14.6726339  95.6201533  32.3041470  15.6141862
  95.4617451  31.6018722  14.2824220  84.4539786  35.1480008   1.9618428
  84.6027907  35.8315473   1.3085101  85.2606230  35.1285098   2.4767884
  92.8607290  28.4522391  15.9885646  93.7617153  28.3128855  15.6969644
  92.9355265  28.6176845  16.9283824  87.1950095  25.8289245  14.8338832
  86.3253405  26.1222811  14.5621421  87.4309576  26.4129690  15.5546096
  97.0721725  34.8888404  14.9168361  96.7806533  35.2518385  15.7531822
  96.4593856  34.1755412  14.7381693  95.3208913  30.0121019  13.3848419
  95.7963034  30.2048665  12.5767270  94.3974478  30.0680205  13.1391803
  82.2092419  31.1745186   2.9679497  81.9638461  30.2707516   3.1659707
  82.3788334  31.1762336   2.0258975  89.8989129  22.0468862  12.3504253
  90.4171073  22.7829889  12.0250741  89.5444262  22.3532856  13.1851012
  81.4788067  26.9073543   0.4665659  80.7857312  26.9817898  -0.1894305
  81.2339819  26.1433887   0.9887176  87.9535192  37.6428139  -0.5669824
  87.3809159  38.2618326  -1.0199352  88.5267986  38.1927500  -0.0329902
  94.0210582  26.8886779  11.6176725  94.9728005  26.9884876  11.6388949
  93.8514032  26.0965047  12.1274809  92.0424961  23.9742362  11.8036125
  91.4474893  24.2547375  11.1082614  91.7574658  24.4636263  12.5752867
  96.4998660  30.1092898  10.7319024  96.4674980  29.1708899  10.9178708
  97.1099283  30.1876935   9.9984849  88.2220683  33.0306698  18.2346885
  89.1423692  33.2085297  18.4286932  88.1870266  32.0862743  18.0826584
  77.4402848  28.2245291   7.1600160  77.1205632  27.3710599   6.8674534
  76.8936276  28.4393869   7.9158127  81.2182755  30.9407732  10.8769666
  81.4368765  31.8724840  10.8957700  81.6308529  30.5815707  11.6624470
  86.0910621  26.5140938  20.2672415  85.9907348  27.4635295  20.1984506
  85.8732163  26.1859177  19.3948485  77.3091108  31.8448203   9.1293281
  76.6154579  31.4302156   8.6163236  78.0564099  31.8868739   8.5326700
  85.9541891  29.9438077  19.0837477  85.4708973  30.7438437  19.2901366
  86.0402830  29.9546022  18.1304921  79.2227850  31.7766456   7.0059296
  79.1998539  31.8754144   6.0541179  79.5328487  32.6231607   7.3276462
  81.8815228  33.8342612  11.1205911  82.8358482  33.8026554  11.0535842
  81.6827752  33.3733235  11.9356137  82.4714610  32.4043728  13.6876708
  83.2907499  32.8987806  13.7111546  82.7451418  31.4875696  13.6594276
  80.2365457  39.3762231   8.1376109  80.1019925  38.6162632   7.5714107
  79.8197519  40.1003131   7.6704897  83.3934583  40.2731548   8.3494551
  83.2766967  41.2176981   8.2473242  82.5727029  39.9705110   8.7380350
  77.7249525  26.7381861  14.3868905  78.3708388  26.2280815  14.8756131
  77.5166676  27.4750543  14.9612331  90.2502917  33.8062709  19.8861046
  91.1194077  33.9803361  19.5247681  89.7709668  34.6257126  19.7636775
  84.4189097  40.9259810  11.5650480  85.3216344  40.9583420  11.8816975
  84.1926467  39.9960261  11.5796815  86.1742699  39.6790796   8.2260558
  85.2238330  39.6792658   8.1124931  86.4775185  38.9323531   7.7096593
  82.0647016  23.8849479  18.4843920  82.9278477  23.5286283  18.6947244
  81.4912426  23.5463373  19.1719324 101.9095393  45.5151335   9.2906321
 102.5473803  45.3958082   8.5869661 101.7916236  46.4632179   9.3494273
  98.7185099  45.4678763   9.2267845  98.3803610  45.3519828   8.3388380
  99.5874867  45.0669928   9.2068852  94.5771915  47.3214239   5.2164736
  94.0136780  47.2304176   4.4481024  94.4624310  46.5014144   5.6967229
  99.2004882  46.6213615  15.1854051  99.1893523  46.2266413  14.3134555
  99.3625521  45.8879687  15.7787822  92.1236347  48.8165431   8.0548957
  92.9157638  48.4756256   7.6395256  92.3632997  48.9260406   8.9751110
 100.1571473  50.9885207   0.5279201  99.5059453  51.5739287   0.1413215
 100.9515836  51.5191402   0.5874239  94.0827100  48.0774344   0.9266336
  94.8557976  47.5303331   0.7879211  94.4352499  48.9418594   1.1380797
  95.9212143  49.4050726  14.1333235  95.6302009  50.3096357  14.0179901
  96.5569127  49.4467254  14.8477304  96.8468350  46.7827575  10.7234595
  97.4431922  46.5583597  10.0091557  96.9043321  46.0412320  11.3260042
  96.1389667  46.1395116   0.7609160  96.0225925  45.4640020   1.4290245
  96.2491927  45.6527490  -0.0558686  98.4821208  45.6005263   4.4655850
  98.1179415  45.0735884   5.1768771  99.3388324  45.2103732   4.2922335
 104.3870509  36.8899596  11.7287116 104.0553833  37.7595007  11.5048331
 103.7916122  36.5735880  12.4081146 100.8802028  49.0912142  11.1283029
 100.5802751  49.9937181  11.0198836 100.5353088  48.8244325  11.9804181
  94.3314510  45.5425939   7.1619733  93.4065006  45.4102153   7.3697425
  94.5798923  46.3220158   7.6589675 104.2799172  41.6094682   8.8080466
 103.3716049  41.5410091   8.5139227 104.2286768  42.0866627   9.6362291
  91.6923321  45.1859212   7.9963522  91.8215702  45.4393691   8.9102934
  91.0120772  45.7786920   7.6768177  95.8622808  55.8556462   4.0953996
  95.7846838  56.8064287   4.1742477  95.2584452  55.5102335   4.7528923
  98.3540038  43.0284328  16.7515363  97.5773372  43.5878248  16.7418228
  98.9930601  43.5141111  17.2730233  96.6086410  45.8369781  16.3133330
  97.3501094  46.3754825  16.0368154  95.9023395  46.4636070  16.4704882
 102.0841750  47.9798922  14.9105492 102.4925106  47.5381332  14.1660124
 101.3619011  47.4051549  15.1639685  98.4372820  42.9171528  12.2839049
  99.2834015  43.3410942  12.4273698  98.3771457  42.2605153  12.9777612
 102.4070564  48.5400112   8.6657781 101.7779427  48.7045826   7.9633848
 102.0196226  48.9541722   9.4368745 106.2859796  49.4754550   6.0202144
 105.6010834  49.8553451   5.4699178 106.3703645  50.0849877   6.7534092
 101.5872265  40.5775897  13.9420222 101.3433197  41.3317957  13.4054498
 101.8632196  40.9561244  14.7767469 103.5410728  47.1214509  12.6197488
 103.7527623  47.7646269  11.9431869 103.4940476  46.2876826  12.1519418
 101.1436957  39.7332330   9.5234060 100.2821436  40.0313583   9.8150798
 101.1699391  39.9502729   8.5915093  97.9598526  48.2774520   5.9307866
  98.4236872  48.5562223   5.1412488  97.6955324  47.3757965   5.7480956
  94.8522607  47.8246002   8.8687629  95.4223964  48.2533270   8.2305113
  95.4430719  47.5428587   9.5671815  96.8967412  44.3997673   2.7397431
  97.5991456  44.8518716   3.2071357  96.5648041  43.7581492   3.3677324
  95.3447774  42.9909429  17.1148640  94.7146434  43.6725710  17.3484037
  95.2383862  42.8792511  16.1701778  90.6392746  42.6581225   8.0414564
  89.8491800  42.9138754   7.5654675  91.1303994  43.4729563   8.1466605
 104.6556556  49.9986465  10.7919845 105.4773999  49.5966652  10.5102527
 104.6518959  49.8954699  11.7435961  92.5907492  43.0225805   4.9998041
  91.7938655  43.1344499   5.5181537  92.3633084  43.3612457   4.1338932
  98.4213159  49.5470508  12.9480556  98.4857592  50.0090915  13.7838728
  97.7124083  48.9167873  13.0762866  88.9230449  42.9111716  10.4729555
  89.1738488  43.7958726  10.7387131  89.4589998  42.7316317   9.7004647
  98.1361177  51.2138615   2.8159536  98.0006852  52.0590151   3.2444384
  98.6770989  51.4157893   2.0525470  94.6228516  37.2930195  19.4773891
  94.2295462  36.7396394  20.1521535  95.4394657  37.6040774  19.8680409
  91.5890574  48.7314053   3.3887461  92.1015095  49.5257304   3.5393026
  92.2413287  48.0340344   3.3221063  93.3985459  51.8479810   5.4710214
  93.5752087  52.7697774   5.2831198  94.1942292  51.5338229   5.9004594
  97.5396477  38.7088074  17.0694148  98.2806191  39.3095227  16.9898610
  97.7714400  37.9665712  16.5112190  92.6837815  43.8944442  15.3472377
  92.5691331  42.9929699  15.6479476  91.8282333  44.1408138  14.9957194
  99.7629653  51.8362182  16.9459878  99.3193507  51.0498560  16.6280783
 100.4246867  52.0241332  16.2803769  94.5216774  53.3657983  11.4720557
  95.0724200  53.2375047  10.6997551  93.6828250  53.6652872  11.1215449
 101.8610891  52.1164982  14.9741279 101.8429367  52.9373863  14.4821549
 102.7830811  51.9919057  15.1991421  98.3183945  49.6309111  15.8164788
  98.8512282  48.8697399  15.5864096  97.7898027  49.3382763  16.5588942
  89.5539491  47.0602708   4.1647032  90.3914713  47.4699716   3.9480739
  89.7317759  46.1202150   4.1347226 100.5650181  37.1073832   9.3107663
 100.0614976  37.0703968   8.4975468 100.8580788  38.0166575   9.3704319
  96.8093067  37.1912562   8.3173844  97.6746063  36.9955371   7.9579734
  96.8770576  36.9622914   9.2443201  99.6836658  48.7595104   3.3283600
  99.1558020  48.0247863   3.0156837  99.1824161  49.5369780   3.0823568
 104.6629504  46.9544124   8.4450646 104.0053179  47.6443386   8.5330775
 105.4669903  47.3440556   8.7884632  94.4155386  39.4214770   5.6890211
  94.9899138  39.1989951   4.9563404  95.0026368  39.4903465   6.4418813
  99.9515794  42.7837952   8.7412928  99.0338355  43.0052899   8.5834616
 100.3675937  42.8584263   7.8824636 104.2396759  50.2894498   4.6233730
 103.7859086  49.4485408   4.6798921 103.6090726  50.9255897   4.9608511
 102.6829698  52.1270995   5.5583549 102.9752673  52.6876052   4.8395914
 103.1928319  52.4199556   6.3136708  89.5765662  44.3993423   4.8357765
  89.3790062  43.8062784   4.1108832  89.0212326  44.0945633   5.5533704
  97.5562386  44.2916529   6.9552358  97.6110996  43.3390366   6.8794835
  96.7453588  44.4475969   7.4393657  95.4954746  42.9093589   4.7142737
  94.6822611  43.2087760   5.1207929  95.9913740  42.5149278   5.4317219
  97.6463324  52.9051346   6.6477002  97.6039502  53.1312192   5.7185534
  98.5626022  52.6714721   6.7962803 101.0928957  43.3735414  13.5457631
 101.4478345  43.6006887  14.4052097 101.7401089  43.7053790  12.9234886
  94.9868820  40.4811945  10.3303972  95.6268200  40.3400704   9.6326935
  94.1546351  40.1946458   9.9542574 106.8496074  48.5630377   9.2618232
 107.2832581  48.4705666  10.1101286 107.5627655  48.5387877   8.6238248
  95.7629124  49.7814375   6.4438965  96.5569723  49.2864695   6.2421539
  95.0520817  49.2532238   6.0806670 100.5823969  52.1632471  10.7951332
 100.6360991  52.7323407  11.5629048  99.7138750  52.3334356  10.4305369
  92.0711888  43.9257457   2.5198717  91.1409476  43.8641912   2.7368679
  92.1669360  43.4033410   1.7235358  91.9897437  40.4512270   5.1076959
  92.2504254  41.3657603   4.9986119  92.8114609  39.9836712   5.2573572
  93.4622362  41.8650027  12.2775783  94.1345416  41.6567389  11.6288432
  92.6352149  41.6672113  11.8381016 107.7111624  48.6054077  11.7951117
 107.9047514  49.5099888  12.0410392 107.6112242  48.1461496  12.6289702
  99.3647934  38.4911968  14.2941444  98.7175849  39.1901917  14.2005921
 100.1348950  38.9248112  14.6617692 102.7726732  48.7560820  17.3691998
 102.6212239  48.5271372  16.4522081 102.7631412  49.7131421  17.3823343
  99.5412069  46.3292733  12.3538264 100.4704129  46.4803892  12.1807231
  99.1203099  46.4176753  11.4986910  98.3400400  50.3543397  10.1236802
  98.2011486  49.9862182  10.9962740  97.5514997  50.8691037   9.9520759
  98.9348552  55.4552494   1.4662338  99.1100308  54.9840537   2.2807961
  98.2481340  56.0818260   1.6943599  99.8905616  49.7325000   7.5125639
  99.5555448  49.6925770   8.4083289  99.3909561  49.0669716   7.0396050
  93.8649859  45.1392630  13.0378221  93.7269657  44.4072869  13.6389760
  94.7754783  45.0501530  12.7562408  96.4932160  44.8512589  12.5261900
  97.2031779  44.2105781  12.4848519  96.4501468  45.1025484  13.4488081
 104.4818939  51.7879943  15.4468479 104.4231485  51.1039163  14.7799062
 104.8838457  52.5298933  14.9949105  95.2061094  41.8377807  14.3457540
  94.6698451  41.3868546  14.9979136  94.6177803  41.9723716  13.6028004
  93.5009638  58.6041856   8.2402198  93.7406236  59.2360381   8.9181217
  92.6578834  58.2529896   8.5267558 104.4836346  49.7519526  13.6782459
 103.5963125  49.4145448  13.8008858 105.0534897  49.0202558  13.9151224
  86.1365493  46.0843618   7.0025510  86.8236533  45.7705348   6.4146526
  85.9813622  46.9884983   6.7292762  90.9400215  40.9733815  11.4310534
  90.8558404  40.3659484  10.6960944  90.1182922  41.4642833  11.4320031
  98.0137500  54.4120979  10.6443702  97.9407671  55.2175950  11.1563007
  97.5714893  54.6112945   9.8191724  97.8027279  53.6492749   4.1546524
  97.0194801  54.1914429   4.2484748  98.5020024  54.1666728   4.5540765
 100.4736183  54.3107813  12.8001861 101.1864155  54.9455278  12.7277762
  99.9826212  54.4071679  11.9841863 102.1953710  48.2159066   4.3719153
 101.2609989  48.3360528   4.2023857 102.3730378  47.3131532   4.1079162
  97.6958898  41.6004761   6.5252414  97.3256686  41.0475802   7.2133319
  98.1917990  40.9962895   5.9727414  95.5248097  52.0602256  13.6207432
  96.2257556  52.6938739  13.7736826  95.0543212  52.4016988  12.8603071
 103.3249383  44.6146864  11.4459982 102.6720833  44.8622771  10.7912435
 103.7029762  43.8011002  11.1122459 100.2856556  54.6506557   5.5488152
 100.4678951  53.8328213   6.0115905 101.1089542  54.8674249   5.1113042
 100.6198722  53.5774742   2.8103201 101.1486488  53.0667197   2.1973363
 100.8826941  53.2617272   3.6748734  99.3736956  45.3566675  17.9326019
  98.6977593  45.2560804  18.6028394 100.1964589  45.2005889  18.3962016
  91.1215815  51.5938611  10.5538534  91.7069251  50.8482299  10.6866439
  90.9240653  51.9042568  11.4375198  93.9754470  54.6289859   5.5700977
  93.3064845  55.1135986   5.0865017  93.8367340  54.8759079   6.4844355
  85.7133469  44.1644212   9.2742978  85.7517569  43.6307802  10.0680096
  85.2073762  43.6379417   8.6553955  98.1159738  56.6633602  12.1683635
  98.6678046  56.8265224  12.9332720  98.4565932  57.2538040  11.4963660
  93.0924232  39.0108752  12.7705520  93.1565558  39.8723583  12.3582918
  93.0291352  38.3982754  12.0377878  92.5676504  41.0831885  16.4178554
  93.1948543  40.7008962  17.0316078  91.7104423  40.8646087  16.7834247
 102.9670613  51.4894860  18.0232290 103.5110517  52.1024818  17.5287244
 102.3857458  52.0474438  18.5399303  89.3442047  42.8908314   2.3496909
  89.6395488  41.9818992   2.2963963  88.4430083  42.8696053   2.0277911
 101.2528126  54.6115578   9.1547317 101.1279265  53.8105318   8.6458263
 101.9107217  55.1061771   8.6661287  92.8736294  40.9664310   8.3324458
  92.1522880  41.5800278   8.1931931  93.6629550  41.5022075   8.2541104
 103.3163034  52.4124598  10.7826867 102.3693370  52.2929949  10.7105194
 103.6645807  51.5247096  10.8653129  95.6762607  38.3018737  14.6065109
  96.1997009  38.5481033  15.3691419  95.4574941  39.1338772  14.1868247
  91.0729889  40.5722411   2.4736234  90.7442595  39.6919790   2.2911340
  91.4269259  40.5170080   3.3612623 100.3209467  52.2077314   6.9831220
 100.1734430  51.2794021   7.1638790 101.1462961  52.2297405   6.4988295
  94.1871712  40.8595381   2.8411712  94.5267784  41.3881302   2.1190320
  94.6343832  41.1975787   3.6170278 103.9243589  53.0305873   8.0696092
 104.8490137  52.8248734   7.9320544 103.7558893  52.7822274   8.9785434
  96.8815153  39.2432432  12.2914780  96.5411973  38.4440245  12.6935460
  96.1754159  39.5434143  11.7191613  97.5331624  36.3281744  10.7442103
  98.3557694  35.8542223  10.6220993  97.7769688  37.1072228  11.2440789
  95.0570203  43.0200865   8.5534081  94.9114784  43.3341168   9.4458363
  94.5795407  43.6385765   8.0004980  96.9166586  40.0103413   8.6014971
  96.9028155  39.1144506   8.2647269  97.6339014  40.0174077   9.2353257
  98.7692717  40.4440753  10.6468098  98.5110495  41.3657824  10.6452429
  98.2377757  40.0471188  11.3368563 103.7138905  53.5491540   3.4258184
 103.8875783  52.9837963   2.6732036 104.2067797  54.3492435   3.2437674
  89.5315865  45.5606209  11.4921743  88.9869333  46.3366017  11.6242017
  90.4095215  45.9077014  11.3340864  90.3181887  44.6876106  14.3851900
  89.5763623  44.8358741  14.9716530  89.9974631  44.9484371  13.5218649
  98.2625550  54.2292084  14.1832290  98.5712676  53.9841231  15.0554989
  99.0601032  54.4338722  13.6951160  98.2846162  56.3829993   6.4137666
  97.8451152  55.8906372   7.1070523  99.0354279  55.8402961   6.1729741
  90.7638501  52.5741534   6.4162294  91.5896521  52.2745306   6.0360938
  90.4132553  51.8049157   6.8652083  95.7320034  51.9268003   8.4859968
  95.1100043  51.2638708   8.1862196  96.4024901  51.9529134   7.8033616
  88.9647106  50.4927861   7.3751228  88.1279014  50.0650035   7.1935229
  88.9370751  50.6860304   8.3122019  95.8044561  40.4049791  18.0792474
  95.8532717  41.2811913  17.6970243  96.3467076  39.8627184  17.5064117
 106.2899407  50.9490914  17.3593611 105.4994951  50.9315053  16.8198110
 106.0532762  51.4879208  18.1142647 106.4097282  47.7983380  14.6726339
 106.4595287  47.6333388  15.6141862 106.3011206  46.9310639  14.2824220
  95.2933541  50.4771926   1.9618428  95.4421661  51.1607390   1.3085101
  96.0999984  50.4577016   2.4767884 103.7001045  43.7814308  15.9885646
 104.6010907  43.6420773  15.6969644 103.7749019  43.9468763  16.9283824
  98.0343850  41.1581163  14.8338832  97.1647159  41.4514729  14.5621421
  98.2703330  41.7421608  15.5546096 107.9115479  50.2180322  14.9168361
 107.6200287  50.5810302  15.7531822 107.2987610  49.5047330  14.7381693
 106.1602667  45.3412936  13.3848419 106.6356789  45.5340583  12.5767270
 105.2368233  45.3972122  13.1391803  93.0486174  46.5037104   2.9679497
  92.8032216  45.5999434   3.1659707  93.2182088  46.5054254   2.0258975
 100.7382884  37.3760780  12.3504253 101.2564828  38.1121807  12.0250741
 100.3838016  37.6824773  13.1851012  92.3181821  42.2365461   0.4665659
  91.6251066  42.3109816  -0.1894305  92.0733573  41.4725805   0.9887176
  98.7928946  52.9720056  -0.5669824  98.2202913  53.5910243  -1.0199352
  99.3661740  53.5219418  -0.0329902 104.8604336  42.2178696  11.6176725
 105.8121759  42.3176794  11.6388949 104.6907787  41.4256965  12.1274809
 102.8818716  39.3034280  11.8036125 102.2868648  39.5839292  11.1082614
 102.5968412  39.7928181  12.5752867 107.3392414  45.4384816  10.7319024
 107.3068734  44.5000817  10.9178708 107.9493038  45.5168853   9.9984849
  99.0614437  48.3598615  18.2346885  99.9817447  48.5377214  18.4286932
  99.0264020  47.4154661  18.0826584  88.2796602  43.5537209   7.1600160
  87.9599387  42.7002517   6.8674534  87.7330031  43.7685787   7.9158127
  92.0576510  46.2699650  10.8769666  92.2762520  47.2016758  10.8957700
  92.4702284  45.9107624  11.6624470  96.9304375  41.8432856  20.2672415
  96.8301102  42.7927213  20.1984506  96.7125917  41.5151095  19.3948485
  88.1484862  47.1740120   9.1293281  87.4548334  46.7594073   8.6163236
  88.8957853  47.2160657   8.5326700  96.7935645  45.2729994  19.0837477
  96.3102727  46.0730355  19.2901366  96.8796584  45.2837939  18.1304921
  90.0621605  47.1058374   7.0059296  90.0392293  47.2046061   6.0541179
  90.3722241  47.9523525   7.3276462  92.7208983  49.1634529  11.1205911
  93.6752236  49.1318472  11.0535842  92.5221506  48.7025153  11.9356137
  93.3108365  47.7335645  13.6876708  94.1301254  48.2279724  13.7111546
  93.5845173  46.8167613  13.6594276  91.0759212  54.7054149   8.1376109
  90.9413680  53.9454550   7.5714107  90.6591274  55.4295049   7.6704897
  94.2328337  55.6023466   8.3494551  94.1160722  56.5468898   8.2473242
  93.4120784  55.2997027   8.7380350  88.5643279  42.0673779  14.3868905
  89.2102143  41.5572733  14.8756131  88.3560430  42.8042461  14.9612331
 101.0896671  49.1354627  19.8861046 101.9587831  49.3095279  19.5247681
 100.6103423  49.9549043  19.7636775  95.2582852  56.2551728  11.5650480
  96.1610098  56.2875338  11.8816975  95.0320222  55.3252179  11.5796815
  97.0136454  55.0082714   8.2260558  96.0632085  55.0084576   8.1124931
  97.3168940  54.2615449   7.7096593  92.9040770  39.2141396  18.4843920
  93.7672232  38.8578201  18.6947244  92.3306181  38.8755291  19.1719324
 112.7489147  60.8443253   9.2906321 113.3867557  60.7250000   8.5869661
 112.6309990  61.7924096   9.3494273 109.5578853  60.7970681   9.2267845
 109.2197365  60.6811745   8.3388380 110.4268622  60.3961846   9.2068852
 110.0398636  61.9505532  15.1854051 110.0287277  61.5558331  14.3134555
 110.2019276  61.2171605  15.7787822 102.9630101  64.1457349   8.0548957
 103.7551393  63.8048173   7.6395256 103.2026751  64.2552324   8.9751110
 106.7605898  64.7342644  14.1333235 106.4695764  65.6388275  14.0179901
 107.3962882  64.7759172  14.8477304 107.6862104  62.1119493  10.7234595
 108.2825677  61.8875515  10.0091557 107.7437076  61.3704238  11.3260042
 115.2264263  52.2191514  11.7287116 114.8947588  53.0886925  11.5048331
 114.6309876  51.9027798  12.4081146 111.7195783  64.4204060  11.1283029
 111.4196506  65.3229098  11.0198836 111.3746842  64.1536243  11.9804181
 105.1708264  60.8717857   7.1619733 104.2458761  60.7394071   7.3697425
 105.4192677  61.6512076   7.6589675 115.1192926  56.9386600   8.8080466
 114.2109804  56.8702008   8.5139227 115.0680522  57.4158545   9.6362291
 102.5317075  60.5151130   7.9963522 102.6609456  60.7685609   8.9102934
 101.8514526  61.1078838   7.6768177 109.1933792  58.3576245  16.7515363
 108.4167126  58.9170166  16.7418228 109.8324355  58.8433028  17.2730233
 107.4480164  61.1661699  16.3133330 108.1894849  61.7046743  16.0368154
 106.7417150  61.7927988  16.4704882 112.9235504  63.3090839  14.9105492
 113.3318860  62.8673250  14.1660124 112.2012766  62.7343467  15.1639685
 109.2766574  58.2463446  12.2839049 110.1227769  58.6702860  12.4273698
 109.2165212  57.5897070  12.9777612 112.4266020  55.9067814  13.9420222
 112.1826951  56.6609875  13.4054498 112.7025950  56.2853162  14.7767469
 114.3804482  62.4506427  12.6197488 114.5921378  63.0938187  11.9431869
 114.3334231  61.6168743  12.1519418 111.9830711  55.0624247   9.5234060
 111.1215190  55.3605501   9.8150798 112.0093146  55.2794646   8.5915093
 105.6916362  63.1537920   8.8687629 106.2617719  63.5825188   8.2305113
 106.2824474  62.8720504   9.5671815 106.1841528  58.3201347  17.1148640
 105.5540189  59.0017628  17.3484037 106.0777616  58.2084429  16.1701778
 101.4786501  57.9873143   8.0414564 100.6885555  58.2430672   7.5654675
 101.9697748  58.8021481   8.1466605 103.4301246  58.3517722   4.9998041
 102.6332409  58.4636417   5.5181537 103.2026838  58.6904374   4.1338932
 109.2606914  64.8762425  12.9480556 109.3251346  65.3382833  13.7838728
 108.5517838  64.2459790  13.0762866  99.7624204  58.2403633  10.4729555
 100.0132242  59.1250643  10.7387131 100.2983752  58.0608235   9.7004647
 105.4622271  52.6222113  19.4773891 105.0689217  52.0688311  20.1521535
 106.2788411  52.9332691  19.8680409 108.3790232  54.0379992  17.0694148
 109.1199945  54.6387145  16.9898610 108.6108155  53.2957630  16.5112190
 103.5231570  59.2236359  15.3472377 103.4085085  58.3221616  15.6479476
 102.6676088  59.4700056  14.9957194 110.6023408  67.1654099  16.9459878
 110.1587262  66.3790478  16.6280783 111.2640621  67.3533250  16.2803769
 105.3610529  68.6949901  11.4720557 105.9117954  68.5666964  10.6997551
 104.5222005  68.9944790  11.1215449 112.7004646  67.4456899  14.9741279
 112.6823121  68.2665780  14.4821549 113.6224566  67.3210975  15.1991421
 109.1577700  64.9601029  15.8164788 109.6906037  64.1989317  15.5864096
 108.6291781  64.6674681  16.5588942 111.4043935  52.4365750   9.3107663
 110.9008731  52.3995885   8.4975468 111.6974542  53.3458493   9.3704319
 107.6486821  52.5204480   8.3173844 108.5139818  52.3247288   7.9579734
 107.7164330  52.2914832   9.2443201 105.2549140  54.7506688   5.6890211
 105.8292892  54.5281869   4.9563404 105.8420123  54.8195382   6.4418813
 110.7909548  58.1129870   8.7412928 109.8732110  58.3344817   8.5834616
 111.2069692  58.1876181   7.8824636 100.4159417  59.7285341   4.8357765
 100.2183816  59.1354701   4.1108832  99.8606081  59.4237551   5.5533704
 108.3956140  59.6208447   6.9552358 108.4504750  58.6682284   6.8794835
 107.5847342  59.7767886   7.4393657 106.3348500  58.2385507   4.7142737
 105.5216366  58.5379677   5.1207929 106.8307494  57.8441196   5.4317219
 111.9322712  58.7027331  13.5457631 112.2872100  58.9298804  14.4052097
 112.5794843  59.0345708  12.9234886 105.8262575  55.8103862  10.3303972
 106.4661954  55.6692621   9.6326935 104.9940106  55.5238376   9.9542574
 102.8291191  55.7804187   5.1076959 103.0898009  56.6949521   4.9986119
 103.6508364  55.3128630   5.2573572 104.3016117  57.1941945  12.2775783
 104.9739170  56.9859307  11.6288432 103.4745903  56.9964031  11.8381016
 110.2041689  53.8203885  14.2941444 109.5569604  54.5193835  14.2005921
 110.9742704  54.2540029  14.6617692 113.6120487  64.0852738  17.3691998
 113.4605993  63.8563289  16.4522081 113.6025166  65.0423339  17.3823343
 110.3805823  61.6584650  12.3538264 111.3097883  61.8095810  12.1807231
 109.9596853  61.7468671  11.4986910 109.1794155  65.6835315  10.1236802
 109.0405241  65.3154099  10.9962740 108.3908751  66.1982954   9.9520759
 104.7043614  60.4684548  13.0378221 104.5663412  59.7364786  13.6389760
 105.6148537  60.3793448  12.7562408 107.3325915  60.1804507  12.5261900
 108.0425533  59.5397699  12.4848519 107.2895223  60.4317402  13.4488081
 115.3212693  67.1171860  15.4468479 115.2625239  66.4331080  14.7799062
 115.7232212  67.8590850  14.9949105 106.0454849  57.1669725  14.3457540
 105.5092206  56.7160463  14.9979136 105.4571557  57.3015634  13.6028004
 115.3230101  65.0811444  13.6782459 114.4356879  64.7437366  13.8008858
 115.8928652  64.3494475  13.9151224  96.9759248  61.4135536   7.0025510
  97.6630288  61.0997266   6.4146526  96.8207376  62.3176901   6.7292762
 101.7793970  56.3025732  11.4310534 101.6952159  55.6951402  10.6960944
 100.9576676  56.7934751  11.4320031 108.5352652  56.9296679   6.5252414
 108.1650440  56.3767719   7.2133319 109.0311745  56.3254812   5.9727414
 106.3641851  67.3894174  13.6207432 107.0651311  68.0230657  13.7736826
 105.8936966  67.7308906  12.8603071 114.1643137  59.9438781  11.4459982
 113.5114587  60.1914689  10.7912435 114.5423517  59.1302920  11.1122459
 110.2130710  60.6858592  17.9326019 109.5371347  60.5852722  18.6028394
 111.0358344  60.5297806  18.3962016 101.9609569  66.9230529  10.5538534
 102.5463006  66.1774217  10.6866439 101.7634408  67.2334486  11.4375198
  96.5527224  59.4936129   9.2742978  96.5911323  58.9599720  10.0680096
  96.0467517  58.9671335   8.6553955 103.9317986  54.3400670  12.7705520
 103.9959313  55.2015501  12.3582918 103.8685106  53.7274671  12.0377878
 103.4070259  56.4123802  16.4178554 104.0342297  56.0300880  17.0316078
 102.5498178  56.1938004  16.7834247 113.8064367  66.8186777  18.0232290
 114.3504271  67.4316736  17.5287244 113.2251212  67.3766356  18.5399303
 100.1835801  58.2200231   2.3496909 100.4789243  57.3110910   2.2963963
  99.2823837  58.1987971   2.0277911 103.7130048  56.2956228   8.3324458
 102.9916634  56.9092196   8.1931931 104.5023304  56.8313993   8.2541104
 106.5156362  53.6310654  14.6065109 107.0390764  53.8772951  15.3691419
 106.2968695  54.4630689  14.1868247 101.9123643  55.9014329   2.4736234
 101.5836349  55.0211708   2.2911340 102.2663014  55.8461998   3.3612623
 107.7208907  54.5724350  12.2914780 107.3805727  53.7732163  12.6935460
 107.0147913  54.8726060  11.7191613 108.3725379  51.6573662  10.7442103
 109.1951448  51.1834140  10.6220993 108.6163442  52.4364146  11.2440789
 105.8963958  58.3492783   8.5534081 105.7508538  58.6633086   9.4458363
 105.4189161  58.9677683   8.0004980 107.7560340  55.3395331   8.6014971
 107.7421909  54.4436424   8.2647269 108.4732769  55.3465994   9.2353257
 109.6086471  55.7732671  10.6468098 109.3504249  56.6949741  10.6452429
 109.0771512  55.3763105  11.3368563 100.3709620  60.8898127  11.4921743
  99.8263088  61.6657935  11.6242017 101.2488970  61.2368931  11.3340864
 101.1575642  60.0168023  14.3851900 100.4157378  60.1650659  14.9716530
 100.8368386  60.2776289  13.5218649 109.1019304  69.5584002  14.1832290
 109.4106431  69.3133148  15.0554989 109.8994786  69.7630640  13.6951160
  99.8040860  65.8219778   7.3751228  98.9672769  65.3941953   7.1935229
  99.7764506  66.0152222   8.3122019 106.6438316  55.7341708  18.0792474
 106.6926471  56.6103831  17.6970243 107.1860830  55.1919101  17.5064117
 117.1293162  66.2782832  17.3593611 116.3388705  66.2606970  16.8198110
 116.8926516  66.8171125  18.1142647 117.2491037  63.1275298  14.6726339
 117.2989042  62.9625305  15.6141862 117.1404960  62.2602557  14.2824220
 114.5394799  59.1106226  15.9885646 115.4404662  58.9712691  15.6969644
 114.6142774  59.2760681  16.9283824 108.8737604  56.4873081  14.8338832
 108.0040914  56.7806647  14.5621421 109.1097085  57.0713526  15.5546096
 118.7509233  65.5472239  14.9168361 118.4594042  65.9102220  15.7531822
 118.1381365  64.8339248  14.7381693 116.9996422  60.6704854  13.3848419
 117.4750543  60.8632500  12.5767270 116.0761987  60.7264040  13.1391803
 111.5776638  52.7052698  12.3504253 112.0958582  53.4413725  12.0250741
 111.2231771  53.0116691  13.1851012 115.6998091  57.5470614  11.6176725
 116.6515514  57.6468712  11.6388949 115.5301541  56.7548883  12.1274809
 113.7212470  54.6326197  11.8036125 113.1262402  54.9131210  11.1082614
 113.4362167  55.1220098  12.5752867 109.9008192  63.6890533  18.2346885
 110.8211201  63.8669132  18.4286932 109.8657775  62.7446578  18.0826584
  99.1190357  58.8829127   7.1600160  98.7993141  58.0294435   6.8674534
  98.5723785  59.0977705   7.9158127 102.8970264  61.5991568  10.8769666
 103.1156274  62.5308675  10.8957700 103.3096038  61.2399542  11.6624470
 107.7698130  57.1724773  20.2672415 107.6694857  58.1219130  20.1984506
 107.5519672  56.8443012  19.3948485  98.9878617  62.5032038   9.1293281
  98.2942088  62.0885991   8.6163236  99.7351608  62.5452575   8.5326700
 107.6329400  60.6021912  19.0837477 107.1496482  61.4022272  19.2901366
 107.7190339  60.6129857  18.1304921 100.9015359  62.4350292   7.0059296
 100.8786048  62.5337979   6.0541179 101.2115996  63.2815443   7.3276462
 103.5602737  64.4926447  11.1205911 104.5145991  64.4610389  11.0535842
 103.3615261  64.0317071  11.9356137 104.1502119  63.0627563  13.6876708
 104.9695008  63.5571642  13.7111546 104.4238927  62.1459531  13.6594276
  99.4037034  57.3965697  14.3868905 100.0495897  56.8864651  14.8756131
  99.1954185  58.1334378  14.9612331 111.9290426  64.4646544  19.8861046
 112.7981586  64.6387197  19.5247681 111.4497177  65.2840961  19.7636775
 106.0976606  71.5843645  11.5650480 107.0003853  71.6167256  11.8816975
 105.8713976  70.6544096  11.5796815 103.7434525  54.5433314  18.4843920
 104.6065986  54.1870119  18.6947244 103.1699935  54.2047209  19.1719324
 116.3016025  67.9514031  19.4773891 115.9082971  67.3980229  20.1521535
 117.1182166  68.2624609  19.8680409 119.2183986  69.3671910  17.0694148
 119.9593700  69.9679063  16.9898610 119.4501909  68.6249547  16.5112190
 114.2464013  71.7415720  16.4178554 114.8736052  71.3592797  17.0316078
 113.3891932  71.5229922  16.7834247 117.4832070  71.0633626  18.0792474
 117.5320226  71.9395749  17.6970243 118.0254585  70.5211019  17.5064117
 118.6091884  72.5016691  20.2672415 118.5088611  73.4511048  20.1984506
 118.3913426  72.1734930  19.3948485 110.2430788  72.7257614  14.3868905
 110.8889652  72.2156568  14.8756131 110.0347939  73.4626296  14.9612331
 114.5828279  69.8725232  18.4843920 115.4459741  69.5162036  18.6947244
 114.0093690  69.5339126  19.1719324   4.3524996  77.0009054  86.7932974
   3.5988705  76.4316452  86.6376978   4.4872538  76.9671718  87.7403608
   0.7173609  78.4417042  87.0899088   1.5520500  78.8806846  87.2536649
   0.8532738  77.9655695  86.2707334   4.7631411  77.1584664  89.5253218
   5.4934800  76.8969952  90.0860921   4.1538357  76.4213386  89.5655286
   2.8446709  75.2992526  90.1227669   2.1179872  75.1648491  89.5144161
   2.4293995  75.6069355  90.9284387   0.4624503  71.5204378  87.4761101
   1.0568994  71.2800114  86.7654409   0.5351087  70.8011509  88.1034637
   2.7695576  74.8270579  86.2504522   2.2095134  74.8963769  87.0236084
   2.1639080  74.6511564  85.5304018   4.3551595  91.5027093  88.9434478
   4.9930005  91.3833841  88.2397818   4.2372438  92.4507937  89.0022430
   1.1641301  91.4554521  88.8796003   0.8259812  91.3395586  87.9916537
   2.0331069  91.0545686  88.8597009   2.6027675  96.9760965  80.1807358
   1.9515655  97.5615046  79.7941372   3.3972038  97.5067160  80.2402396
   3.9092863  89.2278547  86.0187686   4.6955952  88.8097970  85.6678103
   4.1731567  90.1324639  86.1869334   4.0802941  94.6651397  80.7176343
   3.4448773  94.7386024  81.4297247   3.7500347  95.2544996  80.0395422
   9.3101290  89.1653780  86.9220664  10.0426462  88.5952997  87.1558494
   8.5540646  88.7775381  87.3627170   0.9277410  91.5881022  84.1184007
   0.5635617  91.0611643  84.8296928   1.7844526  91.1979491  83.9450492
   6.8326711  82.8775354  91.3815273   6.5010035  83.7470765  91.1576488
   6.2372324  82.5611638  92.0609303   3.3258230  95.0787900  90.7811186
   3.0258953  95.9812939  90.6726993   2.9809290  94.8120084  91.6332339
   6.7255374  87.5970441  88.4608623   5.8172251  87.5285849  88.1667384
   6.6742970  88.0742385  89.2890449   8.5917020  85.7986879  90.2386497
   7.9491401  86.0919412  89.5926292   8.0871949  85.6839799  91.0439694
   6.2457184  89.5450052  80.9272356   7.1575040  89.7777439  80.7520054
   5.7366831  90.1287096  80.3647435   0.8829022  88.9047287  91.9367206
   1.7290217  89.3286700  92.0801855   0.8227659  88.2480911  92.6305769
   4.8526766  94.5275871  88.3185938   4.2235629  94.6921585  87.6162006
   4.4652428  94.9417480  89.0896902   8.7315998  95.4630308  85.6730301
   8.0467036  95.8429210  85.1227335   8.8159848  96.0725635  86.4062249
   4.0328467  86.5651655  93.5948379   3.7889399  87.3193716  93.0582655
   4.3088398  86.9437003  94.4295626   5.9866930  93.1090267  92.2725645
   6.1983825  93.7522027  91.5960026   5.9396678  92.2752584  91.8047575
   3.5893159  85.7208088  89.1762217   2.7277638  86.0189342  89.4678955
   3.6155593  85.9378487  88.2443250   7.1012758  95.9862223  90.4448002
   7.9230202  95.5842410  90.1630684   7.0975161  95.8830457  91.3964118
  15.1918751  92.3300971  86.7932974  14.4382459  91.7608369  86.6376978
  15.3266292  92.2963636  87.7403608   0.5817379  97.2014374  82.4687693
   0.4463054  98.0465909  82.8972541   1.1227191  97.4033651  81.7053627
   3.9309842  80.7244936  90.9986587   3.5874112  81.6146577  90.9225697
   4.2988805  80.5346593  90.1356172   3.8960125  90.7153547  79.5059022
   3.3806749  91.4858151  79.7447409   3.6237434  90.0418683  80.1292083
   1.4807236  85.5603247  84.5644260   0.6248833  85.1710098  84.3849899
   1.8934188  85.6395208  83.7044046   3.0106383  83.0949591  88.9635820
   2.5071178  83.0579726  88.1503625   3.3036990  84.0042333  89.0232476
   8.8694399  93.4685901  81.4412195   8.0923842  93.1297061  80.9967357
   9.5485880  93.4738524  80.7667160   3.6846428  88.5880639  81.3318803
   3.3796564  88.9026788  82.1828946   4.6376870  88.6662059  81.3746136
   2.1292860  94.7470862  82.9811757   1.6014222  94.0123622  82.6684994
   1.6280363  95.5245538  82.7351725   7.1085706  92.9419883  88.0978803
   6.4509381  93.6319144  88.1858932   7.9126105  93.3316315  88.4412790
   5.9191165  91.2964255  86.1482745   6.4323047  91.9294247  86.6504455
   6.5692389  90.6965451  85.7826105   3.1813539 101.2748580  78.9043416
   2.5075238 101.5780276  79.5128374   3.5679361 102.0777660  78.5548873
   2.3971996  88.7713711  88.3941085   1.4794557  88.9928658  88.2362773
   2.8132140  88.8460021  87.5352793   3.1807044  90.1705126  83.5243766
   3.9278863  90.6826524  83.2150888   3.4498633  89.8489179  84.3848159
   1.4533694  92.6663667  80.5070720   0.5444913  92.3822700  80.6043190
   1.4828778  93.0862746  79.6474027   6.6852961  96.2770257  84.2761888
   6.2315288  95.4361167  84.3327078   6.0546928  96.9131655  84.6136668
   5.6285881  87.2062243  85.5062555   4.8908638  86.6939629  85.8372798
   5.8812654  86.7662624  84.6945832   5.1285900  98.1146753  85.2111706
   5.4208875  98.6751811  84.4924071   5.6384521  98.4075314  85.9664865
   5.7297508  79.9838495  86.1004324   6.0356385  79.1235858  85.8130239
   6.4550113  80.5756115  85.9003318   1.1509782  94.2072411  77.8458799
   0.7129212  93.4908270  77.3864436   1.8920222  94.4348526  77.2843890
   3.5385159  89.3611172  93.1985788   3.8934547  89.5882645  94.0580254
   4.1857291  89.6929549  92.5763043   9.2682896  92.4829608  83.9035117
   9.1300795  92.6731204  82.9756306   8.9119115  93.2448991  84.3603168
   9.2952276  94.5506135  88.9146389   9.7288783  94.4581424  89.7629443
  10.0083857  94.5263635  88.2766405  10.1567826  94.5929836  91.4479274
  10.3503716  95.4975646  91.6938549  10.0568444  94.1337255  92.2817859
   1.8104136  84.4787726  93.9469601   1.1632051  85.1777676  93.8534078
   2.5805152  84.9123870  94.3145850   1.9868271  92.3168491  92.0066421
   2.9160331  92.4679651  91.8335388   1.5659301  92.4052512  91.1515068
   1.3804754 101.4428252  81.1190495   1.5556510 100.9716295  81.9336118
   0.6937542 102.0694018  81.3471756   2.3361818  95.7200758  87.1653796
   2.0011650  95.6801528  88.0611446   1.8365763  95.0545474  86.6924207
   5.2721009  93.0656793  77.4390856   4.6550180  92.3403621  77.3423909
   4.8037498  93.8266153  77.0957930   6.9292548  95.7395285  93.3310616
   6.0419327  95.4021207  93.4537015   7.4991099  95.0078316  93.5679382
   3.5580131  85.4463137  86.4508886   4.0548831  84.6933099  86.1309957
   2.7867113  85.4827453  85.8852096  11.4109889  91.1503502  88.0927178
  11.3999765  92.0328218  87.7221111  10.5427268  90.7975053  87.8981715
   4.6409912  94.2034824  84.0247310   3.7066191  94.3236286  83.8552014
   4.8186580  93.3007291  83.7607320   8.0282463  90.0452143  84.5597344
   8.4942916  90.8780135  84.4857647   8.4789964  89.5797125  85.2642602
   6.0958694  96.3895964  81.5583496   6.3718538  96.2752559  82.4677370
   5.2263193  95.9913449  81.5195669   5.9999126  82.4132730  88.5988245
   5.0862206  82.6436957  88.7670452   6.4292228  82.4971174  89.4502278
   5.7705585  90.6022622  91.0988139   5.1177035  90.8498530  90.4440592
   6.1485964  89.7886760  90.7650617   2.7312758 100.6382315  85.2016310
   2.9135153  99.8203971  85.6644062   3.5545744 100.8550008  84.7641200
   3.0654924  99.5650500  82.4631358   3.5942690  99.0542955  81.8501520
   3.3283144  99.2493031  83.3276891   3.6984328 100.5991336  88.8075474
   3.5735467  99.7981076  88.2986420   4.3563419 101.0937530  88.3189444
   5.7619236  98.4000356  90.4355025   4.8149572  98.2805707  90.3633351
   6.1102009  97.5122854  90.5181286   2.7665669  98.1953072  86.6359377
   2.6190632  97.2669780  86.8166947   3.5919163  98.2173163  86.1516452
   6.3699791  99.0181631  87.7224250   7.2946339  98.8124493  87.5848701
   6.2015095  98.7698032  88.6313591   2.7627184  86.0490910  81.6291494
   2.9790798  86.9315548  81.3280322   2.2821251  85.6577123  80.8997136
   1.2148919  86.4316512  90.2996256   0.9566697  87.3533582  90.2980586
   0.6833959  86.0346946  90.9896720   6.1595107  99.5367299  83.0786341
   6.3331985  98.9713721  82.3260193   6.6523999 100.3368194  82.8965831
   1.6350874  82.5648462  86.6597418   1.6572571  82.6287795  85.7049398
   2.0518933  81.7252971  86.8537924  12.0134499  92.3003722  84.6976641
  12.4565645  91.5511047  84.2995764  11.1361009  92.2913858  84.3150373
   7.1470280  98.8534063  80.1783239   7.8421185  99.4740756  80.3970554
   7.4893430  98.0029414  80.4535617   9.0461703  96.3033769  81.7070570
   9.5713027  96.6421041  80.9819890   8.9584056  95.3680784  81.5233705
   8.8553484  93.7859139  94.3254497   8.9051489  93.6209146  95.2670019
   8.7467408  92.9186398  93.9352377   6.1457247  89.7690067  95.6413803
   7.0467109  89.6296531  95.3497801   6.2205221  89.9344521  96.5811981
  10.3571681  96.2056080  94.5696518  10.0656489  96.5686061  95.4059979
   9.7443812  95.4923088  94.3909850  11.5567363  93.7708960  87.0899088
  12.3914255  94.2098764  87.2536649  11.6926492  93.2947613  86.2707334
   8.6058869  91.3288695  93.0376576   9.0812991  91.5216341  92.2295427
   7.6824435  91.3847881  92.7919960   3.1839086  83.3636538  92.0032410
   3.7021030  84.0997565  91.6778899   2.8294219  83.6700532  92.8379169
   3.4351680  79.7836821  87.5233307   3.7153434  79.1160010  88.1493733
   4.2202287  79.9765916  87.0107970   1.2385148  98.9595815  79.0858333
   0.6659116  99.5786002  78.6328805   1.8117942  99.5095176  79.6198255
   7.3060538  88.2054455  91.2704882   8.2577961  88.3052552  91.2917106
   7.1363989  87.4132723  91.7802966   5.3274918  85.2910038  91.4564283
   4.7324850  85.5715051  90.7610771   5.0424614  85.7803939  92.2281024
   4.4582408  99.2432965  80.2166915   5.3913081  99.1778527  80.4199791
   4.3705621 100.0789232  79.7581448   7.0870425  98.5598835  77.1770863
   7.0084056  98.2258699  78.0706621   7.9080092  99.0520603  77.1762335
   9.7848616  91.4260574  90.3847181   9.7524936  90.4876575  90.5706865
  10.3949240  91.5044611  89.6513006   1.6231947  90.2956627  76.4274385
   2.5691052  90.1662836  76.4962803   1.2446192  89.5571289  76.9043814
   9.9343105  88.2171618  90.4305464   9.4182153  87.4330075  90.2435393
  10.8183053  87.8890335  90.5951984   7.5953831  81.9612633  86.3901277
   7.3978653  81.6527722  87.2744609   8.2053537  82.6874272  86.5199207
  15.6025166  92.4876581  89.5253218  16.3328554  92.2261869  90.0860921
  14.9932111  91.7505303  89.5655286  13.6840463  90.6284444  90.1227669
  12.9573627  90.4940409  89.5144161  13.2687750  90.9361273  90.9284387
   1.4236930  82.7643494  82.5173512   0.6137658  82.4190579  82.8928758
   2.1121347  82.4551037  83.1061123   3.3527478  81.8421540  84.1397809
   3.9058517  82.2616994  84.7987832   3.5897564  80.9157288  84.1820765
   6.7306285  83.9522066  83.6476473   6.1504954  84.6106870  83.2654525
   6.4642218  83.1299410  83.2363890   5.1809852  83.3527123  85.8497793
   5.6809630  83.4643658  85.0412112   5.8245459  83.0488176  86.4898602
   5.5131163  86.1122156  82.7032821   4.6257018  86.3971807  82.4853016
   5.9285152  85.9515919  81.8560098   8.8645699  86.1368677  86.4187160
   9.6406089  86.6265129  86.6911777   8.1393834  86.5626731  86.8759030
  11.3018258  86.8496296  87.4761101  11.8962749  86.6092032  86.7654409
  11.3744842  86.1303427  88.1034637   4.6574377  95.8766831  76.7980841
   5.3610227  96.0816833  77.4138497   3.9337025  96.4443592  77.0629925
   5.4872187  91.6276692  82.9183111   5.4307388  92.0845243  82.0790744
   6.0400529  90.8667376  82.7405954   9.2976993  87.4166424  83.7433231
   9.0413927  87.0163059  84.5741438   8.6729861  88.1310218  83.6183370
  13.6089331  90.1562497  86.2504522  13.0488889  90.2255686  87.0236084
  13.0032834  89.9803482  85.5304018   6.5661074  96.3149360  78.8479301
   7.4006678  95.8830558  78.6656776   6.4045417  96.1431373  79.7756196
   6.2206966  92.8181473  80.2135640   6.1655770  92.6525745  79.2724084
   5.5953022  93.5257506  80.3697830   3.3455211  78.9132359  84.0466896
   2.5787607  78.3590845  84.1923578   3.7565916  78.9854228  84.9081047
  15.1945349 106.8319011  88.9434478  15.8323759 106.7125758  88.2397818
  15.0766192 107.7799855  89.0022430  12.0035055 106.7846439  88.8796003
  11.6653567 106.6687504  87.9916537  12.8724824 106.3837604  88.8597009
   9.7043335 105.5534686  78.2112943   9.9568856 105.0316208  77.4496406
   8.7667894 105.3900832  78.3139626  14.7486618 104.5570465  86.0187686
  15.5349707 104.1389888  85.6678103  15.0125322 105.4616557  86.1869334
  20.1495045 104.4945698  86.9220664  20.8820217 103.9244915  87.1558494
  19.3934400 104.1067298  87.3627170  11.7671165 106.9172939  84.1184007
  11.4029372 106.3903560  84.8296928  12.6238280 106.5271409  83.9450492
  17.6720465  98.2067272  91.3815273  17.3403790  99.0762683  91.1576488
  17.0766079  97.8903556  92.0609303  11.4076651 101.9462839  79.1145355
  11.5751054 102.8143076  79.4815826  11.2173821 102.1090121  78.1906645
  17.5649128 102.9262358  88.4608623  16.6566006 102.8577767  88.1667384
  17.5136724 103.4034303  89.2890449  11.3865872 104.4020497  80.0992022
  11.2665498 104.8477547  80.9377502  10.6918461 104.7505814  79.5405560
  19.4310775 101.1278797  90.2386497  18.7885155 101.4211330  89.5926292
  18.9265703 101.0131717  91.0439694  17.0850939 104.8741970  80.9272356
  17.9968795 105.1069357  80.7520054  16.5760586 105.4579014  80.3647435
  11.7222776 104.2339204  91.9367206  12.5683971 104.6578618  92.0801855
  11.6621414 103.5772829  92.6305769  14.8722222 101.8943573  93.5948379
  14.6283153 102.6485633  93.0582655  15.1482152 102.2728920  94.4295626
  16.8260684 108.4382185  92.2725645  17.0377580 109.0813945  91.5960026
  16.7790433 107.6044502  91.8047575  14.4286913 101.0500006  89.1762217
  13.5671392 101.3481259  89.4678955  14.4549348 101.2670405  88.2443250
  10.1817369 105.7165349  82.3925588  10.8841412 106.1686392  82.8599514
   9.8497997 105.0749168  83.0205481   3.9242703 103.9748901  87.6942721
   3.1341757 104.2306430  87.2182832   4.4153950 104.7897239  87.7994762
   5.8757448 104.3393481  84.6526198   5.0788611 104.4512175  85.1709694
   5.6483040 104.6780133  83.7867089  26.0312505 107.6592889  86.7932974
  25.2776214 107.0900287  86.6376978  26.1660047 107.6255554  87.7403608
  14.7703597  96.0536853  90.9986587  14.4267866  96.9438495  90.9225697
  15.1382560  95.8638511  90.1356172  14.7353880 106.0445464  79.5059022
  14.2200503 106.8150069  79.7447409  14.4631188 105.3710600  80.1292083
  12.3200991 100.8895165  84.5644260  11.4642587 100.5002016  84.3849899
  12.7327942 100.9687126  83.7044046  13.8500137  98.4241508  88.9635820
  13.3464933  98.3871644  88.1503625  14.1430744  99.3334251  89.0232476
  10.0943023  98.5080238  87.9702002  10.9596020  98.3123047  87.6107891
  10.1620532  98.2790590  88.8971358  19.7088154 108.7977819  81.4412195
  18.9317597 108.4588978  80.9967357  20.3879635 108.8030442  80.7667160
  14.5240183 103.9172556  81.3318803  14.2190318 104.2318706  82.1828946
  15.4770625 103.9953976  81.3746136  17.9479461 108.2711800  88.0978803
  17.2903135 108.9611062  88.1858932  18.7519860 108.6608232  88.4412790
   7.7005342 100.7382446  85.3418368   8.2749094 100.5157628  84.6091561
   8.2876325 100.8071141  86.0946970  16.7584920 106.6256173  86.1482745
  17.2716801 107.2586165  86.6504455  17.4086143 106.0257368  85.7826105
   8.0274929 102.7686907  79.3614254   7.1912242 103.1061594  79.6823528
   7.8879699 102.6335887  78.4241391  10.0028010  97.6123695  84.0693438
   9.3492422  97.2972712  83.4450053   9.9608484  96.9899435  84.7953261
  13.2365750 104.1005628  88.3941085  12.3188312 104.3220575  88.2362773
  13.6525894 104.1751939  87.5352793  14.0200798 105.4997044  83.5243766
  14.7672617 106.0118441  83.2150888  14.2892388 105.1781097  84.3848159
  16.4679635 102.5354160  85.5062555  15.7302392 102.0231547  85.8372798
  16.7206409 102.0954542  84.6945832  16.5691263  95.3130412  86.1004324
  16.8750139  94.4527776  85.8130239  17.2943867  95.9048033  85.9003318
  10.8412342 105.6084205  86.6080515  10.8960952 104.6558042  86.5322992
  10.0303544 105.7643645  87.0921814   8.7804702 104.2261265  84.3670894
   7.9672568 104.5255436  84.7736086   9.2763696 103.8316954  85.0845376
  14.3778914 104.6903090  93.1985788  14.7328302 104.9174563  94.0580254
  15.0251045 105.0221466  92.5763043  20.1076651 107.8121526  83.9035117
  19.9694549 108.0023122  82.9756306  19.7512870 108.5740908  84.3603168
   8.2718777 101.7979621  89.9832129   8.9118156 101.6568380  89.2855092
   7.4396308 101.5114134  89.6070731  20.1346030 109.8798053  88.9146389
  20.5682537 109.7873342  89.7629443  20.8477611 109.8555553  88.2766405
   5.3561844 105.2425133  82.1726874   4.4259432 105.1809588  82.3896836
   5.4519316 104.7201086  81.3763516   5.2747393 101.7679946  84.7605116
   5.5354211 102.6825279  84.6514276   6.0964566 101.3004388  84.9101729
  20.9961580 109.9221753  91.4479274  21.1897470 110.8267564  91.6938549
  20.8962198 109.4629172  92.2817859  12.6497891  99.8079644  93.9469601
  12.0025806 100.5069593  93.8534078  13.4198906 100.2415788  94.3145850
  12.8262025 107.6460409  92.0066421  13.7554085 107.7971568  91.8335388
  12.4053055 107.7344430  91.1515068  16.1114764 108.3948710  77.4390856
  15.4943934 107.6695538  77.3423909  15.6431252 109.1558070  77.0957930
   7.9013310 102.6134135  76.5612160   7.0242776 102.4922935  76.1974407
   8.3771063 101.8220213  76.3091049  14.3973886 100.7755054  86.4508886
  14.8942585 100.0225017  86.1309957  13.6260867 100.8119371  85.8852096
  22.2503643 106.4795420  88.0927178  22.2393519 107.3620135  87.7221111
  21.3821023 106.1266971  87.8981715  10.9808855 102.9172437  86.1780571
  10.6106642 102.3643478  86.8661476  11.4767947 102.3130571  85.6255571
  18.8676218 105.3744061  84.5597344  19.3336670 106.2072052  84.4857647
  19.3183718 104.9089042  85.2642602  16.8392881  97.7424648  88.5988245
  15.9255960  97.9728875  88.7670452  17.2685982  97.8263092  89.4502278
  16.6099339 105.9314540  91.0988139  15.9570789 106.1790447  90.4440592
  16.9879719 105.1178678  90.7650617   6.3774188 100.3276428  92.4233677
   6.4415515 101.1891259  92.0111075   6.3141308  99.7150430  91.6906036
   2.6292003 104.2075990  82.0025066   2.9245445 103.2986668  81.9492120
   1.7280039 104.1863729  81.6806068   6.1586250 102.2831986  87.9852615
   5.4372836 102.8967954  87.8460088   6.9479506 102.8189751  87.9069261
   8.9612564  99.6186413  94.2593266   9.4846966  99.8648709  95.0219576
   8.7424897 100.4506448  93.8396404   4.3579845 101.8890087  82.1264391
   4.0292551 101.0087466  81.9439497   4.7119216 101.8337756  83.0140780
   7.4721668 102.1763057  82.4939869   7.8117741 102.7048978  81.7718477
   7.9193789 102.5143463  83.2698435  10.1665109 100.5600108  91.9442937
   9.8261929  99.7607921  92.3463617   9.4604115 100.8601819  91.3719770
  10.8181581  97.6449420  90.3970260  11.6407650  97.1709899  90.2749150
  11.0619644  98.4239904  90.8968946   9.4589815 100.6737679  80.6933162
  10.1798178 101.0518932  80.1896879   8.8355119 101.3926556  80.7968140
  13.6020938 101.3782828  81.6291494  13.8184553 102.2607466  81.3280322
  13.1215005 100.9869041  80.8997136   8.3420160 104.3368541  88.2062239
   8.1964740 104.6508844  89.0986520   7.8645363 104.9553441  87.6533137
  10.2016543 101.3271089  88.2543128  10.1878111 100.4312182  87.9175426
  10.9188971 101.3341753  88.8881414  12.0542673 101.7608429  90.2996256
  11.7960451 102.6825500  90.2980586  11.5227714 101.3638864  90.9896720
   9.6053438 100.2085469  83.5230698   9.7269350  99.2802115  83.7221586
   9.3155481 100.2224155  82.6109014  12.4744629  97.8940380  86.6597418
  12.4966326  97.9579713  85.7049398  12.8912688  97.0544888  86.8537924
  22.8528253 107.6295639  84.6976641  23.2959399 106.8802964  84.2995764
  21.9754763 107.6205776  84.3150373  19.6947239 109.1151056  94.3254497
  19.7445244 108.9501064  95.2670019  19.5861162 108.2478315  93.9352377
  16.9851001 105.0981984  95.6413803  17.8860864 104.9588449  95.3497801
  17.0598976 105.2636439  96.5811981  11.3193806 102.4748839  94.4866990
  10.4497116 102.7682405  94.2149578  11.5553287 103.0589284  95.2074253
  22.3961118 109.1000878  87.0899088  23.2308009 109.5390682  87.2536649
  22.5320247 108.6239531  86.2707334  19.4452624 106.6580612  93.0376576
  19.9206745 106.8508259  92.2295427  18.5218189 106.7139798  92.7919960
  14.0232840  98.6928456  92.0032410  14.5414784  99.4289483  91.6778899
  13.6687973  98.9992449  92.8379169   5.6031778 103.5533137  80.1193816
   4.9101023 103.6277492  79.4633852   5.3583530 102.7893481  80.6415333
  14.2745434  95.1128738  87.5233307  14.5547188  94.4451928  88.1493733
  15.0596041  95.3057834  87.0107970  18.1454293 103.5346372  91.2704882
  19.0971716 103.6344470  91.2917106  17.9757743 102.7424641  91.7802966
  16.1668672 100.6201956  91.4564283  15.5718604 100.9006968  90.7610771
  15.8818369 101.1095857  92.2281024  20.6242371 106.7552492  90.3847181
  20.5918691 105.8168493  90.5706865  21.2342994 106.8336529  89.6513006
  12.4625701 105.6248545  76.4274385  13.4084806 105.4954753  76.4962803
  12.0839946 104.8863207  76.9043814  20.7736859 103.5463536  90.4305464
  20.2575908 102.7621992  90.2435393  21.6576808 103.2182252  90.5951984
  18.4347586  97.2904551  86.3901277  18.2372407  96.9819639  87.2744609
  19.0447292  98.0166190  86.5199207  26.4418920 107.8168499  89.5253218
  27.1722309 107.5553787  90.0860921  25.8325866 107.0797221  89.5655286
  24.5234218 105.9576362  90.1227669  23.7967381 105.8232327  89.5144161
  24.1081504 106.2653190  90.9284387  10.6468619 103.5498522  76.3629271
   9.7400074 103.2531634  76.4391984  10.9244600 103.2528340  75.4963557
  12.2630684  98.0935411  82.5173512  11.4531413  97.7482496  82.8928758
  12.9515101  97.7842955  83.1061123  14.1921233  97.1713458  84.1397809
  14.7452271  97.5908911  84.7987832  14.4291319  96.2449206  84.1820765
   9.4167403 100.4085457  76.5041250  10.2786567 100.7340355  76.7637067
   9.6017747  99.6216953  75.9914316  17.5700040  99.2813983  83.6476473
  16.9898709  99.9398787  83.2654525  17.3035972  98.4591328  83.2363890
  16.0203606  98.6819041  85.8497793  16.5203384  98.7935575  85.0412112
  16.6639214  98.3780094  86.4898602  16.3524918 101.4414074  82.7032821
  15.4650773 101.7263724  82.4853016  16.7678907 101.2807837  81.8560098
  19.7039454 101.4660595  86.4187160  20.4799844 101.9557047  86.6911777
  18.9787588 101.8918649  86.8759030  22.1412012 102.1788214  87.4761101
  22.7356503 101.9383950  86.7654409  22.2138596 101.4595344  88.1034637
  16.3265941 106.9568610  82.9183111  16.2701143 107.4137161  82.0790744
  16.8794284 106.1959294  82.7405954  20.1370747 102.7458341  83.7433231
  19.8807682 102.3454977  84.5741438  19.5123615 103.4602135  83.6183370
  24.4483085 105.4854415  86.2504522  23.8882643 105.5547604  87.0236084
  23.8426589 105.3095399  85.5304018  17.0600721 108.1473391  80.2135640
  17.0049525 107.9817662  79.2724084  16.4346776 108.8549424  80.3697830
  10.3696846  97.6481500  79.7920959  10.3575516  98.5923340  79.9489230
  11.2620268  97.4651645  79.4980420  14.1848966  94.2424276  84.0466896
  13.4181361  93.6882763  84.1923578  14.5959671  94.3146145  84.9081047
  25.6097351 111.3828771  90.9986587  25.2661621 112.2730413  90.9225697
  25.9776314 111.1930429  90.1356172  27.4085017 110.6422330  86.1004324
  27.7143894 109.7819694  85.8130239  28.1337622 111.2339950  85.9003318
  25.1139189 110.4420656  87.5233307  25.3940943 109.7743845  88.1493733
  25.8989796 110.6349752  87.0107970  29.2741340 112.6196469  86.3901277
  29.0766162 112.3111557  87.2744609  29.8841046 113.3458108  86.5199207
  25.0242720 109.5716194  84.0466896  24.2575116 109.0174681  84.1923578
  25.4353425 109.6438063  84.9081047   4.3524998  54.0071176  73.5178280
   3.5988706  53.4378574  73.3622285   4.4872539  53.9733841  74.4648915
   0.7173610  55.4479165  73.8144395   1.5520502  55.8868969  73.9781955
   0.8532739  54.9717818  72.9952641   4.7631413  54.1646786  76.2498525
   5.4934801  53.9032074  76.8106228   4.1538358  53.4275508  76.2900593
   2.8446710  52.3054649  76.8472976   2.1179873  52.1710614  76.2389468
   2.4293997  52.6131477  77.6529694   0.4624505  48.5266501  74.2006408
   1.0568996  48.2862237  73.4899716   0.5351088  47.8073632  74.8279944
   2.7695577  51.8332702  72.9749829   2.2095135  51.9025891  73.7481391
   2.1639081  51.6573687  72.2549325   4.3551596  68.5089216  75.6679784
   4.9930006  68.3895963  74.9643125   4.2372439  69.4570060  75.7267737
   1.1641302  68.4616644  75.6041309   0.8259814  68.3457709  74.7161844
   2.0331070  68.0607809  75.5842315   1.6461085  69.6151496  81.5627515
   1.6349726  69.2204294  80.6908018   1.8081725  68.8817568  82.1561286
   2.6027677  73.9823088  66.9052665   1.9515656  74.5677168  66.5186679
   3.3972039  74.5129283  66.9647702   3.9092864  66.2340670  72.7432992
   4.6955954  65.8160093  72.3923410   4.1731569  67.1386762  72.9114641
   4.0802942  71.6713520  67.4421649   3.4448775  71.7448146  68.1542554
   3.7500348  72.2607119  66.7640729   9.3101292  66.1715903  73.6465971
  10.0426463  65.6015120  73.8803800   8.5540647  65.7837503  74.0872477
   0.9277411  68.5943144  70.8429313   0.5635618  68.0673765  71.5542235
   1.7844527  68.2041613  70.6695799   6.8326712  59.8837477  78.1060580
   6.5010037  60.7532888  77.8821795   6.2372325  59.5673761  78.7854610
   3.3258231  72.0850023  77.5056492   3.0258955  72.9875062  77.3972300
   2.9809291  71.8182206  78.3577645   6.7255375  64.6032563  75.1853930
   5.8172253  64.5347972  74.8912691   6.6742971  65.0804508  76.0135755
   8.5917022  62.8049002  76.9631804   7.9491402  63.0981535  76.3171598
   8.0871950  62.6901922  77.7685000   6.2457185  66.5512175  67.6517663
   7.1575041  66.7839561  67.4765360   5.7366832  67.1349219  67.0892741
   4.5297953  70.9736803  81.2878955   4.9381309  70.5319213  80.5433588
   3.8075214  70.3989430  81.5413148   0.8829023  65.9109409  78.6612512
   1.7290218  66.3348823  78.8047161   0.8227661  65.2543034  79.3551075
   4.8526768  71.5337993  75.0431244   4.2235630  71.6983707  74.3407312
   4.4652430  71.9479603  75.8142208   8.7315999  72.4692431  72.3975608
   8.0467038  72.8491332  71.8472641   8.8159849  73.0787758  73.1307556
   4.0328468  63.5713778  80.3193686   3.7889400  64.3255838  79.7827962
   4.3088399  63.9499125  81.1540933   5.9866931  70.1152390  78.9970952
   6.1983826  70.7584150  78.3205333   5.9396679  69.2814707  78.5292882
   3.5893160  62.7270211  75.9007524   2.7277639  63.0251464  76.1924261
   3.6155595  62.9440610  74.9688556   7.1012759  72.9924345  77.1693309
   7.9230203  72.5904533  76.8875991   7.0975162  72.8892580  78.1209425
  15.1918752  69.3363094  73.5178280  14.4382460  68.7670492  73.3622285
  15.3266293  69.3025758  74.4648915   0.5817380  74.2076496  69.1933000
   0.4463055  75.0528032  69.6217848   1.1227193  74.4095774  68.4298934
   2.2085857  74.8300063  83.3233342   1.7649711  74.0436441  83.0054246
   2.8703070  75.0179213  82.6577233   4.3067095  75.1102863  81.3514743
   4.2885570  75.9311744  80.8595012   5.2287015  74.9856938  81.5764884
   3.9309844  57.7307058  77.7231893   3.5874113  58.6208700  77.6471004
   4.2988806  57.5408716  76.8601478   3.8960126  67.7215669  66.2304328
   3.3806750  68.4920274  66.4692716   3.6237435  67.0480805  66.8537390
   1.4807237  62.5665370  71.2889567   0.6248834  62.1772220  71.1095205
   1.8934189  62.6457331  70.4289352   3.0106384  60.1011713  75.6881126
   2.5071180  60.0641848  74.8748932   3.3036991  61.0104456  75.7477783
   8.8694401  70.4748024  68.1657502   8.0923843  70.1359183  67.7212664
   9.5485882  70.4800647  67.4912467   3.6846430  65.5942761  68.0564110
   3.3796565  65.9088911  68.9074253   4.6376872  65.6724181  68.0991442
   2.1292861  71.7532985  69.7057063   1.6014223  71.0185744  69.3930301
   1.6280364  72.5307661  69.4597032   7.1085707  69.9482005  74.8224110
   6.4509382  70.6381267  74.9104238   7.9126107  70.3378437  75.1658096
   5.9191166  68.3026378  72.8728052   6.4323048  68.9356370  73.3749761
   6.5692390  67.7027573  72.5071412   3.1813541  78.2810702  65.6288723
   2.5075239  78.5842399  66.2373681   3.5679362  79.0839782  65.2794180
   2.3971997  65.7775833  75.1186392   1.4794559  65.9990780  74.9608080
   2.8132141  65.8522144  74.2598099   3.1807045  67.1767249  70.2489072
   3.9278864  67.6888646  69.9396194   3.4498634  66.8551302  71.1093466
   1.4533695  69.6725790  67.2316027   0.5444914  69.3884823  67.3288496
   1.4828779  70.0924868  66.3719333   6.6852962  73.2832379  71.0007194
   6.2315290  72.4423289  71.0572385   6.0546929  73.9193778  71.3381974
   5.6285882  64.2124365  72.2307862   4.8908639  63.7001752  72.5618104
   5.8812656  63.7724747  71.4191138   5.1285902  75.1208876  71.9357012
   5.4208876  75.6813933  71.2169378   5.6384522  75.4137437  72.6910171
   5.7297509  56.9900617  72.8249631   6.0356386  56.1297981  72.5375546
   6.4550114  57.5818238  72.6248625   1.1509783  71.2134533  64.5704105
   0.7129213  70.4970392  64.1109743   1.8920224  71.4410648  64.0089197
   3.5385161  66.3673295  79.9231095   3.8934548  66.5944768  80.7825560
   4.1857292  66.6991671  79.3008350   9.2682898  69.4891731  70.6280424
   9.1300796  69.6793326  69.7001613   8.9119116  70.2511113  71.0848475
   9.2952277  71.5568258  75.6391695   9.7288784  71.4643547  76.4874749
  10.0083858  71.5325758  75.0011711   3.0280172  75.1570352  77.1724796
   3.0817194  75.7261288  77.9402512   2.1594954  75.3272237  76.8078833
  10.1567827  71.5991958  78.1724581  10.3503717  72.5037769  78.4183856
  10.0568445  71.1399377  79.0063166   1.8104138  61.4849849  80.6714908
   1.1632053  62.1839798  80.5779384   2.5805153  61.9185993  81.0391156
   5.2182935  71.7498701  83.7465461   5.0668442  71.5209253  82.8295545
   5.2087615  72.7069302  83.7596806   1.9868272  69.3230614  78.7311728
   2.9160332  69.4741773  78.5580695   1.5659302  69.4114634  77.8760374
   1.3804756  78.4490375  67.8435802   1.5556511  77.9778418  68.6581425
   0.6937544  79.0756141  68.0717063   2.3361819  72.7262881  73.8899103
   2.0011651  72.6863651  74.7856753   1.8365765  72.0607597  73.4169513
   5.2721010  70.0718915  64.1636163   4.6550181  69.3465743  64.0669215
   4.8037499  70.8328275  63.8203237   6.9275142  74.7817823  81.8241943
   6.8687688  74.0977044  81.1572526   7.3294661  75.5236813  81.3722569
   6.9292549  72.7457407  80.0555923   6.0419328  72.4083329  80.1782322
   7.4991100  72.0140439  80.2924688   3.5580133  62.4525259  73.1754193
   4.0548832  61.6995222  72.8555263   2.7867114  62.4889576  72.6097402
  11.4109890  68.1565625  74.8172484  11.3999766  69.0390340  74.4466418
  10.5427269  67.8037176  74.6227022   2.9192386  77.3045694  79.1775325
   3.6320359  77.9393159  79.1051226   2.4282415  77.4009560  78.3615327
   4.6409913  71.2096946  70.7492616   3.7066192  71.3298409  70.5797321
   4.8186582  70.3069413  70.4852626   8.0282465  67.0514266  71.2842650
   8.4942917  67.8842257  71.2102953   8.4789965  66.5859247  71.9887909
   6.0958696  73.3958087  68.2828803   6.3718540  73.2814682  69.1922677
   5.2263194  72.9975572  68.2440976   5.9999127  59.4194853  75.3233552
   5.0862207  59.6499080  75.4915759   6.4292229  59.5033297  76.1747584
   5.7705586  67.6084745  77.8233446   5.1177036  67.8560652  77.1685899
   6.1485966  66.7948883  77.4895923   2.7312760  77.6444438  71.9261616
   2.9135154  76.8266094  72.3889368   3.5545746  77.8612130  71.4886506
   3.0654925  76.5712623  69.1876665   3.5942692  76.0605078  68.5746827
   3.3283145  76.2555153  70.0522198   1.8193159  68.3504556  84.3099483
   1.1433796  68.2498685  84.9801858   2.6420793  68.1943769  84.7735480
   0.5615942  79.6571483  78.5457099   1.1134250  79.8203105  79.3106184
   0.9022135  80.2475921  77.8737124   5.4126816  74.4832741  84.4005753
   5.9566720  75.0962699  83.9060708   4.8313661  75.0412319  84.9172766
   3.6984329  77.6053459  75.5320781   3.5735468  76.8043199  75.0231727
   4.3563420  78.0999652  75.0434751   5.7619237  75.4062479  77.1600331
   4.8149573  75.2867830  77.0878658   6.1102010  74.5184977  77.2426593
   2.7665671  75.2015195  73.3604683   2.6190633  74.2731902  73.5412253
   3.5919164  75.2235286  72.8761759   6.3699793  76.0243754  74.4469556
   7.2946340  75.8186615  74.3094007   6.2015096  75.7760155  75.3558898
   2.7627185  63.0553033  68.3536801   2.9790799  63.9377671  68.0525629
   2.2821252  62.6639246  67.6242443   1.2148920  63.4378634  77.0241562
   0.9566698  64.3595705  77.0225893   0.6833960  63.0409069  77.7142026
   6.1595109  76.5429421  69.8031648   6.3331986  75.9775844  69.0505500
   6.6524000  77.3430316  69.6211138   1.6350876  59.5710585  73.3842725
   1.6572572  59.6349918  72.4294704   2.0518935  58.7315093  73.5783231
  12.0134500  69.3065844  71.4221947  12.4565646  68.5573169  71.0241071
  11.1361010  69.2975981  71.0395679   7.1470281  75.8596186  66.9028546
   7.8421186  76.4802878  67.1215861   7.4893431  75.0091537  67.1780924
   9.0461704  73.3095891  68.4315877   9.5713028  73.6483164  67.7065197
   8.9584057  72.3742906  68.2479011   0.7081753  77.2229965  80.5605753
   1.0168879  76.9779112  81.4328453   1.5057235  77.4276603  80.0724624
   8.7355610  73.9428795  83.7367075   7.9451154  73.9252934  83.1971574
   8.4988965  74.4817088  84.4916111   8.8553485  70.7921261  81.0499803
   8.9051490  70.6271269  81.9915326   8.7467409  69.9248520  80.6597684
   6.1457248  66.7752189  82.3659110   7.0467111  66.6358654  82.0743108
   6.2205222  66.9406644  83.3057287  10.3571682  73.2118203  81.2941825
  10.0656491  73.5748183  82.1305286   9.7443814  72.4985211  81.1155157
  11.5567365  70.7771082  73.8144395  12.3914256  71.2160887  73.9781955
  11.6926493  70.3009736  72.9952641   8.6058871  68.3350817  79.7621883
   9.0812992  68.5278464  78.9540734   7.6824436  68.3910003  79.5165266
   3.1839087  60.3698661  78.7277717   3.7021031  61.1059688  78.4024205
   2.8294220  60.6762654  79.5624476   3.4351681  56.7898943  74.2478613
   3.7153435  56.1222132  74.8739040   4.2202288  56.9828039  73.7353277
   1.2385150  75.9657937  65.8103639   0.6659117  76.5848124  65.3574111
   1.8117943  76.5157299  66.3443561   7.3060540  65.2116577  77.9950188
   8.2577962  65.3114675  78.0162412   7.1363990  64.4194846  78.5048273
   5.3274919  62.2972161  78.1809589   4.7324851  62.5777173  77.4856078
   5.0424616  62.7866062  78.9526330   4.4582409  76.2495087  66.9412222
   5.3913083  76.1840649  67.1445097   4.3705622  77.0851354  66.4826754
   7.0870426  75.5660958  63.9016169   7.0084058  75.2320821  64.7951927
   7.9080093  76.0582726  63.9007642   9.7848617  68.4322697  77.1092488
   9.7524937  67.4938698  77.2952172  10.3949241  68.5106734  76.3758313
   1.6231948  67.3018750  63.1519692   2.5691053  67.1724958  63.2208110
   1.2446193  66.5633412  63.6289120   9.9343106  65.2233741  77.1550771
   9.4182154  64.4392197  76.9680700  10.8183054  64.8952457  77.3197291
   7.5953833  58.9674756  73.1146584   7.3978654  58.6589844  73.9989916
   8.2053538  59.6936395  73.2444514  15.6025167  69.4938704  76.2498525
  16.3328556  69.2323992  76.8106228  14.9932113  68.7567426  76.2900593
  13.6840464  67.6346567  76.8472976  12.9573628  67.5002531  76.2389468
  13.2687751  67.9423395  77.6529694   1.5070641  71.3536496  84.6120349
   2.4273650  71.5315095  84.8060395   1.4720224  70.4092542  84.4600048
   1.4236931  59.7705616  69.2418819   0.6137659  59.4252701  69.6174065
   2.1121348  59.4613160  69.8306430   3.3527479  58.8483663  70.8643115
   3.9058518  59.2679116  71.5233138   3.5897566  57.9219411  70.9066071
   6.7306286  60.9584188  70.3721779   6.1504955  61.6168992  69.9899832
   6.4642219  60.1361533  69.9609197   5.1809853  60.3589246  72.5743100
   5.6809631  60.4705780  71.7657419   5.8245461  60.0550299  73.2143908
   5.5131164  63.1184279  69.4278128   4.6257019  63.4033929  69.2098322
   5.9285154  62.9578042  68.5805405   8.8645701  63.1430799  73.1432467
   9.6406091  63.6327252  73.4157084   8.1393835  63.5688854  73.6004336
  11.3018259  63.8558419  74.2006408  11.8962750  63.6154155  73.4899716
  11.3744843  63.1365549  74.8279944   4.6574378  72.8828953  63.5226148
   5.3610228  73.0878956  64.1383803   3.9337027  73.4505715  63.7875231
   5.4872188  68.6338814  69.6428418   5.4307390  69.0907366  68.8036050
   6.0400531  67.8729499  69.4651261   9.2976994  64.4228546  70.4678537
   9.0413928  64.0225182  71.2986745   8.6729862  65.1372340  70.3428676
  13.6089332  67.1624620  72.9749829  13.0488890  67.2317809  73.7481391
  13.0032835  66.9865604  72.2549325   6.5661075  73.3211482  65.5724608
   7.4006679  72.8892681  65.3902082   6.4045418  73.1493496  66.5001502
   6.2206968  69.8243596  66.9380947   6.1655771  69.6587867  65.9969391
   5.5953023  70.5319629  67.0943137   3.5352875  72.1292508  86.2634510
   4.4044034  72.3033160  85.9021145   3.0559626  72.9486924  86.1410239
   3.3455212  55.9194481  70.7712202   2.5787608  55.3652968  70.9168885
   3.7565917  55.9916350  71.6326354  15.1945350  83.8381133  75.6679784
  15.8323760  83.7187881  74.9643125  15.0766193  84.7861977  75.7267737
  12.0035057  83.7908562  75.6041309  11.6653568  83.6749626  74.7161844
  12.8724825  83.3899727  75.5842315   7.8621872  85.6444038  71.5938200
   7.2986738  85.5533975  70.8254488   7.7474267  84.8243942  72.0740693
  12.4854840  84.9443413  81.5627515  12.4743480  84.5496212  80.6908018
  12.6475479  84.2109486  82.1561286   5.4086304  87.1395230  74.4322421
   6.2007596  86.7986054  74.0168720   5.6482954  87.2490205  75.3524574
  13.4421431  89.3115006  66.9052665  12.7909411  89.8969086  66.5186679
  14.2365794  89.8421201  66.9647702   7.3677058  86.4004143  67.3039799
   8.1407934  85.8533130  67.1652675   7.7202457  87.2648392  67.5154261
   9.2062101  87.7280525  80.5106699   8.9151967  88.6326156  80.3953365
   9.8419085  87.7697053  81.2250768  10.1318308  85.1057374  77.1008058
  10.7281880  84.8813396  76.3865021  10.1893279  84.3642119  77.7033506
   9.7043336  82.5596809  64.9358249   9.9568857  82.0378330  64.1741712
   8.7667895  82.3962954  65.0384933  14.7486619  81.5632587  72.7432992
  15.5349708  81.1452011  72.3923410  15.0125323  82.4678680  72.9114641
  14.9196696  87.0005438  67.4421649  14.2842529  87.0740064  68.1542554
  14.5894103  87.5899036  66.7640729  20.1495046  81.5007821  73.6465971
  20.8820218  80.9307037  73.8803800  19.3934402  81.1129421  74.0872477
   9.4239625  84.4624915  67.1382624   9.3075883  83.7869818  67.8063709
   9.5341885  83.9757289  66.3214777  11.7671166  83.9235062  70.8429313
  11.4029373  83.3965683  71.5542235  12.6238282  83.5333531  70.6695799
  17.6720466  75.2129395  78.1060580  17.3403791  76.0824806  77.8821795
  17.0766080  74.8965679  78.7854610  11.4076653  78.9524962  65.8390662
  11.5751055  79.8205198  66.2061133  11.2173822  79.1152243  64.9151951
  14.1651986  87.4141941  77.5056492  13.8652709  88.3166979  77.3972300
  13.8203045  87.1474124  78.3577645   7.6164467  83.8655737  73.5393197
   6.6914964  83.7331952  73.7470889   7.8648881  84.6449957  74.0363139
  17.5649130  79.9324481  75.1853930  16.6566007  79.8639889  74.8912691
  17.5136725  80.4096426  76.0135755  11.3865874  81.4082619  66.8237329
  11.2665499  81.8539670  67.6622809  10.6918462  81.7567937  66.2650867
   4.9773278  83.5089011  74.3736986   5.1065660  83.7623490  75.2876398
   4.2970730  84.1016719  74.0541641   9.1472766  94.1786261  70.4727460
   9.0696795  95.1294086  70.5515941   8.5434409  93.8332133  71.1302386
  11.6389995  81.3514126  83.1288827  10.8623330  81.9108047  83.1191692
  12.2780559  81.8370909  83.6503697  19.4310776  78.1340919  76.9631804
  18.7885156  78.4273452  76.3171598  18.9265705  78.0193840  77.7685000
  17.0850940  81.8804092  67.6517663  17.9968796  82.1131479  67.4765360
  16.5760587  82.4641137  67.0892741   9.8936368  84.1599580  82.6906794
  10.6351052  84.6984624  82.4141618   9.1873353  84.7865869  82.8478346
  15.3691707  86.3028720  81.2878955  15.7775063  85.8611131  80.5433588
  14.6468969  85.7281348  81.5413148  11.7222777  81.2401327  78.6612512
  12.5683973  81.6640741  78.8047161  11.6621415  80.5834951  79.3551075
  15.6920522  86.8629911  75.0431244  15.0629385  87.0275625  74.3407312
  15.3046184  87.2771520  75.8142208  19.5709754  87.7984349  72.3975608
  18.8860792  88.1783250  71.8472641  19.6553603  88.4079675  73.1307556
  14.8722223  78.9005695  80.3193686  14.6283155  79.6547756  79.7827962
  15.1482153  79.2791043  81.1540933  16.8260686  85.4444308  78.9970952
  17.0377581  86.0876068  78.3205333  16.7790434  84.6106624  78.5292882
  14.4286915  78.0562128  75.9007524  13.5671394  78.3543382  76.1924261
  14.4549349  78.2732527  74.9688556  11.2448484  86.6004319  72.3081329
  11.7086829  86.8792022  71.5185952  10.9805282  85.6987764  72.1254420
   8.1372565  86.1475800  75.2461093   8.7073922  86.5763069  74.6078577
   8.7280677  85.8658385  75.9445278  10.1817370  82.7227471  69.1170895
  10.8841413  83.1748515  69.5844821   9.8497999  82.0811290  69.7450788
   8.6297732  81.3139228  83.4922104   7.9996392  81.9955509  83.7257501
   8.5233819  81.2022310  82.5475242   3.9242704  80.9811024  74.4188028
   3.1341758  81.2368553  73.9428139   4.4153951  81.7959362  74.5240069
  17.9406514  88.3216263  77.1693309  18.7623957  87.9196450  76.8875991
  17.9368916  88.2184497  78.1209425   5.8757449  81.3455603  71.3771505
   5.0788613  81.4574297  71.8955000   5.6483042  81.6842255  70.5112395
  11.7063117  87.8700306  79.3254019  11.7707549  88.3320714  80.1612191
  10.9974041  87.2397671  79.4536329   2.2080407  81.2341514  76.8503019
   2.4588445  82.1188524  77.1160595   2.7439955  81.0546116  76.0778111
  26.0312507  84.6655012  73.5178280  25.2776215  84.0962410  73.3622285
  26.1660048  84.6317676  74.4648915  11.4211135  89.5368414  69.1933000
  11.2856809  90.3819950  69.6217848  11.9620947  89.7387692  68.4298934
   7.9078474  75.6159994  85.8547355   7.5145420  75.0626192  86.5294999
   8.7244615  75.9270572  86.2453873   4.8740532  87.0543852  69.7660925
   5.3865053  87.8487102  69.9166490   5.5263245  86.3570142  69.6994526
   6.6835417  90.1709608  71.8483678   6.8602045  91.0927573  71.6604662
   7.4792250  89.8568027  72.2778058  10.8246435  77.0317873  83.4467612
  11.5656149  77.6325026  83.3672074  11.0564358  76.2895511  82.8885654
   5.9687773  82.2174240  81.7245841   5.8541288  81.3159497  82.0252940
   5.1132291  82.4637937  81.3730658  13.0479611  90.1591980  83.3233342
  12.6043465  89.3728359  83.0054246  13.7096825  90.3471131  82.6577233
   7.8066732  91.6887782  77.8494020   8.3574157  91.5604845  77.0771014
   6.9678208  91.9882671  77.4988913  15.1460849  90.4394780  81.3514743
  15.1279324  91.2603661  80.8595012  16.0680769  90.3148856  81.5764884
  11.6033903  87.9538910  82.1938251  12.1362240  87.1927198  81.9637559
  11.0747984  87.6612562  82.9362406  14.7703598  73.0598976  77.7231893
  14.4267868  73.9500618  77.6471004  15.1382561  72.8700633  76.8601478
   2.8389449  85.3832506  70.5420495   3.6764671  85.7929515  70.3254203
   3.0167717  84.4431948  70.5120689  14.7353881  83.0507587  66.2304328
  14.2200504  83.8212192  66.4692716  14.4631189  82.3772723  66.8537390
  12.3200992  77.8957288  71.2889567  11.4642588  77.5064138  71.1095205
  12.7327944  77.9749249  70.4289352  13.8500139  75.4303631  75.6881126
  13.3464934  75.3933766  74.8748932  14.1430745  76.3396374  75.7477783
  10.0943024  75.5142361  74.6947308  10.9596021  75.3185169  74.3353198
  10.1620533  75.2852712  75.6216665  19.7088155  85.8039942  68.1657502
  18.9317598  85.4651101  67.7212664  20.3879636  85.8092565  67.4912467
  14.5240184  80.9234679  68.0564110  14.2190320  81.2380828  68.9074253
  15.4770626  81.0016099  68.0991442  12.9686616  87.0824902  69.7057063
  12.4407978  86.3477662  69.3930301  12.4674119  87.8599579  69.4597032
  17.9479462  85.2773923  74.8224110  17.2903136  85.9673184  74.9104238
  18.7519861  85.6670355  75.1658096   7.7005344  77.7444569  72.0663675
   8.2749095  77.5219750  71.3336868   8.2876326  77.8133263  72.8192276
  16.7584921  83.6318296  72.8728052  17.2716803  84.2648287  73.3749761
  17.4086145  83.0319491  72.5071412   8.0274931  79.7749030  66.0859560
   7.1912243  80.1123716  66.4068835   7.8879700  79.6398009  65.1486697
  10.0028011  74.6185818  70.7938744   9.3492424  74.3034835  70.1695359
   9.9608485  73.9961558  71.5198567  11.1139216  84.9005113  62.7092037
  10.2066278  84.6694366  62.9083185  11.6110248  84.1042732  62.8966018
  14.0207295  93.6102620  65.6288723  13.3468994  93.9134317  66.2373681
  14.4073117  94.4131700  65.2794180  13.2365752  81.1067751  75.1186392
  12.3188313  81.3282698  74.9608080  13.6525895  81.1814062  74.2598099
  14.0200799  82.5059167  70.2489072  14.7672618  83.0180564  69.9396194
  14.2892389  82.1843219  71.1093466  12.2927450  85.0017707  67.2316027
  11.3838669  84.7176740  67.3288496  12.3222533  85.4216786  66.3719333
  17.5246717  88.6124297  71.0007194  17.0709044  87.7715207  71.0572385
  16.8940684  89.2485695  71.3381974  16.4679637  79.5416283  72.2307862
  15.7302393  79.0293669  72.5618104  16.7206410  79.1016665  71.4191138
  15.9679656  90.4500794  71.9357012  16.2602631  91.0105851  71.2169378
  16.4778277  90.7429355  72.6910171  16.5691264  72.3192535  72.8249631
  16.8750141  71.4589898  72.5375546  17.2943869  72.9110155  72.6248625
   2.8615620  82.7223222  71.2131229   2.6640020  82.1292582  70.4882295
   2.3062284  82.4175432  71.9307168  10.8412344  82.6146328  73.3325822
  10.8960953  81.6620164  73.2568299  10.0303546  82.7705767  73.8167120
  11.9903537  86.5426451  64.5704105  11.5522967  85.8262310  64.1109743
  12.7313978  86.7702566  64.0089197   8.7804704  81.2323388  71.0916201
   7.9672569  81.5317558  71.4981393   9.2763698  80.8379077  71.8090683
  10.9313281  91.2281145  73.0250466  10.8889460  91.4541991  72.0958998
  11.8475980  90.9944519  73.1736267  14.3778915  81.6965212  79.9231095
  14.7328303  81.9236685  80.7825560  15.0251046  82.0283589  79.3008350
  20.1076652  84.8183648  70.6280424  19.9694551  85.0085244  69.7001613
  19.7512871  85.5803031  71.0848475   8.2718778  78.8041743  76.7077436
   8.9118158  78.6630502  76.0100399   7.4396309  78.5176257  76.3316038
  20.1346032  86.8860175  75.6391695  20.5682538  86.7935464  76.4874749
  20.8477612  86.8617676  75.0011711   9.0479082  88.1044174  72.8212428
   9.8419681  87.6094494  72.6195003   8.3370775  87.5762037  72.4580134
  13.8673927  90.4862269  77.1724796  13.9210949  91.0553206  77.9402512
  12.9988708  90.6564154  76.8078833   5.3561846  82.2487256  68.8972181
   4.4259434  82.1871711  69.1142143   5.4519318  81.7263208  68.1008822
   5.2747395  78.7742068  71.4850423   5.5354212  79.6887402  71.3759583
   6.0964567  78.3066511  71.6347035   6.7472320  80.1879826  78.6549247
   7.4195373  79.9797188  78.0061896   5.9202107  79.9901912  78.2154479
  20.9961581  86.9283876  78.1724581  21.1897471  87.8329686  78.4183856
  20.8962199  86.4691295  79.0063166  12.6497892  76.8141766  80.6714908
  12.0025807  77.5131716  80.5779384  13.4198907  77.2477910  81.0391156
  16.0576690  87.0790619  83.7465461  15.9062196  86.8501170  82.8295545
  16.0481369  88.0361220  83.7596806  12.8262026  84.6522531  78.7311728
  13.7554086  84.8033691  78.5580695  12.4053056  84.7406552  77.8760374
  11.6250358  88.6773196  76.5010265  11.4861444  88.3091980  77.3736203
  10.8364954  89.1920835  76.3294223  12.2198510  93.7782292  67.8435802
  12.3950266  93.3070335  68.6581425  11.5331298  94.4048058  68.0717063
  13.1755573  88.0554798  73.8899103  12.8405406  88.0155568  74.7856753
  12.6759519  87.3899514  73.4169513   7.1499817  83.4622428  79.4151684
   7.0119615  82.7302667  80.0163223   8.0604741  83.3731329  79.1335872
  16.1114765  85.4010833  64.1636163  15.4943936  84.6757661  64.0669215
  15.6431253  86.1620193  63.8203237   9.7782118  83.1742388  78.9035364
  10.4881736  82.5335580  78.8621982   9.7351426  83.4255283  79.8261545
  17.7668897  90.1109741  81.8241943  17.7081443  89.4268961  81.1572526
  18.1688415  90.8528731  81.3722569   8.4911052  80.1607606  80.7231003
   7.9548409  79.7098344  81.3752600   7.9027760  80.2953515  79.9801468
   6.7859595  96.9271655  74.6175662   7.0256194  97.5590179  75.2954681
   5.9428792  96.5759695  74.9041021   7.9013311  79.6196257  63.2857467
   7.0242777  79.4985058  62.9219714   8.3771064  78.8282335  63.0336356
  17.7686304  88.0749325  80.0555923  16.8813083  87.7375247  80.1782322
  18.3384855  87.3432356  80.2924688   4.2250173  79.2963613  77.8083998
   4.1408362  78.6889283  77.0734408   3.4032880  79.7872632  77.8093494
  11.2987457  92.7350777  77.0217166  11.2257629  93.5405749  77.5336471
  10.8564850  92.9342743  76.1965187  11.0877237  91.9722547  70.5319988
  10.3044759  92.5144228  70.6258212  11.7869982  92.4896527  70.9314229
  14.3973887  77.7817177  73.1754193  14.8942587  77.0287139  72.8555263
  13.6260869  77.8181494  72.6097402  22.2503644  83.4857542  74.8172484
  22.2393521  84.3682258  74.4466418  21.3821024  83.1329093  74.6227022
  13.7586141  92.6337611  79.1775325  14.4714113  93.2685076  79.1051226
  13.2676169  92.7301477  78.3615327  15.4803668  86.5388864  70.7492616
  14.5459946  86.6590327  70.5797321  15.6580336  85.6361331  70.4852626
  10.9808856  79.9234560  72.9025878  10.6106643  79.3705600  73.5906783
  11.4767948  79.3192693  72.3500878  18.8676219  82.3806183  71.2842650
  19.3336671  83.2134175  71.2102953  19.3183720  81.9151165  71.9887909
   8.8098054  90.3832055  79.9980896   9.5107514  91.0168538  80.1510290
   8.3393169  90.7246786  79.2376535  16.9352450  88.7250005  68.2828803
  17.2112294  88.6106599  69.1922677  16.0656949  88.3267490  68.2440976
  16.8392882  74.7486770  75.3233552  15.9255962  74.9790997  75.4915759
  17.2685983  74.8325214  76.1747584  16.6099340  82.9376662  77.8233446
  15.9570791  83.1852570  77.1685899  16.9879720  82.1240801  77.4895923
  13.5706514  92.9736356  71.9261616  13.7528909  92.1558011  72.3889368
  14.3939500  93.1904048  71.4886506  13.9048680  91.9004541  69.1876665
  14.4336446  91.3896995  68.5746827  14.1676899  91.5847071  70.0522198
  12.6586913  83.6796473  84.3099483  11.9827550  83.5790603  84.9801858
  13.4814547  83.5235687  84.7735480   4.4065772  89.9168410  76.9311998
   4.9919209  89.1712098  77.0639902   4.2090611  90.2272367  77.8148662
   7.2604428  92.9519657  71.9474441   6.5914803  93.4365785  71.4638481
   7.1217297  93.1988878  72.8617819  11.4009696  94.9863401  78.5457099
  11.9528004  95.1495022  79.3106184  11.7415890  95.5767839  77.8737124
   6.3774189  77.3338551  79.1478984   6.4415516  78.1953382  78.7356381
   6.3141310  76.7212552  78.4151342   5.8526462  79.4061683  82.7952018
   6.4798501  79.0238761  83.4089542   4.9954381  79.1875885  83.1607710
  16.2520571  89.8124658  84.4005753  16.7960475  90.4254617  83.9060708
  15.6707415  90.3704237  84.9172766   2.6292005  81.2138112  68.7270373
   2.9245446  80.3048791  68.6737426   1.7280040  81.1925852  68.4051375
  14.5378083  92.9345376  75.5320781  14.4129223  92.1335116  75.0231727
  15.1957175  93.4291570  75.0434751   6.1586252  79.2894109  74.7097921
   5.4372837  79.9030077  74.5705395   6.9479507  79.8251874  74.6314567
  16.6012992  90.7354396  77.1600331  15.6543327  90.6159748  77.0878658
  16.9495765  89.8476895  77.2426593   8.9612565  76.6248535  80.9838573
   9.4846967  76.8710832  81.7464882   8.7424899  77.4568570  80.5641710
   4.3579846  78.8952210  68.8509698   4.0292552  78.0149589  68.6684804
   4.7119217  78.8399879  69.7386087  13.6059425  90.5307113  73.3604683
  13.4584388  89.6023820  73.5412253  14.4312919  90.5527203  72.8761759
   7.4721669  79.1825180  69.2185176   7.8117742  79.7111101  68.4963784
   7.9193790  79.5205586  69.9943742  17.2093547  91.3535671  74.4469556
  18.1340094  91.1478533  74.3094007  17.0408850  91.1052073  75.3558898
  10.1665110  77.5662231  78.6688244   9.8261931  76.7670044  79.0708923
   9.4604117  77.8663941  78.0965077  10.8181582  74.6511543  77.1215567
  11.6407651  74.1772021  76.9994457  11.0619646  75.4302027  77.6214253
   9.4589817  77.6799801  67.4178468  10.1798179  78.0581054  66.9142185
   8.8355121  78.3988678  67.5213446  13.6020939  78.3844950  68.3536801
  13.8184554  79.2669588  68.0525629  13.1215007  77.9931164  67.6242443
   8.3420161  81.3430664  74.9307545   8.1964742  81.6570967  75.8231827
   7.8645365  81.9615564  74.3778444  10.2016544  78.3333212  74.9788435
  10.1878113  77.4374305  74.6420733  10.9188972  78.3403875  75.6126721
  12.0542674  78.7670552  77.0241562  11.7960452  79.6887622  77.0225893
  11.5227715  78.3700986  77.7142026  16.9988863  91.8721339  69.8031648
  17.1725741  91.3067761  69.0505500  17.4917754  92.6722234  69.6211138
   2.8165823  83.8836008  77.8695206   2.2719291  84.6595816  78.0015481
   3.6945173  84.2306812  77.7114328   9.6053440  77.2147592  70.2476005
   9.7269351  76.2864238  70.4466892   9.3155482  77.2286278  69.3354320
  12.4744630  74.9002502  73.3842725  12.4966327  74.9641835  72.4294704
  12.8912689  74.0607011  73.5783231  22.8528254  84.6357762  71.4221947
  23.2959400  83.8865087  71.0241071  21.9754765  84.6267898  71.0395679
  17.9864036  91.1888103  66.9028546  18.6814940  91.8094796  67.1215861
  18.3287186  90.3383455  67.1780924   3.6031845  83.0105904  80.7625363
   2.8613581  83.1588540  81.3489994   3.2824589  83.2714170  79.8992113
  19.8855459  88.6387809  68.4315877  20.4106783  88.9775082  67.7065197
  19.7977811  87.7034824  68.2479011  11.5475508  92.5521882  80.5605753
  11.8562634  92.3071029  81.4328453  12.3450990  92.7568521  80.0724624
  11.5696120  94.7059792  72.7911130  11.1301110  94.2136171  73.4843987
  12.3204237  94.1632760  72.5503205   4.0488459  90.8971333  72.7935758
   4.8746478  90.5975105  72.4134401   3.6982511  90.1278955  73.2425547
   9.0169992  90.2497801  74.8633432   8.3950001  89.5868506  74.5635659
   9.6874859  90.2758933  74.1807079   2.2497064  88.8157659  73.7524692
   1.4128972  88.3879834  73.5708693   2.2220709  89.0090103  74.6895483
   9.0894519  78.7279589  84.4565938   9.1382675  79.6041712  84.0743707
   9.6317033  78.1856982  83.8837581  19.5749365  89.2720712  83.7367075
  18.7844909  89.2544851  83.1971574  19.3382719  89.8109006  84.4916111
  19.6947240  86.1213179  81.0499803  19.7445245  85.9563186  81.9915326
  19.5861163  85.2540438  80.6597684   8.5783499  88.8001725  68.3391892
   8.7271619  89.4837189  67.6858565   9.3849942  88.7806815  68.8541348
  16.9851002  82.1044107  82.3659110  17.8860865  81.9650572  82.0743108
  17.0598977  82.2698562  83.3057287  11.3193808  79.4810962  81.2112296
  10.4497117  79.7744528  80.9394885  11.5553288  80.0651407  81.9319560
  21.1965437  88.5410120  81.2941825  20.9050245  88.9040101  82.1305286
  20.5837568  87.8277129  81.1155157  22.3961119  86.1063000  73.8144395
  23.2308010  86.5452804  73.9781955  22.5320248  85.6301653  72.9952641
  19.4452625  83.6642735  79.7621883  19.9206747  83.8570381  78.9540734
  18.5218190  83.7201921  79.5165266   6.3336132  84.8266902  69.3452961
   6.0882174  83.9229232  69.5433171   6.5032046  84.8284053  68.4032439
  14.0232842  75.6990579  78.7277717  14.5414785  76.4351605  78.4024205
  13.6687974  76.0054572  79.5624476   5.6031779  80.5595260  66.8439122
   4.9101024  80.6339615  66.1879158   5.3583531  79.7955603  67.3660639
  14.2745436  72.1190861  74.2478613  14.5547189  71.4514050  74.8739040
  15.0596043  72.3119957  73.7353277  12.0778904  91.2949855  65.8103639
  11.5052871  91.9140042  65.3574111  12.6511698  91.8449217  66.3443561
  18.1454294  80.5408495  77.9950188  19.0971717  80.6406593  78.0162412
  17.9757744  79.7486764  78.5048273  16.1668673  77.6264078  78.1809589
  15.5718606  77.9069091  77.4856078  15.8818370  78.1157979  78.9526330
  15.2976164  91.5787005  66.9412222  16.2306837  91.5132567  67.1445097
  15.2099377  92.4143272  66.4826754  17.9264181  90.8952875  63.9016169
  17.8477812  90.5612739  64.7951927  18.7473847  91.3874643  63.9007642
  20.6242372  83.7614615  77.1092488  20.5918692  82.8230615  77.2952172
  21.2342995  83.8398651  76.3758313  12.4625703  82.6310668  63.1519692
  13.4084807  82.5016876  63.2208110  12.0839948  81.8925330  63.6289120
  20.7736860  80.5525658  77.1550771  20.2575909  79.7684115  76.9680700
  21.6576809  80.2244375  77.3197291  18.4347587  74.2966674  73.1146584
  18.2372408  73.9881762  73.9989916  19.0447293  75.0228313  73.2444514
  26.4418922  84.8230622  76.2498525  27.1722310  84.5615910  76.8106228
  25.8325867  84.0859344  76.2900593  24.5234219  82.9638484  76.8472976
  23.7967382  82.8294449  76.2389468  24.1081506  83.2715313  77.6529694
  12.3464395  86.6828414  84.6120349  13.2667405  86.8607013  84.8060395
  12.3113978  85.7384459  84.4600048  10.6468620  80.5560644  63.0874577
   9.7400075  80.2593757  63.1637291  10.9244601  80.2590462  62.2208863
   1.5646560  81.8767008  73.5373624   1.2449345  81.0232316  73.2447998
   1.0179988  82.0915586  74.2931591   5.3426468  84.5929449  77.2543130
   5.5612478  85.5246556  77.2731164   5.7552242  84.2337423  78.0397934
  12.2630686  75.0997534  69.2418819  11.4531414  74.7544619  69.6174065
  12.9515102  74.7905078  69.8306430  14.1921234  74.1775581  70.8643115
  14.7452272  74.5971034  71.5233138  14.4291320  73.2511329  70.9066071
  10.2154333  80.1662654  86.6445879  10.1151060  81.1157011  86.5757970
   9.9975875  79.8380893  85.7721949   9.4167404  77.4147579  63.2286556
  10.2786568  77.7402478  63.4882374   9.6017749  76.6279075  62.7159622
   1.4334820  85.4969919  75.5066745   0.7398292  85.0823872  74.9936700
   2.1807811  85.5390456  74.9100164  17.5700041  76.2876106  70.3721779
  16.9898710  76.9460910  69.9899832  17.3035974  75.4653450  69.9609197
  16.0203607  75.6881164  72.5743100  16.5203386  75.7997698  71.7657419
  16.6639215  75.3842216  73.2143908  10.0785603  83.5959793  85.4610941
   9.5952685  84.3960153  85.6674830  10.1646542  83.6067738  84.5078385
   3.3471563  85.4288173  73.3832760   3.3242251  85.5275860  72.4314643
   3.6572199  86.2753324  73.7049926   6.0058941  87.4864328  77.4979374
   6.9602194  87.4548270  77.4309306   5.8071464  87.0254952  78.3129600
   6.5958323  86.0565444  80.0650172   7.4151212  86.5509523  80.0885009
   6.8695130  85.1397412  80.0367740  16.3524919  78.4476196  69.4278128
  15.4650774  78.7325847  69.2098322  16.7678908  78.2869960  68.5805405
  19.7039455  78.4722717  73.1432467  20.4799845  78.9619170  73.4157084
  18.9787589  78.8980771  73.6004336  22.1412014  79.1850336  74.2006408
  22.7356505  78.9446072  73.4899716  22.2138597  78.4657467  74.8279944
   4.3609169  93.0283947  74.5149572   4.2263637  92.2684348  73.9487570
   3.9441232  93.7524847  74.0478361  15.4968132  88.2120871  63.5226148
  16.2003983  88.4170873  64.1383803  14.7730781  88.7797633  63.7875231
  16.3265943  83.9630732  69.6428418  16.2701144  84.4199284  68.8036050
  16.8794285  83.2021417  69.4651261  20.1370749  79.7520464  70.4678537
  19.8807683  79.3517100  71.2986745  19.5123617  80.4664258  70.3428676
  24.4483086  82.4916537  72.9749829  23.8882644  82.5609727  73.7481391
  23.8426590  82.3157522  72.2549325   7.5178295  93.9253264  74.7268015
   7.4010679  94.8698697  74.6246705   6.6970742  93.6226826  75.1153814
  17.4054830  88.6503400  65.5724608  18.2400434  88.2184599  65.3902082
  17.2439173  88.4785414  66.5001502  17.0600722  85.1535513  66.9380947
  17.0049526  84.9879785  65.9969391  16.4346777  85.8611546  67.0943137
   1.8493237  80.3903578  80.7642369   2.4952101  79.8802532  81.2529594
   1.6410388  81.1272259  81.3385794  14.3746629  87.4584425  86.2634510
  15.2437789  87.6325078  85.9021145  13.8953381  88.2778842  86.1410239
  10.3696847  74.6543622  66.5166265  10.3575517  75.5985462  66.6734536
  11.2620269  74.4713768  66.2225727   8.5432809  94.5781526  77.9423943
   9.4460056  94.6105137  78.2590438   8.3170179  93.6481977  77.9570279
  10.2986411  93.3312513  74.6034022   9.3482042  93.3314374  74.4898394
  10.6018898  92.5845247  74.0870057  14.1848967  71.2486399  70.7712202
  13.4181363  70.6944886  70.9168885  14.5959672  71.3208268  71.6326354
   6.1890728  77.5371195  84.8617383   7.0522190  77.1808000  85.0720708
   5.6156139  77.1985090  85.5492788  26.0339105  99.1673051  75.6679784
  26.6717515  99.0479799  74.9643125  25.9159948 100.1153895  75.7267737
  22.8428811  99.1200479  75.6041309  22.5047323  99.0041544  74.7161844
  23.7118579  98.7191644  75.5842315  18.7015627 100.9735956  71.5938200
  18.1380492 100.8825893  70.8254488  18.5868022 100.1535860  72.0740693
  23.3248594 100.2735331  81.5627515  23.3137235  99.8788129  80.6908018
  23.4869234  99.5401404  82.1561286  16.2480059 102.4687147  74.4322421
  17.0401351 102.1277972  74.0168720  16.4876709 102.5782122  75.3524574
  24.2815186 104.6406923  66.9052665  23.6303165 105.2261004  66.5186679
  25.0759548 105.1713118  66.9647702  18.2070813 101.7296061  67.3039799
  18.9801689 101.1825048  67.1652675  18.5596212 102.5940310  67.5154261
  20.0455855 103.0572443  80.5106699  19.7545721 103.9618074  80.3953365
  20.6812840 103.0988970  81.2250768  20.9712062 100.4349291  77.1008058
  21.5675634 100.2105314  76.3865021  21.0287034  99.6934037  77.7033506
  20.5437091  97.8888727  64.9358249  20.7962611  97.3670248  64.1741712
  19.6061650  97.7254872  65.0384933  25.5880373  96.8924505  72.7432992
  26.3743463  96.4743928  72.3923410  25.8519078  97.7970597  72.9114641
  25.7590451 102.3297355  67.4421649  25.1236284 102.4031982  68.1542554
  25.4287857 102.9190954  66.7640729  30.9888801  96.8299738  73.6465971
  31.7213972  96.2598955  73.8803800  30.2328156  96.4421339  74.0872477
  20.2633379  99.7916833  67.1382624  20.1469637  99.1161736  67.8063709
  20.3735639  99.3049207  66.3214777  22.6064920  99.2526980  70.8429313
  22.2423127  98.7257601  71.5542235  23.4632036  98.8625449  70.6695799
  28.5114221  90.5421312  78.1060580  28.1797546  91.4116723  77.8821795
  27.9159834  90.2257596  78.7854610  22.2470407  94.2816879  65.8390662
  22.4144810  95.1497116  66.2061133  22.0567576  94.4444161  64.9151951
  25.0045740 102.7433858  77.5056492  24.7046463 103.6458897  77.3972300
  24.6596800 102.4766042  78.3577645  18.4558222  99.1947655  73.5393197
  17.5308718  99.0623869  73.7470889  18.7042635  99.9741874  74.0363139
  28.4042884  95.2616399  75.1853930  27.4959762  95.1931807  74.8912691
  28.3530480  95.7388343  76.0135755  22.2259628  96.7374537  66.8237329
  22.1059253  97.1831588  67.6622809  21.5312216  97.0859855  66.2650867
  15.8167033  98.8380929  74.3736986  15.9459414  99.0915408  75.2876398
  15.1364484  99.4308637  74.0541641  19.9866520 109.5078179  70.4727460
  19.9090550 110.4586004  70.5515941  19.3828164 109.1624051  71.1302386
  22.4783750  96.6806044  83.1288827  21.7017084  97.2399964  83.1191692
  23.1174313  97.1662827  83.6503697  30.2704531  93.4632837  76.9631804
  29.6278911  93.7565370  76.3171598  29.7659459  93.3485757  77.7685000
  27.9244694  97.2096010  67.6517663  28.8362550  97.4423397  67.4765360
  27.4154341  97.7933054  67.0892741  20.7330122  99.4891497  82.6906794
  21.4744807 100.0276541  82.4141618  20.0267108 100.1157786  82.8478346
  26.2085462 101.6320638  81.2878955  26.6168818 101.1903048  80.5433588
  25.4862723 101.0573265  81.5413148  22.5616532  96.5693245  78.6612512
  23.4077727  96.9932658  78.8047161  22.5015170  95.9126869  79.3551075
  26.5314277 102.1921829  75.0431244  25.9023139 102.3567543  74.3407312
  26.1439939 102.6063438  75.8142208  30.4103508 103.1276266  72.3975608
  29.7254547 103.5075168  71.8472641  30.4947358 103.7371593  73.1307556
  25.7115977  94.2297613  80.3193686  25.4676909  94.9839674  79.7827962
  25.9875908  94.6082961  81.1540933  27.6654440 100.7736225  78.9970952
  27.8771335 101.4167985  78.3205333  27.6184188  99.9398542  78.5292882
  25.2680669  93.3854046  75.9007524  24.4065148  93.6835300  76.1924261
  25.2943104  93.6024445  74.9688556  22.0842238 101.9296237  72.3081329
  22.5480584 102.2083940  71.5185952  21.8199037 101.0279681  72.1254420
  18.9766320 101.4767718  75.2461093  19.5467677 101.9054987  74.6078577
  19.5674431 101.1950303  75.9445278  21.0211125  98.0519389  69.1170895
  21.7235168  98.5040433  69.5844821  20.6891753  97.4103208  69.7450788
  19.4691486  96.6431146  83.4922104  18.8390147  97.3247426  83.7257501
  19.3627574  96.5314227  82.5475242  14.7636458  96.3102942  74.4188028
  13.9735512  96.5660470  73.9428139  15.2547706  97.1251280  74.5240069
  28.7800268 103.6508181  77.1693309  29.6017712 103.2488368  76.8875991
  28.7762671 103.5476415  78.1209425  16.7151204  96.6747521  71.3771505
  15.9182367  96.7866215  71.8955000  16.4876796  97.0134173  70.5112395
  22.5456871 103.1992224  79.3254019  22.6101304 103.6612631  80.1612191
  21.8367795 102.5689589  79.4536329  13.0474161  96.5633432  76.8503019
  13.2982200  97.4480442  77.1160595  13.5833710  96.3838034  76.0778111
  36.8706261  99.9946929  73.5178280  36.1169969  99.4254327  73.3622285
  37.0053802  99.9609594  74.4648915  22.2604889 104.8660332  69.1933000
  22.1250564 105.7111867  69.6217848  22.8014702 105.0679609  68.4298934
  18.7472229  90.9451911  85.8547355  18.3539174  90.3918110  86.5294999
  19.5638369  91.2562490  86.2453873  15.7134287 102.3835770  69.7660925
  16.2258807 103.1779020  69.9166490  16.3656999 101.6862060  69.6994526
  17.5229171 105.5001526  71.8483678  17.6995800 106.4219491  71.6604662
  18.3186005 105.1859945  72.2778058  21.6640190  92.3609791  83.4467612
  22.4049903  92.9616944  83.3672074  21.8958113  91.6187428  82.8885654
  16.8081528  97.5466158  81.7245841  16.6935043  96.6451415  82.0252940
  15.9526046  97.7929855  81.3730658  23.8873366 105.4883898  83.3233342
  23.4437220 104.7020277  83.0054246  24.5490579 105.6763049  82.6577233
  18.6460487 107.0179700  77.8494020  19.1967912 106.8896763  77.0771014
  17.8071963 107.3174589  77.4988913  25.9854604 105.7686698  81.3514743
  25.9673079 106.5895579  80.8595012  26.9074524 105.6440773  81.5764884
  22.4427658 103.2830828  82.1938251  22.9755995 102.5219116  81.9637559
  21.9141739 102.9904479  82.9362406  25.6097353  88.3890894  77.7231893
  25.2661622  89.2792535  77.6471004  25.9776315  88.1992551  76.8601478
  13.6783203 100.7124424  70.5420495  14.5158425 101.1221432  70.3254203
  13.8561471  99.7723866  70.5120689  25.5747635  98.3799505  66.2304328
  25.0594259  99.1504109  66.4692716  25.3024944  97.7064641  66.8537390
  23.1594746  93.2249205  71.2889567  22.3036343  92.8356056  71.1095205
  23.5721698  93.3041166  70.4289352  24.6893893  90.7595549  75.6881126
  24.1858689  90.7225684  74.8748932  24.9824500  91.6688291  75.7477783
  20.9336779  90.8434278  74.6947308  21.7989776  90.6477087  74.3353198
  21.0014288  90.6144630  75.6216665  30.5481910 101.1331859  68.1657502
  29.7711352 100.7943019  67.7212664  31.2273391 101.1384482  67.4912467
  25.3633939  96.2526597  68.0564110  25.0584074  96.5672746  68.9074253
  26.3164381  96.3308017  68.0991442  23.8080370 102.4116820  69.7057063
  23.2801732 101.6769580  69.3930301  23.3067873 103.1891496  69.4597032
  28.7873216 100.6065841  74.8224110  28.1296891 101.2965102  74.9104238
  29.5913616 100.9962272  75.1658096  18.5399098  93.0736486  72.0663675
  19.1142850  92.8511668  71.3336868  19.1270080  93.1425181  72.8192276
  27.5978675  98.9610213  72.8728052  28.1110557  99.5940205  73.3749761
  28.2479899  98.3611409  72.5071412  18.8668685  95.1040947  66.0859560
  18.0305997  95.4415634  66.4068835  18.7273455  94.9689927  65.1486697
  20.8421766  89.9477735  70.7938744  20.1886178  89.6326752  70.1695359
  20.8002240  89.3253476  71.5198567  21.9532971 100.2297030  62.7092037
  21.0460032  99.9986284  62.9083185  22.4504003  99.4334650  62.8966018
  24.8601049 108.9394537  65.6288723  24.1862748 109.2426234  66.2373681
  25.2466871 109.7423618  65.2794180  24.0759506  96.4359669  75.1186392
  23.1582067  96.6574616  74.9608080  24.4919650  96.5105979  74.2598099
  24.8594554  97.8351084  70.2489072  25.6066373  98.3472482  69.9396194
  25.1286143  97.5135137  71.1093466  23.1321204 100.3309625  67.2316027
  22.2232423 100.0468658  67.3288496  23.1616288 100.7508704  66.3719333
  28.3640471 103.9416215  71.0007194  27.9102799 103.1007125  71.0572385
  27.7334438 104.5777613  71.3381974  27.3073391  94.8708201  72.2307862
  26.5696148  94.3585587  72.5618104  27.5600165  94.4308582  71.4191138
  26.8073411 105.7792711  71.9357012  27.0996385 106.3397768  71.2169378
  27.3172031 106.0721272  72.6910171  27.4085018  87.6484453  72.8249631
  27.7143895  86.7881816  72.5375546  28.1337623  88.2402073  72.6248625
  13.7009374  98.0515139  71.2131229  13.5033774  97.4584500  70.4882295
  13.1456038  97.7467349  71.9307168  21.6806098  97.9438246  73.3325822
  21.7354708  96.9912082  73.2568299  20.8697300  98.0997685  73.8167120
  22.8297292 101.8718369  64.5704105  22.3916722 101.1554228  64.1109743
  23.5707733 102.0994484  64.0089197  19.6198458  96.5615306  71.0916201
  18.8066324  96.8609476  71.4981393  20.1157452  96.1670994  71.8090683
  21.7707036 106.5573062  73.0250466  21.7283215 106.7833909  72.0958998
  22.6869735 106.3236437  73.1736267  25.2172670  97.0257130  79.9231095
  25.5722057  97.2528603  80.7825560  25.8644801  97.3575507  79.3008350
  30.9470407 100.1475566  70.6280424  30.8088305 100.3377162  69.7001613
  30.5906625 100.9094949  71.0848475  19.1112533  94.1333661  76.7077436
  19.7511912  93.9922420  76.0100399  18.2790063  93.8468174  76.3316038
  30.9739786 102.2152093  75.6391695  31.4076293 102.1227382  76.4874749
  31.6871367 102.1909593  75.0011711  19.8872837 103.4336091  72.8212428
  20.6813435 102.9386412  72.6195003  19.1764529 102.9053955  72.4580134
  24.7067681 105.8154187  77.1724796  24.7604703 106.3845123  77.9402512
  23.8382463 105.9856072  76.8078833  16.1955600  97.5779173  68.8972181
  15.2653188  97.5163629  69.1142143  16.2913072  97.0555126  68.1008822
  16.1141149  94.1033986  71.4850423  16.3747966  95.0179319  71.3759583
  16.9358322  93.6358429  71.6347035  17.5866075  95.5171743  78.6549247
  18.2589128  95.3089105  78.0061896  16.7595861  95.3193829  78.2154479
  31.8355336 102.2575794  78.1724581  32.0291226 103.1621604  78.4183856
  31.7355954 101.7983213  79.0063166  23.4891647  92.1433684  80.6714908
  22.8419562  92.8423634  80.5779384  24.2592662  92.5769828  81.0391156
  26.8970444 102.4082536  83.7465461  26.7455951 102.1793088  82.8295545
  26.8875124 103.3653138  83.7596806  23.6655781  99.9814449  78.7311728
  24.5947841 100.1325609  78.5580695  23.2446811 100.0698470  77.8760374
  22.4644113 104.0065113  76.5010265  22.3255198 103.6383898  77.3736203
  21.6758709 104.5212753  76.3294223  23.0592265 109.1074210  67.8435802
  23.2344020 108.6362253  68.6581425  22.3725053 109.7339976  68.0717063
  24.0149328 103.3846716  73.8899103  23.6799160 103.3447486  74.7856753
  23.5153273 102.7191432  73.4169513  17.9893572  98.7914346  79.4151684
  17.8513370  98.0594585  80.0163223  18.8998495  98.7023246  79.1335872
  26.9508519 100.7302750  64.1636163  26.3337690 100.0049579  64.0669215
  26.4825008 101.4912111  63.8203237  20.6175872  98.5034305  78.9035364
  21.3275491  97.8627498  78.8621982  20.5745181  98.7547200  79.8261545
  28.6062651 105.4401659  81.8241943  28.5475197 104.7560879  81.1572526
  29.0082170 106.1820649  81.3722569  19.3304806  95.4899523  80.7231003
  18.7942163  95.0390262  81.3752600  18.7421515  95.6245432  79.9801468
  18.7407065  94.9488175  63.2857467  17.8636532  94.8276976  62.9219714
  19.2164818  94.1574253  63.0336356  28.6080058 103.4041243  80.0555923
  27.7206837 103.0667165  80.1782322  29.1778609 102.6724274  80.2924688
  10.2609206  99.7365335  73.3798974  10.9480245  99.4227065  72.7919990
  10.1057334 100.6406699  73.1066226  15.0643928  94.6255531  77.8083998
  14.9802116  94.0181201  77.0734408  14.2426634  95.1164549  77.8093494
  22.1381212 108.0642695  77.0217166  22.0651383 108.8697667  77.5336471
  21.6958605 108.2634661  76.1965187  21.9270991 107.3014465  70.5319988
  21.1438513 107.8436145  70.6258212  22.6263737 107.8188445  70.9314229
  25.2367642  93.1109095  73.1754193  25.7336341  92.3579057  72.8555263
  24.4654623  93.1473411  72.6097402  33.0897399  98.8149460  74.8172484
  33.0787275  99.6974176  74.4466418  32.2214778  98.4621011  74.6227022
  24.5979895 107.9629529  79.1775325  25.3107868 108.5976994  79.1051226
  24.1069924 108.0593395  78.3615327  26.3197422 101.8680782  70.7492616
  25.3853701 101.9882244  70.5797321  26.4974091 100.9653249  70.4852626
  21.8202610  95.2526478  72.9025878  21.4500398  94.6997518  73.5906783
  22.3161703  94.6484611  72.3500878  29.7069974  97.7098101  71.2842650
  30.1730426  98.5426093  71.2102953  30.1577474  97.2443083  71.9887909
  19.6491809 105.7123973  79.9980896  20.3501268 106.3460456  80.1510290
  19.1786924 106.0538704  79.2376535  27.7746205 104.0541922  68.2828803
  28.0506049 103.9398517  69.1922677  26.9050703 103.6559407  68.2440976
  27.6786636  90.0778688  75.3233552  26.7649716  90.3082915  75.4915759
  28.1079738  90.1617132  76.1747584  27.4493095  98.2668580  77.8233446
  26.7964545  98.5144488  77.1685899  27.8273475  97.4532718  77.4895923
  24.4100269 108.3028273  71.9261616  24.5922663 107.4849929  72.3889368
  25.2333255 108.5195965  71.4886506  24.7442434 107.2296458  69.1876665
  25.2730201 106.7188913  68.5746827  25.0070654 106.9138989  70.0522198
  23.4980668  99.0088391  84.3099483  22.8221305  98.9082520  84.9801858
  24.3208302  98.8527605  84.7735480  15.2459527 105.2460328  76.9311998
  15.8312964 104.5004016  77.0639902  15.0484365 105.5564284  77.8148662
  18.0998182 108.2811575  71.9474441  17.4308557 108.7657703  71.4638481
  17.9611052 108.5280795  72.8617819   9.8377182  97.8165928  75.6516441
   9.8761281  97.2829519  76.4453559   9.3317474  97.2901133  75.0327419
  22.2403451 110.3155319  78.5457099  22.7921759 110.4786940  79.3106184
  22.5809644 110.9059756  77.8737124  17.2167944  92.6630468  79.1478984
  17.2809270  93.5245299  78.7356381  17.1535064  92.0504470  78.4151342
  16.6920216  94.7353601  82.7952018  17.3192255  94.3530678  83.4089542
  15.8348135  94.5167803  83.1607710  27.0914325 105.1416576  84.4005753
  27.6354229 105.7546534  83.9060708  26.5101170 105.6996154  84.9172766
  13.4685759  96.5430030  68.7270373  13.7639200  95.6340708  68.6737426
  12.5673795  96.5217769  68.4051375  25.3771838 108.2637294  75.5320781
  25.2522977 107.4627034  75.0231727  26.0350929 108.7583487  75.0434751
  16.9980006  94.6186027  74.7097921  16.2766592  95.2321994  74.5705395
  17.7873262  95.1543791  74.6314567  27.4406746 106.0646314  77.1600331
  26.4937082 105.9451665  77.0878658  27.7889519 105.1768812  77.2426593
  19.8006320  91.9540453  80.9838573  20.3240722  92.2002750  81.7464882
  19.5818653  92.7860488  80.5641710  15.1973601  94.2244128  68.8509698
  14.8686307  93.3441507  68.6684804  15.5512971  94.1691796  69.7386087
  24.4453180 105.8599030  73.3604683  24.2978142 104.9315738  73.5412253
  25.2706673 105.8819121  72.8761759  18.3115424  94.5117097  69.2185176
  18.6511496  95.0403019  68.4963784  18.7587544  94.8497504  69.9943742
  28.0487302 106.6827589  74.4469556  28.9733849 106.4770450  74.3094007
  27.8802605 106.4343990  75.3558898  21.0058865  92.8954148  78.6688244
  20.6655685  92.0961961  79.0708923  20.2997871  93.1955859  78.0965077
  21.6575337  89.9803461  77.1215567  22.4801406  89.5063939  76.9994457
  21.9013400  90.7593944  77.6214253  20.2983571  93.0091719  67.4178468
  21.0191934  93.3872972  66.9142185  19.6748875  93.7280596  67.5213446
  24.4414694  93.7136868  68.3536801  24.6578308  94.5961506  68.0525629
  23.9608761  93.3223081  67.6242443  19.1813915  96.6722581  74.9307545
  19.0358496  96.9862884  75.8231827  18.7039119  97.2907482  74.3778444
  21.0410298  93.6625129  74.9788435  21.0271867  92.7666223  74.6420733
  21.7582726  93.6695793  75.6126721  22.8936429  94.0962469  77.0241562
  22.6354207  95.0179540  77.0225893  22.3621469  93.6992904  77.7142026
  27.8382618 107.2013257  69.8031648  28.0119495 106.6359679  69.0505500
  28.3311509 108.0014151  69.6211138  13.6559578  99.2127926  77.8695206
  13.1113046  99.9887734  78.0015481  14.5338927  99.5598730  77.7114328
  20.4447194  92.5439510  70.2476005  20.5663105  91.6156156  70.4466892
  20.1549237  92.5578195  69.3354320  23.3138385  90.2294420  73.3842725
  23.3360081  90.2933753  72.4294704  23.7306444  89.3898929  73.5783231
  33.6922009  99.9649680  71.4221947  34.1353155  99.2157005  71.0241071
  32.8148519  99.9559816  71.0395679  28.8257790 106.5180021  66.9028546
  29.5208695 107.1386714  67.1215861  29.1680940 105.6675372  67.1780924
  14.4425599  98.3397822  80.7625363  13.7007335  98.4880457  81.3489994
  14.1218344  98.6006088  79.8992113  30.7249213 103.9679727  68.4315877
  31.2500537 104.3066999  67.7065197  30.6371566 103.0326742  68.2479011
  22.3869262 107.8813800  80.5605753  22.6956388 107.6362947  81.4328453
  23.1844744 108.0860439  80.0724624  22.4089874 110.0351710  72.7911130
  21.9694864 109.5428088  73.4843987  23.1597991 109.4924677  72.5503205
  14.8882213 106.2263251  72.7935758  15.7140233 105.9267023  72.4134401
  14.5376265 105.4570873  73.2425547  19.8563746 105.5789719  74.8633432
  19.2343756 104.9160424  74.5635659  20.5268613 105.6050851  74.1807079
  13.0890818 104.1449577  73.7524692  12.2522726 103.7171751  73.5708693
  13.0614464 104.3382020  74.6895483  19.9288274  94.0571507  84.4565938
  19.9776429  94.9333630  84.0743707  20.4710788  93.5148900  83.8837581
  30.4143119 104.6012630  83.7367075  29.6238663 104.5836769  83.1971574
  30.1776474 105.1400924  84.4916111  30.5340994 101.4505097  81.0499803
  30.5838999 101.2855104  81.9915326  30.4254918 100.5832356  80.6597684
  19.4177253 104.1293642  68.3391892  19.5665374 104.8129107  67.6858565
  20.2243697 104.1098732  68.8541348  27.8244757  97.4336025  82.3659110
  28.7254620  97.2942489  82.0743108  27.8992731  97.5990479  83.3057287
  22.1587562  94.8102879  81.2112296  21.2890872  95.1036445  80.9394885
  22.3947043  95.3943324  81.9319560  32.0359191 103.8702038  81.2941825
  31.7444000 104.2332019  82.1305286  31.4231323 103.1569046  81.1155157
  33.2354874 101.4354918  73.8144395  34.0701765 101.8744722  73.9781955
  33.3714002 100.9593571  72.9952641  30.2846380  98.9934653  79.7621883
  30.7600501  99.1862299  78.9540734  29.3611945  99.0493838  79.5165266
  17.1729886 100.1558820  69.3452961  16.9275928  99.2521150  69.5433171
  17.3425801 100.1575970  68.4032439  24.8626596  91.0282496  78.7277717
  25.3808540  91.7643523  78.4024205  24.5081729  91.3346490  79.5624476
  16.4425534  95.8887177  66.8439122  15.7494779  95.9631532  66.1879158
  16.1977286  95.1247521  67.3660639  25.1139190  87.4482779  74.2478613
  25.3940944  86.7805968  74.8739040  25.8989797  87.6411874  73.7353277
  22.9172659 106.6241773  65.8103639  22.3446626 107.2431960  65.3574111
  23.4905452 107.1741134  66.3443561  28.9848049  95.8700413  77.9950188
  29.9365471  95.9698510  78.0162412  28.8151499  95.0778681  78.5048273
  27.0062428  92.9555996  78.1809589  26.4112360  93.2361009  77.4856078
  26.7212125  93.4449897  78.9526330  26.1369918 106.9078923  66.9412222
  27.0700592 106.8424484  67.1445097  26.0493131 107.7435190  66.4826754
  28.7657935 106.2244793  63.9016169  28.6871567 105.8904657  64.7951927
  29.5867602 106.7166561  63.9007642  31.4636126  99.0906532  77.1092488
  31.4312446  98.1522533  77.2952172  32.0736750  99.1690569  76.3758313
  23.3019457  97.9602585  63.1519692  24.2478562  97.8308794  63.2208110
  22.9233702  97.2217247  63.6289120  31.6130615  95.8817576  77.1550771
  31.0969663  95.0976033  76.9680700  32.4970563  95.5536292  77.3197291
  29.2741342  89.6258591  73.1146584  29.0766163  89.3173680  73.9989916
  29.8841047  90.3520230  73.2444514  37.2812676 100.1522539  76.2498525
  38.0116065  99.8907827  76.8106228  36.6719622  99.4151261  76.2900593
  35.3627973  98.2930402  76.8472976  34.6361137  98.1586367  76.2389468
  34.9475260  98.6007230  77.6529694  23.1858150 102.0120332  84.6120349
  24.1061159 102.1898931  84.8060395  23.1507733 101.0676377  84.4600048
  21.4862374  95.8852562  63.0874577  20.5793830  95.5885675  63.1637291
  21.7638355  95.5882380  62.2208863  12.4040315  97.2058925  73.5373624
  12.0843099  96.3524233  73.2447998  11.8573743  97.4207503  74.2931591
  16.1820222  99.9221366  77.2543130  16.4006232 100.8538474  77.2731164
  16.5945996  99.5629341  78.0397934  23.1024440  90.4289452  69.2418819
  22.2925168  90.0836536  69.6174065  23.7908857  90.1196995  69.8306430
  25.0314988  89.5067498  70.8643115  25.5846027  89.9262952  71.5233138
  25.2685075  88.5803246  70.9066071  21.0548088  95.4954572  86.6445879
  20.9544814  96.4448929  86.5757970  20.8369630  95.1672811  85.7721949
  20.2561159  92.7439497  63.2286556  21.1180323  93.0694395  63.4882374
  20.4411503  91.9570993  62.7159622  12.2728575 100.8261837  75.5066745
  11.5792046 100.4115789  74.9936700  13.0201566 100.8682373  74.9100164
  28.4093795  91.6168023  70.3721779  27.8292464  92.2752828  69.9899832
  28.1429728  90.7945368  69.9609197  26.8597362  91.0173081  72.5743100
  27.3597140  91.1289616  71.7657419  27.5032970  90.7134134  73.2143908
  20.9179358  98.9251711  85.4610941  20.4346439  99.7252071  85.6674830
  21.0040297  98.9359656  84.5078385  14.1865317 100.7580090  73.3832760
  14.1636005 100.8567778  72.4314643  14.4965954 101.6045241  73.7049926
  16.8452695 102.8156246  77.4979374  17.7995949 102.7840188  77.4309306
  16.6465219 102.3546869  78.3129600  17.4352077 101.3857362  80.0650172
  18.2544966 101.8801440  80.0885009  17.7088885 100.4689330  80.0367740
  27.1918673  93.7768114  69.4278128  26.3044528  94.0617764  69.2098322
  27.6072663  93.6161877  68.5805405  30.5433210  93.8014635  73.1432467
  31.3193600  94.2911087  73.4157084  29.8181344  94.2272689  73.6004336
  32.9805768  94.5142254  74.2006408  33.5750259  94.2737990  73.4899716
  33.0532352  93.7949385  74.8279944  26.3361887 103.5412789  63.5226148
  27.0397737 103.7462791  64.1383803  25.6124536 104.1089550  63.7875231
  27.1659697  99.2922650  69.6428418  27.1094899  99.7491201  68.8036050
  27.7188040  98.5313334  69.4651261  30.9764503  95.0812382  70.4678537
  30.7201437  94.6809017  71.2986745  30.3517371  95.7956176  70.3428676
  35.2876841  97.8208455  72.9749829  34.7276399  97.8901644  73.7481391
  34.6820344  97.6449440  72.2549325  28.2448584 103.9795318  65.5724608
  29.0794188 103.5476516  65.3902082  28.0832927 103.8077331  66.5001502
  27.8994476 100.4827431  66.9380947  27.8443280 100.3171702  65.9969391
  27.2740532 101.1903464  67.0943137  12.6886991  95.7195495  80.7642369
  13.3345855  95.2094449  81.2529594  12.4804143  96.4564177  81.3385794
  25.2140384 102.7876343  86.2634510  26.0831543 102.9616995  85.9021145
  24.7347135 103.6070760  86.1410239  21.2090602  89.9835540  66.5166265
  21.1969272  90.9277380  66.6734536  22.1014024  89.8005685  66.2225727
  19.3826564 109.9073444  77.9423943  20.2853811 109.9397054  78.2590438
  19.1563934 108.9773895  77.9570279  21.1380166 108.6604430  74.6034022
  20.1875797 108.6606292  74.4898394  21.4412652 107.9137165  74.0870057
  25.0242721  86.5778317  70.7712202  24.2575117  86.0236803  70.9168885
  25.4353426  86.6500185  71.6326354  17.0284482  92.8663112  84.8617383
  17.8915944  92.5099917  85.0720708  16.4549893  92.5277007  85.5492788
  36.8732859 114.4964969  75.6679784  37.5111269 114.3771716  74.9643125
  36.7553702 115.4445813  75.7267737  33.6822566 114.4492397  75.6041309
  33.3441077 114.3333462  74.7161844  34.5512334 114.0483562  75.5842315
  34.1642349 115.6027249  81.5627515  34.1530989 115.2080047  80.6908018
  34.3262988 114.8693321  82.1561286  31.3830845 113.2180644  64.9358249
  31.6356366 112.6962166  64.1741712  30.4455404 113.0546790  65.0384933
  36.4274128 112.2216423  72.7432992  37.2137217 111.8035846  72.3923410
  36.6912832 113.1262515  72.9114641  41.8282555 112.1591656  73.6465971
  42.5607727 111.5890873  73.8803800  41.0721911 111.7713256  74.0872477
  33.4458675 114.5818897  70.8429313  33.0816882 114.0549518  71.5542235
  34.3025791 114.1917366  70.6695799  39.3507975 105.8713230  78.1060580
  39.0191300 106.7408641  77.8821795  38.7553589 105.5549514  78.7854610
  33.0864162 109.6108797  65.8390662  33.2538564 110.4789033  66.2061133
  32.8961331 109.7736079  64.9151951  39.2436639 110.5908316  75.1853930
  38.3353516 110.5223725  74.8912691  39.1924234 111.0680261  76.0135755
  33.0653383 112.0666455  66.8237329  32.9453008 112.5123505  67.6622809
  32.3705971 112.4151772  66.2650867  33.3177504 112.0097962  83.1288827
  32.5410839 112.5691882  83.1191692  33.9568068 112.4954745  83.6503697
  41.1098285 108.7924755  76.9631804  40.4672665 109.0857288  76.3171598
  40.6053214 108.6777675  77.7685000  38.7638449 112.5387928  67.6517663
  39.6756305 112.7715315  67.4765360  38.2548096 113.1224972  67.0892741
  33.4010286 111.8985162  78.6612512  34.2471482 112.3224576  78.8047161
  33.3408924 111.2418787  79.3551075  36.5509732 109.5589531  80.3193686
  36.3070664 110.3131591  79.7827962  36.8269662 109.9374878  81.1540933
  38.5048195 116.1028143  78.9970952  38.7165090 116.7459903  78.3205333
  38.4577943 115.2690460  78.5292882  36.1074424 108.7145964  75.9007524
  35.2458903 109.0127217  76.1924261  36.1336858 108.9316363  74.9688556
  31.8604879 113.3811307  69.1170895  32.5628922 113.8332350  69.5844821
  31.5285507 112.7395126  69.7450788  30.3085241 111.9723063  83.4922104
  29.6783901 112.6539344  83.7257501  30.2021328 111.8606145  82.5475242
  25.6030213 111.6394859  74.4188028  24.8129267 111.8952388  73.9428139
  26.0941460 112.4543197  74.5240069  27.5544958 112.0039439  71.3771505
  26.7576122 112.1158133  71.8955000  27.3270551 112.3426091  70.5112395
  47.7100016 115.3238847  73.5178280  46.9563724 114.7546245  73.3622285
  47.8447557 115.2901511  74.4648915  29.5865983 106.2743829  85.8547355
  29.1932929 105.7210028  86.5294999  30.4032124 106.5854408  86.2453873
  32.5033944 107.6901708  83.4467612  33.2443658 108.2908861  83.3672074
  32.7351867 106.9479346  82.8885654  36.4491107 103.7182811  77.7231893
  36.1055377 104.6084453  77.6471004  36.8170070 103.5284469  76.8601478
  36.4141390 113.7091422  66.2304328  35.8988013 114.4796027  66.4692716
  36.1418698 113.0356558  66.8537390  33.9988501 108.5541123  71.2889567
  33.1430097 108.1647973  71.1095205  34.4115453 108.6333084  70.4289352
  35.5287648 106.0887466  75.6881126  35.0252443 106.0517602  74.8748932
  35.8218254 106.9980209  75.7477783  31.7730533 106.1726196  74.6947308
  32.6383530 105.9769005  74.3353198  31.8408042 105.9436548  75.6216665
  41.3875664 116.4623777  68.1657502  40.6105107 116.1234936  67.7212664
  42.0667145 116.4676400  67.4912467  36.2027693 111.5818514  68.0564110
  35.8977829 111.8964664  68.9074253  37.1558135 111.6599934  68.0991442
  39.6266971 115.9357758  74.8224110  38.9690645 116.6257020  74.9104238
  40.4307370 116.3254190  75.1658096  29.3792853 108.4028404  72.0663675
  29.9536604 108.1803585  71.3336868  29.9663835 108.4717098  72.8192276
  38.4372430 114.2902131  72.8728052  38.9504311 114.9232123  73.3749761
  39.0873654 113.6903326  72.5071412  29.7062440 110.4332865  66.0859560
  28.8699752 110.7707552  66.4068835  29.5667209 110.2981845  65.1486697
  31.6815520 105.2769653  70.7938744  31.0279933 104.9618670  70.1695359
  31.6395994 104.6545393  71.5198567  34.9153261 111.7651586  75.1186392
  33.9975822 111.9866533  74.9608080  35.3313404 111.8397897  74.2598099
  35.6988308 113.1643002  70.2489072  36.4460127 113.6764399  69.9396194
  35.9679898 112.8427055  71.1093466  38.1467146 110.2000118  72.2307862
  37.4089902 109.6877505  72.5618104  38.3993919 109.7600500  71.4191138
  38.2478773 102.9776370  72.8249631  38.5537650 102.1173734  72.5375546
  38.9731378 103.5693991  72.6248625  32.5199853 113.2730163  73.3325822
  32.5748462 112.3204000  73.2568299  31.7091055 113.4289603  73.8167120
  30.4592212 111.8907223  71.0916201  29.6460078 112.1901394  71.4981393
  30.9551207 111.4962912  71.8090683  36.0566424 112.3549048  79.9231095
  36.4115812 112.5820521  80.7825560  36.7038555 112.6867424  79.3008350
  41.7864161 115.4767484  70.6280424  41.6482060 115.6669080  69.7001613
  41.4300380 116.2386866  71.0848475  29.9506287 109.4625579  76.7077436
  30.5905667 109.3214338  76.0100399  29.1183818 109.1760092  76.3316038
  41.8133541 117.5444011  75.6391695  42.2470047 117.4519300  76.4874749
  42.5265121 117.5201511  75.0011711  27.0349355 112.9071091  68.8972181
  26.1046943 112.8455546  69.1142143  27.1306827 112.3847044  68.1008822
  26.9534904 109.4325904  71.4850423  27.2141721 110.3471237  71.3759583
  27.7752076 108.9650346  71.6347035  28.4259829 110.8463661  78.6549247
  29.0982882 110.6381023  78.0061896  27.5989616 110.6485747  78.2154479
  42.6749090 117.5867711  78.1724581  42.8684980 118.4913522  78.4183856
  42.5749708 117.1275130  79.0063166  34.3285401 107.4725602  80.6714908
  33.6813316 108.1715551  80.5779384  35.0986416 107.9061746  81.0391156
  34.5049535 115.3106367  78.7311728  35.4341595 115.4617526  78.5580695
  34.0840565 115.3990387  77.8760374  37.7902274 116.0594668  64.1636163
  37.1731445 115.3341496  64.0669215  37.3218762 116.8204028  63.8203237
  31.4569627 113.8326223  78.9035364  32.1669245 113.1919415  78.8621982
  31.4138935 114.0839118  79.8261545  30.1698561 110.8191441  80.7231003
  29.6335918 110.3682180  81.3752600  29.5815269 110.9537350  79.9801468
  29.5800820 110.2780092  63.2857467  28.7030286 110.1568893  62.9219714
  30.0558573 109.4866171  63.0336356  25.9037682 109.9547449  77.8083998
  25.8195871 109.3473118  77.0734408  25.0820389 110.4456467  77.8093494
  36.0761396 108.4401012  73.1754193  36.5730096 107.6870975  72.8555263
  35.3048378 108.4765329  72.6097402  43.9291153 114.1441378  74.8172484
  43.9181030 115.0266093  74.4466418  43.0608533 113.7912929  74.6227022
  32.6596365 110.5818395  72.9025878  32.2894152 110.0289436  73.5906783
  33.1555457 109.9776529  72.3500878  40.5463728 113.0390019  71.2842650
  41.0124180 113.8718010  71.2102953  40.9971229 112.5735000  71.9887909
  38.5180391 105.4070606  75.3233552  37.6043471 105.6374833  75.4915759
  38.9473492 105.4909050  76.1747584  38.2886849 113.5960498  77.8233446
  37.6358300 113.8436405  77.1685899  38.6667229 112.7824636  77.4895923
  34.3374422 114.3380309  84.3099483  33.6615059 114.2374438  84.9801858
  35.1602056 114.1819523  84.7735480  28.0561698 107.9922386  79.1478984
  28.1203025 108.8537217  78.7356381  27.9928819 107.3796388  78.4151342
  27.5313971 110.0645519  82.7952018  28.1586010 109.6822596  83.4089542
  26.6741890 109.8459721  83.1607710  24.3079514 111.8721948  68.7270373
  24.6032955 110.9632626  68.6737426  23.4067549 111.8509687  68.4051375
  27.8373761 109.9477944  74.7097921  27.1160346 110.5613912  74.5705395
  28.6267016 110.4835709  74.6314567  30.6400074 107.2832371  80.9838573
  31.1634476 107.5294667  81.7464882  30.4212408 108.1152406  80.5641710
  26.0367355 109.5536045  68.8509698  25.7080061 108.6733424  68.6684804
  26.3906726 109.4983714  69.7386087  29.1509178 109.8409015  69.2185176
  29.4905251 110.3694936  68.4963784  29.5981299 110.1789421  69.9943742
  31.8452619 108.2246066  78.6688244  31.5049440 107.4253879  79.0708923
  31.1391626 108.5247777  78.0965077  32.4969091 105.3095378  77.1215567
  33.3195160 104.8355856  76.9994457  32.7407155 106.0885862  77.6214253
  31.1377326 108.3383637  67.4178468  31.8585688 108.7164890  66.9142185
  30.5142630 109.0572514  67.5213446  35.2808448 109.0428786  68.3536801
  35.4972063 109.9253424  68.0525629  34.8002516 108.6514999  67.6242443
  30.0207670 112.0014499  74.9307545  29.8752251 112.3154802  75.8231827
  29.5432873 112.6199399  74.3778444  31.8804053 108.9917047  74.9788435
  31.8665621 108.0958140  74.6420733  32.5976481 108.9987711  75.6126721
  33.7330183 109.4254387  77.0241562  33.4747961 110.3471458  77.0225893
  33.2015224 109.0284822  77.7142026  31.2840949 107.8731427  70.2476005
  31.4056860 106.9448073  70.4466892  30.9942991 107.8870113  69.3354320
  34.1532139 105.5586338  73.3842725  34.1753836 105.6225671  72.4294704
  34.5700198 104.7190846  73.5783231  44.5315763 115.2941597  71.4221947
  44.9746909 114.5448922  71.0241071  43.6542274 115.2851734  71.0395679
  30.7682028 109.3863425  84.4565938  30.8170184 110.2625547  84.0743707
  31.3104542 108.8440818  83.8837581  41.3734749 116.7797014  81.0499803
  41.4232754 116.6147022  81.9915326  41.2648672 115.9124273  80.6597684
  38.6638511 112.7627942  82.3659110  39.5648374 112.6234407  82.0743108
  38.7386486 112.9282397  83.3057287  32.9981317 110.1394797  81.2112296
  32.1284626 110.4328363  80.9394885  33.2340797 110.7235242  81.9319560
  44.0748628 116.7646835  73.8144395  44.9095519 117.2036640  73.9781955
  44.2107757 116.2885489  72.9952641  41.1240134 114.3226570  79.7621883
  41.5994256 114.5154217  78.9540734  40.2005699 114.3785756  79.5165266
  35.7020350 106.3574414  78.7277717  36.2202294 107.0935441  78.4024205
  35.3475483 106.6638407  79.5624476  27.2819288 111.2179095  66.8439122
  26.5888533 111.2923450  66.1879158  27.0371040 110.4539439  67.3660639
  35.9532945 102.7774696  74.2478613  36.2334698 102.1097886  74.8739040
  36.7383552 102.9703792  73.7353277  39.8241803 111.1992330  77.9950188
  40.7759226 111.2990428  78.0162412  39.6545253 110.4070599  78.5048273
  37.8456182 108.2847914  78.1809589  37.2506115 108.5652926  77.4856078
  37.5605879 108.7741815  78.9526330  42.3029881 114.4198450  77.1092488
  42.2706201 113.4814451  77.2952172  42.9130504 114.4982487  76.3758313
  34.1413212 113.2894503  63.1519692  35.0872316 113.1600711  63.2208110
  33.7627457 112.5509165  63.6289120  42.4524369 111.2109494  77.1550771
  41.9363418 110.4267950  76.9680700  43.3364318 110.8828210  77.3197291
  40.1135096 104.9550509  73.1146584  39.9159917 104.6465597  73.9989916
  40.7234802 105.6812148  73.2444514  48.1206431 115.4814457  76.2498525
  48.8509819 115.2199745  76.8106228  47.5113376 114.7443179  76.2900593
  46.2021728 113.6222320  76.8472976  45.4754891 113.4878284  76.2389468
  45.7869015 113.9299148  77.6529694  32.3256129 111.2144479  63.0874577
  31.4187584 110.9177592  63.1637291  32.6032110 110.9174298  62.2208863
  33.9418195 105.7581369  69.2418819  33.1318923 105.4128454  69.6174065
  34.6302611 105.4488913  69.8306430  35.8708743 104.8359416  70.8643115
  36.4239781 105.2554869  71.5233138  36.1078829 103.9095164  70.9066071
  31.8941842 110.8246490  86.6445879  31.7938569 111.7740847  86.5757970
  31.6763384 110.4964729  85.7721949  31.0954913 108.0731415  63.2286556
  31.9574077 108.3986313  63.4882374  31.2805258 107.2862911  62.7159622
  39.2487550 106.9459941  70.3721779  38.6686219 107.6044745  69.9899832
  38.9823483 106.1237286  69.9609197  37.6991116 106.3464999  72.5743100
  38.1990895 106.4581533  71.7657419  38.3426724 106.0426052  73.2143908
  38.0312428 109.1060032  69.4278128  37.1438283 109.3909682  69.2098322
  38.4466417 108.9453795  68.5805405  41.3826964 109.1306553  73.1432467
  42.1587354 109.6203005  73.4157084  40.6575098 109.5564607  73.6004336
  43.8199523 109.8434172  74.2006408  44.4144013 109.6029908  73.4899716
  43.8926106 109.1241302  74.8279944  38.0053452 114.6214567  69.6428418
  37.9488653 115.0783119  68.8036050  38.5581794 113.8605252  69.4651261
  41.8158258 110.4104299  70.4678537  41.5595192 110.0100935  71.2986745
  41.1911126 111.1248093  70.3428676  46.1270595 113.1500373  72.9749829
  45.5670153 113.2193562  73.7481391  45.5214099 112.9741357  72.2549325
  38.7388231 115.8119349  66.9380947  38.6837035 115.6463620  65.9969391
  38.1134286 116.5195382  67.0943137  23.5280746 111.0487413  80.7642369
  24.1739610 110.5386367  81.2529594  23.3197897 111.7856095  81.3385794
  32.0484356 105.3127458  66.5166265  32.0363026 106.2569298  66.6734536
  32.9407778 105.1297603  66.2225727  35.8636476 101.9070234  70.7712202
  35.0968872 101.3528721  70.9168885  36.2747181 101.9792103  71.6326354
  27.8678237 108.1955030  84.8617383  28.7309699 107.8391835  85.0720708
  27.2943648 107.8568925  85.5492788  47.2884862 119.0474729  77.7231893
  46.9449131 119.9376371  77.6471004  47.6563824 118.8576386  76.8601478
  49.0872527 118.3068288  72.8249631  49.3931404 117.4465651  72.5375546
  49.8125132 118.8985908  72.6248625  46.7926699 118.1066614  74.2478613
  47.0728453 117.4389803  74.8739040  47.5777306 118.2995710  73.7353277
  50.9528851 120.2842427  73.1146584  50.7553672 119.9757515  73.9989916
  51.5628556 121.0104066  73.2444514  46.7030230 117.2362152  70.7712202
  45.9362626 116.6820639  70.9168885  47.1140935 117.3084021  71.6326354
   4.3524999  31.0133299  60.2423587   3.5988707  30.4440697  60.0867591
   4.4872540  30.9795963  61.1894222   0.7173611  32.4541287  60.5389702
   1.5520503  32.8931091  60.7027262   0.8532740  31.9779941  59.7197947
   4.7631414  31.1708909  62.9743831   5.4934802  30.9094197  63.5351535
   4.1538359  30.4337631  63.0145899   2.8446711  29.3116771  63.5718283
   2.1179875  29.1772736  62.9634774   2.4293998  29.6193600  64.3775001
   0.4624506  25.5328624  60.9251714   1.0568997  25.2924360  60.2145022
   0.5351090  24.8135754  61.5525250   2.7695579  28.8394824  59.6995135
   2.2095137  28.9088014  60.4726697   2.1639082  28.6635809  58.9794632
   4.3551597  45.5151338  62.3925091   4.9930007  45.3958086  61.6888431
   4.2372440  46.4632182  62.4513043   1.1641303  45.4678767  62.3286616
   0.8259815  45.3519831  61.4407151   2.0331072  45.0669932  62.3087622
   1.6461086  46.6213618  68.2872821   1.6349727  46.2266417  67.4153325
   1.8081726  45.8879691  68.8806593   2.6027678  50.9885211  53.6297972
   1.9515658  51.5739291  53.2431985   3.3972041  51.5191406  53.6893009
   3.9092866  43.2402792  59.4678299   4.6955955  42.8222215  59.1168716
   4.1731570  44.1448884  59.6359948   4.0802943  48.6775643  54.1666956
   3.4448776  48.7510269  54.8787861   3.7500349  49.2669241  53.4886035
   9.3101293  43.1778025  60.3711278  10.0426465  42.6077242  60.6049107
   8.5540649  42.7899626  60.8117783   0.9277413  45.6005267  57.5674620
   0.5635620  45.0735888  58.2787542   1.7844528  45.2103736  57.3941105
   6.8326713  36.8899600  64.8305886   6.5010038  37.7595011  64.6067101
   6.2372327  36.5735884  65.5099917   3.3258233  49.0912146  64.2301799
   3.0258956  49.9937184  64.1217606   2.9809292  48.8244329  65.0822952
   6.7255376  41.6094686  61.9099236   5.8172254  41.5410094  61.6157997
   6.6742972  42.0866631  62.7381062   8.5917023  39.8111124  63.6877110
   7.9491403  40.1043657  63.0416905   8.0871951  39.6964044  64.4930307
   6.2457187  43.5574297  54.3762969   7.1575043  43.7901684  54.2010667
   5.7366834  44.1411342  53.8138048   4.5297954  47.9798925  68.0124262
   4.9381310  47.5381336  67.2678894   3.8075216  47.4051553  68.2658455
   0.8829024  42.9171532  65.3857819   1.7290219  43.3410945  65.5292468
   0.8227662  42.2605156  66.0796382   4.8526769  48.5400116  61.7676551
   4.2235631  48.7045830  61.0652619   4.4652431  48.9541725  62.5387515
   8.7316001  49.4754554  59.1220915   8.0467039  49.8553455  58.5717948
   8.8159850  50.0849880  59.8552862   4.0328470  40.5775900  67.0438993
   3.7889401  41.3317961  66.5073268   4.3088400  40.9561248  67.8786240
   5.9866932  47.1214513  65.7216258   6.1983828  47.7646273  65.0450639
   5.9396681  46.2876829  65.2538188   3.5893161  39.7332333  62.6252830
   2.7277640  40.0313587  62.9169568   3.6155596  39.9502732  61.6933863
   7.1012760  49.9986468  63.8938616   7.9230204  49.5966655  63.6121297
   7.0975163  49.8954702  64.8454731  15.1918753  46.3425217  60.2423587
  14.4382462  45.7732615  60.0867591  15.3266295  46.3087881  61.1894222
   0.5817381  51.2138619  55.9178306   0.4463056  52.0590155  56.3463154
   1.1227194  51.4157897  55.1544240   2.2085858  51.8362185  70.0478648
   1.7649712  51.0498564  69.7299553   2.8703071  52.0241336  69.3822539
   4.3067096  52.1164985  68.0760050   4.2885571  52.9373866  67.5840319
   5.2287016  51.9919061  68.3010191   3.9309845  34.7369181  64.4477200
   3.5874114  35.6270822  64.3716310   4.2988808  34.5470838  63.5846785
   3.8960128  44.7277792  52.9549635   3.3806751  45.4982396  53.1938022
   3.6237436  44.0542928  53.5782696   1.4807239  39.5727493  58.0134873
   0.6248835  39.1834343  57.8340512   1.8934190  39.6519453  57.1534659
   3.0106385  37.1073836  62.4126433   2.5071181  37.0703971  61.5994238
   3.3036992  38.0166579  62.4723090   8.8694402  47.4810147  54.8902808
   8.0923845  47.1421306  54.4457971   9.5485883  47.4862770  54.2157773
   3.6846431  42.6004884  54.7809416   3.3796566  42.9151033  55.6319559
   4.6376873  42.6786304  54.8236749   2.1292863  48.7595107  56.4302370
   1.6014224  48.0247867  56.1175608   1.6280365  49.5369784  56.1842338
   7.1085709  46.9544128  61.5469416   6.4509383  47.6443389  61.6349545
   7.9126108  47.3440560  61.8903403   5.9191168  45.3088500  59.5973358
   6.4323049  45.9418492  60.0995068   6.5692391  44.7089696  59.2316718
   3.1813542  55.2872825  52.3534029   2.5075241  55.5904521  52.9618987
   3.5679364  56.0901905  52.0039486   2.3971998  42.7837956  61.8431699
   1.4794560  43.0052903  61.6853387   2.8132142  42.8584266  60.9843406
   3.1807046  44.1829372  56.9734379   3.9278865  44.6950769  56.6641501
   3.4498636  43.8613424  57.8338773   1.4533696  46.6787912  53.9561333
   0.5444916  46.3946945  54.0533803   1.4828780  47.0986991  53.0964640
   6.6852964  50.2894502  57.7252501   6.2315291  49.4485412  57.7817691
   6.0546930  50.9255900  58.0627281   5.6285883  41.2186488  58.9553168
   4.8908640  40.7063874  59.2863411   5.8812657  40.7786870  58.1436445
   5.1285903  52.1270999  58.6602319   5.4208877  52.6876056  57.9414685
   5.6384524  52.4199560  59.4155478   5.7297511  33.9962740  59.5494938
   6.0356387  33.1360103  59.2620853   6.4550115  34.5880360  59.3493931
   1.1509784  48.2196656  51.2949412   0.7129214  47.5032515  50.8355049
   1.8920225  48.4472771  50.7334503   3.5385162  43.3735417  66.6476401
   3.8934550  43.6006890  67.5070867   4.1857293  43.7053794  66.0253657
   9.2682899  46.4953853  57.3525730   9.1300798  46.6855449  56.4246920
   8.9119118  47.2573236  57.8093782   9.2952279  48.5630380  62.3637002
   9.7288785  48.4705669  63.2120056  10.0083859  48.5387881  61.7257018
   3.0280173  52.1632474  63.8970102   3.0817196  52.7323411  64.6647818
   2.1594955  52.3334359  63.5324140  10.1567828  48.6054081  64.8969887
  10.3503718  49.5099891  65.1429162  10.0568446  48.1461500  65.7308472
   1.8104139  38.4911971  67.3960215   1.1632054  39.1901921  67.3024691
   2.5805154  38.9248115  67.7636463   5.2182937  48.7560824  70.4710768
   5.0668443  48.5271375  69.5540852   5.2087616  49.7131425  70.4842113
   1.9868273  46.3292736  65.4557034   2.9160333  46.4803896  65.2826002
   1.5659303  46.4176757  64.6005681   1.3804757  55.4552497  54.5681109
   1.5556513  54.9840540  55.3826731   0.6937545  56.0818263  54.7962369
   2.3361820  49.7325003  60.6144410   2.0011653  49.6925773  61.5102060
   1.8365766  49.0669719  60.1414820   5.2721012  47.0781038  50.8881469
   4.6550182  46.3527866  50.7914522   4.8037500  47.8390398  50.5448544
   6.9275143  51.7879946  68.5487250   6.8687690  51.1039166  67.8817833
   7.3294662  52.5298936  68.0967876   6.9292551  49.7519530  66.7801229
   6.0419329  49.4145452  66.9027628   7.4991102  49.0202561  67.0169995
   3.5580134  39.4587382  59.8999500   4.0548833  38.7057344  59.5800570
   2.7867115  39.4951698  59.3342709  11.4109891  45.1627747  61.5417791
  11.3999767  46.0452463  61.1711724  10.5427271  44.8099298  61.3472328
   2.9192388  54.3107816  65.9020631   3.6320360  54.9455281  65.8296533
   2.4282416  54.4071682  65.0860633   4.6409914  48.2159069  57.4737923
   3.7066193  48.3360532  57.3042627   4.8186583  47.3131536  57.2097933
   8.0282466  44.0576388  58.0087957   8.4942918  44.8904380  57.9348260
   8.4789966  43.5921370  58.7133216   6.0958697  50.4020210  55.0074109
   6.3718541  50.2876804  55.9167983   5.2263196  50.0037694  54.9686282
   5.9999129  36.4256975  62.0478858   5.0862208  36.6561202  62.2161065
   6.4292230  36.5095419  62.8992891   5.7705587  44.6146867  64.5478752
   5.1177037  44.8622775  63.8931205   6.1485967  43.8011005  64.2141230
   2.7312761  54.6506560  58.6506923   2.9135155  53.8328216  59.1134675
   3.5545747  54.8674253  58.2131813   3.0654926  53.5774746  55.9121971
   3.5942693  53.0667200  55.2992133   3.3283146  53.2617276  56.7767504
   1.8193160  45.3566678  71.0344790   1.1433797  45.2560808  71.7047165
   2.6420794  45.2005892  71.4980787   0.5615943  56.6633606  65.2702406
   1.1134251  56.8265227  66.0351491   0.9022136  57.2538044  64.5982430
   5.4126817  51.4894863  71.1251060   5.9566721  52.1024822  70.6306015
   4.8313662  52.0474442  71.6418073   3.6984330  54.6115581  62.2566088
   3.5735470  53.8105321  61.7477033   4.3563421  55.1061775  61.7680058
   5.7619239  52.4124601  63.8845638   4.8149574  52.2929953  63.8123965
   6.1102012  51.5247099  63.9671899   2.7665672  52.2077318  60.0849990
   2.6190634  51.2794025  60.2657560   3.5919165  52.2297408  59.6007065
   6.3699794  53.0305876  61.1714863   7.2946341  52.8248738  61.0339314
   6.2015097  52.7822278  62.0804204   2.7627186  40.0615155  55.0782107
   2.9790801  40.9439793  54.7770935   2.2821253  39.6701369  54.3487749
   1.2148921  40.4440757  63.7486869   0.9566699  41.3657827  63.7471199
   0.6833962  40.0471191  64.4387333   6.1595110  53.5491544  56.5276954
   6.3331988  52.9837966  55.7750807   6.6524001  54.3492439  56.3456444
   1.6350877  36.5772707  60.1088031   1.6572574  36.6412040  59.1540011
   2.0518936  35.7377216  60.3028538  12.0134501  46.3127967  58.1467254
  12.4565647  45.5635292  57.7486377  11.1361011  46.3038103  57.7640986
   7.1470282  52.8658308  53.6273853   7.8421187  53.4865001  53.8461167
   7.4893433  52.0153659  53.9026230   9.0461706  50.3158014  55.1561183
   9.5713030  50.6545287  54.4310503   8.9584058  49.3805029  54.9724318
   0.7081754  54.2292087  67.2851060   1.0168881  53.9841234  68.1573760
   1.5057236  54.4338726  66.7969930   8.7355612  50.9490917  70.4612381
   7.9451155  50.9315056  69.9216881   8.4988966  51.4879211  71.2161418
   8.8553487  47.7983384  67.7745110   8.9051492  47.6333391  68.7160633
   8.7467410  46.9310643  67.3842991   6.1457249  43.7814312  69.0904416
   7.0467112  43.6420777  68.7988414   6.2205224  43.9468767  70.0302594
  10.3571684  50.2180325  68.0187131  10.0656492  50.5810306  68.8550592
   9.7443815  49.5047334  67.8400463  11.5567366  47.7833205  60.5389702
  12.3914257  48.2223009  60.7027262  11.6926495  47.3071858  59.7197947
   8.6058872  45.3412940  66.4867189   9.0812993  45.5340586  65.6786041
   7.6824437  45.3972126  66.2410573   3.1839088  37.3760783  65.4523023
   3.7021032  38.1121810  65.1269512   2.8294221  37.6824777  66.2869782
   3.4351682  33.7961066  60.9723920   3.7153436  33.1284255  61.5984346
   4.2202289  33.9890162  60.4598584   1.2385151  52.9720060  52.5348946
   0.6659118  53.5910247  52.0819418   1.8117945  53.5219422  53.0688868
   7.3060541  42.2178700  64.7195495   8.2577964  42.3176798  64.7407719
   7.1363991  41.4256969  65.2293579   5.3274920  39.3034283  64.9054896
   4.7324852  39.5839296  64.2101384   5.0424617  39.7928184  65.6771637
   4.4582411  53.2557210  53.6657528   5.3913084  53.1902772  53.8690404
   4.3705624  54.0913477  53.2072061   7.0870427  52.5723080  50.6261476
   7.0084059  52.2382944  51.5197234   7.9080094  53.0644848  50.6252948
   9.7848619  45.4384820  63.8337795   9.7524939  44.5000820  64.0197478
  10.3949242  45.5168856  63.1003619   1.6231949  44.3080873  49.8764999
   2.5691054  44.1787081  49.9453417   1.2446194  43.5695535  50.3534427
   9.9343107  42.2295863  63.8796078   9.4182156  41.4454320  63.6926007
  10.8183056  41.9014580  64.0442597   7.5953834  35.9736879  59.8391890
   7.3978655  35.6651967  60.7235222   8.2053540  36.6998518  59.9689820
  15.6025168  46.5000827  62.9743831  16.3328557  46.2386115  63.5351535
  14.9932114  45.7629548  63.0145899  13.6840466  44.6408689  63.5718283
  12.9573629  44.5064654  62.9634774  13.2687752  44.9485518  64.3775001
   1.5070642  48.3598619  71.3365656   2.4273651  48.5377218  71.5305702
   1.4720225  47.4154664  71.1845355   1.4236932  36.7767739  55.9664125
   0.6137661  36.4314824  56.3419371   2.1121349  36.4675282  56.5551737
   3.3527481  35.8545786  57.5888422   3.9058519  36.2741239  58.2478445
   3.5897567  34.9281534  57.6311378   6.7306288  37.9646311  57.0967086
   6.1504957  38.6231115  56.7145138   6.4642220  37.1423655  56.6854504
   5.1809854  37.3651368  59.2988406   5.6809632  37.4767903  58.4902725
   5.8245462  37.0612421  59.9389215   5.5131166  40.1246401  56.1523434
   4.6257021  40.4096052  55.9343629   5.9285155  39.9640164  55.3050711
   8.8645702  40.1492922  59.8677774   9.6406092  40.6389375  60.1402390
   8.1393836  40.5750976  60.3249643  11.3018260  40.8620541  60.9251714
  11.8962751  40.6216277  60.2145022  11.3744844  40.1427672  61.5525250
   4.6574379  49.8891076  50.2471454   5.3610229  50.0941078  50.8629110
   3.9337028  50.4567838  50.5120538   5.4872189  45.6400937  56.3673724
   5.4307391  46.0969488  55.5281357   6.0400532  44.8791622  56.1896567
   9.2976995  41.4290669  57.1923844   9.0413930  41.0287305  58.0232052
   8.6729863  42.1434463  57.0673983  13.6089333  44.1686742  59.6995135
  13.0488891  44.2379931  60.4726697  13.0032837  43.9927727  58.9794632
   6.5661077  50.3273605  52.2969914   7.4006681  49.8954803  52.1147389
   6.4045420  50.1555619  53.2246809   6.2206969  46.8305718  53.6626254
   6.1655773  46.6649990  52.7214698   5.5953024  47.5381751  53.8188443
   3.5352876  49.1354630  72.9879816   4.4044036  49.3095282  72.6266451
   3.0559627  49.9549047  72.8655546   3.3455214  32.9256604  57.4957509
   2.5787609  32.3715091  57.6414191   3.7565919  32.9978473  58.3571660
  15.1945352  60.8443256  62.3925091  15.8323762  60.7250003  61.6888431
  15.0766195  61.7924100  62.4513043  12.0035058  60.7970684  62.3286616
  11.6653569  60.6811749  61.4407151  12.8724826  60.3961849  62.3087622
   7.8621874  62.6506161  58.3183507   7.2986739  62.5596098  57.5499794
   7.7474269  61.8306065  58.7985999  12.4854841  61.9505536  68.2872821
  12.4743482  61.5558334  67.4153325  12.6475480  61.2171609  68.8806593
   5.4086306  64.1457352  61.1567727   6.2007598  63.8048177  60.7414026
   5.6482956  64.2552327  62.0769880  13.4421432  66.3177128  53.6297972
  12.7909412  66.9031209  53.2431985  14.2365795  66.8483323  53.6893009
   7.3677060  63.4066265  54.0285106   8.1407936  62.8595253  53.8897982
   7.7202458  64.2710515  54.2399567   9.2062102  64.7342648  67.2352005
   8.9151968  65.6388279  67.1198672   9.8419086  64.7759175  67.9496075
  10.1318309  62.1119496  63.8253365  10.7281881  61.8875519  63.1110328
  10.1893280  61.3704242  64.4278813   9.7043337  59.5658932  51.6603556
   9.9568858  59.0440453  50.8987019   8.7667896  59.4025077  51.7630239
  14.7486620  58.5694710  59.4678299  15.5349709  58.1514133  59.1168716
  15.0125324  59.4740802  59.6359948  14.9196698  64.0067560  54.1666956
  14.2842530  64.0802187  54.8787861  14.5894104  64.5961159  53.4886035
  20.1495047  58.5069943  60.3711278  20.8820219  57.9369160  60.6049107
  19.3934403  58.1191544  60.8117783   9.4239626  61.4687038  53.8627931
   9.3075884  60.7931941  54.5309015   9.5341886  60.9819411  53.0460084
  11.7671167  60.9297185  57.5674620  11.4029374  60.4027806  58.2787542
  12.6238283  60.5395654  57.3941105  17.6720468  52.2191517  64.8305886
  17.3403792  53.0886928  64.6067101  17.0766081  51.9027801  65.5099917
  11.4076654  55.9587084  52.5635969  11.5751056  56.8267321  52.9306440
  11.2173823  56.1214366  51.6397258  14.1651987  64.4204063  64.2301799
  13.8652710  65.3229102  64.1217606  13.8203047  64.1536246  65.0822952
   7.6164469  60.8717860  60.2638503   6.6914965  60.7394074  60.4716195
   7.8648882  61.6512079  60.7608446  17.5649131  56.9386603  61.9099236
  16.6566008  56.8702012  61.6157997  17.5136727  57.4158548  62.7381062
  11.3865875  58.4144742  53.5482635  11.2665500  58.8601793  54.3868116
  10.6918463  58.7630060  52.9896174   4.9773280  60.5151134  61.0982292
   5.1065661  60.7685613  62.0121704   4.2970731  61.1078842  60.7786948
   9.1472767  71.1848384  57.1972767   9.0696797  72.1356209  57.2761247
   8.5434411  70.8394256  57.8547693  11.6389997  58.3576249  69.8534134
  10.8623331  58.9170169  69.8436998  12.2780560  58.8433032  70.3749004
  19.4310777  55.1403042  63.6877110  18.7885158  55.4335575  63.0416905
  18.9265706  55.0255962  64.4930307  17.0850941  58.8866215  54.3762969
  17.9968797  59.1193602  54.2010667  16.5760588  59.4703259  53.8138048
   9.8936369  61.1661702  69.4152101  10.6351053  61.7046746  69.1386924
   9.1873355  61.7927991  69.5723652  15.3691709  63.3090843  68.0124262
  15.7775065  62.8673253  67.2678894  14.6468970  62.7343470  68.2658455
  11.7222779  58.2463450  65.3857819  12.5683974  58.6702863  65.5292468
  11.6621416  57.5897074  66.0796382  15.6920523  63.8692033  61.7676551
  15.0629386  64.0337748  61.0652619  15.3046185  64.2833643  62.5387515
  19.5709755  64.8046471  59.1220915  18.8860793  65.1845373  58.5717948
  19.6553605  65.4141798  59.8552862  14.8722224  55.9067818  67.0438993
  14.6283156  56.6609879  66.5073268  15.1482155  56.2853166  67.8786240
  16.8260687  62.4506430  65.7216258  17.0377582  63.0938190  65.0450639
  16.7790435  61.6168747  65.2538188  14.4286916  55.0624251  62.6252830
  13.5671395  55.3605505  62.9169568  14.4549350  55.2794650  61.6933863
  11.2448485  63.6066442  59.0326636  11.7086831  63.8854145  58.2431259
  10.9805283  62.7049886  58.8499727   8.1372566  63.1537923  61.9706399
   8.7073923  63.5825191  61.3323884   8.7280678  62.8720508  62.6690585
  10.1817371  59.7289594  55.8416201  10.8841415  60.1810638  56.3090128
   9.8498000  59.0873413  56.4696094   8.6297733  58.3201351  70.2167411
   7.9996393  59.0017631  70.4502807   8.5233821  58.2084432  69.2720549
   3.9242705  57.9873147  61.1433335   3.1341759  58.2430675  60.6673445
   4.4153953  58.8021484  61.2485375  17.9406515  65.3278386  63.8938616
  18.7623959  64.9258573  63.6121297  17.9368918  65.2246620  64.8454731
   5.8757451  58.3517726  58.1016811   5.0788614  58.4636420  58.6200307
   5.6483043  58.6904378  57.2357702  11.7063118  64.8762429  66.0499326
  11.7707551  65.3382836  66.8857498  10.9974042  64.2459794  66.1781636
   2.2080408  58.2403637  63.5748326   2.4588447  59.1250647  63.8405901
   2.7439957  58.0608239  62.8023417  26.0312508  61.6717134  60.2423587
  25.2776216  61.1024532  60.0867591  26.1660049  61.6379799  61.1894222
  11.4211136  66.5430537  55.9178306  11.2856811  67.3882072  56.3463154
  11.9620948  66.7449814  55.1544240   7.9078476  52.6222116  72.5792662
   7.5145421  52.0688315  73.2540306   8.7244616  52.9332695  72.9699179
   4.8740533  64.0605975  56.4906231   5.3865054  64.8549225  56.6411796
   5.5263246  63.3632265  56.4239833   6.6835418  67.1771731  58.5728985
   6.8602046  68.0989696  58.3849969   7.4792252  66.8630150  59.0023364
  10.8246437  54.0379995  70.1712918  11.5656150  54.6387149  70.0917381
  11.0564359  53.2957633  69.6130961   5.9687775  59.2236363  68.4491148
   5.8541290  58.3221620  68.7498247   5.1132292  59.4700060  68.0975964
  13.0479612  67.1654103  70.0478648  12.6043466  66.3790482  69.7299553
  13.7096826  67.3533254  69.3822539   7.8066733  68.6949905  64.5739327
   8.3574159  68.5666968  63.8016321   6.9678209  68.9944794  64.2234220
  15.1460850  67.4456903  68.0760050  15.1279326  68.2665784  67.5840319
  16.0680770  67.3210978  68.3010191  11.6033905  64.9601032  68.9183558
  12.1362241  64.1989321  68.6882866  11.0747986  64.6674684  69.6607713
  14.7703599  50.0661098  64.4477200  14.4267869  50.9562740  64.3716310
  15.1382562  49.8762756  63.5846785   2.8389450  62.3894629  57.2665802
   3.6764672  62.7991637  57.0499510   3.0167718  61.4494071  57.2365996
  14.7353882  60.0569710  52.9549635  14.2200506  60.8274314  53.1938022
  14.4631191  59.3834846  53.5782696  12.3200993  54.9019410  58.0134873
  11.4642590  54.5126261  57.8340512  12.7327945  54.9811371  57.1534659
  13.8500140  52.4365754  62.4126433  13.3464935  52.3995889  61.5994238
  14.1430747  53.3458496  62.4723090  10.0943026  52.5204483  61.4192615
  10.9596023  52.3247292  61.0598504  10.1620535  52.2914835  62.3461972
  19.7088156  62.8102064  54.8902808  18.9317599  62.4713224  54.4457971
  20.3879637  62.8154687  54.2157773  14.5240185  57.9296802  54.7809416
  14.2190321  58.2442951  55.6319559  15.4770627  58.0078222  54.8236749
  12.9686617  64.0887025  56.4302370  12.4407979  63.3539785  56.1175608
  12.4674120  64.8661701  56.1842338  17.9479463  62.2836045  61.5469416
  17.2903138  62.9735307  61.6349545  18.7519862  62.6732477  61.8903403
   7.7005345  54.7506691  58.7908982   8.2749097  54.5281873  58.0582175
   8.2876327  54.8195386  59.5437583  16.7584922  60.6380418  59.5973358
  17.2716804  61.2710410  60.0995068  17.4086146  60.0381614  59.2316718
   8.0274932  56.7811152  52.8104867   7.1912244  57.1185839  53.1314142
   7.8879702  56.6460132  51.8732004  10.0028013  51.6247940  57.5184051
   9.3492425  51.3096957  56.8940666   9.9608487  51.0023681  58.2443874
  11.1139217  61.9067235  49.4337343  10.2066279  61.6756489  49.6328492
  11.6110249  61.1104854  49.6211325  14.0207296  70.6164742  52.3534029
  13.3468995  70.9196439  52.9618987  14.4073118  71.4193823  52.0039486
  13.2365753  58.1129874  61.8431699  12.3188314  58.3344821  61.6853387
  13.6525897  58.1876184  60.9843406  14.0200801  59.5121289  56.9734379
  14.7672620  60.0242687  56.6641501  14.2892390  59.1905342  57.8338773
  12.2927451  62.0079830  53.9561333  11.3838670  61.7238863  54.0533803
  12.3222535  62.4278909  53.0964640  17.5246718  65.6186420  57.7252501
  17.0709045  64.7777329  57.7817691  16.8940685  66.2547818  58.0627281
  16.4679638  56.5478406  58.9553168  15.7302395  56.0355792  59.2863411
  16.7206411  56.1078787  58.1436445  15.9679657  67.4562916  58.6602319
  16.2602632  68.0167973  57.9414685  16.4778278  67.7491477  59.4155478
  16.5691265  49.3254658  59.5494938  16.8750142  48.4652021  59.2620853
  17.2943870  49.9172278  59.3493931   2.8615621  59.7285344  57.9376535
   2.6640021  59.1354705  57.2127602   2.3062285  59.4237554  58.6552474
  10.8412345  59.6208451  60.0571129  10.8960955  58.6682287  59.9813605
  10.0303547  59.7767890  60.5412427  11.9903539  63.5488574  51.2949412
  11.5522969  62.8324433  50.8355049  12.7313979  63.7764689  50.7334503
   8.7804705  58.2385510  57.8161507   7.9672570  58.5379681  58.2226700
   9.2763699  57.8441199  58.5335990  10.9313283  68.2343267  59.7495772
  10.8889461  68.4604114  58.8204304  11.8475982  68.0006642  59.8981573
  14.3778916  58.7027335  66.6476401  14.7328304  58.9298808  67.5070867
  15.0251048  59.0345712  66.0253657  20.1076653  61.8245771  57.3525730
  19.9694552  62.0147367  56.4246920  19.7512872  62.5865154  57.8093782
   8.2718780  55.8103866  63.4322742   8.9118159  55.6692625  62.7345706
   7.4396310  55.5238379  63.0561344  20.1346033  63.8922298  62.3637002
  20.5682540  63.7997587  63.2120056  20.8477614  63.8679798  61.7257018
   9.0479083  65.1106296  59.5457735   9.8419682  64.6156617  59.3440310
   8.3370776  64.5824160  59.1825440  13.8673928  67.4924392  63.8970102
  13.9210950  68.0615328  64.6647818  12.9988709  67.6626277  63.5324140
   5.3561847  59.2549378  55.6217488   4.4259435  59.1933834  55.8387450
   5.4519319  58.7325331  54.8254129   5.2747396  55.7804191  58.2095729
   5.5354213  56.6949524  58.1004890   6.0964568  55.3128634  58.3592342
   6.7472321  57.1941948  65.3794554   7.4195375  56.9859310  64.7307203
   5.9202108  56.9964034  64.9399786  20.9961583  63.9345998  64.8969887
  21.1897473  64.8391809  65.1429162  20.8962201  63.4753418  65.7308472
  12.6497893  53.8203889  67.3960215  12.0025808  54.5193839  67.3024691
  13.4198909  54.2540033  67.7636463  16.0576691  64.0852741  70.4710768
  15.9062198  63.8563293  69.5540852  16.0481371  65.0423343  70.4842113
  12.8262028  61.6584654  65.4557034  13.7554088  61.8095814  65.2826002
  12.4053058  61.7468675  64.6005681  11.6250359  65.6835318  63.2255572
  11.4861445  65.3154103  64.0981510  10.8364956  66.1982958  63.0539530
  12.2198511  70.7844415  54.5681109  12.3950267  70.3132458  55.3826731
  11.5331299  71.4110181  54.7962369  13.1755575  65.0616921  60.6144410
  12.8405407  65.0217691  61.5102060  12.6759520  64.3961637  60.1414820
   7.1499819  60.4684551  66.1396991   7.0119616  59.7364790  66.7408530
   8.0604742  60.3793451  65.8581179  16.1114766  62.4072955  50.8881469
  15.4943937  61.6819784  50.7914522  15.6431255  63.1682316  50.5448544
   9.7782119  60.1804510  65.6280671  10.4881738  59.5397703  65.5867289
   9.7351427  60.4317405  66.5506851  17.7668898  67.1171864  68.5487250
  17.7081444  66.4331084  67.8817833  18.1688416  67.8590854  68.0967876
   8.4911053  57.1669728  67.4476310   7.9548410  56.7160467  68.0997906
   7.9027762  57.3015637  66.7046774   6.7859597  73.9333778  61.3420969
   7.0256195  74.5652302  62.0199987   5.9428793  73.5821818  61.6286328
   7.9013312  56.6258380  50.0102774   7.0242778  56.5047180  49.6465020
   8.3771065  55.8344458  49.7581662  17.7686305  65.0811448  66.7801229
  16.8813084  64.7437369  66.9027628  18.3384856  64.3494479  67.0169995
   4.2250174  56.3025736  64.5329305   4.1408363  55.6951406  63.7979714
   3.4032881  56.7934754  64.5338801  11.2987459  69.7412900  63.7462473
  11.2257630  70.5467872  64.2581777  10.8564852  69.9404866  62.9210494
  11.0877238  68.9784670  57.2565294  10.3044760  69.5206350  57.3503519
  11.7869983  69.4958650  57.6559535  14.3973888  54.7879300  59.8999500
  14.8942588  54.0349262  59.5800570  13.6260870  54.8243616  59.3342709
  22.2503646  60.4919665  61.5417791  22.2393522  61.3744380  61.1711724
  21.3821025  60.1391216  61.3472328  13.7586142  69.6399734  65.9020631
  14.4714114  70.2747199  65.8296533  13.2676171  69.7363600  65.0860633
  15.4803669  63.5450987  57.4737923  14.5459948  63.6652449  57.3042627
  15.6580337  62.6423454  57.2097933  10.9808857  56.9296683  59.6271184
  10.6106645  56.3767723  60.3152090  11.4767949  56.3254816  59.0746184
  18.8676220  59.3868306  58.0087957  19.3336673  60.2196298  57.9348260
  19.3183721  58.9213288  58.7133216   8.8098056  67.3894178  66.7226202
   9.5107515  68.0230660  66.8755596   8.3393171  67.7308909  65.9621841
  16.9352451  65.7312127  55.0074109  17.2112295  65.6168722  55.9167983
  16.0656950  65.3329612  54.9686282  16.8392883  51.7548893  62.0478858
  15.9255963  51.9853120  62.2161065  17.2685985  51.8387337  62.8992891
  16.6099342  59.9438785  64.5478752  15.9570792  60.1914692  63.8931205
  16.9879721  59.1302923  64.2141230  13.5706515  69.9798478  58.6506923
  13.7528910  69.1620134  59.1134675  14.3939501  70.1966170  58.2131813
  13.9048681  68.9066663  55.9121971  14.4336447  68.3959118  55.2992133
  14.1676901  68.5909193  56.7767504  12.6586915  60.6858596  71.0344790
  11.9827552  60.5852725  71.7047165  13.4814548  60.5297810  71.4980787
   4.4065774  66.9230533  63.6557305   4.9919210  66.1774220  63.7885209
   4.2090612  67.2334489  64.5393969   7.2604429  69.9581780  58.6719747
   6.5914804  70.4427908  58.1883787   7.1217299  70.2051000  59.5863126
  11.4009697  71.9925523  65.2702406  11.9528006  72.1557145  66.0351491
  11.7415891  72.5829961  64.5982430   6.3774191  54.3400673  65.8724290
   6.4415517  55.2015504  65.4601688   6.3141311  53.7274675  65.1396649
   5.8526463  56.4123806  69.5197325   6.4798502  56.0300883  70.1334849
   4.9954382  56.1938008  69.8853017  16.2520572  66.8186781  71.1251060
  16.7960476  67.4316739  70.6306015  15.6707417  67.3766359  71.6418073
   2.6292006  58.2200235  55.4515679   2.9245447  57.3110913  55.3982733
   1.7280042  58.1987974  55.1296682  14.5378085  69.9407499  62.2566088
  14.4129224  69.1397239  61.7477033  15.1957176  70.4353692  61.7680058
   6.1586253  56.2956232  61.4343228   5.4372839  56.9092199  61.2950701
   6.9479509  56.8313996  61.3559874  16.6012993  67.7416519  63.8845638
  15.6543329  67.6221870  63.8123965  16.9495766  66.8539017  63.9671899
   8.9612567  53.6310658  67.7083880   9.4846968  53.8772955  68.4710189
   8.7424900  54.4630693  67.2887017   4.3579848  55.9014333  55.5755005
   4.0292554  55.0211712  55.3930110   4.7119218  55.8462001  56.4631394
  13.6059426  67.5369235  60.0849990  13.4584389  66.6085943  60.2657560
  14.4312920  67.5589326  59.6007065   7.4721671  56.1887302  55.9430482
   7.8117743  56.7173224  55.2209091   7.9193791  56.5267709  56.7189049
  17.2093548  68.3597794  61.1714863  18.1340096  68.1540655  61.0339314
  17.0408852  68.1114195  62.0804204  10.1665112  54.5724353  65.3933550
   9.8261932  53.7732166  65.7954230   9.4604118  54.8726064  64.8210383
  10.8181583  51.6573666  63.8460873  11.6407653  51.1834144  63.7239764
  11.0619647  52.4364149  64.3459560   9.4589818  54.6861924  54.1423775
  10.1798180  55.0643177  53.6387492   8.8355122  55.4050801  54.2458753
  13.6020941  55.3907073  55.0782107  13.8184555  56.2731711  54.7770935
  13.1215008  54.9993286  54.3487749   8.3420162  58.3492786  61.6552852
   8.1964743  58.6633089  62.5477133   7.8645366  58.9677687  61.1023751
  10.2016545  55.3395334  61.7033741  10.1878114  54.4436427  61.3666039
  10.9188973  55.3465998  62.3372027  12.0542676  55.7732674  63.7486869
  11.7960454  56.6949745  63.7471199  11.5227716  55.3763109  64.4387333
  16.9988864  68.8783461  56.5276954  17.1725742  68.3129884  55.7750807
  17.4917756  69.6784356  56.3456444   2.8165824  60.8898131  64.5940513
   2.2719292  61.6657939  64.7260787   3.6945174  61.2368935  64.4359634
   9.6053441  54.2209714  56.9721312   9.7269352  53.2926361  57.1712199
   9.3155483  54.2348400  56.0599627  12.4744631  51.9064625  60.1088031
  12.4966328  51.9703958  59.1540011  12.8912690  51.0669134  60.3028538
  22.8528256  61.6419884  58.1467254  23.2959402  60.8927210  57.7486377
  21.9754766  61.6330021  57.7640986  17.9864037  68.1950226  53.6273853
  18.6814942  68.8156919  53.8461167  18.3287187  67.3445577  53.9026230
   3.6031846  60.0168027  67.4870670   2.8613582  60.1650662  68.0735300
   3.2824590  60.2776292  66.6237419  19.8855460  65.6449931  55.1561183
  20.4106784  65.9837204  54.4310503  19.7977813  64.7096947  54.9724318
  11.5475509  69.5584005  67.2851060  11.8562635  69.3133152  68.1573760
  12.3450991  69.7630644  66.7969930  11.5696121  71.7121915  59.5156436
  11.1301111  71.2198293  60.2089293  12.3204238  71.1694882  59.2748512
   4.0488460  67.9033456  59.5181065   4.8746480  67.6037227  59.1379708
   3.6982512  67.1341078  59.9670853   9.0169993  67.2559924  61.5878738
   8.3950002  66.5930629  61.2880966   9.6874860  67.2821056  60.9052386
   2.2497065  65.8219782  60.4769998   1.4128973  65.3941956  60.2953999
   2.2220710  66.0152225  61.4140789   9.0894520  55.7341712  71.1811244
   9.1382676  56.6103835  70.7989014   9.6317035  55.1919105  70.6082887
  19.5749366  66.2782835  70.4612381  18.7844910  66.2606974  69.9216881
  19.3382721  66.8171129  71.2161418  19.6947241  63.1275301  67.7745110
  19.7445246  62.9625309  68.7160633  19.5861165  62.2602560  67.3842991
   8.5783500  65.8063847  55.0637199   8.7271620  66.4899312  54.4103871
   9.3849943  65.7868937  55.5786654  16.9851004  59.1106229  69.0904416
  17.8860866  58.9712694  68.7988414  17.0598978  59.2760684  70.0302594
  11.3193809  56.4873084  67.9357603  10.4497118  56.7806650  67.6640191
  11.5553289  57.0713529  68.6564866  21.1965438  65.5472243  68.0187131
  20.9050246  65.9102224  68.8550592  20.5837569  64.8339251  67.8400463
  22.3961120  63.1125123  60.5389702  23.2308012  63.5514927  60.7027262
  22.5320249  62.6363776  59.7197947  19.4452626  60.6704858  66.4867189
  19.9206748  60.8632504  65.6786041  18.5218192  60.7264043  66.2410573
   6.3336133  61.8329025  56.0698268   6.0882175  60.9291355  56.2678478
   6.5032047  61.8346175  55.1277746  14.0232843  52.7052701  65.4523023
  14.5414787  53.4413728  65.1269512  13.6687976  53.0116694  66.2869782
   5.6031780  57.5657382  53.5684429   4.9101025  57.6401737  52.9124465
   5.3583532  56.8017726  54.0905946  14.2745437  49.1252984  60.9723920
  14.5547191  48.4576173  61.5984346  15.0596044  49.3182079  60.4598584
  12.0778905  68.3011978  52.5348946  11.5052873  68.9202165  52.0819418
  12.6511699  68.8511339  53.0688868  18.1454295  57.5470618  64.7195495
  19.0971718  57.6468715  64.7407719  17.9757746  56.7548886  65.2293579
  16.1668675  54.6326201  64.9054896  15.5718607  54.9131214  64.2101384
  15.8818371  55.1220102  65.6771637  15.2976165  68.5849128  53.6657528
  16.2306838  68.5194689  53.8690404  15.2099378  69.4205395  53.2072061
  17.9264182  67.9014998  50.6261476  17.8477813  67.5674862  51.5197234
  18.7473849  68.3936766  50.6252948  20.6242373  60.7676737  63.8337795
  20.5918693  59.8292738  64.0197478  21.2342997  60.8460774  63.1003619
  12.4625704  59.6372790  49.8764999  13.4084809  59.5078998  49.9453417
  12.0839949  58.8987452  50.3534427  20.7736862  57.5587781  63.8796078
  20.2575910  56.7746237  63.6926007  21.6576810  57.2306497  64.0442597
  18.4347588  51.3028796  59.8391890  18.2372410  50.9943885  60.7235222
  19.0447294  52.0290435  59.9689820  26.4418923  61.8292744  62.9743831
  27.1722311  61.5678032  63.5351535  25.8325868  61.0921466  63.0145899
  24.5234220  59.9700607  63.5718283  23.7967384  59.8356572  62.9634774
  24.1081507  60.2777435  64.3775001  12.3464396  63.6890536  71.3365656
  13.2667406  63.8669135  71.5305702  12.3113980  62.7446582  71.1845355
  10.6468621  57.5622767  49.8119884   9.7400076  57.2655879  49.8882597
  10.9244602  57.2652585  48.9454170   1.5646561  58.8829130  60.2618930
   1.2449346  58.0294438  59.9693304   1.0179990  59.0977708  61.0176898
   5.3426469  61.5991571  63.9788437   5.5612479  62.5308679  63.9976471
   5.7552243  61.2399546  64.7643241  12.2630687  52.1059656  55.9664125
  11.4531415  51.7606741  56.3419371  12.9515104  51.7967200  56.5551737
  14.1921235  51.1837703  57.5888422  14.7452274  51.6033157  58.2478445
  14.4291321  50.2573451  57.6311378  10.2154334  57.1724777  73.3691186
  10.1151061  58.1219134  73.3003277   9.9975876  56.8443016  72.4967256
   9.4167406  54.4209702  49.9531863  10.2786570  54.7464600  50.2127680
   9.6017750  53.6341198  49.4404929   1.4334821  62.5032042  62.2312052
   0.7398293  62.0885994  61.7182006   2.1807812  62.5452578  61.6345471
  17.5700042  53.2938228  57.0967086  16.9898711  53.9523032  56.7145138
  17.3035975  52.4715573  56.6854504  16.0203609  52.6943286  59.2988406
  16.5203387  52.8059821  58.4902725  16.6639216  52.3904339  59.9389215
  10.0785604  60.6021916  72.1856247   9.5952686  61.4022276  72.3920136
  10.1646543  60.6129861  71.2323691   3.3471564  62.4350295  60.1078067
   3.3242252  62.5337983  59.1559950   3.6572200  63.2815446  60.4295233
   6.0058942  64.4926450  64.2224681   6.9602195  64.4610393  64.1554613
   5.8071465  64.0317074  65.0374907   6.5958324  63.0627566  66.7895479
   7.4151213  63.5571645  66.8130316   6.8695132  62.1459535  66.7613046
  16.3524920  55.4538319  56.1523434  15.4650775  55.7387969  55.9343629
  16.7678909  55.2932082  55.3050711  19.7039456  55.4784840  59.8677774
  20.4799846  55.9681292  60.1402390  18.9787591  55.9042894  60.3249643
  22.1412015  56.1912459  60.9251714  22.7356506  55.9508195  60.2145022
  22.2138599  55.4719590  61.5525250   4.3609171  70.0346070  61.2394879
   4.2263639  69.2746471  60.6732877   3.9441233  70.7586970  60.7723668
  15.4968134  65.2182993  50.2471454  16.2003984  65.4232996  50.8629110
  14.7730782  65.7859755  50.5120538  16.3265944  60.9692855  56.3673724
  16.2701145  61.4261406  55.5281357  16.8794286  60.2083539  56.1896567
  20.1370750  56.7582587  57.1923844  19.8807684  56.3579222  58.0232052
  19.5123618  57.4726381  57.0673983  24.4483088  59.4978660  59.6995135
  23.8882646  59.5671849  60.4726697  23.8426591  59.3219644  58.9794632
   7.5178297  70.9315387  61.4513322   7.4010681  71.8760819  61.3492012
   6.6970743  70.6288948  61.8399121  17.4054831  65.6565523  52.2969914
  18.2400435  65.2246721  52.1147389  17.2439174  65.4847536  53.2246809
  17.0600723  62.1597636  53.6626254  17.0049527  61.9941907  52.7214698
  16.4346779  62.8673669  53.8188443   1.8493238  57.3965700  67.4887676
   2.4952102  56.8864654  67.9774901   1.6410389  58.1334382  68.0631101
  14.3746630  64.4646548  72.9879816  15.2437790  64.6387200  72.6266451
  13.8953382  65.2840965  72.8655546  10.3696849  51.6605745  53.2411572
  10.3575519  52.6047585  53.3979843  11.2620271  51.4775890  52.9471033
   8.5432811  71.5843649  64.6669250   9.4460057  71.6167259  64.9835745
   8.3170181  70.6544100  64.6815586  10.2986413  70.3374635  61.3279329
   9.3482044  70.3376497  61.2143701  10.6018899  69.5907370  60.8115363
  14.1848968  48.2548522  57.4957509  13.4181364  47.7007008  57.6414191
  14.5959673  48.3270390  58.3571660   6.1890729  54.5433317  71.5862690
   7.0522191  54.1870122  71.7966015   5.6156140  54.2047212  72.2738094
  18.7015628  77.9798078  58.3183507  18.1380493  77.8888015  57.5499794
  18.5868023  77.1597983  58.7985999  16.2480060  79.4749270  61.1567727
  17.0401352  79.1340095  60.7414026  16.4876710  79.5844245  62.0769880
  24.2815187  81.6469046  53.6297972  23.6303167  82.2323126  53.2431985
  25.0759550  82.1775241  53.6893009  18.2070814  78.7358183  54.0285106
  18.9801690  78.1887170  53.8897982  18.5596213  79.6002432  54.2399567
  20.0455857  80.0634565  67.2352005  19.7545723  80.9680196  67.1198672
  20.6812841  80.1051093  67.9496075  20.9712063  77.4411414  63.8253365
  21.5675636  77.2167436  63.1110328  21.0287035  76.6996159  64.4278813
  20.5437092  74.8950849  51.6603556  20.7962613  74.3732371  50.8987019
  19.6061651  74.7316995  51.7630239  25.7590452  79.3359478  54.1666956
  25.1236285  79.4094104  54.8787861  25.4287858  79.9253077  53.4886035
  20.2633381  76.7978955  53.8627931  20.1469639  76.1223859  54.5309015
  20.3735640  76.3111329  53.0460084  22.6064922  76.2589102  57.5674620
  22.2423129  75.7319723  58.2787542  23.4632037  75.8687571  57.3941105
  22.2470408  71.2879002  52.5635969  22.4144811  72.1559238  52.9306440
  22.0567578  71.4506284  51.6397258  25.0045742  79.7495981  64.2301799
  24.7046465  80.6521020  64.1217606  24.6596801  79.4828164  65.0822952
  18.4558223  76.2009778  60.2638503  17.5308720  76.0685992  60.4716195
  18.7042636  76.9803997  60.7608446  22.2259629  73.7436660  53.5482635
  22.1059255  74.1893710  54.3868116  21.5312218  74.0921977  52.9896174
  15.8167034  75.8443051  61.0982292  15.9459415  76.0977530  62.0121704
  15.1364485  76.4370759  60.7786948  19.9866521  86.5140301  57.1972767
  19.9090551  87.4648126  57.2761247  19.3828165  86.1686174  57.8547693
  27.9244696  74.2158133  54.3762969  28.8362552  74.4485519  54.2010667
  27.4154343  74.7995177  53.8138048  20.7330124  76.4953620  69.4152101
  21.4744808  77.0338664  69.1386924  20.0267109  77.1219909  69.5723652
  26.5314278  79.1983951  61.7676551  25.9023140  79.3629665  61.0652619
  26.1439940  79.6125561  62.5387515  30.4103510  80.1338389  59.1220915
  29.7254548  80.5137290  58.5717948  30.4947359  80.7433716  59.8552862
  22.0842240  78.9358359  59.0326636  22.5480585  79.2146062  58.2431259
  21.8199038  78.0341804  58.8499727  18.9766321  78.4829841  61.9706399
  19.5467678  78.9117109  61.3323884  19.5674433  78.2012425  62.6690585
  21.0211126  75.0581512  55.8416201  21.7235169  75.5102555  56.3090128
  20.6891754  74.4165330  56.4696094  19.4691487  73.6493268  70.2167411
  18.8390148  74.3309549  70.4502807  19.3627575  73.5376350  69.2720549
  14.7636460  73.3165064  61.1433335  13.9735514  73.5722593  60.6673445
  15.2547707  74.1313402  61.2485375  28.7800269  80.6570303  63.8938616
  29.6017713  80.2550491  63.6121297  28.7762672  80.5538538  64.8454731
  16.7151205  73.6809644  58.1016811  15.9182368  73.7928338  58.6200307
  16.4876797  74.0196296  57.2357702  22.5456873  80.2054347  66.0499326
  22.6101305  80.6674754  66.8857498  21.8367797  79.5751712  66.1781636
  13.0474163  73.5695555  63.5748326  13.2982201  74.4542565  63.8405901
  13.5833711  73.3900156  62.8023417  22.2604890  81.8722454  55.9178306
  22.1250565  82.7173990  56.3463154  22.8014703  82.0741732  55.1544240
  18.7472230  67.9514034  72.5792662  18.3539176  67.3980233  73.2540306
  19.5638370  68.2624613  72.9699179  15.7134288  79.3897892  56.4906231
  16.2258808  80.1841143  56.6411796  16.3657001  78.6924183  56.4239833
  17.5229172  82.5063649  58.5728985  17.6995801  83.4281613  58.3849969
  18.3186006  82.1922068  59.0023364  21.6640191  69.3671913  70.1712918
  22.4049904  69.9679066  70.0917381  21.8958114  68.6249551  69.6130961
  16.8081529  74.5528280  68.4491148  16.6935044  73.6513538  68.7498247
  15.9526047  74.7991977  68.0975964  23.8873367  82.4946021  70.0478648
  23.4437221  81.7082399  69.7299553  24.5490580  82.6825171  69.3822539
  18.6460488  84.0241822  64.5739327  19.1967913  83.8958886  63.8016321
  17.8071964  84.3236711  64.2234220  25.9854605  82.7748821  68.0760050
  25.9673080  83.5957702  67.5840319  26.9074525  82.6502896  68.3010191
  22.4427659  80.2892950  68.9183558  22.9755996  79.5281238  68.6882866
  21.9141740  79.9966602  69.6607713  13.6783205  77.7186547  57.2665802
  14.5158427  78.1283555  57.0499510  13.8561472  76.7785989  57.2365996
  25.5747637  75.3861627  52.9549635  25.0594260  76.1566232  53.1938022
  25.3024945  74.7126763  53.5782696  23.1594748  70.2311328  58.0134873
  22.3036344  69.8418178  57.8340512  23.5721699  70.3103289  57.1534659
  20.9336780  67.8496401  61.4192615  21.7989777  67.6539210  61.0598504
  21.0014289  67.6206753  62.3461972  30.5481911  78.1393982  54.8902808
  29.7711354  77.8005141  54.4457971  31.2273392  78.1446605  54.2157773
  25.3633940  73.2588719  54.7809416  25.0584075  73.5734868  55.6319559
  26.3164382  73.3370139  54.8236749  23.8080372  79.4178943  56.4302370
  23.2801733  78.6831702  56.1175608  23.3067874  80.1953619  56.1842338
  18.5399099  70.0798609  58.7908982  19.1142851  69.8573790  58.0582175
  19.1270082  70.1487303  59.5437583  18.8668686  72.1103070  52.8104867
  18.0305999  72.4477756  53.1314142  18.7273456  71.9752050  51.8732004
  20.8421767  66.9539858  57.5184051  20.1886179  66.6388875  56.8940666
  20.8002241  66.3315598  58.2443874  21.9532972  77.2359153  49.4337343
  21.0460034  77.0048406  49.6328492  22.4504004  76.4396772  49.6211325
  24.8601051  85.9456660  52.3534029  24.1862750  86.2488357  52.9618987
  25.2466873  86.7485740  52.0039486  23.1321205  77.3371748  53.9561333
  22.2232425  77.0530781  54.0533803  23.1616289  77.7570826  53.0964640
  28.3640473  80.9478337  57.7252501  27.9102800  80.1069247  57.7817691
  27.7334439  81.5839736  58.0627281  26.8073412  82.7854834  58.6602319
  27.0996386  83.3459891  57.9414685  27.3172033  83.0783395  59.4155478
  27.4085020  64.6546575  59.5494938  27.7143896  63.7943939  59.2620853
  28.1337624  65.2464195  59.3493931  13.7009376  75.0577262  57.9376535
  13.5033776  74.4646623  57.2127602  13.1456040  74.7529472  58.6552474
  22.8297293  78.8780491  51.2949412  22.3916723  78.1616350  50.8355049
  23.5707734  79.1056606  50.7334503  19.6198459  73.5677428  57.8161507
  18.8066325  73.8671599  58.2226700  20.1157453  73.1733117  58.5335990
  21.7707037  83.5635185  59.7495772  21.7283216  83.7896031  58.8204304
  22.6869736  83.3298560  59.8981573  30.9470408  77.1537688  57.3525730
  30.8088306  77.3439284  56.4246920  30.5906627  77.9157071  57.8093782
  19.1112534  71.1395784  63.4322742  19.7511913  70.9984543  62.7345706
  18.2790065  70.8530297  63.0561344  19.8872838  80.4398214  59.5457735
  20.6813436  79.9448534  59.3440310  19.1764530  79.9116077  59.1825440
  24.7067682  82.8216310  63.8970102  24.7604705  83.3907246  64.6647818
  23.8382464  82.9918195  63.5324140  16.1955601  74.5841296  55.6217488
  15.2653189  74.5225751  55.8387450  16.2913073  74.0617249  54.8254129
  16.1141150  71.1096109  58.2095729  16.3747968  72.0241442  58.1004890
  16.9358323  70.6420551  58.3592342  17.5866076  72.5233866  65.3794554
  18.2589129  72.3151228  64.7307203  16.7595862  72.3255952  64.9399786
  22.4644114  81.0127236  63.2255572  22.3255200  80.6446020  64.0981510
  21.6758710  81.5274875  63.0539530  23.0592266  86.1136332  54.5681109
  23.2344022  85.6424376  55.3826731  22.3725054  86.7402099  54.7962369
  24.0149329  80.3908839  60.6144410  23.6799162  80.3509609  61.5102060
  23.5153275  79.7253555  60.1414820  17.9893573  75.7976469  66.1396991
  17.8513371  75.0656708  66.7408530  18.8998497  75.7085369  65.8581179
  26.9508521  77.7364873  50.8881469  26.3337691  77.0111701  50.7914522
  26.4825009  78.4974233  50.5448544  28.6062652  82.4463781  68.5487250
  28.5475199  81.7623002  67.8817833  29.0082171  83.1882771  68.0967876
  17.6253351  89.2625695  61.3420969  17.8649949  89.8944219  62.0199987
  16.7822548  88.9113735  61.6286328  18.7407067  71.9550297  50.0102774
  17.8636533  71.8339098  49.6465020  19.2164820  71.1636376  49.7581662
  28.6080060  80.4103365  66.7801229  27.7206838  80.0729287  66.9027628
  29.1778611  79.6786397  67.0169995  10.2609207  76.7427457  60.1044281
  10.9480247  76.4289187  59.5165296  10.1057335  77.6468822  59.8311532
  15.0643929  71.6317654  64.5329305  14.9802118  71.0243323  63.7979714
  14.2426635  72.1226672  64.5338801  22.1381213  85.0704818  63.7462473
  22.0651385  85.8759789  64.2581777  21.6958606  85.2696784  62.9210494
  21.9270993  84.3076588  57.2565294  21.1438515  84.8498268  57.3503519
  22.6263738  84.8250567  57.6559535  24.5979897  84.9691652  65.9020631
  25.3107869  85.6039117  65.8296533  24.1069925  85.0655518  65.0860633
  26.3197423  78.8742904  57.4737923  25.3853702  78.9944367  57.3042627
  26.4974092  77.9715371  57.2097933  19.6491810  82.7186095  66.7226202
  20.3501270  83.3522578  66.8755596  19.1786925  83.0600827  65.9621841
  27.7746206  81.0604045  55.0074109  28.0506050  80.9460640  55.9167983
  26.9050705  80.6621530  54.9686282  24.4100270  85.3090396  58.6506923
  24.5922664  84.4912052  59.1134675  25.2333256  85.5258088  58.2131813
  24.7442435  84.2358581  55.9121971  25.2730202  83.7251036  55.2992133
  25.0070655  83.9201111  56.7767504  15.2459528  82.2522450  63.6557305
  15.8312965  81.5066138  63.7885209  15.0484367  82.5626407  64.5393969
  18.0998183  85.2873698  58.6719747  17.4308559  85.7719825  58.1883787
  17.9611053  85.5342918  59.5863126   9.8377183  74.8228050  62.3761748
   9.8761282  74.2891641  63.1698866   9.3317476  74.2963256  61.7572725
  22.2403452  87.3217441  65.2702406  22.7921760  87.4849063  66.0351491
  22.5809645  87.9121879  64.5982430  17.2167945  69.6692591  65.8724290
  17.2809272  70.5307422  65.4601688  17.1535065  69.0566593  65.1396649
  16.6920218  71.7415724  69.5197325  17.3192257  71.3592801  70.1334849
  15.8348137  71.5229925  69.8853017  27.0914326  82.1478699  71.1251060
  27.6354230  82.7608657  70.6306015  26.5101171  82.7058277  71.6418073
  13.4685760  73.5492153  55.4515679  13.7639202  72.6402831  55.3982733
  12.5673796  73.5279892  55.1296682  25.3771839  85.2699417  62.2566088
  25.2522979  84.4689157  61.7477033  26.0350930  85.7645610  61.7680058
  16.9980007  71.6248149  61.4343228  16.2766593  72.2384117  61.2950701
  17.7873263  72.1605914  61.3559874  27.4406748  83.0708437  63.8845638
  26.4937083  82.9513788  63.8123965  27.7889521  82.1830935  63.9671899
  19.8006321  68.9602576  67.7083880  20.3240723  69.2064872  68.4710189
  19.5818654  69.7922610  67.2887017  15.1973602  71.2306250  55.5755005
  14.8686308  70.3503629  55.3930110  15.5512973  71.1753919  56.4631394
  24.4453181  82.8661153  60.0849990  24.2978143  81.9377860  60.2657560
  25.2706674  82.8881244  59.6007065  18.3115425  71.5179220  55.9430482
  18.6511498  72.0465141  55.2209091  18.7587546  71.8559626  56.7189049
  28.0487303  83.6889712  61.1714863  28.9733850  83.4832573  61.0339314
  27.8802606  83.4406113  62.0804204  21.6575338  66.9865583  63.8460873
  22.4801407  66.5126061  63.7239764  21.9013401  67.7656067  64.3459560
  20.2983572  70.0153842  54.1423775  21.0191935  70.3935094  53.6387492
  19.6748876  70.7342718  54.2458753  24.4414695  70.7198991  55.0782107
  24.6578310  71.6023629  54.7770935  23.9608762  70.3285204  54.3487749
  19.1813917  73.6784704  61.6552852  19.0358497  73.9925007  62.5477133
  18.7039120  74.2969604  61.1023751  21.0410300  70.6687252  61.7033741
  21.0271868  69.7728345  61.3666039  21.7582728  70.6757916  62.3372027
  27.8382619  84.2075379  56.5276954  28.0119497  83.6421802  55.7750807
  28.3311510  85.0076274  56.3456444  13.6559579  76.2190048  64.5940513
  13.1113047  76.9949856  64.7260787  14.5338929  76.5660853  64.4359634
  20.4447195  69.5501632  56.9721312  20.5663107  68.6218278  57.1712199
  20.1549238  69.5640318  56.0599627  23.3138386  67.2356543  60.1088031
  23.3360083  67.2995876  59.1540011  23.7306445  66.3961051  60.3028538
  33.6922010  76.9711802  58.1467254  34.1353156  76.2219127  57.7486377
  32.8148520  76.9621938  57.7640986  28.8257791  83.5242144  53.6273853
  29.5208696  84.1448836  53.8461167  29.1680942  82.6737495  53.9026230
  14.4425601  75.3459945  67.4870670  13.7007337  75.4942580  68.0735300
  14.1218345  75.6068210  66.6237419  30.7249215  80.9741849  55.1561183
  31.2500539  81.3129122  54.4310503  30.6371567  80.0388864  54.9724318
  22.3869263  84.8875923  67.2851060  22.6956390  84.6425070  68.1573760
  23.1844745  85.0922561  66.7969930  22.4089875  87.0413832  59.5156436
  21.9694866  86.5490211  60.2089293  23.1597992  86.4986800  59.2748512
  14.8882214  83.2325373  59.5181065  15.7140234  82.9329145  59.1379708
  14.5376266  82.4632996  59.9670853  19.8563747  82.5851841  61.5878738
  19.2343757  81.9222546  61.2880966  20.5268614  82.6112973  60.9052386
  13.0890819  81.1511700  60.4769998  12.2522728  80.7233874  60.2953999
  13.0614465  81.3444143  61.4140789  19.9288275  71.0633629  71.1811244
  19.9776430  71.9395752  70.7989014  20.4710789  70.5211023  70.6082887
  30.4143121  81.6074753  70.4612381  29.6238664  81.5898892  69.9216881
  30.1776475  82.1463046  71.2161418  19.4177254  81.1355765  55.0637199
  19.5665375  81.8191229  54.4103871  20.2243698  81.1160855  55.5786654
  32.0359193  80.8764161  68.0187131  31.7444001  81.2394141  68.8550592
  31.4231324  80.1631169  67.8400463  33.2354875  78.4417040  60.5389702
  34.0701766  78.8806844  60.7027262  33.3714004  77.9655694  59.7197947
  17.1729887  77.1620942  56.0698268  16.9275929  76.2583272  56.2678478
  17.3425802  77.1638093  55.1277746  16.4425535  72.8949300  53.5684429
  15.7494780  72.9693655  52.9124465  16.1977287  72.1309644  54.0905946
  25.1139191  64.4544901  60.9723920  25.3940945  63.7868090  61.5984346
  25.8989798  64.6473997  60.4598584  22.9172660  83.6303895  52.5348946
  22.3446627  84.2494082  52.0819418  23.4905454  84.1803257  53.0688868
  26.1369920  83.9141045  53.6657528  27.0700593  83.8486607  53.8690404
  26.0493133  84.7497312  53.2072061  28.7657936  83.2306916  50.6261476
  28.6871568  82.8966779  51.5197234  29.5867603  83.7228684  50.6252948
  23.3019458  74.9664708  49.8764999  24.2478563  74.8370916  49.9453417
  22.9233703  74.2279370  50.3534427  29.2741343  66.6320714  59.8391890
  29.0766164  66.3235802  60.7235222  29.8841049  67.3582353  59.9689820
  23.1858151  79.0182454  71.3365656  24.1061160  79.1961053  71.5305702
  23.1507734  78.0738499  71.1845355  21.4862376  72.8914684  49.8119884
  20.5793831  72.5947797  49.8882597  21.7638357  72.5944502  48.9454170
  12.4040316  74.2121048  60.2618930  12.0843100  73.3586356  59.9693304
  11.8573744  74.4269626  61.0176898  16.1820224  76.9283489  63.9788437
  16.4006233  77.8600597  63.9976471  16.5945997  76.5691463  64.7643241
  23.1024441  67.4351574  55.9664125  22.2925170  67.0898659  56.3419371
  23.7908858  67.1259118  56.5551737  25.0314990  66.5129621  57.5888422
  25.5846028  66.9325074  58.2478445  25.2685076  65.5865369  57.6311378
  21.0548089  72.5016695  73.3691186  20.9544816  73.4511052  73.3003277
  20.8369631  72.1734933  72.4967256  20.2561160  69.7501620  49.9531863
  21.1180324  70.0756518  50.2127680  20.4411504  68.9633116  49.4404929
  12.2728576  77.8323959  62.2312052  11.5792047  77.4177912  61.7182006
  13.0201567  77.8744496  61.6345471  26.8597363  68.0235204  59.2988406
  27.3597141  68.1351738  58.4902725  27.5032971  67.7196257  59.9389215
  20.9179359  75.9313833  72.1856247  20.4346441  76.7314194  72.3920136
  21.0040298  75.9421778  71.2323691  14.1865318  77.7642213  60.1078067
  14.1636007  77.8629900  59.1559950  14.4965955  78.6107364  60.4295233
  16.8452696  79.8218368  64.2224681  17.7995950  79.7902310  64.1554613
  16.6465220  79.3608992  65.0374907  17.4352078  78.3919484  66.7895479
  18.2544967  78.8863563  66.8130316  17.7088886  77.4751452  66.7613046
  27.1918675  70.7830236  56.1523434  26.3044530  71.0679887  55.9343629
  27.6072664  70.6224000  55.3050711  15.2002925  85.3637988  61.2394879
  15.0657393  84.6038388  60.6732877  14.7834987  86.0878887  60.7723668
  26.3361888  80.5474911  50.2471454  27.0397738  80.7524914  50.8629110
  25.6124537  81.1151673  50.5120538  27.1659698  76.2984772  56.3673724
  27.1094900  76.7553324  55.5281357  27.7188041  75.5375457  56.1896567
  35.2876842  74.8270578  59.6995135  34.7276400  74.8963767  60.4726697
  34.6820346  74.6511562  58.9794632  18.3572051  86.2607305  61.4513322
  18.2404435  87.2052737  61.3492012  17.5364497  85.9580866  61.8399121
  28.2448586  80.9857440  52.2969914  29.0794189  80.5538639  52.1147389
  28.0832928  80.8139454  53.2246809  27.8994478  77.4889554  53.6626254
  27.8443282  77.3233825  52.7214698  27.2740533  78.1965587  53.8188443
  12.6886993  72.7257618  67.4887676  13.3345856  72.2156572  67.9774901
  12.4804144  73.4626300  68.0631101  25.2140385  79.7938465  72.9879816
  26.0831545  79.9679118  72.6266451  24.7347136  80.6132882  72.8655546
  21.2090603  66.9897663  53.2411572  21.1969273  67.9339503  53.3979843
  22.1014025  66.8067808  52.9471033  19.3826565  86.9135567  64.6669250
  20.2853812  86.9459177  64.9835745  19.1563935  85.9836017  64.6815586
  21.1380167  85.6666553  61.3279329  20.1875798  85.6668415  61.2143701
  21.4412653  84.9199288  60.8115363  25.0242723  63.5840439  57.4957509
  24.2575118  63.0298926  57.6414191  25.4353428  63.6562308  58.3571660
  17.0284484  69.8725235  71.5862690  17.8915945  69.5162040  71.7966015
  16.4549894  69.5339130  72.2738094  36.8732861  91.5027091  62.3925091
  37.5111271  91.3833839  61.6888431  36.7553704  92.4507935  62.4513043
  33.6822567  91.4554520  62.3286616  33.3441078  91.3395584  61.4407151
  34.5512335  91.0545685  62.3087622  29.5409383  93.3089996  58.3183507
  28.9774248  93.2179933  57.5499794  29.4261778  92.4889900  58.7985999
  34.1642350  92.6089371  68.2872821  34.1530991  92.2142170  67.4153325
  34.3262989  91.8755444  68.8806593  27.0873815  94.8041188  61.1567727
  27.8795106  94.4632012  60.7414026  27.3270465  94.9136163  62.0769880
  35.1208941  96.9760964  53.6297972  34.4696921  97.5615044  53.2431985
  35.9153304  97.5067159  53.6893009  29.0464568  94.0650101  54.0285106
  29.8195445  93.5179088  53.8897982  29.3989967  94.9294350  54.2399567
  30.8849611  95.3926483  67.2352005  30.5939477  96.2972114  67.1198672
  31.5206595  95.4343011  67.9496075  31.8105818  92.7703332  63.8253365
  32.4069390  92.5459354  63.1110328  31.8680789  92.0288077  64.4278813
  31.3830846  90.2242767  51.6603556  31.6356367  89.7024288  50.8987019
  30.4455405  90.0608912  51.7630239  36.4274129  89.2278545  59.4678299
  37.2137218  88.8097968  59.1168716  36.6912833  90.1324637  59.6359948
  36.5984206  94.6651396  54.1666956  35.9630039  94.7386022  54.8787861
  36.2681613  95.2544994  53.4886035  41.8282556  89.1653778  60.3711278
  42.5607728  88.5952995  60.6049107  41.0721912  88.7775379  60.8117783
  31.1027135  92.1270873  53.8627931  30.9863393  91.4515776  54.5309015
  31.2129395  91.6403247  53.0460084  33.4458676  91.5881020  57.5674620
  33.0816883  91.0611641  58.2787542  34.3025792  91.1979489  57.3941105
  33.0864163  86.6170920  52.5635969  33.2538565  87.4851156  52.9306440
  32.8961332  86.7798201  51.6397258  35.8439496  95.0787899  64.2301799
  35.5440219  95.9812937  64.1217606  35.4990556  94.8120082  65.0822952
  29.2951978  91.5301695  60.2638503  28.3702474  91.3977910  60.4716195
  29.5436391  92.3095915  60.7608446  39.2436640  87.5970439  61.9099236
  38.3353517  87.5285847  61.6157997  39.1924236  88.0742384  62.7381062
  33.0653384  89.0728577  53.5482635  32.9453009  89.5185628  54.3868116
  32.3705972  89.4213895  52.9896174  26.6560789  91.1734969  61.0982292
  26.7853170  91.4269448  62.0121704  25.9758240  91.7662677  60.7786948
  30.8260276 101.8432219  57.1972767  30.7484306 102.7940044  57.2761247
  30.2221920 101.4978091  57.8547693  33.3177506  89.0160084  69.8534134
  32.5410840  89.5754005  69.8436998  33.9568069  89.5016867  70.3749004
  41.1098286  85.7986877  63.6877110  40.4672667  86.0919410  63.0416905
  40.6053215  85.6839798  64.4930307  38.7638450  89.5450050  54.3762969
  39.6756306  89.7777437  54.2010667  38.2548097  90.1287095  53.8138048
  31.5723878  91.8245538  69.4152101  32.3138562  92.3630582  69.1386924
  30.8660863  92.4511826  69.5723652  37.0479218  93.9674678  68.0124262
  37.4562574  93.5257089  67.2678894  36.3256479  93.3927306  68.2658455
  33.4010288  88.9047285  65.3857819  34.2471483  89.3286699  65.5292468
  33.3408925  88.2480909  66.0796382  37.3708032  94.5275869  61.7676551
  36.7416895  94.6921583  61.0652619  36.9833694  94.9417478  62.5387515
  41.2497264  95.4630307  59.1220915  40.5648302  95.8429208  58.5717948
  41.3341114  96.0725633  59.8552862  36.5509733  86.5651653  67.0438993
  36.3070665  87.3193714  66.5073268  36.8269664  86.9437001  67.8786240
  38.5048196  93.1090266  65.7216258  38.7165091  93.7522026  65.0450639
  38.4577944  92.2752582  65.2538188  36.1074425  85.7208086  62.6252830
  35.2458904  86.0189340  62.9169568  36.1336859  85.9378485  61.6933863
  32.9235994  94.2650277  59.0326636  33.3874340  94.5437980  58.2431259
  32.6592792  93.3633721  58.8499727  29.8160075  93.8121758  61.9706399
  30.3861432  94.2409027  61.3323884  30.4068187  93.5304343  62.6690585
  31.8604880  90.3873429  55.8416201  32.5628924  90.8394473  56.3090128
  31.5285509  89.7457248  56.4696094  30.3085242  88.9785186  70.2167411
  29.6783902  89.6601467  70.4502807  30.2021330  88.8668268  69.2720549
  25.6030214  88.6456982  61.1433335  24.8129268  88.9014510  60.6673445
  26.0941462  89.4605320  61.2485375  39.6194024  95.9862221  63.8938616
  40.4411467  95.5842408  63.6121297  39.6156427  95.8830455  64.8454731
  27.5544960  89.0101561  58.1016811  26.7576123  89.1220255  58.6200307
  27.3270552  89.3488213  57.2357702  33.3850627  95.5346264  66.0499326
  33.4495060  95.9966672  66.8857498  32.6761551  94.9043629  66.1781636
  23.8867917  88.8987472  63.5748326  24.1375956  89.7834482  63.8405901
  24.4227466  88.7192074  62.8023417  47.7100017  92.3300970  60.2423587
  46.9563725  91.7608368  60.0867591  47.8447558  92.2963634  61.1894222
  33.0998645  97.2014372  55.9178306  32.9644320  98.0465908  56.3463154
  33.6408457  97.4033650  55.1544240  29.5865985  83.2805952  72.5792662
  29.1932930  82.7272150  73.2540306  30.4032125  83.5916530  72.9699179
  26.5528042  94.7189810  56.4906231  27.0652563  95.5133060  56.6411796
  27.2050755  94.0216100  56.4239833  28.3622927  97.8355566  58.5728985
  28.5389555  98.7573531  58.3849969  29.1579760  97.5213985  59.0023364
  32.5033945  84.6963831  70.1712918  33.2443659  85.2970984  70.0917381
  32.7351868  83.9541469  69.6130961  27.6475284  89.8820198  68.4491148
  27.5328799  88.9805455  68.7498247  26.7919801  90.1283895  68.0975964
  34.7267121  97.8237938  70.0478648  34.2830975  97.0374317  69.7299553
  35.3884335  98.0117089  69.3822539  29.4854242  99.3533740  64.5739327
  30.0361668  99.2250803  63.8016321  28.6465718  99.6528629  64.2234220
  36.8248359  98.1040738  68.0760050  36.8066835  98.9249619  67.5840319
  37.7468279  97.9794814  68.3010191  33.2821413  95.6184868  68.9183558
  33.8149750  94.8573156  68.6882866  32.7535495  95.3258520  69.6607713
  24.5176959  93.0478464  57.2665802  25.3552181  93.4575473  57.0499510
  24.6955227  92.1077906  57.2365996  36.4141391  90.7153545  52.9549635
  35.8988015  91.4858150  53.1938022  36.1418700  90.0418681  53.5782696
  33.9988502  85.5603246  58.0134873  33.1430099  85.1710096  57.8340512
  34.4115454  85.6395206  57.1534659  35.5287649  83.0949589  62.4126433
  35.0252444  83.0579724  61.5994238  35.8218256  84.0042332  62.4723090
  31.7730535  83.1788319  61.4192615  32.6383531  82.9831127  61.0598504
  31.8408044  82.9498670  62.3461972  41.3875665  93.4685900  54.8902808
  40.6105108  93.1297059  54.4457971  42.0667146  93.4738523  54.2157773
  36.2027694  88.5880637  54.7809416  35.8977830  88.9026786  55.6319559
  37.1558136  88.6662057  54.8236749  34.6474126  94.7470860  56.4302370
  34.1195488  94.0123620  56.1175608  34.1461629  95.5245537  56.1842338
  39.6266972  92.9419881  61.5469416  38.9690647  93.6319142  61.6349545
  40.4307371  93.3316313  61.8903403  29.3792854  85.4090527  58.7908982
  29.9536606  85.1865708  58.0582175  29.9663836  85.4779221  59.5437583
  38.4372431  91.2964253  59.5973358  38.9504313  91.9294245  60.0995068
  39.0873655  90.6965449  59.2316718  29.7062441  87.4394988  52.8104867
  28.8699753  87.7769674  53.1314142  29.5667211  87.3043967  51.8732004
  31.6815522  82.2831775  57.5184051  31.0279934  81.9680793  56.8940666
  31.6395996  81.6607516  58.2443874  32.7926726  92.5651071  49.4337343
  31.8853788  92.3340324  49.6328492  33.2897758  91.7688690  49.6211325
  35.6994805 101.2748578  52.3534029  35.0256504 101.5780275  52.9618987
  36.0860627 102.0777658  52.0039486  34.9153262  88.7713709  61.8431699
  33.9975823  88.9928656  61.6853387  35.3313405  88.8460020  60.9843406
  35.6988310  90.1705125  56.9734379  36.4460129  90.6826522  56.6641501
  35.9679899  89.8489177  57.8338773  33.9714960  92.6663665  53.9561333
  33.0626179  92.3822698  54.0533803  34.0010044  93.0862744  53.0964640
  39.2034227  96.2770255  57.7252501  38.7496554  95.4361165  57.7817691
  38.5728194  96.9131653  58.0627281  38.1467147  87.2062241  58.9553168
  37.4089904  86.6939627  59.2863411  38.3993920  86.7662623  58.1436445
  37.6467166  98.1146752  58.6602319  37.9390141  98.6751809  57.9414685
  38.1565787  98.4075313  59.4155478  38.2478774  79.9838493  59.5494938
  38.5537651  79.1235856  59.2620853  38.9731379  80.5756113  59.3493931
  24.5403130  90.3869180  57.9376535  24.3427530  89.7938540  57.2127602
  23.9849794  90.0821390  58.6552474  32.5199854  90.2792286  60.0571129
  32.5748464  89.3266122  59.9813605  31.7091056  90.4351725  60.5412427
  33.6691048  94.2072409  51.2949412  33.2310478  93.4908268  50.8355049
  34.4101488  94.4348524  50.7334503  30.4592214  88.8969346  57.8161507
  29.6460079  89.1963516  58.2226700  30.9551208  88.5025035  58.5335990
  32.6100792  98.8927103  59.7495772  32.5676970  99.1187949  58.8204304
  33.5263491  98.6590477  59.8981573  36.0566425  89.3611170  66.6476401
  36.4115813  89.5882643  67.5070867  36.7038557  89.6929547  66.0253657
  41.7864162  92.4829606  57.3525730  41.6482061  92.6731202  56.4246920
  41.4300381  93.2448989  57.8093782  29.9506289  86.4687701  63.4322742
  30.5905668  86.3276460  62.7345706  29.1183819  86.1822215  63.0561344
  41.8133542  94.5506133  62.3637002  42.2470049  94.4581422  63.2120056
  42.5265123  94.5263634  61.7257018  30.7266592  95.7690132  59.5457735
  31.5207191  95.2740452  59.3440310  30.0158285  95.2407995  59.1825440
  35.5461437  98.1508227  63.8970102  35.5998459  98.7199164  64.6647818
  34.6776218  98.3210112  63.5324140  27.0349356  89.9133213  55.6217488
  26.1046944  89.8517669  55.8387450  27.1306828  89.3909166  54.8254129
  26.9534905  86.4388026  58.2095729  27.2141722  87.3533360  58.1004890
  27.7752077  85.9712469  58.3592342  28.4259830  87.8525783  65.3794554
  29.0982884  87.6443146  64.7307203  27.5989617  87.6547869  64.9399786
  42.6749092  94.5929834  64.8969887  42.8684982  95.4975644  65.1429162
  42.5749710  94.1337253  65.7308472  34.3285402  84.4787724  67.3960215
  33.6813317  85.1777674  67.3024691  35.0986418  84.9123868  67.7636463
  37.7364200  94.7436577  70.4710768  37.5849707  94.5147128  69.5540852
  37.7268880  95.7007178  70.4842113  34.5049537  92.3168489  65.4557034
  35.4341597  92.4679649  65.2826002  34.0840567  92.4052510  64.6005681
  33.3037868  96.3419154  63.2255572  33.1648954  95.9737938  64.0981510
  32.5152465  96.8566793  63.0539530  33.8986020 101.4428250  54.5681109
  34.0737776 100.9716293  55.3826731  33.2118808 102.0694016  54.7962369
  34.8543084  95.7200756  60.6144410  34.5192916  95.6801526  61.5102060
  34.3547029  95.0545472  60.1414820  28.8287328  91.1268386  66.1396991
  28.6907125  90.3948625  66.7408530  29.7392251  91.0377287  65.8581179
  37.7902275  93.0656791  50.8881469  37.1731446  92.3403619  50.7914522
  37.3218764  93.8266151  50.5448544  31.4569628  90.8388346  65.6280671
  32.1669247  90.1981538  65.5867289  31.4138936  91.0901241  66.5506851
  39.4456407  97.7755699  68.5487250  39.3868953  97.0914919  67.8817833
  39.8475925  98.5174689  68.0967876  30.1698562  87.8253564  67.4476310
  29.6335919  87.3744302  68.0997906  29.5815271  87.9599472  66.7046774
  28.4647106 104.5917613  61.3420969  28.7043704 105.2236137  62.0199987
  27.6216302 104.2405653  61.6286328  29.5800821  87.2842215  50.0102774
  28.7030287  87.1631016  49.6465020  30.0558574  86.4928293  49.7581662
  39.4473814  95.7395283  66.7801229  38.5600593  95.4021205  66.9027628
  40.0172365  95.0078314  67.0169995  21.1002961  92.0719375  60.1044281
  21.7874001  91.7581105  59.5165296  20.9451090  92.9760739  59.8311532
  25.9037683  86.9609571  64.5329305  25.8195872  86.3535241  63.7979714
  25.0820390  87.4518590  64.5338801  32.9774968 100.3996735  63.7462473
  32.9045139 101.2051707  64.2581777  32.5352361 100.5988701  62.9210494
  32.7664747  99.6368505  57.2565294  31.9832269 100.1790186  57.3503519
  33.4657492 100.1542485  57.6559535  36.0761397  85.4463135  59.8999500
  36.5730097  84.6933097  59.5800570  35.3048379  85.4827452  59.3342709
  43.9291155  91.1503500  61.5417791  43.9181031  92.0328216  61.1711724
  43.0608534  90.7975051  61.3472328  35.4373651 100.2983569  65.9020631
  36.1501623 100.9331034  65.8296533  34.9463680 100.3947435  65.0860633
  37.1591178  94.2034822  57.4737923  36.2247457  94.3236285  57.3042627
  37.3367846  93.3007289  57.2097933  32.6596366  87.5880518  59.6271184
  32.2894154  87.0351558  60.3152090  33.1555458  86.9838651  59.0746184
  40.5463729  90.0452141  58.0087957  41.0124182  90.8780133  57.9348260
  40.9971230  89.5797123  58.7133216  30.4885565  98.0478013  66.7226202
  31.1895024  98.6814496  66.8755596  30.0180680  98.3892744  65.9621841
  38.6139960  96.3895963  55.0074109  38.8899804  96.2752557  55.9167983
  37.7444459  95.9913448  54.9686282  38.2886851  90.6022620  64.5478752
  37.6358301  90.8498528  63.8931205  38.6667230  89.7886759  64.2141230
  35.2494024 100.6382314  58.6506923  35.4316419  99.8203969  59.1134675
  36.0727010 100.8550006  58.2131813  35.5836190  99.5650499  55.9121971
  36.1123956  99.0542953  55.2992133  35.8464410  99.2493029  56.7767504
  34.3374424  91.3442431  71.0344790  33.6615061  91.2436561  71.7047165
  35.1602057  91.1881645  71.4980787  26.0853283  97.5814368  63.6557305
  26.6706719  96.8358056  63.7885209  25.8878121  97.8918325  64.5393969
  28.9391938 100.6165615  58.6719747  28.2702313 101.1011743  58.1883787
  28.8004808 100.8634836  59.5863126  20.6770937  90.1519968  62.3761748
  20.7155037  89.6183559  63.1698866  20.1711230  89.6255174  61.7572725
  33.0797206 102.6509359  65.2702406  33.6315514 102.8140980  66.0351491
  33.4203400 103.2413797  64.5982430  28.0561700  84.9984509  65.8724290
  28.1203026  85.8599340  65.4601688  27.9928820  84.3858510  65.1396649
  27.5313972  87.0707641  69.5197325  28.1586011  86.6884718  70.1334849
  26.6741891  86.8521843  69.8853017  37.9308081  97.4770616  71.1251060
  38.4747985  98.0900575  70.6306015  37.3494926  98.0350195  71.6418073
  24.3079515  88.8784070  55.4515679  24.6032956  87.9694749  55.3982733
  23.4067551  88.8571810  55.1296682  36.2165594 100.5991334  62.2566088
  36.0916733  99.7981074  61.7477033  36.8744685 101.0937528  61.7680058
  27.8373762  86.9540067  61.4343228  27.1160348  87.5676035  61.2950701
  28.6267018  87.4897832  61.3559874  38.2800502  98.4000354  63.8845638
  37.3330838  98.2805706  63.8123965  38.6283275  97.5122852  63.9671899
  30.6400075  84.2894493  67.7083880  31.1634477  84.5356790  68.4710189
  30.4212409  85.1214528  67.2887017  26.0367357  86.5598168  55.5755005
  25.7080063  85.6795547  55.3930110  26.3906727  86.5045837  56.4631394
  35.2846935  98.1953071  60.0849990  35.1371898  97.2669778  60.2657560
  36.1100429  98.2173161  59.6007065  29.1509180  86.8471138  55.9430482
  29.4905252  87.3757059  55.2209091  29.5981300  87.1851544  56.7189049
  38.8881057  99.0181629  61.1714863  39.8127605  98.8124491  61.0339314
  38.7196361  98.7698031  62.0804204  31.8452621  85.2308188  65.3933550
  31.5049441  84.4316002  65.7954230  31.1391627  85.5309899  64.8210383
  32.4969092  82.3157501  63.8460873  33.3195162  81.8417979  63.7239764
  32.7407156  83.0947985  64.3459560  31.1377327  85.3445759  54.1423775
  31.8585689  85.7227012  53.6387492  30.5142631  86.0634636  54.2458753
  35.2808450  86.0490908  55.0782107  35.4972064  86.9315546  54.7770935
  34.8002517  85.6577122  54.3487749  30.0207671  89.0076622  61.6552852
  29.8752252  89.3216925  62.5477133  29.5432875  89.6261522  61.1023751
  31.8804054  85.9979170  61.7033741  31.8665623  85.1020263  61.3666039
  32.5976482  86.0049833  62.3372027  33.7330185  86.4316510  63.7486869
  33.4747963  87.3533580  63.7471199  33.2015225  86.0346944  64.4387333
  38.6776373  99.5367297  56.5276954  38.8513251  98.9713719  55.7750807
  39.1705265 100.3368192  56.3456444  24.4953333  91.5481966  64.5940513
  23.9506801  92.3241774  64.7260787  25.3732683  91.8952770  64.4359634
  31.2840950  84.8793550  56.9721312  31.4056861  83.9510196  57.1712199
  30.9942992  84.8932236  56.0599627  34.1532140  82.5648460  60.1088031
  34.1753837  82.6287793  59.1540011  34.5700199  81.7252969  60.3028538
  44.5315765  92.3003720  58.1467254  44.9746911  91.5511045  57.7486377
  43.6542275  92.2913856  57.7640986  39.6651546  98.8534061  53.6273853
  40.3602451  99.4740754  53.8461167  40.0074696  98.0029412  53.9026230
  25.2819355  90.6751862  67.4870670  24.5401091  90.8234498  68.0735300
  24.9612099  90.9360128  66.6237419  41.5642969  96.3033767  55.1561183
  42.0894293  96.6421040  54.4310503  41.4765322  95.3680782  54.9724318
  33.2263018 100.2167840  67.2851060  33.5350144  99.9716987  68.1573760
  34.0238500 100.4214479  66.7969930  33.2483630 102.3705750  59.5156436
  32.8088620 101.8782129  60.2089293  33.9991747 101.8278718  59.2748512
  25.7275969  98.5617291  59.5181065  26.5533989  98.2621063  59.1379708
  25.3770021  97.7924913  59.9670853  30.6957502  97.9143759  61.5878738
  30.0737511  97.2514464  61.2880966  31.3662369  97.9404891  60.9052386
  23.9284574  96.4803617  60.4769998  23.0916482  96.0525792  60.2953999
  23.9008219  96.6736061  61.4140789  30.7682029  86.3925547  71.1811244
  30.8170185  87.2687670  70.7989014  31.3104544  85.8502940  70.6082887
  41.2536875  96.9366670  70.4612381  40.4632419  96.9190809  69.9216881
  41.0170230  97.4754964  71.2161418  41.3734750  93.7859137  67.7745110
  41.4232755  93.6209144  68.7160633  41.2648674  92.9186396  67.3842991
  30.2571009  96.4647682  55.0637199  30.4059129  97.1483147  54.4103871
  31.0637452  96.4452773  55.5786654  38.6638513  89.7690065  69.0904416
  39.5648375  89.6296530  68.7988414  38.7386487  89.9344520  70.0302594
  32.9981318  87.1456920  67.9357603  32.1284627  87.4390486  67.6640191
  33.2340798  87.7297365  68.6564866  42.8752947  96.2056078  68.0187131
  42.5837755  96.5686059  68.8550592  42.2625078  95.4923087  67.8400463
  44.0748629  93.7708958  60.5389702  44.9095521  94.2098762  60.7027262
  44.2107758  93.2947611  59.7197947  41.1240135  91.3288693  66.4867189
  41.5994257  91.5216339  65.6786041  40.2005701  91.3847879  66.2410573
  28.0123642  92.4912860  56.0698268  27.7669684  91.5875190  56.2678478
  28.1819556  92.4930011  55.1277746  27.2819289  88.2241218  53.5684429
  26.5888534  88.2985573  52.9124465  27.0371041  87.4601561  54.0905946
  33.7566414  98.9595813  52.5348946  33.1840381  99.5786000  52.0819418
  34.3299208  99.5095175  53.0688868  39.8241804  88.2054453  64.7195495
  40.7759227  88.3052551  64.7407719  39.6545255  87.4132722  65.2293579
  37.8456184  85.2910036  64.9054896  37.2506116  85.5715049  64.2101384
  37.5605880  85.7803937  65.6771637  36.9763674  99.2432963  53.6657528
  37.9094347  99.1778525  53.8690404  36.8886887 100.0789230  53.2072061
  39.6051691  98.5598833  50.6261476  39.5265322  98.2258697  51.5197234
  40.4261358  99.0520601  50.6252948  42.3029882  91.4260573  63.8337795
  42.2706202  90.4876573  64.0197478  42.9130506  91.5044609  63.1003619
  34.1413213  90.2956626  49.8764999  35.0872318  90.1662834  49.9453417
  33.7627458  89.5571288  50.3534427  42.4524371  88.2171616  63.8796078
  41.9363419  87.4330073  63.6926007  43.3364319  87.8890333  64.0442597
  40.1135097  81.9612632  59.8391890  39.9159919  81.6527720  60.7235222
  40.7234803  82.6874271  59.9689820  48.1206432  92.4876580  62.9743831
  48.8509820  92.2261868  63.5351535  47.5113377  91.7505301  63.0145899
  46.2021729  90.6284442  63.5718283  45.4754893  90.4940407  62.9634774
  45.7869016  90.9361271  64.3775001  34.0251905  94.3474372  71.3365656
  34.9454915  94.5252971  71.5305702  33.9901488  93.4030417  71.1845355
  32.3256130  88.2206602  49.8119884  31.4187585  87.9239715  49.8882597
  32.6032111  87.9236420  48.9454170  23.2434070  89.5412965  60.2618930
  22.9236855  88.6878274  59.9693304  22.6967499  89.7561544  61.0176898
  27.0213978  92.2575406  63.9788437  27.2399988  93.1892514  63.9976471
  27.4339752  91.8983381  64.7643241  33.9418196  82.7643492  55.9664125
  33.1318924  82.4190577  56.3419371  34.6302613  82.4551036  56.5551737
  35.8708744  81.8421539  57.5888422  36.4239783  82.2616992  58.2478445
  36.1078830  80.9157287  57.6311378  31.8941843  87.8308612  73.3691186
  31.7938570  88.7802969  73.3003277  31.6763385  87.5026851  72.4967256
  31.0954915  85.0793537  49.9531863  31.9574079  85.4048436  50.2127680
  31.2805259  84.2925033  49.4404929  23.1122330  93.1615877  62.2312052
  22.4185802  92.7469830  61.7182006  23.8595321  93.2036413  61.6345471
  39.2487551  83.9522064  57.0967086  38.6686220  84.6106868  56.7145138
  38.9823484  83.1299408  56.6854504  37.6991118  83.3527121  59.2988406
  38.1990896  83.4643656  58.4902725  38.3426725  83.0488174  59.9389215
  31.7573113  91.2605751  72.1856247  31.2740195  92.0606111  72.3920136
  31.8434052  91.2713696  71.2323691  25.0259073  93.0934131  60.1078067
  25.0029761  93.1921818  59.1559950  25.3359709  93.9399282  60.4295233
  27.6846451  95.1510286  64.2224681  28.6389704  95.1194228  64.1554613
  27.4858974  94.6900910  65.0374907  28.2745833  93.7211402  66.7895479
  29.0938722  94.2155481  66.8130316  28.5482641  92.8043370  66.7613046
  38.0312429  86.1122154  56.1523434  37.1438284  86.3971805  55.9343629
  38.4466418  85.9515918  55.3050711  41.3826965  86.1368675  59.8677774
  42.1587355  86.6265128  60.1402390  40.6575099  86.5626729  60.3249643
  43.8199524  86.8496294  60.9251714  44.4144015  86.6092030  60.2145022
  43.8926108  86.1303425  61.5525250  26.0396680 100.6929905  61.2394879
  25.9051148  99.9330306  60.6732877  25.6228742 101.4170805  60.7723668
  37.1755643  95.8766829  50.2471454  37.8791493  96.0816831  50.8629110
  36.4518291  96.4443591  50.5120538  38.0053453  91.6276690  56.3673724
  37.9488654  92.0845241  55.5281357  38.5581795  90.8667375  56.1896567
  41.8158259  87.4166422  57.1923844  41.5595193  87.0163058  58.0232052
  41.1911127  88.1310216  57.0673983  46.1270597  90.1562495  59.6995135
  45.5670155  90.2255685  60.4726697  45.5214100  89.9803480  58.9794632
  29.1965806 101.5899222  61.4513322  29.0798190 102.5344655  61.3492012
  28.3758252 101.2872784  61.8399121  39.0842340  96.3149358  52.2969914
  39.9187944  95.8830556  52.1147389  38.9226683  96.1431372  53.2246809
  38.7388232  92.8181471  53.6626254  38.6837036  92.6525743  52.7214698
  38.1134288  93.5257504  53.8188443  23.5280747  88.0549536  67.4887676
  24.1739611  87.5448490  67.9774901  23.3197898  88.7918217  68.0631101
  36.0534139  95.1230383  72.9879816  36.9225299  95.2971035  72.6266451
  35.5740891  95.9424800  72.8655546  32.0484358  82.3189580  53.2411572
  32.0363028  83.2631420  53.3979843  32.9407780  82.1359726  52.9471033
  30.2220320 102.2427484  64.6669250  31.1247566 102.2751094  64.9835745
  29.9957690 101.3127935  64.6815586  31.9773922 100.9958471  61.3279329
  31.0269553 100.9960332  61.2143701  32.2806408 100.2491205  60.8115363
  35.8636477  78.9132357  57.4957509  35.0968873  78.3590844  57.6414191
  36.2747182  78.9854226  58.3571660  27.8678238  85.2017153  71.5862690
  28.7309700  84.8453958  71.7966015  27.2943649  84.8631048  72.2738094
  47.7126615 106.8319009  62.3925091  48.3505025 106.7125756  61.6888431
  47.5947458 107.7799853  62.4513043  44.5216321 106.7846437  62.3286616
  44.1834833 106.6687502  61.4407151  45.3906090 106.3837602  62.3087622
  40.3803137 108.6381914  58.3183507  39.8168002 108.5471851  57.5499794
  40.2655532 107.8181818  58.7985999  45.0036104 107.9381289  68.2872821
  44.9924745 107.5434087  67.4153325  45.1656744 107.2047362  68.8806593
  37.9267569 110.1333105  61.1567727  38.7188861 109.7923930  60.7414026
  38.1664219 110.2428080  62.0769880  45.9602696 112.3052881  53.6297972
  45.3090676 112.8906962  53.2431985  46.7547059 112.8359076  53.6893009
  39.8858323 109.3942018  54.0285106  40.6589199 108.8471006  53.8897982
  40.2383722 110.2586268  54.2399567  41.7243366 110.7218401  67.2352005
  41.4333232 111.6264032  67.1198672  42.3600350 110.7634928  67.9496075
  42.6499572 108.0995249  63.8253365  43.2463145 107.8751272  63.1110328
  42.7074544 107.3579995  64.4278813  42.2224601 105.5534685  51.6603556
  42.4750121 105.0316206  50.8987019  41.2849160 105.3900830  51.7630239
  47.2667884 104.5570463  59.4678299  48.0530973 104.1389886  59.1168716
  47.5306588 105.4616555  59.6359948  47.4377961 109.9943313  54.1666956
  46.8023794 110.0677940  54.8787861  47.1075367 110.5836912  53.4886035
  52.6676311 104.4945696  60.3711278  53.4001483 103.9244913  60.6049107
  51.9115666 104.1067297  60.8117783  41.9420890 107.4562791  53.8627931
  41.8257148 106.7807694  54.5309015  42.0523149 106.9695164  53.0460084
  44.2852430 106.9172938  57.5674620  43.9210638 106.3903559  58.2787542
  45.1419546 106.5271407  57.3941105  50.1901731  98.2067270  64.8305886
  49.8585056  99.0762681  64.6067101  49.5947345  97.8903554  65.5099917
  43.9257917 101.9462837  52.5635969  44.0932320 102.8143074  52.9306440
  43.7355087 102.1090119  51.6397258  46.6833251 110.4079816  64.2301799
  46.3833974 111.3104855  64.1217606  46.3384310 110.1411999  65.0822952
  40.1345732 106.8593613  60.2638503  39.2096229 106.7269827  60.4716195
  40.3830145 107.6387832  60.7608446  50.0830394 102.9262356  61.9099236
  49.1747272 102.8577765  61.6157997  50.0317990 103.4034301  62.7381062
  43.9047138 104.4020495  53.5482635  43.7846764 104.8477546  54.3868116
  43.2099727 104.7505813  52.9896174  37.4954543 106.5026887  61.0982292
  37.6246924 106.7561366  62.0121704  36.8151994 107.0954595  60.7786948
  41.6654030 117.1724137  57.1972767  41.5878060 118.1231962  57.2761247
  41.0615674 116.8270009  57.8547693  44.1571260 104.3452002  69.8534134
  43.3804594 104.9045922  69.8436998  44.7961823 104.8308785  70.3749004
  51.9492041 101.1278795  63.6877110  51.3066421 101.4211328  63.0416905
  51.4446969 101.0131715  64.4930307  49.6032204 104.8741968  54.3762969
  50.5150061 105.1069355  54.2010667  49.0941852 105.4579012  53.8138048
  42.4117633 107.1537455  69.4152101  43.1532317 107.6922499  69.1386924
  41.7054618 107.7803744  69.5723652  47.8872972 109.2966596  68.0124262
  48.2956328 108.8549006  67.2678894  47.1650234 108.7219223  68.2658455
  44.2404042 104.2339203  65.3857819  45.0865237 104.6578616  65.5292468
  44.1802680 103.5772827  66.0796382  48.2101787 109.8567786  61.7676551
  47.5810649 110.0213501  61.0652619  47.8227449 110.2709396  62.5387515
  52.0891019 110.7922224  59.1220915  51.4042057 111.1721126  58.5717948
  52.1734868 111.4017551  59.8552862  47.3903488 101.8943571  67.0438993
  47.1464419 102.6485632  66.5073268  47.6663418 102.2728919  67.8786240
  49.3441950 108.4382183  65.7216258  49.5558846 109.0813943  65.0450639
  49.2971699 107.6044500  65.2538188  46.9468179 101.0500004  62.6252830
  46.0852658 101.3481258  62.9169568  46.9730614 101.2670403  61.6933863
  43.7629749 109.5942195  59.0326636  44.2268094 109.8729898  58.2431259
  43.4986547 108.6925639  58.8499727  40.6553830 109.1413676  61.9706399
  41.2255187 109.5700944  61.3323884  41.2461942 108.8596261  62.6690585
  42.6998635 105.7165347  55.8416201  43.4022678 106.1686391  56.3090128
  42.3679263 105.0749166  56.4696094  41.1478996 104.3077104  70.2167411
  40.5177657 104.9893384  70.4502807  41.0415084 104.1960185  69.2720549
  36.4423969 103.9748900  61.1433335  35.6523023 104.2306428  60.6673445
  36.9335216 104.7897237  61.2485375  50.4587778 111.3154139  63.8938616
  51.2805222 110.9134326  63.6121297  50.4550181 111.2122373  64.8454731
  38.3938714 104.3393479  58.1016811  37.5969877 104.4512173  58.6200307
  38.1664306 104.6780131  57.2357702  44.2244382 110.8638182  66.0499326
  44.2888814 111.3258589  66.8857498  43.5155306 110.2335547  66.1781636
  34.7261672 104.2279390  63.5748326  34.9769710 105.1126400  63.8405901
  35.2621220 104.0483992  62.8023417  58.5493771 107.6592887  60.2423587
  57.7957480 107.0900285  60.0867591  58.6841313 107.6255552  61.1894222
  43.9392399 112.5306290  55.9178306  43.8038074 113.3757825  56.3463154
  44.4802212 112.7325567  55.1544240  40.4259739  98.6097869  72.5792662
  40.0326685  98.0564068  73.2540306  41.2425879  98.9208448  72.9699179
  37.3921797 110.0481728  56.4906231  37.9046317 110.8424978  56.6411796
  38.0444510 109.3508018  56.4239833  39.2016681 113.1647484  58.5728985
  39.3783310 114.0865449  58.3849969  39.9973515 112.8505903  59.0023364
  43.3427700 100.0255749  70.1712918  44.0837413 100.6262902  70.0917381
  43.5745623  99.2833386  69.6130961  38.4869038 105.2112116  68.4491148
  38.3722553 104.3097373  68.7498247  37.6313556 105.4575813  68.0975964
  45.5660876 113.1529856  70.0478648  45.1224730 112.3666235  69.7299553
  46.2278089 113.3409007  69.3822539  40.3247997 114.6825658  64.5739327
  40.8755422 114.5542721  63.8016321  39.4859473 114.9820547  64.2234220
  47.6642114 113.4332656  68.0760050  47.6460589 114.2541537  67.5840319
  48.5862034 113.3086731  68.3010191  44.1215168 110.9476786  68.9183558
  44.6543505 110.1865074  68.6882866  43.5929249 110.6550437  69.6607713
  47.2884863  96.0536851  64.4477200  46.9449132  96.9438493  64.3716310
  47.6563826  95.8638509  63.5846785  35.3570714 108.3770382  57.2665802
  36.1945936 108.7867390  57.0499510  35.5348981 107.4369824  57.2365996
  47.2535146 106.0445463  52.9549635  46.7381769 106.8150067  53.1938022
  46.9812454 105.3710599  53.5782696  44.8382257 100.8895163  58.0134873
  43.9823853 100.5002014  57.8340512  45.2509208 100.9687124  57.1534659
  46.3681403  98.4241507  62.4126433  45.8646199  98.3871642  61.5994238
  46.6612010  99.3334249  62.4723090  42.6124289  98.5080236  61.4192615
  43.4777286  98.3123045  61.0598504  42.6801798  98.2790588  62.3461972
  52.2269420 108.7977817  54.8902808  51.4498863 108.4588977  54.4457971
  52.9060901 108.8030440  54.2157773  47.0421449 103.9172555  54.7809416
  46.7371584 104.2318704  55.6319559  47.9951891 103.9953975  54.8236749
  45.4867881 110.0762778  56.4302370  44.9589242 109.3415538  56.1175608
  44.9855383 110.8537454  56.1842338  50.4660727 108.2711798  61.5469416
  49.8084401 108.9611060  61.6349545  51.2701126 108.6608230  61.8903403
  40.2186608 100.7382444  58.7908982  40.7930360 100.5157626  58.0582175
  40.8057591 100.8071139  59.5437583  49.2766185 106.6256171  59.5973358
  49.7898067 107.2586163  60.0995068  49.9267409 106.0257367  59.2316718
  40.5456195 102.7686905  52.8104867  39.7093508 103.1061592  53.1314142
  40.4060965 102.6335885  51.8732004  42.5209276  97.6123693  57.5184051
  41.8673688  97.2972710  56.8940666  42.4789750  96.9899434  58.2443874
  43.6320481 107.8942988  49.4337343  42.7247543 107.6632242  49.6328492
  44.1291513 107.0980607  49.6211325  46.5388560 116.6040495  52.3534029
  45.8650258 116.9072192  52.9618987  46.9254382 117.4069576  52.0039486
  45.7547016 104.1005627  61.8431699  44.8369578 104.3220574  61.6853387
  46.1707160 104.1751937  60.9843406  46.5382064 105.4997042  56.9734379
  47.2853883 106.0118440  56.6641501  46.8073654 105.1781095  57.8338773
  44.8108714 107.9955583  53.9561333  43.9019934 107.7114616  54.0533803
  44.8403798 108.4154662  53.0964640  50.0427982 111.6062173  57.7252501
  49.5890309 110.7653082  57.7817691  49.4121948 112.2423571  58.0627281
  48.9860901 102.5354159  58.9553168  48.2483658 102.0231545  59.2863411
  49.2387675 102.0954540  58.1436445  48.4860921 113.4438669  58.6602319
  48.7783895 114.0043726  57.9414685  48.9959542 113.7367230  59.4155478
  49.0872529  95.3130411  59.5494938  49.3931405  94.4527774  59.2620853
  49.8125133  95.9048031  59.3493931  35.3796885 105.7161097  57.9376535
  35.1821284 105.1230458  57.2127602  34.8243549 105.4113307  58.6552474
  43.3593608 105.6084204  60.0571129  43.4142218 104.6558040  59.9813605
  42.5484810 105.7643643  60.5412427  44.5084802 109.5364327  51.2949412
  44.0704232 108.8200186  50.8355049  45.2495243 109.7640442  50.7334503
  41.2985968 104.2261263  57.8161507  40.4853834 104.5255434  58.2226700
  41.7944962 103.8316952  58.5335990  43.4494546 114.2219020  59.7495772
  43.4070725 114.4479867  58.8204304  44.3657245 113.9882395  59.8981573
  46.8960180 104.6903088  66.6476401  47.2509568 104.9174561  67.5070867
  47.5432311 105.0221465  66.0253657  52.6257917 107.8121524  57.3525730
  52.4875815 108.0023120  56.4246920  52.2694136 108.5740907  57.8093782
  40.7900043 101.7979619  63.4322742  41.4299422 101.6568378  62.7345706
  39.9577574 101.5114132  63.0561344  52.6527296 109.8798051  62.3637002
  53.0863803 109.7873340  63.2120056  53.3658877 109.8555551  61.7257018
  41.5660347 111.0982049  59.5457735  42.3600945 110.6032370  59.3440310
  40.8552039 110.5699913  59.1825440  46.3855191 113.4800145  63.8970102
  46.4392214 114.0491081  64.6647818  45.5169973 113.6502030  63.5324140
  37.8743110 105.2425131  55.6217488  36.9440698 105.1809587  55.8387450
  37.9700582 104.7201084  54.8254129  37.7928659 101.7679944  58.2095729
  38.0535477 102.6825277  58.1004890  38.6145832 101.3004387  58.3592342
  39.2653585 103.1817701  65.3794554  39.9376638 102.9735063  64.7307203
  38.4383371 102.9839787  64.9399786  53.5142846 109.9221751  64.8969887
  53.7078736 110.8267562  65.1429162  53.4143464 109.4629171  65.7308472
  45.1679157  99.8079642  67.3960215  44.5207072 100.5069592  67.3024691
  45.9380172 100.2415786  67.7636463  48.5757955 110.0728494  70.4710768
  48.4243461 109.8439046  69.5540852  48.5662634 111.0299096  70.4842113
  45.3443291 107.6460407  65.4557034  46.2735351 107.7971567  65.2826002
  44.9234321 107.7344428  64.6005681  44.1431623 111.6711071  63.2255572
  44.0042709 111.3029856  64.0981510  43.3546219 112.1858711  63.0539530
  44.7379775 116.7720168  54.5681109  44.9131531 116.3008211  55.3826731
  44.0512563 117.3985934  54.7962369  45.6936838 111.0492674  60.6144410
  45.3586671 111.0093444  61.5102060  45.1940784 110.3837390  60.1414820
  39.6681082 106.4560304  66.1396991  39.5300880 105.7240543  66.7408530
  40.5786005 106.3669204  65.8581179  48.6296030 108.3948708  50.8881469
  48.0125200 107.6695537  50.7914522  48.1612518 109.1558069  50.5448544
  42.2963383 106.1680263  65.6280671  43.0063001 105.5273456  65.5867289
  42.2532691 106.4193158  66.5506851  50.2850161 113.1047617  68.5487250
  50.2262708 112.4206837  67.8817833  50.6869680 113.8466607  68.0967876
  41.0092317 103.1545481  67.4476310  40.4729674 102.7036220  68.0997906
  40.4209025 103.2891390  66.7046774  40.4194576 102.6134133  50.0102774
  39.5424042 102.4922934  49.6465020  40.8952329 101.8220211  49.7581662
  50.2867569 111.0687201  66.7801229  49.3994347 110.7313122  66.9027628
  50.8566120 110.3370232  67.0169995  31.9396716 107.4011292  60.1044281
  32.6267756 107.0873022  59.5165296  31.7844844 108.3052657  59.8311532
  36.7431438 102.2901489  64.5329305  36.6589627 101.6827159  63.7979714
  35.9214144 102.7810507  64.5338801  43.8168722 115.7288653  63.7462473
  43.7438894 116.5343625  64.2581777  43.3746115 115.9280619  62.9210494
  43.6058502 114.9660423  57.2565294  42.8226024 115.5082103  57.3503519
  44.3051247 115.4834403  57.6559535  46.9155152 100.7755053  59.8999500
  47.4123851 100.0225015  59.5800570  46.1442133 100.8119369  59.3342709
  54.7684909 106.4795418  61.5417791  54.7574785 107.3620134  61.1711724
  53.9002289 106.1266969  61.3472328  46.2767406 115.6275487  65.9020631
  46.9895378 116.2622952  65.8296533  45.7857434 115.7239353  65.0860633
  47.9984932 109.5326740  57.4737923  47.0641211 109.6528202  57.3042627
  48.1761601 108.6299207  57.2097933  43.4990121 102.9172436  59.6271184
  43.1287908 102.3643476  60.3152090  43.9949213 102.3130569  59.0746184
  51.3857484 105.3744059  58.0087957  51.8517936 106.2072051  57.9348260
  51.8364984 104.9089041  58.7133216  41.3279319 113.3769931  66.7226202
  42.0288779 114.0106414  66.8755596  40.8574434 113.7184662  65.9621841
  49.4533715 111.7187880  55.0074109  49.7293559 111.6044475  55.9167983
  48.5838214 111.3205365  54.9686282  49.3574147  97.7424646  62.0478858
  48.4437226  97.9728873  62.2161065  49.7867248  97.8263090  62.8992891
  49.1280605 105.9314538  64.5478752  48.4752055 106.1790445  63.8931205
  49.5060985 105.1178676  64.2141230  46.0887779 115.9674231  58.6506923
  46.2710173 115.1495887  59.1134675  46.9120765 116.1841923  58.2131813
  46.4229944 114.8942416  55.9121971  46.9517711 114.3834871  55.2992133
  46.6858164 114.5784947  56.7767504  45.1768178 106.6734349  71.0344790
  44.5008815 106.5728478  71.7047165  45.9995812 106.5173563  71.4980787
  36.9247037 112.9106286  63.6557305  37.5100474 112.1649974  63.7885209
  36.7271876 113.2210242  64.5393969  39.7785692 115.9457533  58.6719747
  39.1096068 116.4303661  58.1883787  39.6398562 116.1926753  59.5863126
  31.5164692 105.4811886  62.3761748  31.5548791 104.9475477  63.1698866
  31.0104985 104.9547091  61.7572725  43.9190961 117.9801277  65.2702406
  44.4709269 118.1432898  66.0351491  44.2597154 118.5705714  64.5982430
  38.8955454 100.3276426  65.8724290  38.9596781 101.1891257  65.4601688
  38.8322574  99.7150428  65.1396649  38.3707727 102.3999559  69.5197325
  38.9979766 102.0176636  70.1334849  37.5135646 102.1813761  69.8853017
  48.7701835 112.8062534  71.1251060  49.3141739 113.4192492  70.6306015
  48.1888680 113.3642112  71.6418073  35.1473269 104.2075988  55.4515679
  35.4426711 103.2986666  55.3982733  34.2461305 104.1863727  55.1296682
  47.0559348 115.9283252  62.2566088  46.9310488 115.1272992  61.7477033
  47.7138439 116.4229445  61.7680058  38.6767516 102.2831985  61.4343228
  37.9554102 102.8967952  61.2950701  39.4660772 102.8189749  61.3559874
  49.1194257 113.7292272  63.8845638  48.1724592 113.6097623  63.8123965
  49.4677030 112.8414770  63.9671899  41.4793830  99.6186411  67.7083880
  42.0028232  99.8648708  68.4710189  41.2606163 100.4506446  67.2887017
  36.8761111 101.8890086  55.5755005  36.5473817 101.0087465  55.3930110
  37.2300482 101.8337754  56.4631394  46.1240690 113.5244988  60.0849990
  45.9765652 112.5961696  60.2657560  46.9494183 113.5465079  59.6007065
  39.9902934 102.1763055  55.9430482  40.3299007 102.7048977  55.2209091
  40.4375055 102.5143462  56.7189049  49.7274812 114.3473547  61.1714863
  50.6521359 114.1416408  61.0339314  49.5590115 114.0989948  62.0804204
  42.6846375 100.5600106  65.3933550  42.3443195  99.7607919  65.7954230
  41.9785381 100.8601817  64.8210383  43.3362847  97.6449419  63.8460873
  44.1588916  97.1709897  63.7239764  43.5800910  98.4239902  64.3459560
  41.9771081 100.6737677  54.1423775  42.6979444 101.0518930  53.6387492
  41.3536385 101.3926554  54.2458753  46.1202204 101.3782826  55.0782107
  46.3365819 102.2607464  54.7770935  45.6396271 100.9869039  54.3487749
  40.8601426 104.3368539  61.6552852  40.7146006 104.6508842  62.5477133
  40.3826629 104.9553440  61.1023751  42.7197808 101.3271087  61.7033741
  42.7059377 100.4312181  61.3666039  43.4370237 101.3341751  62.3372027
  44.5723939 101.7608427  63.7486869  44.3141717 102.6825498  63.7471199
  44.0408980 101.3638862  64.4387333  49.5170128 114.8659215  56.5276954
  49.6907005 114.3005637  55.7750807  50.0099019 115.6660109  56.3456444
  35.3347088 106.8773884  64.5940513  34.7900556 107.6533692  64.7260787
  36.2126438 107.2244688  64.4359634  42.1234704 100.2085467  56.9721312
  42.2450616  99.2802114  57.1712199  41.8336747 100.2224153  56.0599627
  44.9925895  97.8940378  60.1088031  45.0147592  97.9579711  59.1540011
  45.4093954  97.0544887  60.3028538  55.3709519 107.6295637  58.1467254
  55.8140665 106.8802963  57.7486377  54.4936029 107.6205774  57.7640986
  50.5045300 114.1825979  53.6273853  51.1996205 114.8032672  53.8461167
  50.8468451 113.3321330  53.9026230  36.1213110 106.0043780  67.4870670
  35.3794846 106.1526415  68.0735300  35.8005854 106.2652045  66.6237419
  52.4036724 111.6325684  55.1561183  52.9288048 111.9712957  54.4310503
  52.3159076 110.6972700  54.9724318  44.0656772 115.5459758  67.2851060
  44.3743899 115.3008905  68.1573760  44.8632254 115.7506397  66.7969930
  44.0877384 117.6997668  59.5156436  43.6482375 117.2074046  60.2089293
  44.8385501 117.1570635  59.2748512  36.5669723 113.8909209  59.5181065
  37.3927743 113.5912980  59.1379708  36.2163775 113.1216831  59.9670853
  41.5351256 113.2435677  61.5878738  40.9131266 112.5806382  61.2880966
  42.2056123 113.2696809  60.9052386  34.7678328 111.8095535  60.4769998
  33.9310237 111.3817709  60.2953999  34.7401974 112.0027978  61.4140789
  41.6075784 101.7217465  71.1811244  41.6563939 102.5979588  70.7989014
  42.1498298 101.1794858  70.6082887  52.0930630 112.2658588  70.4612381
  51.3026173 112.2482727  69.9216881  51.8563984 112.8046882  71.2161418
  52.2128505 109.1151054  67.7745110  52.2626510 108.9501062  68.7160633
  52.1042428 108.2478313  67.3842991  41.0964763 111.7939600  55.0637199
  41.2452884 112.4775065  54.4103871  41.9031207 111.7744690  55.5786654
  49.5032267 105.0981982  69.0904416  50.4042130 104.9588447  68.7988414
  49.5780242 105.2636437  70.0302594  43.8375072 102.4748837  67.9357603
  42.9678382 102.7682403  67.6640191  44.0734553 103.0589282  68.6564866
  53.7146702 111.5347996  68.0187131  53.4231510 111.8977977  68.8550592
  53.1018833 110.8215004  67.8400463  54.9142384 109.1000876  60.5389702
  55.7489275 109.5390680  60.7027262  55.0501513 108.6239529  59.7197947
  51.9633890 106.6580611  66.4867189  52.4388011 106.8508257  65.6786041
  51.0399455 106.7139796  66.2410573  38.8517396 107.8204778  56.0698268
  38.6063438 106.9167108  56.2678478  39.0213311 107.8221928  55.1277746
  46.5414106  98.6928454  65.4523023  47.0596050  99.4289481  65.1269512
  46.1869239  98.9992447  66.2869782  38.1213044 103.5533135  53.5684429
  37.4282289 103.6277490  52.9124465  37.8764796 102.7893479  54.0905946
  46.7926700  95.1128737  60.9723920  47.0728454  94.4451926  61.5984346
  47.5777307  95.3057832  60.4598584  44.5960169 114.2887731  52.5348946
  44.0234136 114.9077918  52.0819418  45.1692963 114.8387092  53.0688868
  50.6635559 103.5346371  64.7195495  51.6152982 103.6344468  64.7407719
  50.4939009 102.7424639  65.2293579  48.6849938 100.6201954  64.9054896
  48.0899870 100.9006967  64.2101384  48.3999635 101.1095855  65.6771637
  47.8157429 114.5724881  53.6657528  48.7488102 114.5070442  53.8690404
  47.7280642 115.4081148  53.2072061  50.4445445 113.8890751  50.6261476
  50.3659077 113.5550615  51.5197234  51.2655112 114.3812519  50.6252948
  53.1423637 106.7552490  63.8337795  53.1099957 105.8168491  64.0197478
  53.7524260 106.8336527  63.1003619  44.9806967 105.6248543  49.8764999
  45.9266072 105.4954751  49.9453417  44.6021212 104.8863205  50.3534427
  53.2918125 103.5463534  63.8796078  52.7757174 102.7621990  63.6926007
  54.1758074 103.2182250  64.0442597  50.9528852  97.2904549  59.8391890
  50.7553673  96.9819638  60.7235222  51.5628558  98.0166188  59.9689820
  58.9600186 107.8168497  62.9743831  59.6903575 107.5553785  63.5351535
  58.3507132 107.0797219  63.0145899  57.0415484 105.9576360  63.5718283
  56.3148647 105.8232325  62.9634774  56.6262770 106.2653188  64.3775001
  44.8645660 109.6766289  71.3365656  45.7848669 109.8544889  71.5305702
  44.8295243 108.7322335  71.1845355  43.1649885 103.5498520  49.8119884
  42.2581340 103.2531632  49.8882597  43.4425866 103.2528338  48.9454170
  34.0827825 104.8704883  60.2618930  33.7630609 104.0170191  59.9693304
  33.5361253 105.0853461  61.0176898  37.8607732 107.5867324  63.9788437
  38.0793742 108.5184432  63.9976471  38.2733506 107.2275299  64.7643241
  44.7811950  98.0935409  55.9664125  43.9712679  97.7482494  56.3419371
  45.4696367  97.7842953  56.5551737  46.7102499  97.1713456  57.5888422
  47.2633537  97.5908910  58.2478445  46.9472585  96.2449204  57.6311378
  42.7335598 103.1600530  73.3691186  42.6332325 104.1094887  73.3003277
  42.5157140 102.8318769  72.4967256  41.9348669 100.4085455  49.9531863
  42.7967833 100.7340353  50.2127680  42.1199013  99.6216951  49.4404929
  33.9516085 108.4907795  62.2312052  33.2579556 108.0761747  61.7182006
  34.6989076 108.5328331  61.6345471  50.0881306  99.2813981  57.0967086
  49.5079975  99.9398785  56.7145138  49.8217238  98.4591326  56.6854504
  48.5384872  98.6819039  59.2988406  49.0384650  98.7935574  58.4902725
  49.1820480  98.3780092  59.9389215  42.5966868 106.5897669  72.1856247
  42.1133950 107.3898029  72.3920136  42.6827807 106.6005614  71.2323691
  35.8652827 108.4226048  60.1078067  35.8423516 108.5213736  59.1559950
  36.1753464 109.2691199  60.4295233  38.5240205 110.4802203  64.2224681
  39.4783459 110.4486146  64.1554613  38.3252729 110.0192827  65.0374907
  39.1139587 109.0503320  66.7895479  39.9332476 109.5447398  66.8130316
  39.3876395 108.1335288  66.7613046  48.8706184 101.4414072  56.1523434
  47.9832039 101.7263722  55.9343629  49.2860173 101.2807835  55.3050711
  52.2220720 101.4660593  59.8677774  52.9981110 101.9557045  60.1402390
  51.4968854 101.8918647  60.3249643  54.6593278 102.1788212  60.9251714
  55.2537769 101.9383948  60.2145022  54.7319862 101.4595343  61.5525250
  48.0149397 111.2058746  50.2471454  48.7185247 111.4108749  50.8629110
  47.2912046 111.7735508  50.5120538  48.8447207 106.9568608  56.3673724
  48.7882409 107.4137159  55.5281357  49.3975550 106.1959292  56.1896567
  52.6552013 102.7458340  57.1923844  52.3988948 102.3454975  58.0232052
  52.0304881 103.4602134  57.0673983  56.9664351 105.4854413  59.6995135
  56.4063909 105.5547602  60.4726697  56.3607855 105.3095397  58.9794632
  49.9236095 111.6441276  52.2969914  50.7581698 111.2122474  52.1147389
  49.7620437 111.4723289  53.2246809  49.5781987 108.1473389  53.6626254
  49.5230791 107.9817660  52.7214698  48.9528042 108.8549422  53.8188443
  34.3674502 103.3841453  67.4887676  35.0133365 102.8740407  67.9774901
  34.1591653 104.1210135  68.0631101  46.8927894 110.4522301  72.9879816
  47.7619054 110.6262953  72.6266451  46.4134645 111.2716718  72.8655546
  42.8878112  97.6481498  53.2411572  42.8756782  98.5923338  53.3979843
  43.7801534  97.4651643  52.9471033  41.0614074 117.5719402  64.6669250
  41.9641321 117.6043012  64.9835745  40.8351444 116.6419853  64.6815586
  42.8167676 116.3250388  61.3279329  41.8663307 116.3252250  61.2143701
  43.1200162 115.5783123  60.8115363  46.7030232  94.2424275  57.4957509
  45.9362627  93.6882761  57.6414191  47.1140937  94.3146143  58.3571660
  38.7071993 100.5309070  71.5862690  39.5703454 100.1745875  71.7966015
  38.1337403 100.1922965  72.2738094  58.5520370 122.1610927  62.3925091
  59.1898780 122.0417674  61.6888431  58.4341213 123.1091771  62.4513043
  55.3610076 122.1138355  62.3286616  55.0228587 121.9979420  61.4407151
  56.2299844 121.7129520  62.3087622  55.8429859 123.2673207  68.2872821
  55.8318500 122.8726005  67.4153325  56.0050498 122.5339279  68.8806593
  53.0618355 120.8826602  51.6603556  53.3143876 120.3608124  50.8987019
  52.1242914 120.7192748  51.7630239  58.1061638 119.8862381  59.4678299
  58.8924727 119.4681804  59.1168716  58.3700342 120.7908473  59.6359948
  63.5070065 119.8237614  60.3711278  64.2395237 119.2536831  60.6049107
  62.7509421 119.4359214  60.8117783  55.1246185 122.2464855  57.5674620
  54.7604392 121.7195476  58.2787542  55.9813301 121.8563324  57.3941105
  61.0295486 113.5359188  64.8305886  60.6978810 114.4054599  64.6067101
  60.4341099 113.2195472  65.5099917  54.7651672 117.2754755  52.5635969
  54.9326074 118.1434991  52.9306440  54.5748841 117.4382037  51.6397258
  60.9224149 118.2554274  61.9099236  60.0141026 118.1869683  61.6157997
  60.8711745 118.7326219  62.7381062  54.7440893 119.7312413  53.5482635
  54.6240518 120.1769463  54.3868116  54.0493481 120.0797730  52.9896174
  54.9965015 119.6743920  69.8534134  54.2198349 120.2337840  69.8436998
  55.6355578 120.1600703  70.3749004  62.7885795 116.4570713  63.6877110
  62.1460176 116.7503246  63.0416905  62.2840724 116.3423633  64.4930307
  60.4425959 120.2033886  54.3762969  61.3543815 120.4361272  54.2010667
  59.9335606 120.7870930  53.8138048  55.0797797 119.5631120  65.3857819
  55.9258992 119.9870534  65.5292468  55.0196434 118.9064745  66.0796382
  58.2297242 117.2235489  67.0438993  57.9858174 117.9777549  66.5073268
  58.5057173 117.6020836  67.8786240  60.1835705 123.7674101  65.7216258
  60.3952600 124.4105861  65.0450639  60.1365453 122.9336418  65.2538188
  57.7861934 116.3791922  62.6252830  56.9246413 116.6773175  62.9169568
  57.8124368 116.5962321  61.6933863  53.5392389 121.0457265  55.8416201
  54.2416433 121.4978308  56.3090128  53.2073018 120.4041083  56.4696094
  51.9872751 119.6369021  70.2167411  51.3571411 120.3185302  70.4502807
  51.8808839 119.5252103  69.2720549  47.2817723 119.3040817  61.1433335
  46.4916777 119.5598346  60.6673445  47.7728971 120.1189155  61.2485375
  49.2332469 119.6685397  58.1016811  48.4363632 119.7804091  58.6200307
  49.0058061 120.0072049  57.2357702  69.3887526 122.9884805  60.2423587
  68.6351234 122.4192203  60.0867591  69.5235067 122.9547469  61.1894222
  51.2653493 113.9389787  72.5792662  50.8720439 113.3855986  73.2540306
  52.0819634 114.2500366  72.9699179  54.1821454 115.3547666  70.1712918
  54.9231168 115.9554819  70.0917381  54.4139377 114.6125304  69.6130961
  58.1278617 111.3828769  64.4477200  57.7842887 112.2730411  64.3716310
  58.4957580 111.1930427  63.5846785  58.0928900 121.3737380  52.9549635
  57.5775524 122.1441985  53.1938022  57.8206209 120.7002516  53.5782696
  55.6776011 116.2187081  58.0134873  54.8217608 115.8293931  57.8340512
  56.0902963 116.2979042  57.1534659  57.2075158 113.7533424  62.4126433
  56.7039953 113.7163559  61.5994238  57.5005765 114.6626167  62.4723090
  53.4518044 113.8372154  61.4192615  54.3171040 113.6414963  61.0598504
  53.5195553 113.6082506  62.3461972  63.0663174 124.1269735  54.8902808
  62.2892617 123.7880894  54.4457971  63.7454655 124.1322358  54.2157773
  57.8815203 119.2464472  54.7809416  57.5765339 119.5610622  55.6319559
  58.8345645 119.3245892  54.8236749  61.3054481 123.6003716  61.5469416
  60.6478156 124.2902978  61.6349545  62.1094880 123.9900148  61.8903403
  51.0580363 116.0674362  58.7908982  51.6324115 115.8449543  58.0582175
  51.6451345 116.1363056  59.5437583  60.1159940 121.9548089  59.5973358
  60.6291822 122.5878081  60.0995068  60.7661164 121.3549284  59.2316718
  51.3849950 118.0978823  52.8104867  50.5487262 118.4353510  53.1314142
  51.2454720 117.9627803  51.8732004  53.3603030 112.9415611  57.5184051
  52.7067443 112.6264628  56.8940666  53.3183505 112.3191351  58.2443874
  56.5940771 119.4297544  61.8431699  55.6763332 119.6512491  61.6853387
  57.0100914 119.5043855  60.9843406  57.3775819 120.8288960  56.9734379
  58.1247638 121.3410357  56.6641501  57.6467408 120.5073013  57.8338773
  59.8254656 117.8646076  58.9553168  59.0877413 117.3523463  59.2863411
  60.0781429 117.4246458  58.1436445  59.9266283 110.6422328  59.5494938
  60.2325160 109.7819692  59.2620853  60.6518888 111.2339949  59.3493931
  54.1987363 120.9376121  60.0571129  54.2535973 119.9849958  59.9813605
  53.3878565 121.0935560  60.5412427  52.1379723 119.5553181  57.8161507
  51.3247588 119.8547352  58.2226700  52.6338717 119.1608870  58.5335990
  57.7353934 120.0195006  66.6476401  58.0903322 120.2466479  67.5070867
  58.3826066 120.3513382  66.0253657  63.4651671 123.1413441  57.3525730
  63.3269570 123.3315037  56.4246920  63.1087890 123.9032824  57.8093782
  51.6293797 117.1271537  63.4322742  52.2693177 116.9860296  62.7345706
  50.7971328 116.8406050  63.0561344  63.4921051 125.2089968  62.3637002
  63.9257558 125.1165258  63.2120056  64.2052632 125.1847469  61.7257018
  48.7136865 120.5717049  55.6217488  47.7834453 120.5101504  55.8387450
  48.8094337 120.0493002  54.8254129  48.6322414 117.0971862  58.2095729
  48.8929231 118.0117195  58.1004890  49.4539586 116.6296304  58.3592342
  50.1047339 118.5109619  65.3794554  50.7770393 118.3026981  64.7307203
  49.2777126 118.3131705  64.9399786  64.3536601 125.2513669  64.8969887
  64.5472491 126.1559480  65.1429162  64.2537219 124.7921088  65.7308472
  56.0072911 115.1371560  67.3960215  55.3600826 115.8361509  67.3024691
  56.7773927 115.5707704  67.7636463  56.1837046 122.9752325  65.4557034
  57.1129106 123.1263484  65.2826002  55.7628076 123.0636345  64.6005681
  59.4689784 123.7240626  50.8881469  58.8518955 122.9987454  50.7914522
  59.0006273 124.4849986  50.5448544  53.1357137 121.4972181  65.6280671
  53.8456756 120.8565373  65.5867289  53.0926445 121.7485076  66.5506851
  51.8486071 118.4837399  67.4476310  51.3123428 118.0328137  68.0997906
  51.2602780 118.6183308  66.7046774  51.2588330 117.9426050  50.0102774
  50.3817796 117.8214851  49.6465020  51.7346083 117.1512129  49.7581662
  47.5825192 117.6193407  64.5329305  47.4983381 117.0119076  63.7979714
  46.7607899 118.1102425  64.5338801  57.7548906 116.1046970  59.8999500
  58.2517606 115.3516933  59.5800570  56.9835888 116.1411287  59.3342709
  65.6078664 121.8087336  61.5417791  65.5968540 122.6912051  61.1711724
  64.7396043 121.4558887  61.3472328  54.3383875 118.2464353  59.6271184
  53.9681663 117.6935394  60.3152090  54.8342967 117.6422487  59.0746184
  62.2251238 120.7035977  58.0087957  62.6911690 121.5363968  57.9348260
  62.6758739 120.2380958  58.7133216  60.1967901 113.0716564  62.0478858
  59.2830981 113.3020791  62.2161065  60.6261003 113.1555008  62.8992891
  59.9674360 121.2606456  64.5478752  59.3145810 121.5082363  63.8931205
  60.3454739 120.4470594  64.2141230  56.0161933 122.0026267  71.0344790
  55.3402570 121.9020396  71.7047165  56.8389566 121.8465480  71.4980787
  49.7349209 115.6568344  65.8724290  49.7990535 116.5183175  65.4601688
  49.6716329 115.0442346  65.1396649  49.2101481 117.7291477  69.5197325
  49.8373520 117.3468554  70.1334849  48.3529400 117.5105678  69.8853017
  45.9867024 119.5367906  55.4515679  46.2820465 118.6278584  55.3982733
  45.0855060 119.5155645  55.1296682  49.5161271 117.6123902  61.4343228
  48.7947857 118.2259870  61.2950701  50.3054527 118.1481667  61.3559874
  52.3187584 114.9478329  67.7083880  52.8421986 115.1940625  68.4710189
  52.0999918 115.7798364  67.2887017  47.7154866 117.2182003  55.5755005
  47.3867572 116.3379382  55.3930110  48.0694236 117.1629672  56.4631394
  50.8296689 117.5054973  55.9430482  51.1692761 118.0340894  55.2209091
  51.2768809 117.8435379  56.7189049  53.5240130 115.8892024  65.3933550
  53.1836950 115.0899837  65.7954230  52.8179136 116.1893735  64.8210383
  54.1756601 112.9741336  63.8460873  54.9982671 112.5001814  63.7239764
  54.4194665 113.7531820  64.3459560  52.8164836 116.0029595  54.1423775
  53.5373198 116.3810847  53.6387492  52.1930140 116.7218472  54.2458753
  56.9595959 116.7074744  55.0782107  57.1759573 117.5899382  54.7770935
  56.4790026 116.3160957  54.3487749  51.6995180 119.6660457  61.6552852
  51.5539761 119.9800760  62.5477133  51.2220384 120.2845357  61.1023751
  53.5591563 116.6563005  61.7033741  53.5453132 115.7604098  61.3666039
  54.2763991 116.6633669  62.3372027  55.4117694 117.0900345  63.7486869
  55.1535472 118.0117416  63.7471199  54.8802734 116.6930780  64.4387333
  52.9628459 115.5377385  56.9721312  53.0844370 114.6094031  57.1712199
  52.6730501 115.5516071  56.0599627  55.8319649 113.2232296  60.1088031
  55.8541346 113.2871629  59.1540011  56.2487708 112.3836804  60.3028538
  66.2103274 122.9587555  58.1467254  66.6534420 122.2094880  57.7486377
  65.3329784 122.9497692  57.7640986  52.4469538 117.0509383  71.1811244
  52.4957694 117.9271505  70.7989014  52.9892053 116.5086776  70.6082887
  63.0522259 124.4442972  67.7745110  63.1020264 124.2792980  68.7160633
  62.9436183 123.5770231  67.3842991  60.3426022 120.4273900  69.0904416
  61.2435884 120.2880365  68.7988414  60.4173996 120.5928355  70.0302594
  54.6768827 117.8040755  67.9357603  53.8072136 118.0974321  67.6640191
  54.9128307 118.3881200  68.6564866  65.7536138 124.4292793  60.5389702
  66.5883030 124.8682598  60.7027262  65.8895267 123.9531447  59.7197947
  62.8027644 121.9872528  66.4867189  63.2781766 122.1800175  65.6786041
  61.8793210 122.0431714  66.2410573  57.3807861 114.0220372  65.4523023
  57.8989805 114.7581399  65.1269512  57.0262994 114.3284365  66.2869782
  48.9606798 118.8825053  53.5684429  48.2676043 118.9569408  52.9124465
  48.7158550 118.1185397  54.0905946  57.6320455 110.4420654  60.9723920
  57.9122209 109.7743843  61.5984346  58.4171062 110.6349750  60.4598584
  61.5029313 118.8638288  64.7195495  62.4546736 118.9636386  64.7407719
  61.3332764 118.0716557  65.2293579  59.5243693 115.9493872  64.9054896
  58.9293625 116.2298884  64.2101384  59.2393389 116.4387773  65.6771637
  63.9817391 122.0844408  63.8337795  63.9493711 121.1460409  64.0197478
  64.5918015 122.1628445  63.1003619  55.8200722 120.9540461  49.8764999
  56.7659827 120.8246669  49.9453417  55.4414967 120.2155123  50.3534427
  64.1311880 118.8755451  63.8796078  63.6150928 118.0913908  63.6926007
  65.0151828 118.5474168  64.0442597  61.7922606 112.6196467  59.8391890
  61.5947428 112.3111555  60.7235222  62.4022312 113.3458106  59.9689820
  69.7993941 123.1460415  62.9743831  70.5297329 122.8845703  63.5351535
  69.1900886 122.4089137  63.0145899  67.8809238 121.2868277  63.5718283
  67.1542402 121.1524242  62.9634774  67.4656525 121.5945106  64.3775001
  54.0043639 118.8790437  49.8119884  53.0975094 118.5823550  49.8882597
  54.2819620 118.5820256  48.9454170  55.6205705 113.4227327  55.9664125
  54.8106433 113.0774412  56.3419371  56.3090122 113.1134871  56.5551737
  57.5496253 112.5005374  57.5888422  58.1027292 112.9200827  58.2478445
  57.7866339 111.5741122  57.6311378  53.5729352 118.4892448  73.3691186
  53.4726079 119.4386805  73.3003277  53.3550894 118.1610686  72.4967256
  52.7742424 115.7377373  49.9531863  53.6361588 116.0632271  50.2127680
  52.9592768 114.9508869  49.4404929  60.9275060 114.6105899  57.0967086
  60.3473729 115.2690703  56.7145138  60.6610993 113.7883244  56.6854504
  59.3778627 114.0110957  59.2988406  59.8778405 114.1227491  58.4902725
  60.0214234 113.7072010  59.9389215  59.7099938 116.7705989  56.1523434
  58.8225793 117.0555640  55.9343629  60.1253927 116.6099753  55.3050711
  63.0614474 116.7952510  59.8677774  63.8374864 117.2848963  60.1402390
  62.3362608 117.2210565  60.3249643  65.4987033 117.5080130  60.9251714
  66.0931524 117.2675866  60.2145022  65.5713617 116.7887260  61.5525250
  59.6840962 122.2860525  56.3673724  59.6276163 122.7429077  55.5281357
  60.2369304 121.5251210  56.1896567  63.4945768 118.0750257  57.1923844
  63.2382702 117.6746893  58.0232052  62.8698636 118.7894051  57.0673983
  67.8058106 120.8146331  59.6995135  67.2457664 120.8839520  60.4726697
  67.2001609 120.6387315  58.9794632  60.4175741 123.4765307  53.6626254
  60.3624545 123.3109578  52.7214698  59.7921796 124.1841340  53.8188443
  45.2068256 118.7133371  67.4887676  45.8527120 118.2032325  67.9774901
  44.9985407 119.4502053  68.0631101  53.7271867 112.9773416  53.2411572
  53.7150537 113.9215256  53.3979843  54.6195289 112.7943561  52.9471033
  57.5423986 109.5716192  57.4957509  56.7756382 109.0174679  57.6414191
  57.9534691 109.6438061  58.3571660  49.5465747 115.8600988  71.5862690
  50.4097209 115.5037793  71.7966015  48.9731158 115.5214883  72.2738094
  68.9672372 126.7120687  64.4477200  68.6236641 127.6022328  64.3716310
  69.3351335 126.5222344  63.5846785  70.7660038 125.9714246  59.5494938
  71.0718914 125.1111609  59.2620853  71.4912642 126.5631866  59.3493931
  68.4714209 125.7712572  60.9723920  68.7515963 125.1035761  61.5984346
  69.2564816 125.9641668  60.4598584  72.6316361 127.9488385  59.8391890
  72.4341182 127.6403473  60.7235222  73.2416067 128.6750024  59.9689820
  68.3817741 124.9008110  57.4957509  67.6150136 124.3466597  57.6414191
  68.7928446 124.9729979  58.3571660   4.3551598  22.5213461  49.1170398
   4.9930008  22.4020208  48.4133738   4.2372441  23.4694305  49.1758350
   1.1641305  22.4740889  49.0531922   0.8259816  22.3581954  48.1652457
   2.0331073  22.0732054  49.0332929   1.6461088  23.6275741  55.0118128
   1.6349728  23.2328539  54.1398632   1.8081727  22.8941813  55.6051899
   2.6027679  27.9947333  40.3543278   1.9515659  28.5801414  39.9677292
   3.3972042  28.5253528  40.4138316   3.9092867  20.2464915  46.1923606
   4.6955956  19.8284338  45.8414023   4.1731571  21.1511007  46.3605254
   4.0802944  25.6837765  40.8912263   3.4448777  25.7572392  41.6033167
   3.7500351  26.2731364  40.2131342   9.3101294  20.1840148  47.0956584
  10.0426466  19.6139365  47.3294414   8.5540650  19.7961749  47.5363090
   0.9277414  22.6067390  44.2919927   0.5635621  22.0798011  45.0032848
   1.7844530  22.2165859  44.1186412   3.3258234  26.0974268  50.9547106
   3.0258957  26.9999307  50.8462913   2.9809293  25.8306451  51.8068258
   6.7255378  18.6156808  48.6344543   5.8172255  18.5472217  48.3403304
   6.6742974  19.0928753  49.4626368   8.5917024  16.8173247  50.4122417
   7.9491404  17.1105780  49.7662211   8.0871953  16.7026167  51.2175614
   6.2457188  20.5636420  41.1008276   7.1575044  20.7963807  40.9255974
   5.7366835  21.1473464  40.5383355   4.5297955  24.9861048  54.7369569
   4.9381311  24.5443458  53.9924201   3.8075217  24.4113675  54.9903762
   0.8829026  19.9233655  52.1103126   1.7290221  20.3473068  52.2537775
   0.8227663  19.2667279  52.8041689   4.8526770  25.5462238  48.4921858
   4.2235633  25.7107953  47.7897925   4.4652432  25.9603848  49.2632822
   8.7316002  26.4816676  45.8466221   8.0467040  26.8615578  45.2963255
   8.8159851  27.0912003  46.5798169   4.0328471  17.5838023  53.7684299
   3.7889403  18.3380083  53.2318575   4.3088401  17.9623370  54.6031546
   5.9866934  24.1276635  52.4461565   6.1983829  24.7708395  51.7695946
   5.9396682  23.2938952  51.9783495   3.5893163  16.7394456  49.3498137
   2.7277642  17.0375709  49.6414875   3.6155597  16.9564855  48.4179170
   7.1012762  27.0048591  50.6183922   7.9230205  26.6028778  50.3366604
   7.0975164  26.9016825  51.5700038  15.1918755  23.3487339  46.9668894
  14.4382463  22.7794737  46.8112898  15.3266296  23.3150004  47.9139528
   0.5817383  28.2200741  42.6423613   0.4463057  29.0652277  43.0708461
   1.1227195  28.4220019  41.8789547   2.2085859  28.8424308  56.7723955
   1.7649713  28.0560687  56.4544860   2.8703073  29.0303458  56.1067846
   4.3067097  29.1227108  54.8005356   4.2885572  29.9435989  54.3085626
   5.2287017  28.9981183  55.0255498   3.8960129  21.7339914  39.6794942
   3.3806752  22.5044519  39.9183329   3.6237437  21.0605051  40.3028003
   8.8694403  24.4872269  41.6148115   8.0923846  24.1483429  41.1703277
   9.5485884  24.4924892  40.9403080   3.6846432  19.6067007  41.5054723
   3.3796568  19.9213156  42.3564866   4.6376874  19.6848426  41.5482056
   2.1292864  25.7657230  43.1547677   1.6014226  25.0309989  42.8420914
   1.6280367  26.5431906  42.9087645   7.1085710  23.9606250  48.2714723
   6.4509384  24.6505512  48.3594852   7.9126109  24.3502682  48.6148709
   5.9191169  22.3150623  46.3218665   6.4323051  22.9480615  46.8240375
   6.5692393  21.7151819  45.9562025   3.1813543  32.2934947  39.0779336
   2.5075242  32.5966644  39.6864294   3.5679365  33.0964028  38.7284793
   2.3972000  19.7900079  48.5677005   1.4794561  20.0115026  48.4098693
   2.8132143  19.8646389  47.7088713   3.1807047  21.1891494  43.6979686
   3.9278866  21.7012891  43.3886808   3.4498637  20.8675547  44.5584079
   1.4533698  23.6850035  40.6806640   0.5444917  23.4009068  40.7779110
   1.4828781  24.1049114  39.8209947   6.6852965  27.2956624  44.4497807
   6.2315292  26.4547534  44.5062998   6.0546932  27.9318023  44.7872588
   5.6285885  18.2248611  45.6798475   4.8908641  17.7125997  46.0108717
   5.8812658  17.7848992  44.8681752   5.1285904  29.1333121  45.3847626
   5.4208879  29.6938178  44.6659991   5.6384525  29.4261682  46.1400785
   1.1509785  25.2258779  38.0194718   0.7129215  24.5094638  37.5600356
   1.8920226  25.4534893  37.4579810   3.5385163  20.3797540  53.3721708
   3.8934551  20.6069013  54.2316174   4.1857294  20.7115917  52.7498963
   9.2682900  23.5015976  44.0771037   9.1300799  23.6917572  43.1492226
   8.9119119  24.2635359  44.5339088   9.2952280  25.5692503  49.0882309
   9.7288786  25.4767792  49.9365363  10.0083860  25.5450003  48.4502325
   3.0280175  29.1694597  50.6215409   3.0817197  29.7385533  51.3893125
   2.1594956  29.3396482  50.2569446  10.1567829  25.6116203  51.6215194
  10.3503719  26.5162014  51.8674469  10.0568447  25.1523622  52.4553779
   5.2182938  25.7622946  57.1956075   5.0668444  25.5333498  56.2786158
   5.2087617  26.7193548  57.2087420   1.9868274  23.3354859  52.1802341
   2.9160334  23.4866018  52.0071308   1.5659304  23.4238880  51.3250988
   1.3804758  32.4614620  41.2926415   1.5556514  31.9902663  42.1072038
   0.6937546  33.0880386  41.5207676   2.3361821  26.7387126  47.3389716
   2.0011654  26.6987896  48.2347366   1.8365767  26.0731842  46.8660127
   5.2721013  24.0843160  37.6126776   4.6550184  23.3589988  37.5159829
   4.8037501  24.8452521  37.2693850   6.9275145  28.7942069  55.2732556
   6.8687691  28.1101289  54.6063139   7.3294663  29.5361059  54.8213182
   6.9292552  26.7581653  53.5046536   6.0419331  26.4207574  53.6272935
   7.4991103  26.0264684  53.7415301   3.5580135  16.4649504  46.6244806
   4.0548835  15.7119467  46.3045876   2.7867117  16.5013821  46.0588016
  11.4109892  22.1689870  48.2663098  11.3999769  23.0514585  47.8957031
  10.5427272  21.8161421  48.0717635   2.9192389  31.3169939  52.6265938
   3.6320361  31.9517404  52.5541839   2.4282417  31.4133805  51.8105940
   4.6409916  25.2221192  44.1983230   3.7066194  25.3422654  44.0287934
   4.8186584  24.3193658  43.9343239   8.0282467  21.0638511  44.7333264
   8.4942919  21.8966503  44.6593566   8.4789968  20.5983493  45.4378522
   6.0958698  27.4082332  41.7319416   6.3718542  27.2938927  42.6413290
   5.2263197  27.0099817  41.6931589   5.7705588  21.6208990  51.2724059
   5.1177039  21.8684897  50.6176512   6.1485968  20.8073128  50.9386536
   2.7312762  31.6568683  45.3752229   2.9135157  30.8390339  45.8379982
   3.5545748  31.8736375  44.9377119   3.0654928  30.5836868  42.6367278
   3.5942694  30.0729323  42.0237440   3.3283147  30.2679398  43.5012811
   1.8193161  22.3628801  57.7590096   1.1433798  22.2622930  58.4292471
   2.6420795  22.2068015  58.2226093   0.5615944  33.6695728  51.9947712
   1.1134252  33.8327350  52.7596797   0.9022138  34.2600166  51.3227737
   5.4126819  28.4956986  57.8496367   5.9566723  29.1086944  57.3551321
   4.8313663  29.0536564  58.3663380   3.6984332  31.6177704  48.9811394
   3.5735471  30.8167444  48.4722340   4.3563423  32.1123897  48.4925364
   5.7619240  29.4186724  50.6090944   4.8149575  29.2992075  50.5369271
   6.1102013  28.5309222  50.6917206   2.7665673  29.2139440  46.8095297
   2.6190636  28.2856148  46.9902867   3.5919167  29.2359531  46.3252372
   6.3699795  30.0367999  47.8960169   7.2946343  29.8310860  47.7584621
   6.2015098  29.7884400  48.8049511   6.1595111  30.5553666  43.2522261
   6.3331989  29.9900089  42.4996113   6.6524002  31.3554561  43.0701751
  12.0134502  23.3190089  44.8712561  12.4565648  22.5697415  44.4731684
  11.1361013  23.3100226  44.4886293   7.1470284  29.8720431  40.3519159
   7.8421188  30.4927123  40.5706474   7.4893434  29.0215782  40.6271537
   9.0461707  27.3220136  41.8806490   9.5713031  27.6607409  41.1555810
   8.9584059  26.3867152  41.6969625   0.7081756  31.2354210  54.0096367
   1.0168882  30.9903357  54.8819066   1.5057238  31.4400848  53.5215237
   8.7355613  27.9553040  57.1857688   7.9451157  27.9377179  56.6462187
   8.4988968  28.4941334  57.9406724   8.8553488  24.8045506  54.4990416
   8.9051493  24.6395514  55.4405939   8.7467411  23.9372765  54.1088297
   6.1457250  20.7876434  55.8149723   7.0467113  20.6482899  55.5233721
   6.2205225  20.9530889  56.7547901  10.3571685  27.2242448  54.7432438
  10.0656493  27.5872428  55.5795899   9.7443816  26.5109456  54.5645770
  11.5567367  24.7895328  47.2635008  12.3914259  25.2285132  47.4272569
  11.6926496  24.3133981  46.4443254   8.6058873  22.3475063  53.2112496
   9.0812995  22.5402709  52.4031347   7.6824438  22.4034248  52.9655880
   1.2385152  29.9782182  39.2594253   0.6659119  30.5972370  38.8064725
   1.8117946  30.5281544  39.7934175   7.3060542  19.2240823  51.4440802
   8.2577965  19.3238920  51.4653026   7.1363992  18.4319091  51.9538886
   5.3274922  16.3096406  51.6300202   4.7324854  16.5901419  50.9346691
   5.0424618  16.7990307  52.4016944   4.4582412  30.2619333  40.3902835
   5.3913085  30.1964894  40.5935711   4.3705625  31.0975599  39.9317368
   7.0870429  29.5785203  37.3506783   7.0084060  29.2445067  38.2442541
   7.9080095  30.0706971  37.3498255   9.7848620  22.4446942  50.5583101
   9.7524940  21.5062943  50.7442785  10.3949243  22.5230979  49.8248926
   1.6231951  21.3142995  36.6010305   2.5691055  21.1849203  36.6698723
   1.2446196  20.5757657  37.0779733   9.9343108  19.2357986  50.6041384
   9.4182157  18.4516442  50.4171313  10.8183057  18.9076702  50.7687904
  15.6025170  23.5062949  49.6989138  16.3328558  23.2448237  50.2596841
  14.9932115  22.7691671  49.7391206  13.6840467  21.6470812  50.2963589
  12.9573630  21.5126777  49.6880081  13.2687754  21.9547640  51.1020307
   1.5070643  25.3660741  58.0610962   2.4273653  25.5439340  58.2551009
   1.4720226  24.4216787  57.9090661   6.7306289  14.9708433  43.8212393
   6.1504958  15.6293237  43.4390445   6.4642222  14.1485778  43.4099810
   5.5131167  17.1308524  42.8768741   4.6257022  17.4158174  42.6588936
   5.9285156  16.9702287  42.0296018   8.8645703  17.1555045  46.5923080
   9.6406093  17.6451497  46.8647697   8.1393837  17.5813099  47.0494950
  11.3018262  17.8682664  47.6497021  11.8962753  17.6278400  46.9390329
  11.3744845  17.1489794  48.2770557   4.6574380  26.8953198  36.9716761
   5.3610231  27.1003201  37.5874417   3.9337029  27.4629960  37.2365844
   5.4872191  22.6463060  43.0919031   5.4307392  23.1031611  42.2526663
   6.0400533  21.8853744  42.9141874   9.2976997  18.4352792  43.9169151
   9.0413931  18.0349427  44.7477358   8.6729865  19.1496585  43.7919290
  13.6089334  21.1748865  46.4240442  13.0488892  21.2442054  47.1972004
  13.0032838  20.9989849  45.7039938   6.5661078  27.3335728  39.0215221
   7.4006682  26.9016926  38.8392696   6.4045421  27.1617741  39.9492115
   6.2206970  23.8367841  40.3871560   6.1655774  23.6712112  39.4460004
   5.5953025  24.5443874  40.5433750   3.5352877  26.1416753  59.7125123
   4.4044037  26.3157405  59.3511758   3.0559629  26.9611170  59.5900852
  15.1945353  37.8505379  49.1170398  15.8323763  37.7312126  48.4133738
  15.0766196  38.7986223  49.1758350  12.0035059  37.8032807  49.0531922
  11.6653571  37.6873871  48.1652457  12.8724827  37.4023972  49.0332929
   7.8621875  39.6568283  45.0428813   7.2986740  39.5658220  44.2745101
   7.7474270  38.8368188  45.5231306  12.4854842  38.9567659  55.0118128
  12.4743483  38.5620457  54.1398632  12.6475482  38.2233731  55.6051899
   5.4086307  41.1519475  47.8813034   6.2007599  40.8110299  47.4659333
   5.6482957  41.2614450  48.8015187  13.4421434  43.3239251  40.3543278
  12.7909413  43.9093331  39.9677292  14.2365796  43.8545446  40.4138316
   7.3677061  40.4128388  40.7530413   8.1407937  39.8657375  40.6143288
   7.7202460  41.2772637  40.9644874   9.2062103  41.7404770  53.9597312
   8.9151969  42.6450401  53.8443978   9.8419088  41.7821298  54.6741381
  10.1318310  39.1181619  50.5498672  10.7281882  38.8937641  49.8355634
  10.1893282  38.3766364  51.1524119   9.7043339  36.5721054  38.3848863
   9.9568859  36.0502575  37.6232326   8.7667898  36.4087200  38.4875546
  14.7486621  35.5756833  46.1923606  15.5349711  35.1576256  45.8414023
  15.0125326  36.4802925  46.3605254  14.9196699  41.0129683  40.8912263
  14.2842532  41.0864309  41.6033167  14.5894105  41.6023282  40.2131342
  20.1495049  35.5132066  47.0956584  20.8820220  34.9431283  47.3294414
  19.3934404  35.1253666  47.5363090   9.4239627  38.4749160  40.5873237
   9.3075885  37.7994064  41.2554322   9.5341887  37.9881534  39.7705391
  11.7671168  37.9359307  44.2919927  11.4029375  37.4089928  45.0032848
  12.6238284  37.5457776  44.1186412  17.6720469  29.2253640  51.5551193
  17.3403794  30.0949051  51.3312408  17.0766082  28.9089924  52.2345223
  11.4076655  32.9649207  39.2881275  11.5751058  33.8329443  39.6551746
  11.2173824  33.1276489  38.3642564  14.1651988  41.4266186  50.9547106
  13.8652712  42.3291225  50.8462913  13.8203048  41.1598369  51.8068258
   7.6164470  37.8779983  46.9883810   6.6914966  37.7456197  47.1961502
   7.8648883  38.6574202  47.4853752  17.5649132  33.9448726  48.6344543
  16.6566010  33.8764134  48.3403304  17.5136728  34.4220671  49.4626368
  11.3865876  35.4206864  40.2727942  11.2665501  35.8663915  41.1113422
  10.6918465  35.7692182  39.7141480   4.9773281  37.5213256  47.8227599
   5.1065662  37.7747735  48.7367011   4.2970732  38.1140964  47.5032254
   9.1472768  48.1910506  43.9218073   9.0696798  49.1418331  44.0006554
   8.5434412  47.8456379  44.5793000  11.6389998  35.3638372  56.5779440
  10.8623332  35.9232292  56.5682305  12.2780561  35.8495155  57.0994310
  19.4310779  32.1465164  50.4122417  18.7885159  32.4397698  49.7662211
  18.9265707  32.0318085  51.2175614  17.0850942  35.8928338  41.1008276
  17.9968798  36.1255724  40.9255974  16.5760589  36.4765382  40.5383355
   9.8936370  38.1723825  56.1397407  10.6351055  38.7108869  55.8632231
   9.1873356  38.7990114  56.2968959  15.3691710  40.3152965  54.7369569
  15.7775066  39.8735376  53.9924201  14.6468971  39.7405593  54.9903762
  11.7222780  35.2525572  52.1103126  12.5683975  35.6764986  52.2537775
  11.6621418  34.5959197  52.8041689  15.6920525  40.8754156  48.4921858
  15.0629387  41.0399870  47.7897925  15.3046187  41.2895766  49.2632822
  19.5709756  41.8108594  45.8466221  18.8860795  42.1907495  45.2963255
  19.6553606  42.4203921  46.5798169  14.8722225  32.9129941  53.7684299
  14.6283157  33.6672001  53.2318575  15.1482156  33.2915288  54.6031546
  16.8260688  39.4568553  52.4461565  17.0377583  40.1000313  51.7695946
  16.7790436  38.6230869  51.9783495  14.4286917  32.0686374  49.3498137
  13.5671396  32.3667627  49.6414875  14.4549352  32.2856772  48.4179170
  11.2448486  40.6128564  45.7571943  11.7086832  40.8916267  44.9676565
  10.9805285  39.7112009  45.5745033   8.1372568  40.1600046  48.6951706
   8.7073925  40.5887314  48.0569190   8.7280679  39.8782630  49.3935892
  10.1817373  36.7351717  42.5661508  10.8841416  37.1872760  43.0335434
   9.8498001  36.0935535  43.1941401   8.6297734  35.3263473  56.9412717
   7.9996395  36.0079754  57.1748114   8.5233822  35.2146555  55.9965855
   3.9242706  34.9935269  47.8678641   3.1341760  35.2492798  47.3918752
   4.4153954  35.8083607  47.9730682  17.9406516  42.3340508  50.6183922
  18.7623960  41.9320696  50.3366604  17.9368919  42.2308743  51.5700038
   5.8757452  35.3579848  44.8262118   5.0788615  35.4698543  45.3445614
   5.6483044  35.6966501  43.9603009  11.7063119  41.8824552  52.7744633
  11.7707552  42.3444959  53.6102805  10.9974043  41.2521917  52.9026943
   2.2080409  35.2465760  50.2993632   2.4588448  36.1312770  50.5651208
   2.7439958  35.0670361  49.5268724  26.0312509  38.6779257  46.9668894
  25.2776217  38.1086655  46.8112898  26.1660050  38.6441921  47.9139528
  11.4211137  43.5492659  42.6423613  11.2856812  44.3944195  43.0708461
  11.9620950  43.7511937  41.8789547   7.9078477  29.6284239  59.3037968
   7.5145422  29.0750438  59.9785612   8.7244617  29.9394817  59.6944486
   4.8740535  41.0668097  43.2151538   5.3865055  41.8611347  43.3657103
   5.5263247  40.3694388  43.1485140   6.6835419  44.1833853  45.2974291
   6.8602048  45.1051818  45.1095275   7.4792253  43.8692273  45.7268671
  10.8246438  31.0442118  56.8958225  11.5656151  31.6449271  56.8162687
  11.0564361  30.3019756  56.3376267   5.9687776  36.2298485  55.1736454
   5.8541291  35.3283743  55.4743553   5.1132294  36.4762182  54.8221271
  13.0479614  44.1716226  56.7723955  12.6043468  43.3852604  56.4544860
  13.7096827  44.3595376  56.1067846   7.8066735  45.7012027  51.2984634
   8.3574160  45.5729091  50.5261628   6.9678211  46.0006916  50.9479526
  15.1460852  44.4519026  54.8005356  15.1279327  45.2727907  54.3085626
  16.0680772  44.3273101  55.0255498  11.6033906  41.9663155  55.6428865
  12.1362243  41.2051443  55.4128173  11.0747987  41.6736807  56.3853019
  14.7703601  27.0723221  51.1722506  14.4267870  27.9624863  51.0961617
  15.1382563  26.8824879  50.3092092   2.8389451  39.3956751  43.9911109
   3.6764673  39.8053760  43.7744816   3.0167719  38.4556194  43.9611303
  14.7353883  37.0631832  39.6794942  14.2200507  37.8336437  39.9183329
  14.4631192  36.3896968  40.3028003  12.3200994  31.9081533  44.7380180
  11.4642591  31.5188383  44.5585819  12.7327946  31.9873494  43.8779966
  13.8500141  29.4427876  49.1371740  13.3464937  29.4058011  48.3239545
  14.1430748  30.3520619  49.1968396  10.0943027  29.5266606  48.1437921
  10.9596024  29.3309415  47.7843811  10.1620536  29.2976958  49.0707278
  19.7088158  39.8164187  41.6148115  18.9317600  39.4775346  41.1703277
  20.3879639  39.8216810  40.9403080  14.5240187  34.9358924  41.5054723
  14.2190322  35.2505073  42.3564866  15.4770629  35.0140344  41.5482056
  12.9686618  41.0949148  43.1547677  12.4407980  40.3601907  42.8420914
  12.4674121  41.8723824  42.9087645  17.9479464  39.2898168  48.2714723
  17.2903139  39.9797429  48.3594852  18.7519864  39.6794600  48.6148709
   7.7005346  31.7568814  45.5154288   8.2749098  31.5343995  44.7827481
   8.2876329  31.8257508  46.2682890  16.7584923  37.6442541  46.3218665
  17.2716805  38.2772533  46.8240375  17.4086147  37.0443736  45.9562025
   8.0274933  33.7873275  39.5350174   7.1912245  34.1247961  39.8559448
   7.8879703  33.6522255  38.5977311  10.0028014  28.6310063  44.2429358
   9.3492426  28.3159080  43.6185972   9.9608488  28.0085803  44.9689181
  11.1139219  38.9129358  36.1582650  10.2066280  38.6818611  36.3573799
  11.6110251  38.1166977  36.3456631  14.0207298  47.6226865  39.0779336
  13.3468996  47.9258562  39.6864294  14.4073119  48.4255945  38.7284793
  13.2365754  35.1191996  48.5677005  12.3188316  35.3406943  48.4098693
  13.6525898  35.1938307  47.7088713  14.0200802  36.5183412  43.6979686
  14.7672621  37.0304809  43.3886808  14.2892391  36.1967465  44.5584079
  12.2927452  39.0141953  40.6806640  11.3838671  38.7300985  40.7779110
  12.3222536  39.4341031  39.8209947  17.5246719  42.6248542  44.4497807
  17.0709047  41.7839452  44.5062998  16.8940686  43.2609941  44.7872588
  16.4679639  33.5540528  45.6798475  15.7302396  33.0417914  46.0108717
  16.7206413  33.1140910  44.8681752  15.9679659  44.4625039  45.3847626
  16.2602633  45.0230096  44.6659991  16.4778279  44.7553600  46.1400785
  16.5691266  26.3316780  46.2740244  16.8750143  25.4714144  45.9866159
  17.2943871  26.9234400  46.0739238   2.8615622  36.7347467  44.6621842
   2.6640022  36.1416828  43.9372909   2.3062286  36.4299677  45.3797781
  10.8412346  36.6270573  46.7816435  10.8960956  35.6744410  46.7058912
  10.0303548  36.7830012  47.2657734  11.9903540  40.5550696  38.0194718
  11.5522970  39.8386555  37.5600356  12.7313981  40.7826811  37.4579810
   8.7804706  35.2447633  44.5406814   7.9672572  35.5441804  44.9472006
   9.2763700  34.8503322  45.2581296  10.9313284  45.2405390  46.4741079
  10.8889463  45.4666236  45.5449611  11.8475983  45.0068765  46.6226880
  14.3778918  35.7089457  53.3721708  14.7328305  35.9360931  54.2316174
  15.0251049  36.0407834  52.7498963  20.1076655  38.8307893  44.0771037
  19.9694553  39.0209489  43.1492226  19.7512873  39.5927276  44.5339088
   8.2718781  32.8165989  50.1568049   8.9118160  32.6754748  49.4591012
   7.4396311  32.5300502  49.7806651  20.1346034  40.8984420  49.0882309
  20.5682541  40.8059709  49.9365363  20.8477615  40.8741921  48.4502325
   9.0479085  42.1168419  46.2703042   9.8419683  41.6218739  46.0685616
   8.3370777  41.5886282  45.9070747  13.8673929  44.4986514  50.6215409
  13.9210951  45.0677451  51.3893125  12.9988711  44.6688400  50.2569446
   5.3561848  36.2611501  42.3462794   4.4259436  36.1995956  42.5632756
   5.4519320  35.7387453  41.5499435   5.2747397  32.7866314  44.9341036
   5.5354215  33.7011647  44.8250196   6.0964570  32.3190756  45.0837649
   6.7472323  34.2004071  52.1039860   7.4195376  33.9921433  51.4552509
   5.9202109  34.0026157  51.6645093  20.9961584  40.9408121  51.6215194
  21.1897474  41.8453932  51.8674469  20.8962202  40.4815540  52.4553779
  12.6497895  30.8266012  54.1205521  12.0025810  31.5255961  54.0269998
  13.4198910  31.2602156  54.4881769  16.0576692  41.0914864  57.1956075
  15.9062199  40.8625415  56.2786158  16.0481372  42.0485465  57.2087420
  12.8262029  38.6646777  52.1802341  13.7554089  38.8157936  52.0071308
  12.4053059  38.7530797  51.3250988  11.6250361  42.6897441  49.9500879
  11.4861446  42.3216225  50.8226817  10.8364957  43.2045080  49.7784836
  12.2198513  47.7906537  41.2926415  12.3950268  47.3194581  42.1072038
  11.5331301  48.4172304  41.5207676  13.1755576  42.0679044  47.3389716
  12.8405408  42.0279814  48.2347366  12.6759522  41.4023760  46.8660127
   7.1499820  37.4746674  52.8642298   7.0119618  36.7426913  53.4653837
   8.0604743  37.3855574  52.5826485  16.1114767  39.4135078  37.6126776
  15.4943938  38.6881906  37.5159829  15.6431256  40.1744438  37.2693850
   9.7782120  37.1866633  52.3525977  10.4881739  36.5459825  52.3112596
   9.7351429  37.4379528  53.2752158  17.7668899  44.1233986  55.2732556
  17.7081445  43.4393206  54.6063139  18.1688418  44.8652976  54.8213182
   8.4911054  34.1731851  54.1721617   7.9548411  33.7222589  54.8243213
   7.9027763  34.3077760  53.4292081   6.7859598  50.9395900  48.0666275
   7.0256196  51.5714424  48.7445294   5.9428794  50.5883940  48.3531635
   7.9013313  33.6320502  36.7348080   7.0242780  33.5109303  36.3710327
   8.3771066  32.8406581  36.4826969  17.7686306  42.0873570  53.5046536
  16.8813085  41.7499492  53.6272935  18.3384857  41.3556602  53.7415301
   4.2250176  33.3087859  51.2574611   4.1408364  32.7013528  50.5225021
   3.4032882  33.7996877  51.2584108  11.2987460  46.7475023  50.4707779
  11.2257631  47.5529994  50.9827084  10.8564853  46.9466988  49.6455801
  11.0877239  45.9846793  43.9810601  10.3044761  46.5268473  44.0748825
  11.7869985  46.5020772  44.3804842  14.3973890  31.7941422  46.6244806
  14.8942589  31.0411384  46.3045876  13.6260871  31.8305739  46.0588016
  22.2503647  37.4981788  48.2663098  22.2393523  38.3806503  47.8957031
  21.3821026  37.1453338  48.0717635  13.7586143  46.6461857  52.6265938
  14.4714116  47.2809321  52.5541839  13.2676172  46.7425723  51.8105940
  15.4803670  40.5513109  44.1983230  14.5459949  40.6714572  44.0287934
  15.6580339  39.6485576  43.9343239  10.9808858  33.9358805  46.3516491
  10.6106646  33.3829845  47.0397396  11.4767951  33.3316939  45.7991491
  18.8676222  36.3930429  44.7333264  19.3336674  37.2258420  44.6593566
  19.3183722  35.9275410  45.4378522   8.8098057  44.3956300  53.4471509
   9.5107516  45.0292783  53.6000903   8.3393172  44.7371032  52.6867148
  16.9352453  42.7374250  41.7319416  17.2112297  42.6230844  42.6413290
  16.0656951  42.3391735  41.6931589  16.8392884  28.7611016  48.7724165
  15.9255964  28.9915242  48.9406372  17.2685986  28.8449460  49.6238197
  16.6099343  36.9500908  51.2724059  15.9570793  37.1976815  50.6176512
  16.9879723  36.1365046  50.9386536  13.5706517  46.9860601  45.3752229
  13.7528911  46.1682257  45.8379982  14.3939503  47.2028293  44.9377119
  13.9048682  45.9128786  42.6367278  14.4336449  45.4021240  42.0237440
  14.1676902  45.5971316  43.5012811  12.6586916  37.6920719  57.7590096
  11.9827553  37.5914848  58.4292471  13.4814550  37.5359932  58.2226093
   4.4065775  43.9292655  50.3802611   4.9919212  43.1836343  50.5130516
   4.2090613  44.2396612  51.2639275   7.2604430  46.9643903  45.3965054
   6.5914805  47.4490030  44.9129094   7.1217300  47.2113123  46.3108432
  11.4009699  48.9987646  51.9947712  11.9528007  49.1619268  52.7596797
  11.7415892  49.5892084  51.3227737   6.3774192  31.3462796  52.5969597
   6.4415518  32.2077627  52.1846995   6.3141312  30.7336798  51.8641955
   5.8526464  33.4185928  56.2442631   6.4798503  33.0363006  56.8580155
   4.9954383  33.2000130  56.6098324  16.2520573  43.8248904  57.8496367
  16.7960477  44.4378862  57.3551321  15.6707418  44.3828482  58.3663380
   2.6292007  35.2262358  42.1760986   2.9245448  34.3173036  42.1228040
   1.7280043  35.2050097  41.8541988  14.5378086  46.9469622  48.9811394
  14.4129225  46.1459361  48.4722340  15.1957177  47.4415815  48.4925364
   6.1586254  33.3018354  48.1588535   5.4372840  33.9154322  48.0196008
   6.9479510  33.8376119  48.0805181  16.6012994  44.7478642  50.6090944
  15.6543330  44.6283993  50.5369271  16.9495768  43.8601140  50.6917206
   8.9612568  30.6372781  54.4329186   9.4846970  30.8835077  55.1955496
   8.7424901  31.4692815  54.0132324   4.3579849  32.9076455  42.3000311
   4.0292555  32.0273834  42.1175417   4.7119220  32.8524124  43.1876700
  13.6059428  44.5431358  46.8095297  13.4584390  43.6148065  46.9902867
  14.4312921  44.5651449  46.3252372   7.4721672  33.1949425  42.6675789
   7.8117744  33.7235346  41.9454397   7.9193792  33.5329831  43.4434355
  17.2093550  45.3659917  47.8960169  18.1340097  45.1602778  47.7584621
  17.0408853  45.1176318  48.8049511  10.1665113  31.5786476  52.1178857
   9.8261933  30.7794289  52.5199537   9.4604119  31.8788187  51.5455690
  10.8181585  28.6635788  50.5706180  11.6407654  28.1896266  50.4485070
  11.0619648  29.4426272  51.0704866   9.4589819  31.6924047  40.8669082
  10.1798182  32.0705299  40.3632798   8.8355123  32.4112923  40.9704060
  13.6020942  32.3969196  41.8027414  13.8184556  33.2793833  41.5016242
  13.1215009  32.0055409  41.0733056   8.3420163  35.3554909  48.3798159
   8.1964744  35.6695212  49.2722440   7.8645367  35.9739809  47.8269057
  10.2016546  32.3457457  48.4279048  10.1878115  31.4498550  48.0911346
  10.9188974  32.3528121  49.0617334  12.0542677  32.7794797  50.4732175
  11.7960455  33.7011868  50.4716506  11.5227717  32.3825232  51.1632640
  16.9988866  45.8845584  43.2522261  17.1725743  45.3192007  42.4996113
  17.4917757  46.6846479  43.0701751   2.8165826  37.8960253  51.3185820
   2.2719294  38.6720061  51.4506094   3.6945175  38.2431058  51.1604941
   9.6053442  31.2271837  43.6966618   9.7269353  30.2988483  43.8957506
   9.3155485  31.2410523  42.7844934  12.4744633  28.9126747  46.8333338
  12.4966329  28.9766081  45.8785318  12.8912692  28.0731256  47.0273844
  22.8528257  38.6482007  44.8712561  23.2959403  37.8989332  44.4731684
  21.9754767  38.6392143  44.4886293  17.9864038  45.2012348  40.3519159
  18.6814943  45.8219041  40.5706474  18.3287188  44.3507700  40.6271537
   3.6031847  37.0230149  54.2115977   2.8613583  37.1712785  54.7980607
   3.2824592  37.2838415  53.3482726  19.8855461  42.6512054  41.8806490
  20.4106785  42.9899327  41.1555810  19.7977814  41.7159069  41.6969625
  11.5475510  46.5646128  54.0096367  11.8562637  46.3195274  54.8819066
  12.3450992  46.7692766  53.5215237  11.5696122  48.7184037  46.2401743
  11.1301112  48.2260416  46.9334600  12.3204239  48.1757005  45.9993818
   4.0488461  44.9095578  46.2426371   4.8746481  44.6099350  45.8625015
   3.6982513  44.1403201  46.6916160   9.0169994  44.2622046  48.3124045
   8.3950004  43.5992751  48.0126273   9.6874861  44.2883178  47.6297693
   2.2497066  42.8281905  47.2015305   1.4128974  42.4004079  47.0199306
   2.2220712  43.0214348  48.1386096   9.0894522  32.7403834  57.9056551
   9.1382677  33.6165957  57.5234320   9.6317036  32.1981227  57.3328194
  19.5749367  43.2844958  57.1857688  18.7844911  43.2669097  56.6462187
  19.3382722  43.8233251  57.9406724  19.6947242  40.1337424  54.4990416
  19.7445247  39.9687431  55.4405939  19.5861166  39.2664683  54.1088297
   8.5783501  42.8125970  41.7882505   8.7271622  43.4961434  41.1349178
   9.3849945  42.7931060  42.3031961  16.9851005  36.1168352  55.8149723
  17.8860868  35.9774817  55.5233721  17.0598979  36.2822807  56.7547901
  11.3193810  33.4935207  54.6602909  10.4497120  33.7868773  54.3885498
  11.5553291  34.0775652  55.3810173  21.1965439  42.5534366  54.7432438
  20.9050248  42.9164346  55.5795899  20.5837571  41.8401374  54.5645770
  22.3961122  40.1187245  47.2635008  23.2308013  40.5577049  47.4272569
  22.5320250  39.6425899  46.4443254  19.4452628  37.6766980  53.2112496
  19.9206749  37.8694626  52.4031347  18.5218193  37.7326166  52.9655880
   6.3336134  38.8391147  42.7943574   6.0882176  37.9353477  42.9923784
   6.5032049  38.8408298  41.8523052  14.0232844  29.7114824  52.1768330
  14.5414788  30.4475851  51.8514818  13.6687977  30.0178817  53.0115089
   5.6031782  34.5719505  40.2929736   4.9101027  34.6463860  39.6369772
   5.3583534  33.8079849  40.8151253  14.2745438  26.1315106  47.6969226
  14.5547192  25.4638295  48.3229653  15.0596045  26.3244202  47.1843890
  12.0778907  45.3074100  39.2594253  11.5052874  45.9264287  38.8064725
  12.6511700  45.8573462  39.7934175  18.1454297  34.5532740  51.4440802
  19.0971719  34.6530838  51.4653026  17.9757747  33.7611009  51.9538886
  16.1668676  31.6388323  51.6300202  15.5718608  31.9193336  50.9346691
  15.8818373  32.1282224  52.4016944  15.2976166  45.5911250  40.3902835
  16.2306840  45.5256812  40.5935711  15.2099379  46.4267517  39.9317368
  17.9264183  44.9077121  37.3506783  17.8477815  44.5736984  38.2442541
  18.7473850  45.3998889  37.3498255  20.6242374  37.7738860  50.5583101
  20.5918694  36.8354861  50.7442785  21.2342998  37.8522897  49.8248926
  12.4625705  36.6434913  36.6010305  13.4084810  36.5141121  36.6698723
  12.0839950  35.9049575  37.0779733  20.7736863  34.5649903  50.6041384
  20.2575911  33.7808360  50.4171313  21.6576811  34.2368620  50.7687904
  18.4347590  28.3090919  46.5637197  18.2372411  28.0006007  47.4480529
  19.0447295  29.0352558  46.6935127  26.4418924  38.8354867  49.6989138
  27.1722313  38.5740155  50.2596841  25.8325870  38.0983589  49.7391206
  24.5234221  36.9762729  50.2963589  23.7967385  36.8418694  49.6880081
  24.1081508  37.2839558  51.1020307  12.3464398  40.6952659  58.0610962
  13.2667407  40.8731258  58.2551009  12.3113981  39.7508704  57.9090661
  10.6468622  34.5684889  36.5365190   9.7400078  34.2718002  36.6127904
  10.9244603  34.2714707  35.6699477   1.5646563  35.8891253  46.9864237
   1.2449347  35.0356561  46.6938611   1.0179991  36.1039831  47.7422204
   5.3426470  38.6053694  50.7033743   5.5612480  39.5370802  50.7221777
   5.7552244  38.2461668  51.4888547  12.2630688  29.1121779  42.6909432
  11.4531416  28.7668864  43.0664678  12.9515105  28.8029323  43.2797043
  14.1921236  28.1899826  44.3133728  14.7452275  28.6095279  44.9723752
  14.4291323  27.2635574  44.3556684  10.2154336  34.1786899  60.0936492
  10.1151062  35.1281256  60.0248583   9.9975878  33.8505138  59.2212562
   9.4167407  31.4271825  36.6777170  10.2786571  31.7526723  36.9372987
   9.6017751  30.6403320  36.1650235   1.4334823  39.5094164  48.9557358
   0.7398294  39.0948117  48.4427313   2.1807814  39.5514701  48.3590777
  17.5700043  30.3000351  43.8212393  16.9898712  30.9585155  43.4390445
  17.3035976  29.4777696  43.4099810  16.0203610  29.7005409  46.0233713
  16.5203388  29.8121943  45.2148032  16.6639218  29.3966462  46.6634521
  10.0785606  37.6084038  58.9101554   9.5952687  38.4084398  59.1165443
  10.1646545  37.6191983  57.9568998   3.3471565  39.4412418  46.8323373
   3.3242253  39.5400105  45.8805256   3.6572202  40.2877569  47.1540539
   6.0058943  41.4988573  50.9469988   6.9602197  41.4672515  50.8799919
   5.8071467  41.0379197  51.7620214   6.5958325  40.0689689  53.5140785
   7.4151214  40.5633768  53.5375623   6.8695133  39.1521657  53.4858353
  16.3524921  32.4600441  42.8768741  15.4650776  32.7450092  42.6588936
  16.7678911  32.2994205  42.0296018  19.7039458  32.4846962  46.5923080
  20.4799848  32.9743415  46.8647697  18.9787592  32.9105017  47.0494950
  22.1412016  33.1974582  47.6497021  22.7356507  32.9570318  46.9390329
  22.2138600  32.4781712  48.2770557   4.3609172  47.0408193  47.9640186
   4.2263640  46.2808593  47.3978184   3.9441234  47.7649092  47.4968974
  15.4968135  42.2245116  36.9716761  16.2003985  42.4295119  37.5874417
  14.7730784  42.7921878  37.2365844  16.3265945  37.9754977  43.0919031
  16.2701147  38.4323529  42.2526663  16.8794288  37.2145662  42.9141874
  20.1370751  33.7644709  43.9169151  19.8807685  33.3641345  44.7477358
  19.5123619  34.4788503  43.7919290  24.4483089  36.5040782  46.4240442
  23.8882647  36.5733972  47.1972004  23.8426592  36.3281767  45.7039938
   7.5178298  47.9377510  48.1758628   7.4010682  48.8822942  48.0737319
   6.6970744  47.6351071  48.5644427  17.4054832  42.6627645  39.0215221
  18.2400436  42.2308844  38.8392696  17.2439175  42.4909659  39.9492115
  17.0600725  39.1659759  40.3871560  17.0049528  39.0004030  39.4460004
  16.4346780  39.8735791  40.5433750   1.8493239  34.4027823  54.2132982
   2.4952103  33.8926777  54.7020208   1.6410391  35.1396505  54.7876408
  14.3746632  41.4708670  59.7125123  15.2437791  41.6449323  59.3511758
  13.8953383  42.2903087  59.5900852  10.3696850  28.6667868  39.9656879
  10.3575520  29.6109707  40.1225150  11.2620272  28.4838013  39.6716340
   8.5432812  48.5905771  51.3914557   9.4460059  48.6229382  51.7081052
   8.3170182  47.6606222  51.4060892  10.2986414  47.3436758  48.0524635
   9.3482045  47.3438620  47.9389008  10.6018900  46.5969493  47.5360670
  14.1848969  25.2610644  44.2202815  13.4181365  24.7069131  44.3659498
  14.5959674  25.3332513  45.0816967   6.1890730  31.5495440  58.3107997
   7.0522192  31.1932245  58.5211321   5.6156141  31.2109335  58.9983401
  26.0339107  53.1797296  49.1170398  26.6717517  53.0604044  48.4133738
  25.9159950  54.1278140  49.1758350  22.8428814  53.1324724  49.0531922
  22.5047325  53.0165789  48.1652457  23.7118582  52.7315890  49.0332929
  18.7015629  54.9860201  45.0428813  18.1380495  54.8950138  44.2745101
  18.5868024  54.1660105  45.5231306  23.3248597  54.2859576  55.0118128
  23.3137237  53.8912374  54.1398632  23.4869236  53.5525649  55.6051899
  16.2480061  56.4811392  47.8813034  17.0401353  56.1402217  47.4659333
  16.4876711  56.5906368  48.8015187  24.2815188  58.6531169  40.3543278
  23.6303168  59.2385249  39.9677292  25.0759551  59.1837363  40.4138316
  18.2070815  55.7420306  40.7530413  18.9801691  55.1949293  40.6143288
  18.5596214  56.6064555  40.9644874  20.0455858  57.0696688  53.9597312
  19.7545724  57.9742319  53.8443978  20.6812842  57.1113216  54.6741381
  20.9712065  54.4473537  50.5498672  21.5675637  54.2229559  49.8355634
  21.0287036  53.7058282  51.1524119  20.5437093  51.9012972  38.3848863
  20.7962614  51.3794493  37.6232326  19.6061652  51.7379117  38.4875546
  25.5880376  50.9048750  46.1923606  26.3743465  50.4868173  45.8414023
  25.8519080  51.8094842  46.3605254  25.7590453  56.3421601  40.8912263
  25.1236286  56.4156227  41.6033167  25.4287860  56.9315199  40.2131342
  30.9888803  50.8423983  47.0956584  31.7213975  50.2723200  47.3294414
  30.2328159  50.4545584  47.5363090  20.2633382  53.8041078  40.5873237
  20.1469640  53.1285981  41.2554322  20.3735642  53.3173452  39.7705391
  22.6064923  53.2651225  44.2919927  22.2423130  52.7381846  45.0032848
  23.4632039  52.8749694  44.1186412  28.5114223  44.5545558  51.5551193
  28.1797548  45.4240968  51.3312408  27.9159837  44.2381842  52.2345223
  22.2470410  48.2941125  39.2881275  22.4144812  49.1621361  39.6551746
  22.0567579  48.4568406  38.3642564  25.0045743  56.7558104  50.9547106
  24.7046466  57.6583142  50.8462913  24.6596802  56.4890287  51.8068258
  18.4558224  53.2071900  46.9883810  17.5308721  53.0748114  47.1961502
  18.7042638  53.9866120  47.4853752  28.4042887  49.2740644  48.6344543
  27.4959764  49.2056052  48.3403304  28.3530483  49.7512589  49.4626368
  22.2259631  50.7498782  40.2727942  22.1059256  51.1955833  41.1113422
  21.5312219  51.0984100  39.7141480  15.8167035  52.8505174  47.8227599
  15.9459417  53.1039653  48.7367011  15.1364487  53.4432882  47.5032254
  19.9866523  63.5202424  43.9218073  19.9090552  64.4710249  44.0006554
  19.3828166  63.1748296  44.5793000  22.4783752  50.6930289  56.5779440
  21.7017087  51.2524209  56.5682305  23.1174316  51.1787072  57.0994310
  30.2704533  47.4757082  50.4122417  29.6278913  47.7689615  49.7662211
  29.7659462  47.3610002  51.2175614  27.9244697  51.2220255  41.1008276
  28.8362553  51.4547642  40.9255974  27.4154344  51.8057299  40.5383355
  20.7330125  53.5015743  56.1397407  21.4744809  54.0400787  55.8632231
  20.0267110  54.1282031  56.2968959  26.2085464  55.6444883  54.7369569
  26.6168820  55.2027294  53.9924201  25.4862726  55.0697511  54.9903762
  22.5616534  50.5817490  52.1103126  23.4077730  51.0056903  52.2537775
  22.5015172  49.9251114  52.8041689  26.5314279  56.2046074  48.4921858
  25.9023142  56.3691788  47.7897925  26.1439941  56.6187683  49.2632822
  25.7115980  48.2421858  53.7684299  25.4676912  48.9963919  53.2318575
  25.9875910  48.6207206  54.6031546  27.6654443  54.7860471  52.4461565
  27.8771338  55.4292231  51.7695946  27.6184191  53.9522787  51.9783495
  25.2680672  47.3978291  49.3498137  24.4065151  47.6959545  49.6414875
  25.2943106  47.6148690  48.4179170  22.0842241  55.9420482  45.7571943
  22.5480586  56.2208185  44.9676565  21.8199039  55.0403926  45.5745033
  18.9766322  55.4891963  48.6951706  19.5467679  55.9179232  48.0569190
  19.5674434  55.2074548  49.3935892  21.0211127  52.0643634  42.5661508
  21.7235170  52.5164678  43.0335434  20.6891756  51.4227453  43.1941401
  19.4691489  50.6555391  56.9412717  18.8390149  51.3371672  57.1748114
  19.3627576  50.5438472  55.9965855  14.7636461  50.3227187  47.8678641
  13.9735515  50.5784715  47.3918752  15.2547708  51.1375525  47.9730682
  28.7800271  57.6632426  50.6183922  29.6017714  57.2612613  50.3366604
  28.7762673  57.5600660  51.5700038  16.7151206  50.6871766  44.8262118
  15.9182370  50.7990460  45.3445614  16.4876799  51.0258418  43.9603009
  22.5456874  57.2116469  52.7744633  22.6101306  57.6736877  53.6102805
  21.8367798  56.5813834  52.9026943  13.0474164  50.5757677  50.2993632
  13.2982202  51.4604687  50.5651208  13.5833712  50.3962279  49.5268724
  22.2604892  58.8784577  42.6423613  22.1250566  59.7236113  43.0708461
  22.8014704  59.0803854  41.8789547  18.7472231  44.9576157  59.3037968
  18.3539177  44.4042355  59.9785612  19.5638372  45.2686735  59.6944486
  15.7134289  56.3960015  43.2151538  16.2258810  57.1903265  43.3657103
  16.3657002  55.6986305  43.1485140  17.5229174  59.5125771  45.2974291
  17.6995802  60.4343736  45.1095275  18.3186007  59.1984190  45.7268671
  21.6640192  46.3734036  56.8958225  22.4049906  46.9741189  56.8162687
  21.8958115  45.6311674  56.3376267  16.8081530  51.5590403  55.1736454
  16.6935045  50.6575660  55.4743553  15.9526048  51.8054100  54.8221271
  23.8873368  59.5008143  56.7723955  23.4437222  58.7144522  56.4544860
  24.5490582  59.6887294  56.1067846  18.6460489  61.0303945  51.2984634
  19.1967914  60.9021008  50.5261628  17.8071965  61.3298834  50.9479526
  25.9854606  59.7810943  54.8005356  25.9673081  60.6019824  54.3085626
  26.9074526  59.6565018  55.0255498  22.4427660  57.2955073  55.6428865
  22.9755997  56.5343361  55.4128173  21.9141741  57.0028725  56.3853019
  25.6097355  42.4015139  51.1722506  25.2661625  43.2916780  51.0961617
  25.9776318  42.2116796  50.3092092  13.6783206  54.7248669  43.9911109
  14.5158428  55.1345678  43.7744816  13.8561474  53.7848111  43.9611303
  25.5747638  52.3923750  39.6794942  25.0594261  53.1628354  39.9183329
  25.3024946  51.7188886  40.3028003  23.1594749  47.2373451  44.7380180
  22.3036345  46.8480301  44.5585819  23.5721701  47.3165411  43.8779966
  24.6893896  44.7719794  49.1371740  24.1858691  44.7349929  48.3239545
  24.9824502  45.6812537  49.1968396  20.9336781  44.8558524  48.1437921
  21.7989778  44.6601332  47.7843811  21.0014290  44.6268875  49.0707278
  30.5481912  55.1456104  41.6148115  29.7711355  54.8067264  41.1703277
  31.2273393  55.1508728  40.9403080  25.3633941  50.2650842  41.5054723
  25.0584077  50.5796991  42.3564866  26.3164383  50.3432262  41.5482056
  23.8080373  56.4241065  43.1547677  23.2801735  55.6893825  42.8420914
  23.3067876  57.2015742  42.9087645  28.7873219  54.6190086  48.2714723
  28.1296893  55.3089347  48.3594852  29.5913618  55.0086518  48.6148709
  18.5399101  47.0860732  45.5154288  19.1142852  46.8635913  44.7827481
  19.1270083  47.1549426  46.2682890  27.5978678  52.9734458  46.3218665
  28.1110560  53.6064450  46.8240375  28.2479902  52.3735654  45.9562025
  18.8668688  49.1165193  39.5350174  18.0306000  49.4539879  39.8559448
  18.7273457  48.9814172  38.5977311  20.8421768  43.9601980  44.2429358
  20.1886181  43.6450998  43.6185972  20.8002242  43.3377721  44.9689181
  21.9532973  54.2421275  36.1582650  21.0460035  54.0110529  36.3573799
  22.4504005  53.4458895  36.3456631  24.8601052  62.9518783  39.0779336
  24.1862751  63.2550479  39.6864294  25.2466874  63.7547863  38.7284793
  24.0759509  50.4483914  48.5677005  23.1582070  50.6698861  48.4098693
  24.4919652  50.5230224  47.7088713  24.8594556  51.8475330  43.6979686
  25.6066375  52.3596727  43.3886808  25.1286146  51.5259382  44.5584079
  23.1321207  54.3433870  40.6806640  22.2232426  54.0592903  40.7779110
  23.1616290  54.7632949  39.8209947  28.3640474  57.9540460  44.4497807
  27.9102801  57.1131370  44.5062998  27.7334441  58.5901858  44.7872588
  27.3073394  48.8832446  45.6798475  26.5696150  48.3709832  46.0108717
  27.5600167  48.4432827  44.8681752  26.8073413  59.7916957  45.3847626
  27.0996388  60.3522014  44.6659991  27.3172034  60.0845518  46.1400785
  27.4085021  41.6608698  46.2740244  27.7143898  40.8006061  45.9866159
  28.1337626  42.2526318  46.0739238  13.7009377  52.0639384  44.6621842
  13.5033777  51.4708745  43.9372909  13.1456041  51.7591595  45.3797781
  21.6806101  51.9562491  46.7816435  21.7354710  51.0036327  46.7058912
  20.8697303  52.1121930  47.2657734  22.8297294  55.8842614  38.0194718
  22.3916724  55.1678473  37.5600356  23.5707735  56.1118729  37.4579810
  19.6198461  50.5739551  44.5406814  18.8066326  50.8733721  44.9472006
  20.1157455  50.1795239  45.2581296  21.7707038  60.5697308  46.4741079
  21.7283217  60.7958154  45.5449611  22.6869737  60.3360682  46.6226880
  25.2172672  51.0381375  53.3721708  25.5722060  51.2652848  54.2316174
  25.8644803  51.3699752  52.7498963  30.9470409  54.1599811  44.0771037
  30.8088308  54.3501407  43.1492226  30.5906628  54.9219194  44.5339088
  19.1112535  48.1457906  50.1568049  19.7511915  48.0046665  49.4591012
  18.2790066  47.8592420  49.7806651  30.9739789  56.2276338  49.0882309
  31.4076295  56.1351627  49.9365363  31.6871369  56.2033839  48.4502325
  19.8872839  57.4460337  46.2703042  20.6813438  56.9510657  46.0685616
  19.1764532  56.9178200  45.9070747  24.7067684  59.8278432  50.6215409
  24.7604706  60.3969368  51.3893125  23.8382465  59.9980317  50.2569446
  16.1955603  51.5903418  42.3462794  15.2653191  51.5287874  42.5632756
  16.2913075  51.0679371  41.5499435  16.1141152  48.1158231  44.9341036
  16.3747969  49.0303564  44.8250196  16.9358324  47.6482674  45.0837649
  17.5866077  49.5295988  52.1039860  18.2589130  49.3213351  51.4552509
  16.7595864  49.3318074  51.6645093  23.4891649  46.1557929  54.1205521
  22.8419564  46.8547879  54.0269998  24.2592664  46.5894073  54.4881769
  26.8970447  56.4206781  57.1956075  26.7455953  56.1917333  56.2786158
  26.8875126  57.3777383  57.2087420  23.6655783  53.9938694  52.1802341
  24.5947843  54.1449854  52.0071308  23.2446813  54.0822715  51.3250988
  22.4644115  58.0189359  49.9500879  22.3255201  57.6508143  50.8226817
  21.6758711  58.5336998  49.7784836  23.0592267  63.1198455  41.2926415
  23.2344023  62.6486498  42.1072038  22.3725055  63.7464221  41.5207676
  24.0149330  57.3970961  47.3389716  23.6799163  57.3571731  48.2347366
  23.5153276  56.7315677  46.8660127  17.9893574  52.8038591  52.8642298
  17.8513372  52.0718830  53.4653837  18.8998498  52.7147491  52.5826485
  26.9508522  54.7426996  37.6126776  26.3337693  54.0173824  37.5159829
  26.4825010  55.5036356  37.2693850  20.6175875  52.5158551  52.3525977
  21.3275493  51.8751743  52.3112596  20.5745183  52.7671446  53.2752158
  28.6062654  59.4525904  55.2732556  28.5475200  58.7685124  54.6063139
  29.0082172  60.1944894  54.8213182  19.3304809  49.5023769  54.1721617
  18.7942166  49.0514507  54.8243213  18.7421517  49.6369677  53.4292081
  17.6253352  66.2687818  48.0666275  17.8649951  66.9006342  48.7445294
  16.7822549  65.9175858  48.3531635  18.7407068  48.9612420  36.7348080
  17.8636534  48.8401221  36.3710327  19.2164821  48.1698498  36.4826969
  28.6080061  57.4165488  53.5046536  27.7206840  57.0791410  53.6272935
  29.1778612  56.6848519  53.7415301  10.2609208  53.7489580  46.8289587
  10.9480248  53.4351310  46.2410603  10.1057337  54.6530944  46.5556839
  15.0643930  48.6379776  51.2574611  14.9802119  48.0305446  50.5225021
  14.2426637  49.1288795  51.2584108  22.1381214  62.0766940  50.4707779
  22.0651386  62.8821912  50.9827084  21.6958607  62.2758906  49.6455801
  21.9270994  61.3138710  43.9810601  21.1438516  61.8560391  44.0748825
  22.6263739  61.8312690  44.3804842  25.2367644  47.1233340  46.6244806
  25.7336344  46.3703302  46.3045876  24.4654626  47.1597656  46.0588016
  33.0897401  52.8273705  48.2663098  33.0787278  53.7098421  47.8957031
  32.2214781  52.4745256  48.0717635  24.5979898  61.9753774  52.6265938
  25.3107870  62.6101239  52.5541839  24.1069926  62.0717640  51.8105940
  26.3197425  55.8805027  44.1983230  25.3853703  56.0006489  44.0287934
  26.4974093  54.9777494  43.9343239  21.8202613  49.2650723  46.3516491
  21.4500400  48.7121763  47.0397396  22.3161705  48.6608856  45.7991491
  29.7069976  51.7222346  44.7333264  30.1730428  52.5550338  44.6593566
  30.1577477  51.2567328  45.4378522  19.6491811  59.7248218  53.4471509
  20.3501271  60.3584701  53.6000903  19.1786926  60.0662949  52.6867148
  27.7746207  58.0666168  41.7319416  28.0506051  57.9522762  42.6413290
  26.9050706  57.6683652  41.6931589  27.6786639  44.0902933  48.7724165
  26.7649719  44.3207160  48.9406372  28.1079740  44.1741377  49.6238197
  27.4493097  52.2792825  51.2724059  26.7964548  52.5268733  50.6176512
  27.8273477  51.4656963  50.9386536  24.4100271  62.3152518  45.3752229
  24.5922666  61.4974174  45.8379982  25.2333257  62.5320211  44.9377119
  24.7442437  61.2420704  42.6367278  25.2730203  60.7313158  42.0237440
  25.0070656  60.9263234  43.5012811  23.4980670  53.0212636  57.7590096
  22.8221307  52.9206766  58.4292471  24.3208304  52.8651850  58.2226093
  15.2459529  59.2584573  50.3802611  15.8312966  58.5128261  50.5130516
  15.0484368  59.5688530  51.2639275  18.0998185  62.2935820  45.3965054
  17.4308560  62.7781948  44.9129094  17.9611054  62.5405041  46.3108432
   9.8377184  51.8290173  49.1007055   9.8761284  51.2953764  49.8944173
   9.3317477  51.3025379  48.4818032  22.2403453  64.3279564  51.9947712
  22.7921761  64.4911185  52.7596797  22.5809647  64.9184002  51.3227737
  17.2167946  46.6754714  52.5969597  17.2809273  47.5369544  52.1846995
  17.1535067  46.0628715  51.8641955  16.6920219  48.7477846  56.2442631
  17.3192258  48.3654923  56.8580155  15.8348138  48.5292048  56.6098324
  27.0914328  59.1540821  57.8496367  27.6354232  59.7670780  57.3551321
  26.5101172  59.7120400  58.3663380  13.4685762  50.5554275  42.1760986
  13.7639203  49.6464954  42.1228040  12.5673797  50.5342015  41.8541988
  25.3771840  62.2761539  48.9811394  25.2522980  61.4751279  48.4722340
  26.0350932  62.7707733  48.4925364  16.9980009  48.6310272  48.1588535
  16.2766594  49.2446239  48.0196008  17.7873264  49.1668037  48.0805181
  27.4406749  60.0770559  50.6090944  26.4937084  59.9575911  50.5369271
  27.7889522  59.1893057  50.6917206  19.8006322  45.9664698  54.4329186
  20.3240724  46.2126995  55.1955496  19.5818656  46.7984733  54.0132324
  15.1973603  48.2368373  42.3000311  14.8686309  47.3565752  42.1175417
  15.5512974  48.1816042  43.1876700  24.4453182  59.8723276  46.8095297
  24.2978145  58.9439983  46.9902867  25.2706676  59.8943366  46.3252372
  18.3115426  48.5241343  42.6675789  18.6511499  49.0527264  41.9454397
  18.7587547  48.8621749  43.4434355  28.0487304  60.6951834  47.8960169
  28.9733851  60.4894696  47.7584621  27.8802607  60.4468235  48.8049511
  21.0058867  46.9078393  52.1178857  20.6655688  46.1086206  52.5199537
  20.2997874  47.2080104  51.5455690  21.6575339  43.9927706  50.5706180
  22.4801408  43.5188184  50.4485070  21.9013403  44.7718190  51.0704866
  20.2983574  47.0215964  40.8669082  21.0191936  47.3997217  40.3632798
  19.6748878  47.7404841  40.9704060  24.4414696  47.7261113  41.8027414
  24.6578311  48.6085751  41.5016242  23.9608764  47.3347327  41.0733056
  19.1813918  50.6846826  48.3798159  19.0358499  50.9987130  49.2722440
  18.7039122  51.3031727  47.8269057  21.0410301  47.6749374  48.4279048
  21.0271870  46.7790468  48.0911346  21.7582729  47.6820038  49.0617334
  22.8936431  48.1086715  50.4732175  22.6354209  49.0303785  50.4716506
  22.3621472  47.7117149  51.1632640  27.8382620  61.2137502  43.2522261
  28.0119498  60.6483924  42.4996113  28.3311511  62.0138397  43.0701751
  13.6559580  53.2252171  51.3185820  13.1113048  54.0011979  51.4506094
  14.5338930  53.5722975  51.1604941  20.4447197  46.5563755  43.6966618
  20.5663108  45.6280401  43.8957506  20.1549239  46.5702441  42.7844934
  23.3138387  44.2418665  46.8333338  23.3360084  44.3057998  45.8785318
  23.7306446  43.4023174  47.0273844  33.6922011  53.9773925  44.8712561
  34.1353157  53.2281250  44.4731684  32.8148522  53.9684061  44.4886293
  28.8257793  60.5304266  40.3519159  29.5208697  61.1510959  40.5706474
  29.1680943  59.6799617  40.6271537  14.4425602  52.3522067  54.2115977
  13.7007338  52.5004702  54.7980607  14.1218346  52.6130333  53.3482726
  30.7249216  57.9803972  41.8806490  31.2500540  58.3191244  41.1555810
  30.6371568  57.0450987  41.6969625  22.3869265  61.8938045  54.0096367
  22.6956391  61.6487192  54.8819066  23.1844747  62.0984684  53.5215237
  22.4089877  64.0475955  46.2401743  21.9694867  63.5552334  46.9334600
  23.1597994  63.5048923  45.9993818  14.8882216  60.2387496  46.2426371
  15.7140235  59.9391268  45.8625015  14.5376268  59.4695118  46.6916160
  19.8563749  59.5913964  48.3124045  19.2343758  58.9284669  48.0126273
  20.5268616  59.6175096  47.6297693  13.0890821  58.1573822  47.2015305
  12.2522729  57.7295997  47.0199306  13.0614466  58.3506266  48.1386096
  19.9288276  48.0695752  57.9056551  19.9776432  48.9457875  57.5234320
  20.4710790  47.5273145  57.3328194  30.4143122  58.6136875  57.1857688
  29.6238666  58.5961014  56.6462187  30.1776476  59.1525169  57.9406724
  30.5340997  55.4629342  54.4990416  30.5839002  55.2979349  55.4405939
  30.4254920  54.5956601  54.1088297  19.4177256  58.1417887  41.7882505
  19.5665376  58.8253352  41.1349178  20.2243699  58.1222977  42.3031961
  27.8244759  51.4460270  55.8149723  28.7254622  51.3066735  55.5233721
  27.8992734  51.6114725  56.7547901  22.1587565  48.8227124  54.6602909
  21.2890874  49.1160691  54.3885498  22.3947045  49.4067569  55.3810173
  33.2354876  55.4479163  47.2635008  34.0701767  55.8868967  47.4272569
  33.3714005  54.9717816  46.4443254  30.2846382  53.0058898  53.2112496
  30.7600504  53.1986544  52.4031347  29.3611947  53.0618084  52.9655880
  17.1729889  54.1683065  42.7943574  16.9275931  53.2645395  42.9923784
  17.3425803  54.1700215  41.8523052  24.8626599  45.0406741  52.1768330
  25.3808542  45.7767768  51.8514818  24.5081731  45.3470735  53.0115089
  16.4425536  49.9011423  40.2929736  15.7494781  49.9755778  39.6369772
  16.1977288  49.1371766  40.8151253  25.1139193  41.4607024  47.6969226
  25.3940946  40.7930213  48.3229653  25.8989800  41.6536120  47.1843890
  22.9172661  60.6366018  39.2594253  22.3446628  61.2556205  38.8064725
  23.4905455  61.1865380  39.7934175  28.9848051  49.8824658  51.4440802
  29.9365474  49.9822756  51.4653026  28.8151501  49.0902926  51.9538886
  27.0062430  46.9680241  51.6300202  26.4112363  47.2485254  50.9346691
  26.7212127  47.4574142  52.4016944  26.1369921  60.9203168  40.3902835
  27.0700594  60.8548730  40.5935711  26.0493134  61.7559435  39.9317368
  28.7657938  60.2369038  37.3506783  28.6871569  59.9028902  38.2442541
  29.5867604  60.7290806  37.3498255  31.4636129  53.1030778  50.5583101
  31.4312449  52.1646778  50.7442785  32.0736752  53.1814814  49.8248926
  23.3019460  51.9726831  36.6010305  24.2478564  51.8433039  36.6698723
  22.9233705  51.2341493  37.0779733  31.6130617  49.8941821  50.6041384
  31.0969666  49.1100278  50.4171313  32.4970566  49.5660538  50.7687904
  29.2741344  43.6382837  46.5637197  29.0766165  43.3297925  47.4480529
  29.8841050  44.3644476  46.6935127  35.3627976  52.3054647  50.2963589
  34.6361139  52.1710612  49.6880081  34.9475263  52.6131476  51.1020307
  23.1858152  56.0244577  58.0610962  24.1061162  56.2023176  58.2551009
  23.1507735  55.0800622  57.9090661  21.4862377  49.8976807  36.5365190
  20.5793832  49.6009920  36.6127904  21.7638358  49.6006625  35.6699477
  12.4040317  51.2183170  46.9864237  12.0843102  50.3648479  46.6938611
  11.8573745  51.4331749  47.7422204  16.1820225  53.9345611  50.7033743
  16.4006235  54.8662719  50.7221777  16.5945999  53.5753586  51.4888547
  23.1024443  44.4413697  42.6909432  22.2925171  44.0960782  43.0664678
  23.7908859  44.1321240  43.2797043  25.0314991  43.5191744  44.3133728
  25.5846029  43.9387197  44.9723752  25.2685077  42.5927492  44.3556684
  21.0548090  49.5078817  60.0936492  20.9544817  50.4573174  60.0248583
  20.8369632  49.1797056  59.2212562  20.2561161  46.7563742  36.6777170
  21.1180325  47.0818641  36.9372987  20.4411506  45.9695238  36.1650235
  12.2728577  54.8386082  48.9557358  11.5792049  54.4240035  48.4427313
  13.0201568  54.8806618  48.3590777  28.4093798  45.6292269  43.8212393
  27.8292467  46.2877073  43.4390445  28.1429731  44.8069613  43.4099810
  26.8597364  45.0297326  46.0233713  27.3597143  45.1413861  45.2148032
  27.5032972  44.7258379  46.6634521  20.9179360  52.9375956  58.9101554
  20.4346442  53.7376316  59.1165443  21.0040299  52.9483901  57.9568998
  14.1865320  54.7704336  46.8323373  14.1636008  54.8692023  45.8805256
  14.4965956  55.6169486  47.1540539  16.8452698  56.8280491  50.9469988
  17.7995951  56.7964433  50.8799919  16.6465221  56.3671114  51.7620214
  17.4352080  55.3981607  53.5140785  18.2544969  55.8925685  53.5375623
  17.7088887  54.4813575  53.4858353  27.1918676  47.7892359  42.8768741
  26.3044531  48.0742010  42.6588936  27.6072665  47.6286122  42.0296018
  30.5433212  47.8138880  46.5923080  31.3193602  48.3035332  46.8647697
  29.8181346  48.2396934  47.0494950  32.9805771  48.5266499  47.6497021
  33.5750262  48.2862235  46.9390329  33.0532354  47.8073630  48.2770557
  15.2002926  62.3700110  47.9640186  15.0657394  61.6100511  47.3978184
  14.7834989  63.0941010  47.4968974  26.3361889  57.5537034  36.9716761
  27.0397740  57.7587036  37.5874417  25.6124538  58.1213796  37.2365844
  27.1659700  53.3046895  43.0919031  27.1094901  53.7615446  42.2526663
  27.7188042  52.5437580  42.9141874  30.9764506  49.0936627  43.9169151
  30.7201440  48.6933263  44.7477358  30.3517374  49.8080421  43.7919290
  35.2876843  51.8332700  46.4240442  34.7276401  51.9025889  47.1972004
  34.6820347  51.6573685  45.7039938  18.3572052  63.2669427  48.1758628
  18.2404436  64.2114860  48.0737319  17.5364499  62.9642989  48.5644427
  28.2448587  57.9919563  39.0215221  29.0794191  57.5600761  38.8392696
  28.0832930  57.8201577  39.9492115  27.8994479  54.4951676  40.3871560
  27.8443283  54.3295948  39.4460004  27.2740534  55.2027709  40.5433750
  12.6886994  49.7319741  54.2132982  13.3345858  49.2218695  54.7020208
  12.4804145  50.4688422  54.7876408  25.2140386  56.8000588  59.7125123
  26.0831546  56.9741240  59.3511758  24.7347138  57.6195005  59.5900852
  21.2090604  43.9959785  39.9656879  21.1969274  44.9401625  40.1225150
  22.1014026  43.8129931  39.6716340  19.3826566  63.9197689  51.3914557
  20.2853813  63.9521299  51.7081052  19.1563936  62.9898140  51.4060892
  21.1380168  62.6728676  48.0524635  20.1875799  62.6730537  47.9389008
  21.4412655  61.9261410  47.5360670  25.0242724  40.5902562  44.2202815
  24.2575120  40.0361049  44.3659498  25.4353429  40.6624431  45.0816967
  17.0284485  46.8787358  58.3107997  17.8915947  46.5224163  58.5211321
  16.4549896  46.5401253  58.9983401  29.5409384  70.3152119  45.0428813
  28.9774249  70.2242055  44.2745101  29.4261779  69.4952023  45.5231306
  27.0873816  71.8103310  47.8813034  27.8795108  71.4694135  47.4659333
  27.3270466  71.9198285  48.8015187  35.1208943  73.9823086  40.3543278
  34.4696922  74.5677167  39.9677292  35.9153305  74.5129281  40.4138316
  29.0464570  71.0712223  40.7530413  29.8195446  70.5241210  40.6143288
  29.3989969  71.9356473  40.9644874  31.3830848  67.2304890  38.3848863
  31.6356368  66.7086411  37.6232326  30.4455407  67.0671035  38.4875546
  36.5984208  71.6713518  40.8912263  35.9630041  71.7448145  41.6033167
  36.2681614  72.2607117  40.2131342  31.1027136  69.1332995  40.5873237
  30.9863394  68.4577899  41.2554322  31.2129396  68.6465369  39.7705391
  33.0864164  63.6233042  39.2881275  33.2538567  64.4913279  39.6551746
  32.8961333  63.7860324  38.3642564  29.2951979  68.5363818  46.9883810
  28.3702475  68.4040032  47.1961502  29.5436392  69.3158037  47.4853752
  33.0653385  66.0790700  40.2727942  32.9453010  66.5247751  41.1113422
  32.3705973  66.4276017  39.7141480  26.6560790  68.1797092  47.8227599
  26.7853171  68.4331571  48.7367011  25.9758241  68.7724800  47.5032254
  30.8260277  78.8494342  43.9218073  30.7484307  79.8002167  44.0006554
  30.2221921  78.5040214  44.5793000  32.9235995  71.2712400  45.7571943
  33.3874341  71.5500102  44.9676565  32.6592794  70.3695844  45.5745033
  29.8160077  70.8183881  48.6951706  30.3861434  71.2471149  48.0569190
  30.4068188  70.5366466  49.3935892  31.8604882  67.3935552  42.5661508
  32.5628925  67.8456596  43.0335434  31.5285510  66.7519371  43.1941401
  30.3085243  65.9847309  56.9412717  29.6783904  66.6663589  57.1748114
  30.2021331  65.8730390  55.9965855  25.6030215  65.6519105  47.8678641
  24.8129269  65.9076633  47.3918752  26.0941463  66.4667442  47.9730682
  27.5544961  66.0163684  44.8262118  26.7576124  66.1282378  45.3445614
  27.3270553  66.3550336  43.9603009  23.8867918  65.9049595  50.2993632
  24.1375957  66.7896605  50.5651208  24.4227467  65.7254197  49.5268724
  47.7100018  69.3363092  46.9668894  46.9563726  68.7670490  46.8112898
  47.8447559  69.3025757  47.9139528  33.0998646  74.2076494  42.6423613
  32.9644321  75.0528030  43.0708461  33.6408459  74.4095772  41.8789547
  26.5528044  71.7251933  43.2151538  27.0652564  72.5195183  43.3657103
  27.2050756  71.0278223  43.1485140  28.3622928  74.8417689  45.2974291
  28.5389557  75.7635654  45.1095275  29.1579762  74.5276108  45.7268671
  27.6475285  66.8882321  55.1736454  27.5328800  65.9867578  55.4743553
  26.7919803  67.1346017  54.8221271  29.4854244  76.3595863  51.2984634
  30.0361669  76.2312926  50.5261628  28.6465720  76.6590752  50.9479526
  24.5176960  70.0540587  43.9911109  25.3552182  70.4637595  43.7744816
  24.6955228  69.1140029  43.9611303  36.4141392  67.7215667  39.6794942
  35.8988016  68.4920272  39.9183329  36.1418701  67.0480804  40.3028003
  41.3875667  70.4748022  41.6148115  40.6105109  70.1359182  41.1703277
  42.0667148  70.4800645  40.9403080  34.6474127  71.7532983  43.1547677
  34.1195489  71.0185742  42.8420914  34.1461630  72.5307659  42.9087645
  29.3792855  62.4152649  45.5154288  29.9536607  62.1927831  44.7827481
  29.9663837  62.4841344  46.2682890  29.7062442  64.4457110  39.5350174
  28.8699754  64.7831797  39.8559448  29.5667212  64.3106090  38.5977311
  32.7926728  69.5713193  36.1582650  31.8853789  69.3402447  36.3573799
  33.2897760  68.7750812  36.3456631  35.6994806  78.2810700  39.0779336
  35.0256505  78.5842397  39.6864294  36.0860628  79.0839781  38.7284793
  33.9714961  69.6725788  40.6806640  33.0626180  69.3884821  40.7779110
  34.0010045  70.0924867  39.8209947  39.2034228  73.2832378  44.4497807
  38.7496556  72.4423287  44.5062998  38.5728195  73.9193776  44.7872588
  37.6467168  75.1208874  45.3847626  37.9390142  75.6813931  44.6659991
  38.1565788  75.4137435  46.1400785  24.5403131  67.3931302  44.6621842
  24.3427531  66.8000663  43.9372909  23.9849795  67.0883512  45.3797781
  33.6691049  71.2134532  38.0194718  33.2310479  70.4970391  37.5600356
  34.4101490  71.4410647  37.4579810  30.4592215  65.9031468  44.5406814
  29.6460081  66.2025639  44.9472006  30.9551209  65.5087157  45.2581296
  32.6100793  75.8989225  46.4741079  32.5676972  76.1250072  45.5449611
  33.5263492  75.6652600  46.6226880  29.9506290  63.4749824  50.1568049
  30.5905669  63.3338583  49.4591012  29.1183820  63.1884337  49.7806651
  30.7266594  72.7752254  46.2703042  31.5207192  72.2802574  46.0685616
  30.0158286  72.2470117  45.9070747  35.5461438  75.1570350  50.6215409
  35.5998460  75.7261286  51.3893125  34.6776220  75.3272235  50.2569446
  27.0349357  66.9195336  42.3462794  26.1046945  66.8579792  42.5632756
  27.1306829  66.3971289  41.5499435  26.9534906  63.4450149  44.9341036
  27.2141723  64.3595482  44.8250196  27.7752079  62.9774591  45.0837649
  28.4259832  64.8587906  52.1039860  29.0982885  64.6505268  51.4552509
  27.5989618  64.6609992  51.6645093  33.3037870  73.3481276  49.9500879
  33.1648955  72.9800061  50.8226817  32.5152466  73.8628916  49.7784836
  33.8986022  78.4490373  41.2926415  34.0737777  77.9778416  42.1072038
  33.2118810  79.0756139  41.5207676  34.8543085  72.7262879  47.3389716
  34.5192917  72.6863649  48.2347366  34.3547030  72.0607595  46.8660127
  28.8287329  68.1330509  52.8642298  28.6907127  67.4010748  53.4653837
  29.7392252  68.0439409  52.5826485  37.7902276  70.0718913  37.6126776
  37.1731447  69.3465742  37.5159829  37.3218765  70.8328274  37.2693850
  30.1698563  64.8315686  54.1721617  29.6335920  64.3806425  54.8243213
  29.5815272  64.9661595  53.4292081  28.4647107  81.5979736  48.0666275
  28.7043705  82.2298260  48.7445294  27.6216303  81.2467776  48.3531635
  29.5800822  64.2904338  36.7348080  28.7030289  64.1693138  36.3710327
  30.0558575  63.4990416  36.4826969  21.1002963  69.0781497  46.8289587
  21.7874002  68.7643227  46.2410603  20.9451091  69.9822862  46.5556839
  25.9037685  63.9671694  51.2574611  25.8195873  63.3597363  50.5225021
  25.0820391  64.4580712  51.2584108  32.9774969  77.4058858  50.4707779
  32.9045140  78.2113829  50.9827084  32.5352362  77.6050824  49.6455801
  32.7664748  76.6430628  43.9810601  31.9832270  77.1852308  44.0748825
  33.4657494  77.1604608  44.3804842  35.4373652  77.3045692  52.6265938
  36.1501625  77.9393157  52.5541839  34.9463681  77.4009558  51.8105940
  37.1591179  71.2096945  44.1983230  36.2247458  71.3298407  44.0287934
  37.3367848  70.3069411  43.9343239  38.6139962  73.3958085  41.7319416
  38.8899806  73.2814680  42.6413290  37.7444460  72.9975570  41.6931589
  35.2494026  77.6444436  45.3752229  35.4316420  76.8266092  45.8379982
  36.0727012  77.8612128  44.9377119  35.5836191  76.5712621  42.6367278
  36.1123958  76.0605076  42.0237440  35.8464411  76.2555151  43.5012811
  26.0853284  74.5876491  50.3802611  26.6706721  73.8420178  50.5130516
  25.8878122  74.8980447  51.2639275  28.9391939  77.6227738  45.3965054
  28.2702314  78.1073866  44.9129094  28.8004809  77.8696958  46.3108432
  20.6770939  67.1582091  49.1007055  20.7155038  66.6245681  49.8944173
  20.1711231  66.6317296  48.4818032  33.0797208  79.6571481  51.9947712
  33.6315516  79.8203103  52.7596797  33.4203401  80.2475919  51.3227737
  28.0561701  62.0046631  52.5969597  28.1203027  62.8661462  52.1846995
  27.9928821  61.3920633  51.8641955  27.5313973  64.0769764  56.2442631
  28.1586012  63.6946841  56.8580155  26.6741892  63.8583966  56.6098324
  24.3079516  65.8846193  42.1760986  24.6032957  64.9756871  42.1228040
  23.4067552  65.8633932  41.8541988  36.2165595  77.6053457  48.9811394
  36.0916734  76.8043197  48.4722340  36.8744686  78.0999650  48.4925364
  27.8373763  63.9602189  48.1588535  27.1160349  64.5738157  48.0196008
  28.6267019  64.4959954  48.0805181  26.0367358  63.5660291  42.3000311
  25.7080064  62.6857669  42.1175417  26.3906728  63.5107959  43.1876700
  35.2846937  75.2015193  46.8095297  35.1371899  74.2731901  46.9902867
  36.1100430  75.2235284  46.3252372  29.1509181  63.8533260  42.6675789
  29.4905253  64.3819182  41.9454397  29.5981301  64.1913666  43.4434355
  38.8881059  76.0243752  47.8960169  39.8127606  75.8186613  47.7584621
  38.7196362  75.7760153  48.8049511  31.1377328  62.3507882  40.8669082
  31.8585691  62.7289135  40.3632798  30.5142632  63.0696759  40.9704060
  35.2808451  63.0553031  41.8027414  35.4972065  63.9377669  41.5016242
  34.8002518  62.6639244  41.0733056  30.0207672  66.0138744  48.3798159
  29.8752253  66.3279047  49.2722440  29.5432876  66.6323644  47.8269057
  38.6776375  76.5429419  43.2522261  38.8513252  75.9775842  42.4996113
  39.1705266  77.3430314  43.0701751  24.4953335  68.5544089  51.3185820
  23.9506803  69.3303896  51.4506094  25.3732684  68.9014893  51.1604941
  31.2840951  61.8855672  43.6966618  31.4056862  60.9572319  43.8957506
  30.9942994  61.8994358  42.7844934  39.6651547  75.8596184  40.3519159
  40.3602452  76.4802877  40.5706474  40.0074697  75.0091535  40.6271537
  25.2819356  67.6813985  54.2115977  24.5401092  67.8296620  54.7980607
  24.9612101  67.9422250  53.3482726  41.5642970  73.3095889  41.8806490
  42.0894294  73.6483162  41.1555810  41.4765323  72.3742905  41.6969625
  33.2263019  77.2229963  54.0096367  33.5350145  76.9779110  54.8819066
  34.0238501  77.4276601  53.5215237  33.2483631  79.3767873  46.2401743
  32.8088621  78.8844251  46.9334600  33.9991748  78.8340840  45.9993818
  25.7275970  75.5679414  46.2426371  26.5533990  75.2683185  45.8625015
  25.3770022  74.7987036  46.6916160  30.6957503  74.9205882  48.3124045
  30.0737513  74.2576587  48.0126273  31.3662370  74.9467014  47.6297693
  23.9284575  73.4865740  47.2015305  23.0916483  73.0587914  47.0199306
  23.9008221  73.6798183  48.1386096  30.2571010  73.4709805  41.7882505
  30.4059131  74.1545269  41.1349178  31.0637454  73.4514895  42.3031961
  28.0123643  69.4974983  42.7943574  27.7669685  68.5937313  42.9923784
  28.1819558  69.4992133  41.8523052  27.2819291  65.2303340  40.2929736
  26.5888536  65.3047695  39.6369772  27.0371043  64.4663684  40.8151253
  33.7566416  75.9657936  39.2594253  33.1840383  76.5848123  38.8064725
  34.3299209  76.5157297  39.7934175  36.9763675  76.2495086  40.3902835
  37.9094349  76.1840647  40.5935711  36.8886888  77.0851353  39.9317368
  39.6051692  75.5660956  37.3506783  39.5265324  75.2320820  38.2442541
  40.4261359  76.0582724  37.3498255  34.1413214  67.3018748  36.6010305
  35.0872319  67.1724956  36.6698723  33.7627459  66.5633410  37.0779733
  32.3256131  65.2268725  36.5365190  31.4187587  64.9301837  36.6127904
  32.6032112  64.9298543  35.6699477  23.2434072  66.5475088  46.9864237
  22.9236856  65.6940396  46.6938611  22.6967500  66.7623666  47.7422204
  27.0213979  69.2637529  50.7033743  27.2399989  70.1954637  50.7221777
  27.4339753  68.9045503  51.4888547  31.0954916  62.0855660  36.6777170
  31.9574080  62.4110558  36.9372987  31.2805260  61.2987156  36.1650235
  23.1122332  70.1678000  48.9557358  22.4185803  69.7531952  48.4427313
  23.8595323  70.2098536  48.3590777  31.7573115  68.2667874  58.9101554
  31.2740196  69.0668234  59.1165443  31.8434054  68.2775819  57.9568998
  25.0259074  70.0996253  46.8323373  25.0029762  70.1983941  45.8805256
  25.3359711  70.9461404  47.1540539  27.6846452  72.1572408  50.9469988
  28.6389706  72.1256351  50.8799919  27.4858976  71.6963032  51.7620214
  28.2745834  70.7273524  53.5140785  29.0938723  71.2217603  53.5375623
  28.5482642  69.8105493  53.4858353  26.0396681  77.6992028  47.9640186
  25.9051149  76.9392429  47.3978184  25.6228743  78.4232928  47.4968974
  37.1755644  72.8828951  36.9716761  37.8791494  73.0878954  37.5874417
  36.4518293  73.4505713  37.2365844  29.1965807  78.5961345  48.1758628
  29.0798191  79.5406777  48.0737319  28.3758253  78.2934906  48.5644427
  39.0842341  73.3211481  39.0215221  39.9187945  72.8892679  38.8392696
  38.9226684  73.1493494  39.9492115  38.7388234  69.8243594  40.3871560
  38.6837037  69.6587865  39.4460004  38.1134289  70.5319627  40.5433750
  23.5280748  65.0611658  54.2132982  24.1739612  64.5510612  54.7020208
  23.3197900  65.7980340  54.7876408  32.0484359  59.3251703  39.9656879
  32.0363029  60.2693543  40.1225150  32.9407781  59.1421848  39.6716340
  30.2220321  79.2489607  51.3914557  31.1247568  79.2813217  51.7081052
  29.9957691  78.3190058  51.4060892  31.9773923  78.0020593  48.0524635
  31.0269554  78.0022455  47.9389008  32.2806409  77.2553328  47.5360670
  35.8636478  55.9194480  44.2202815  35.0968874  55.3652966  44.3659498
  36.2747183  55.9916348  45.0816967  27.8678239  62.2079275  58.3107997
  28.7309701  61.8516080  58.5211321  27.2943650  61.8693170  58.9983401
  47.7126616  83.8381132  49.1170398  48.3505026  83.7187879  48.4133738
  47.5947459  84.7861976  49.1758350  44.5216323  83.7908560  49.0531922
  44.1834834  83.6749625  48.1652457  45.3906091  83.3899725  49.0332929
  40.3803138  85.6444036  45.0428813  39.8168004  85.5533973  44.2745101
  40.2655533  84.8243941  45.5231306  45.0036106  84.9443412  55.0118128
  44.9924746  84.5496210  54.1398632  45.1656745  84.2109484  55.6051899
  37.9267570  87.1395228  47.8813034  38.7188862  86.7986052  47.4659333
  38.1664220  87.2490203  48.8015187  45.9602697  89.3115004  40.3543278
  45.3090677  89.8969084  39.9677292  46.7547060  89.8421199  40.4138316
  39.8858324  86.4004141  40.7530413  40.6589200  85.8533128  40.6143288
  40.2383723  87.2648390  40.9644874  41.7243367  87.7280523  53.9597312
  41.4333233  88.6326154  53.8443978  42.3600351  87.7697051  54.6741381
  42.6499574  85.1057372  50.5498672  43.2463146  84.8813394  49.8355634
  42.7074545  84.3642117  51.1524119  42.2224602  82.5596807  38.3848863
  42.4750123  82.0378328  37.6232326  41.2849161  82.3962953  38.4875546
  47.2667885  81.5632586  46.1923606  48.0530974  81.1452009  45.8414023
  47.5306589  82.4678678  46.3605254  47.4377962  87.0005436  40.8912263
  46.8023795  87.0740062  41.6033167  47.1075369  87.5899035  40.2131342
  52.6676312  81.5007819  47.0956584  53.4001484  80.9307036  47.3294414
  51.9115668  81.1129419  47.5363090  41.9420891  84.4624913  40.5873237
  41.8257149  83.7869817  41.2554322  42.0523151  83.9757287  39.7705391
  44.2852432  83.9235060  44.2919927  43.9210639  83.3965681  45.0032848
  45.1419548  83.5333529  44.1186412  50.1901732  75.2129393  51.5551193
  49.8585057  76.0824804  51.3312408  49.5947346  74.8965677  52.2345223
  43.9257919  78.9524960  39.2881275  44.0932321  79.8205196  39.6551746
  43.7355088  79.1152242  38.3642564  46.6833252  87.4141939  50.9547106
  46.3833975  88.3166978  50.8462913  46.3384311  87.1474122  51.8068258
  40.1345733  83.8655736  46.9883810  39.2096230  83.7331950  47.1961502
  40.3830147  84.6449955  47.4853752  50.0830396  79.9324479  48.6344543
  49.1747273  79.8639887  48.3403304  50.0317991  80.4096424  49.4626368
  43.9047140  81.4082617  40.2727942  43.7846765  81.8539668  41.1113422
  43.2099728  81.7567935  39.7141480  37.4954544  83.5089009  47.8227599
  37.6246926  83.7623488  48.7367011  36.8151996  84.1016717  47.5032254
  41.6654032  94.1786259  43.9218073  41.5878061  95.1294084  44.0006554
  41.0615675  93.8332132  44.5793000  44.1571261  81.3514125  56.5779440
  43.3804596  81.9108045  56.5682305  44.7961825  81.8370908  57.0994310
  51.9492042  78.1340917  50.4122417  51.3066422  78.4273451  49.7662211
  51.4446971  78.0193838  51.2175614  49.6032206  81.8804091  41.1008276
  50.5150062  82.1131477  40.9255974  49.0941853  82.4641135  40.5383355
  42.4117634  84.1599578  56.1397407  43.1532318  84.6984622  55.8632231
  41.7054619  84.7865867  56.2968959  47.8872973  86.3028718  54.7369569
  48.2956329  85.8611129  53.9924201  47.1650235  85.7281346  54.9903762
  44.2404043  81.2401325  52.1103126  45.0865239  81.6640739  52.2537775
  44.1802681  80.5834950  52.8041689  48.2101788  86.8629909  48.4921858
  47.5810651  87.0275623  47.7897925  47.8227450  87.2771519  49.2632822
  52.0891020  87.7984347  45.8466221  51.4042058  88.1783248  45.2963255
  52.1734869  88.4079674  46.5798169  47.3903489  78.9005694  53.7684299
  47.1464421  79.6547754  53.2318575  47.6663419  79.2791041  54.6031546
  49.3441952  85.4444306  52.4461565  49.5558847  86.0876066  51.7695946
  49.2971700  84.6106623  51.9783495  46.9468181  78.0562127  49.3498137
  46.0852660  78.3543380  49.6414875  46.9730615  78.2732526  48.4179170
  43.7629750  86.6004317  45.7571943  44.2268095  86.8792020  44.9676565
  43.4986548  85.6987762  45.5745033  40.6553831  86.1475799  48.6951706
  41.2255188  86.5763067  48.0569190  41.2461943  85.8658383  49.3935892
  42.6998636  82.7227470  42.5661508  43.4022679  83.1748513  43.0335434
  42.3679264  82.0811288  43.1941401  41.1478998  81.3139226  56.9412717
  40.5177658  81.9955507  57.1748114  41.0415085  81.2022308  55.9965855
  36.4423970  80.9811022  47.8678641  35.6523024  81.2368551  47.3918752
  36.9335217  81.7959360  47.9730682  50.4587780  88.3216261  50.6183922
  51.2805223  87.9196449  50.3366604  50.4550182  88.2184496  51.5700038
  38.3938715  81.3455601  44.8262118  37.5969879  81.4574296  45.3445614
  38.1664308  81.6842254  43.9603009  44.2244383  87.8700305  52.7744633
  44.2888815  88.3320712  53.6102805  43.5155307  87.2397670  52.9026943
  34.7261673  81.2341513  50.2993632  34.9769711  82.1188523  50.5651208
  35.2621221  81.0546114  49.5268724  58.5493773  84.6655010  46.9668894
  57.7957481  84.0962408  46.8112898  58.6841314  84.6317674  47.9139528
  43.9392401  89.5368412  42.6423613  43.8038075  90.3819948  43.0708461
  44.4802213  89.7387690  41.8789547  37.3921798  87.0543850  43.2151538
  37.9046319  87.8487100  43.3657103  38.0444511  86.3570141  43.1485140
  39.2016683  90.1709606  45.2974291  39.3783311  91.0927571  45.1095275
  39.9973516  89.8568026  45.7268671  43.3427701  77.0317871  56.8958225
  44.0837415  77.6325024  56.8162687  43.5745624  76.2895509  56.3376267
  38.4869039  82.2174238  55.1736454  38.3722554  81.3159496  55.4743553
  37.6313557  82.4637935  54.8221271  45.5660877  90.1591979  56.7723955
  45.1224731  89.3728357  56.4544860  46.2278091  90.3471129  56.1067846
  40.3247998  91.6887780  51.2984634  40.8755423  91.5604844  50.5261628
  39.4859474  91.9882669  50.9479526  47.6642115  90.4394779  54.8005356
  47.6460590  91.2603660  54.3085626  48.5862035  90.3148854  55.0255498
  44.1215169  87.9538908  55.6428865  44.6543506  87.1927196  55.4128173
  43.5929250  87.6612560  56.3853019  47.2884864  73.0598974  51.1722506
  46.9449134  73.9500616  51.0961617  47.6563827  72.8700632  50.3092092
  35.3570715  85.3832505  43.9911109  36.1945937  85.7929513  43.7744816
  35.5348982  84.4431947  43.9611303  47.2535147  83.0507585  39.6794942
  46.7381770  83.8212190  39.9183329  46.9812455  82.3772721  40.3028003
  44.8382258  77.8957286  44.7380180  43.9823854  77.5064136  44.5585819
  45.2509210  77.9749247  43.8779966  46.3681405  75.4303629  49.1371740
  45.8646200  75.3933764  48.3239545  46.6612011  76.3396372  49.1968396
  52.2269421  85.8039940  41.6148115  51.4498864  85.4651099  41.1703277
  52.9060902  85.8092563  40.9403080  47.0421450  80.9234677  41.5054723
  46.7371586  81.2380826  42.3564866  47.9951892  81.0016097  41.5482056
  45.4867882  87.0824901  43.1547677  44.9589243  86.3477660  42.8420914
  44.9855385  87.8599577  42.9087645  50.4660728  85.2773921  48.2714723
  49.8084402  85.9673182  48.3594852  51.2701127  85.6670353  48.6148709
  40.2186610  77.7444567  45.5154288  40.7930361  77.5219748  44.7827481
  40.8057592  77.8133261  46.2682890  49.2766187  83.6318294  46.3218665
  49.7898068  84.2648286  46.8240375  49.9267411  83.0319489  45.9562025
  40.5456197  79.7749028  39.5350174  39.7093509  80.1123714  39.8559448
  40.4060966  79.6398008  38.5977311  42.5209277  74.6185816  44.2429358
  41.8673690  74.3034833  43.6185972  42.4789751  73.9961556  44.9689181
  43.6320482  84.9005111  36.1582650  42.7247544  84.6694364  36.3573799
  44.1291514  84.1042730  36.3456631  46.5388561  93.6102618  39.0779336
  45.8650260  93.9134315  39.6864294  46.9254383  94.4131698  38.7284793
  45.7547018  81.1067749  48.5677005  44.8369579  81.3282696  48.4098693
  46.1707161  81.1814060  47.7088713  46.5382065  82.5059165  43.6979686
  47.2853884  83.0180562  43.3886808  46.8073655  82.1843218  44.5584079
  44.8108716  85.0017706  40.6806640  43.9019935  84.7176739  40.7779110
  44.8403799  85.4216784  39.8209947  50.0427983  88.6124295  44.4497807
  49.5890310  87.7715205  44.5062998  49.4121950  89.2485694  44.7872588
  48.9860903  79.5416281  45.6798475  48.2483659  79.0293667  46.0108717
  49.2387676  79.1016663  44.8681752  48.4860922  90.4500792  45.3847626
  48.7783897  91.0105849  44.6659991  48.9959543  90.7429353  46.1400785
  49.0872530  72.3192533  46.2740244  49.3931407  71.4589897  45.9866159
  49.8125135  72.9110153  46.0739238  35.3796886  82.7223220  44.6621842
  35.1821286  82.1292581  43.9372909  34.8243550  82.4175430  45.3797781
  43.3593610  82.6146326  46.7816435  43.4142219  81.6620163  46.7058912
  42.5484812  82.7705765  47.2657734  44.5084803  86.5426449  38.0194718
  44.0704233  85.8262308  37.5600356  45.2495244  86.7702564  37.4579810
  41.2985970  81.2323386  44.5406814  40.4853835  81.5317557  44.9472006
  41.7944964  80.8379075  45.2581296  43.4494547  91.2281143  46.4741079
  43.4070726  91.4541989  45.5449611  44.3657246  90.9944518  46.6226880
  46.8960181  81.6965211  53.3721708  47.2509569  81.9236684  54.2316174
  47.5432312  82.0283587  52.7498963  52.6257918  84.8183646  44.0771037
  52.4875817  85.0085242  43.1492226  52.2694137  85.5803029  44.5339088
  40.7900044  78.8041742  50.1568049  41.4299424  78.6630501  49.4591012
  39.9577575  78.5176255  49.7806651  52.6527298  86.8860173  49.0882309
  53.0863804  86.7935463  49.9365363  53.3658878  86.8617674  48.4502325
  41.5660348  88.1044172  46.2703042  42.3600947  87.6094492  46.0685616
  40.8552041  87.5762035  45.9070747  46.3855193  90.4862268  50.6215409
  46.4392215  91.0553204  51.3893125  45.5169974  90.6564153  50.2569446
  37.8743112  82.2487254  42.3462794  36.9440700  82.1871709  42.5632756
  37.9700584  81.7263206  41.5499435  37.7928661  78.7742067  44.9341036
  38.0535478  79.6887400  44.8250196  38.6145833  78.3066509  45.0837649
  39.2653586  80.1879824  52.1039860  39.9376639  79.9797186  51.4552509
  38.4383373  79.9901910  51.6645093  53.5142847  86.9283874  51.6215194
  53.7078737  87.8329685  51.8674469  53.4143465  86.4691293  52.4553779
  45.1679158  76.8141765  54.1205521  44.5207073  77.5131714  54.0269998
  45.9380173  77.2477909  54.4881769  45.3443292  84.6522530  52.1802341
  46.2735352  84.8033689  52.0071308  44.9234322  84.7406550  51.3250988
  44.1431624  88.6773194  49.9500879  44.0042710  88.3091978  50.8226817
  43.3546220  89.1920833  49.7784836  44.7379776  93.7782290  41.2926415
  44.9131532  93.3070334  42.1072038  44.0512564  94.4048057  41.5207676
  45.6936839  88.0554797  47.3389716  45.3586672  88.0155567  48.2347366
  45.1940785  87.3899513  46.8660127  39.6681083  83.4622427  52.8642298
  39.5300881  82.7302666  53.4653837  40.5786007  83.3731327  52.5826485
  48.6296031  85.4010831  37.6126776  48.0125202  84.6757659  37.5159829
  48.1612519  86.1620191  37.2693850  42.2963384  83.1742386  52.3525977
  43.0063002  82.5335578  52.3112596  42.2532692  83.4255281  53.2752158
  50.2850163  90.1109739  55.2732556  50.2262709  89.4268960  54.6063139
  50.6869681  90.8528729  54.8213182  41.0092318  80.1607604  54.1721617
  40.4729675  79.7098342  54.8243213  40.4209026  80.2953513  53.4292081
  39.3040861  96.9271653  48.0666275  39.5437460  97.5590177  48.7445294
  38.4610058  96.5759693  48.3531635  40.4194577  79.6196255  36.7348080
  39.5424043  79.4985056  36.3710327  40.8952330  78.8282334  36.4826969
  50.2867570  88.0749323  53.5046536  49.3994349  87.7375245  53.6272935
  50.8566121  87.3432355  53.7415301  31.9396717  84.4073415  46.8289587
  32.6267757  84.0935145  46.2410603  31.7844846  85.3114780  46.5556839
  36.7431439  79.2963612  51.2574611  36.6589628  78.6889281  50.5225021
  35.9214146  79.7872630  51.2584108  43.8168723  92.7350776  50.4707779
  43.7438895  93.5405747  50.9827084  43.3746116  92.9342741  49.6455801
  43.6058503  91.9722546  43.9810601  42.8226025  92.5144226  44.0748825
  44.3051248  92.4896525  44.3804842  46.9155153  77.7817175  46.6244806
  47.4123853  77.0287137  46.3045876  46.1442135  77.8181492  46.0588016
  54.7684910  83.4857541  48.2663098  54.7574787  84.3682256  47.8957031
  53.9002290  83.1329092  48.0717635  46.2767407  92.6337610  52.6265938
  46.9895379  93.2685075  52.5541839  45.7857435  92.7301476  51.8105940
  47.9984934  86.5388862  44.1983230  47.0641212  86.6590325  44.0287934
  48.1761602  85.6361329  43.9343239  43.4990122  79.9234558  46.3516491
  43.1287909  79.3705599  47.0397396  43.9949214  79.3192692  45.7991491
  51.3857485  82.3806182  44.7333264  51.8517937  83.2134173  44.6593566
  51.8364986  81.9151163  45.4378522  41.3279320  90.3832053  53.4471509
  42.0288780  91.0168536  53.6000903  40.8574435  90.7246785  52.6867148
  49.4533716  88.7250003  41.7319416  49.7293560  88.6106598  42.6413290
  48.5838215  88.3267488  41.6931589  49.3574148  74.7486769  48.7724165
  48.4437228  74.9790995  48.9406372  49.7867249  74.8325213  49.6238197
  49.1280606  82.9376661  51.2724059  48.4752057  83.1852568  50.6176512
  49.5060986  82.1240799  50.9386536  46.0887780  92.9736354  45.3752229
  46.2710175  92.1558010  45.8379982  46.9120766  93.1904046  44.9377119
  46.4229946  91.9004539  42.6367278  46.9517712  91.3896993  42.0237440
  46.6858165  91.5847069  43.5012811  45.1768179  83.6796472  57.7590096
  44.5008816  83.5790601  58.4292471  45.9995813  83.5235685  58.2226093
  36.9247038  89.9168408  50.3802611  37.5100475  89.1712096  50.5130516
  36.7271877  90.2272365  51.2639275  39.7785694  92.9519656  45.3965054
  39.1096069  93.4365783  44.9129094  39.6398563  93.1988876  46.3108432
  31.5164693  82.4874008  49.1007055  31.5548793  81.9537599  49.8944173
  31.0104986  81.9609214  48.4818032  43.9190962  94.9863399  51.9947712
  44.4709270  95.1495021  52.7596797  44.2597156  95.5767837  51.3227737
  38.3707728  79.4061681  56.2442631  38.9979767  79.0238759  56.8580155
  37.5135647  79.1875883  56.6098324  48.7701837  89.8124657  57.8496367
  49.3141741  90.4254615  57.3551321  48.1888681  90.3704235  58.3663380
  35.1473271  81.2138111  42.1760986  35.4426712  80.3048789  42.1228040
  34.2461306  81.1925850  41.8541988  47.0559349  92.9345375  48.9811394
  46.9310489  92.1335114  48.4722340  47.7138441  93.4291568  48.4925364
  38.6767518  79.2894107  48.1588535  37.9554103  79.9030075  48.0196008
  39.4660773  79.8251872  48.0805181  49.1194258  90.7354395  50.6090944
  48.1724593  90.6159746  50.5369271  49.4677031  89.8476893  50.6917206
  41.4793831  76.6248534  54.4329186  42.0028233  76.8710830  55.1955496
  41.2606165  77.4568568  54.0132324  36.8761112  78.8952208  42.3000311
  36.5473818  78.0149587  42.1175417  37.2300483  78.8399877  43.1876700
  46.1240691  90.5307111  46.8095297  45.9765654  89.6023818  46.9902867
  46.9494185  90.5527202  46.3252372  39.9902935  79.1825178  42.6675789
  40.3299008  79.7111099  41.9454397  40.4375056  79.5205584  43.4434355
  49.7274813  91.3535670  47.8960169  50.6521360  91.1478531  47.7584621
  49.5590116  91.1052071  48.8049511  42.6846376  77.5662229  52.1178857
  42.3443197  76.7670042  52.5199537  41.9785383  77.8663940  51.5455690
  41.9771083  77.6799800  40.8669082  42.6979445  78.0581052  40.3632798
  41.3536387  78.3988676  40.9704060  46.1202205  78.3844949  41.8027414
  46.3365820  79.2669586  41.5016242  45.6396273  77.9931162  41.0733056
  40.8601427  81.3430662  48.3798159  40.7146008  81.6570965  49.2722440
  40.3826630  81.9615562  47.8269057  42.7197810  78.3333210  48.4279048
  42.7059379  77.4374303  48.0911346  43.4370238  78.3403874  49.0617334
  44.5723940  78.7670550  50.4732175  44.3141718  79.6887621  50.4716506
  44.0408981  78.3700985  51.1632640  49.5170129  91.8721337  43.2522261
  49.6907007  91.3067760  42.4996113  50.0099020  92.6722232  43.0701751
  35.3347089  83.8836006  51.3185820  34.7900557  84.6595814  51.4506094
  36.2126439  84.2306811  51.1604941  42.1234706  77.2147590  43.6966618
  42.2450617  76.2864236  43.8957506  41.8336748  77.2286276  42.7844934
  55.3709520  84.6357760  44.8712561  55.8140666  83.8865085  44.4731684
  54.4936031  84.6267896  44.4886293  50.5045302  91.1888102  40.3519159
  51.1996206  91.8094794  40.5706474  50.8468452  90.3383453  40.6271537
  36.1213111  83.0105902  54.2115977  35.3794847  83.1588538  54.7980607
  35.8005855  83.2714168  53.3482726  52.4036725  88.6387807  41.8806490
  52.9288049  88.9775080  41.1555810  52.3159077  87.7034822  41.6969625
  44.0656774  92.5521881  54.0096367  44.3743900  92.3071027  54.8819066
  44.8632256  92.7568519  53.5215237  44.0877386  94.7059790  46.2401743
  43.6482376  94.2136169  46.9334600  44.8385503  94.1632758  45.9993818
  36.5669725  90.8971331  46.2426371  37.3927744  90.5975103  45.8625015
  36.2163777  90.1278954  46.6916160  41.5351258  90.2497799  48.3124045
  40.9131267  89.5868504  48.0126273  42.2056125  90.2758931  47.6297693
  34.7678330  88.8157658  47.2015305  33.9310238  88.3879832  47.0199306
  34.7401975  89.0090101  48.1386096  41.6075785  78.7279587  57.9056551
  41.6563941  79.6041710  57.5234320  42.1498299  78.1856980  57.3328194
  52.0930631  89.2720711  57.1857688  51.3026175  89.2544850  56.6462187
  51.8563985  89.8109004  57.9406724  52.2128506  86.1213177  54.4990416
  52.2626511  85.9563185  55.4405939  52.1042429  85.2540436  54.1088297
  41.0964765  88.8001723  41.7882505  41.2452885  89.4837187  41.1349178
  41.9031208  88.7806813  42.3031961  43.8375074  79.4810960  54.6602909
  42.9678383  79.7744526  54.3885498  44.0734554  80.0651405  55.3810173
  54.9142385  86.1062998  47.2635008  55.7489276  86.5452802  47.4272569
  55.0501514  85.6301652  46.4443254  51.9633891  83.6642733  53.2112496
  52.4388013  83.8570380  52.4031347  51.0399456  83.7201919  52.9655880
  38.8517398  84.8266900  42.7943574  38.6063440  83.9229230  42.9923784
  39.0213312  84.8284051  41.8523052  46.5414107  75.6990577  52.1768330
  47.0596051  76.4351604  51.8514818  46.1869240  76.0054570  53.0115089
  38.1213045  80.5595258  40.2929736  37.4282290  80.6339613  39.6369772
  37.8764797  79.7955602  40.8151253  46.7926702  72.1190859  47.6969226
  47.0728455  71.4514048  48.3229653  47.5777309  72.3119955  47.1843890
  44.5960170  91.2949853  39.2594253  44.0234137  91.9140040  38.8064725
  45.1692964  91.8449215  39.7934175  50.6635560  80.5408493  51.4440802
  51.6152983  80.6406591  51.4653026  50.4939010  79.7486762  51.9538886
  48.6849939  77.6264077  51.6300202  48.0899872  77.9069089  50.9346691
  48.3999636  78.1157977  52.4016944  47.8157430  91.5787003  40.3902835
  48.7488103  91.5132565  40.5935711  47.7280643  92.4143270  39.9317368
  50.4445447  90.8952874  37.3506783  50.3659078  90.5612737  38.2442541
  51.2655113  91.3874642  37.3498255  53.1423638  83.7614613  50.5583101
  53.1099958  82.8230614  50.7442785  53.7524261  83.8398650  49.8248926
  44.9806969  82.6310666  36.6010305  45.9266073  82.5016874  36.6698723
  44.6021214  81.8925328  37.0779733  53.2918126  80.5525656  50.6041384
  52.7757175  79.7684113  50.4171313  54.1758075  80.2244373  50.7687904
  50.9528853  74.2966672  46.5637197  50.7553674  73.9881760  47.4480529
  51.5628559  75.0228311  46.6935127  58.9600188  84.8230620  49.6989138
  59.6903576  84.5615908  50.2596841  58.3507133  84.0859342  49.7391206
  57.0415485  82.9638482  50.2963589  56.3148648  82.8294447  49.6880081
  56.6262772  83.2715311  51.1020307  44.8645661  86.6828412  58.0610962
  45.7848671  86.8607011  58.2551009  44.8295244  85.7384457  57.9090661
  43.1649886  80.5560642  36.5365190  42.2581341  80.2593755  36.6127904
  43.4425867  80.2590460  35.6699477  34.0827826  81.8767006  46.9864237
  33.7630611  81.0232314  46.6938611  33.5361254  82.0915584  47.7422204
  37.8607734  84.5929447  50.7033743  38.0793744  85.5246555  50.7221777
  38.2733508  84.2337421  51.4888547  44.7811952  75.0997532  42.6909432
  43.9712680  74.7544617  43.0664678  45.4696368  74.7905076  43.2797043
  46.7102500  74.1775579  44.3133728  47.2633538  74.5971032  44.9723752
  46.9472586  73.2511327  44.3556684  42.7335599  80.1662653  60.0936492
  42.6332326  81.1157009  60.0248583  42.5157141  79.8380891  59.2212562
  41.9348670  77.4147578  36.6777170  42.7967834  77.7402476  36.9372987
  42.1199015  76.6279073  36.1650235  33.9516086  85.4969917  48.9557358
  33.2579558  85.0823870  48.4427313  34.6989077  85.5390454  48.3590777
  50.0881307  76.2876104  43.8212393  49.5079976  76.9460908  43.4390445
  49.8217240  75.4653449  43.4099810  48.5384873  75.6881162  46.0233713
  49.0384652  75.7997696  45.2148032  49.1820481  75.3842215  46.6634521
  42.5966869  83.5959791  58.9101554  42.1133951  84.3960151  59.1165443
  42.6827808  83.6067736  57.9568998  35.8652829  85.4288171  46.8323373
  35.8423517  85.5275858  45.8805256  36.1753465  86.2753322  47.1540539
  38.5240207  87.4864326  50.9469988  39.4783460  87.4548268  50.8799919
  38.3252730  87.0254950  51.7620214  39.1139589  86.0565442  53.5140785
  39.9332478  86.5509521  53.5375623  39.3876396  85.1397410  53.4858353
  48.8706185  78.4476194  42.8768741  47.9832040  78.7325845  42.6588936
  49.2860174  78.2869958  42.0296018  52.2220721  78.4722715  46.5923080
  52.9981111  78.9619168  46.8647697  51.4968855  78.8980770  47.0494950
  54.6593280  79.1850335  47.6497021  55.2537770  78.9446071  46.9390329
  54.7319863  78.4657465  48.2770557  36.8790435  93.0283946  47.9640186
  36.7444903  92.2684346  47.3978184  36.4622498  93.7524845  47.4968974
  48.0149398  88.2120869  36.9716761  48.7185249  88.4170872  37.5874417
  47.2912047  88.7797631  37.2365844  48.8447209  83.9630730  43.0919031
  48.7882410  84.4199282  42.2526663  49.3975551  83.2021415  42.9141874
  52.6552015  79.7520462  43.9169151  52.3988949  79.3517098  44.7477358
  52.0304883  80.4664256  43.7919290  56.9664352  82.4916535  46.4240442
  56.4063910  82.5609725  47.1972004  56.3607856  82.3157520  45.7039938
  40.0359561  93.9253263  48.1758628  39.9191945  94.8698695  48.0737319
  39.2152008  93.6226824  48.5644427  49.9236096  88.6503398  39.0215221
  50.7581700  88.2184597  38.8392696  49.7620439  88.4785412  39.9492115
  49.5781988  85.1535512  40.3871560  49.5230792  84.9879783  39.4460004
  48.9528043  85.8611544  40.5433750  34.3674503  80.3903576  54.2132982
  35.0133367  79.8802530  54.7020208  34.1591654  81.1272258  54.7876408
  42.8878113  74.6543621  39.9656879  42.8756783  75.5985461  40.1225150
  43.7801535  74.4713766  39.6716340  41.0614075  94.5781524  51.3914557
  41.9641322  94.6105135  51.7081052  40.8351445  93.6481975  51.4060892
  42.8167677  93.3312511  48.0524635  41.8663308  93.3314373  47.9389008
  43.1200164  92.5845246  47.5360670  46.7030233  71.2486397  44.2202815
  45.9362629  70.6944884  44.3659498  47.1140938  71.3208266  45.0816967
  58.5520371  99.1673049  49.1170398  59.1898781  99.0479797  48.4133738
  58.4341214 100.1153893  49.1758350  55.3610077  99.1200478  49.0531922
  55.0228589  99.0041542  48.1652457  56.2299845  98.7191643  49.0332929
  51.2196893 100.9735954  45.0428813  50.6561758 100.8825891  44.2745101
  51.1049288 100.1535858  45.5231306  55.8429860 100.2735329  55.0118128
  55.8318501  99.8788127  54.1398632  56.0050500  99.5401402  55.6051899
  48.7661325 102.4687146  47.8813034  49.5582617 102.1277970  47.4659333
  49.0057975 102.5782121  48.8015187  56.7996452 104.6406922  40.3543278
  56.1484431 105.2261002  39.9677292  57.5940814 105.1713117  40.4138316
  50.7252079 101.7296059  40.7530413  51.4982955 101.1825046  40.6143288
  51.0777478 102.5940308  40.9644874  52.5637121 103.0572441  53.9597312
  52.2726987 103.9618072  53.8443978  53.1994106 103.0988969  54.6741381
  53.4893328 100.4349290  50.5498672  54.0856900 100.2105312  49.8355634
  53.5468300  99.6934035  51.1524119  53.0618357  97.8888725  38.3848863
  53.3143877  97.3670246  37.6232326  52.1242916  97.7254870  38.4875546
  58.1061639  96.8924503  46.1923606  58.8924729  96.4743926  45.8414023
  58.3700344  97.7970595  46.3605254  58.2771717 102.3297354  40.8912263
  57.6417550 102.4031980  41.6033167  57.9469123 102.9190952  40.2131342
  63.5070067  96.8299736  47.0956584  64.2395238  96.2598953  47.3294414
  62.7509422  96.4421337  47.5363090  52.7814645  99.7916831  40.5873237
  52.6650903  99.1161734  41.2554322  52.8916905  99.3049205  39.7705391
  55.1246186  99.2526978  44.2919927  54.7604393  98.7257599  45.0032848
  55.9813302  98.8625447  44.1186412  61.0295487  90.5421311  51.5551193
  60.6978812  91.4116722  51.3312408  60.4341100  90.2257595  52.2345223
  54.7651673  94.2816878  39.2881275  54.9326076  95.1497114  39.6551746
  54.5748842  94.4444159  38.3642564  57.5227006 102.7433857  50.9547106
  57.2227729 103.6458895  50.8462913  57.1778066 102.4766040  51.8068258
  50.9739488  99.1947653  46.9883810  50.0489984  99.0623867  47.1961502
  51.2223901  99.9741873  47.4853752  60.9224150  95.2616397  48.6344543
  60.0141028  95.1931805  48.3403304  60.8711746  95.7388342  49.4626368
  54.7440894  96.7374535  40.2727942  54.6240519  97.1831586  41.1113422
  54.0493482  97.0859853  39.7141480  48.3348299  98.8380927  47.8227599
  48.4640680  99.0915406  48.7367011  47.6545750  99.4308635  47.5032254
  52.5047786 109.5078177  43.9218073  52.4271816 110.4586002  44.0006554
  51.9009430 109.1624049  44.5793000  54.9965016  96.6806042  56.5779440
  54.2198350  97.2399962  56.5682305  55.6355579  97.1662825  57.0994310
  62.7885797  93.4632835  50.4122417  62.1460177  93.7565368  49.7662211
  62.2840725  93.3485755  51.2175614  60.4425960  97.2096008  41.1008276
  61.3543816  97.4423395  40.9255974  59.9335607  97.7933053  40.5383355
  53.2511388  99.4891496  56.1397407  53.9926073 100.0276540  55.8632231
  52.5448374 100.1157784  56.2968959  58.7266728 101.6320636  54.7369569
  59.1350084 101.1903047  53.9924201  58.0043989 101.0573264  54.9903762
  55.0797798  96.5693243  52.1103126  55.9258993  96.9932656  52.2537775
  55.0196436  95.9126867  52.8041689  59.0495543 102.1921827  48.4921858
  58.4204405 102.3567541  47.7897925  58.6621205 102.6063436  49.2632822
  62.9284774 103.1276265  45.8466221  62.2435813 103.5075166  45.2963255
  63.0128624 103.7371591  46.5798169  58.2297243  94.2297611  53.7684299
  57.9858175  94.9839672  53.2318575  58.5057174  94.6082959  54.6031546
  60.1835706 100.7736224  52.4461565  60.3952601 101.4167984  51.7695946
  60.1365454  99.9398540  51.9783495  57.7861935  93.3854044  49.3498137
  56.9246414  93.6835298  49.6414875  57.8124370  93.6024443  48.4179170
  54.6023504 101.9296235  45.7571943  55.0661850 102.2083938  44.9676565
  54.3380303 101.0279679  45.5745033  51.4947585 101.4767716  48.6951706
  52.0648943 101.9054985  48.0569190  52.0855697 101.1950301  49.3935892
  53.5392390  98.0519387  42.5661508  54.2416434  98.5040431  43.0335434
  53.2073019  97.4103206  43.1941401  51.9872752  96.6431144  56.9412717
  51.3571413  97.3247425  57.1748114  51.8808840  96.5314225  55.9965855
  47.2817724  96.3102940  47.8678641  46.4916778  96.5660468  47.3918752
  47.7728972  97.1251278  47.9730682  61.2981534 103.6508179  50.6183922
  62.1198978 103.2488366  50.3366604  61.2943937 103.5476413  51.5700038
  49.2332470  96.6747519  44.8262118  48.4363633  96.7866213  45.3445614
  49.0058062  97.0134171  43.9603009  55.0638137 103.1992222  52.7744633
  55.1282570 103.6612630  53.6102805  54.3549061 102.5689587  52.9026943
  45.5655427  96.5633430  50.2993632  45.8163466  97.4480440  50.5651208
  46.1014976  96.3838032  49.5268724  69.3887527  99.9946928  46.9668894
  68.6351235  99.4254326  46.8112898  69.5235068  99.9609592  47.9139528
  54.7786155 104.8660330  42.6423613  54.6431830 105.7111866  43.0708461
  55.3195968 105.0679607  41.8789547  51.2653495  90.9451910  59.3037968
  50.8720440  90.3918108  59.9785612  52.0819635  91.2562488  59.6944486
  48.2315553 102.3835768  43.2151538  48.7440073 103.1779018  43.3657103
  48.8838265 101.6862058  43.1485140  50.0410437 105.5001524  45.2974291
  50.2177066 106.4219489  45.1095275  50.8367271 105.1859943  45.7268671
  54.1821456  92.3609789  56.8958225  54.9231169  92.9616942  56.8162687
  54.4139379  91.6187427  56.3376267  49.3262794  97.5466156  55.1736454
  49.2116309  96.6451413  55.4743553  48.4707311  97.7929853  54.8221271
  56.4054631 105.4883896  56.7723955  55.9618486 104.7020275  56.4544860
  57.0671845 105.6763047  56.1067846  51.1641753 107.0179698  51.2984634
  51.7149178 106.8896761  50.5261628  50.3253229 107.3174587  50.9479526
  58.5035870 105.7686696  54.8005356  58.4854345 106.5895577  54.3085626
  59.4255790 105.6440772  55.0255498  54.9608924 103.2830826  55.6428865
  55.4937261 102.5219114  55.4128173  54.4323005 102.9904478  56.3853019
  58.1278619  88.3890892  51.1722506  57.7842888  89.2792533  51.0961617
  58.4957581  88.1992549  50.3092092  46.1964469 100.7124422  43.9911109
  47.0339691 101.1221431  43.7744816  46.3742737  99.7723864  43.9611303
  58.0928901  98.3799503  39.6794942  57.5775525  99.1504107  39.9183329
  57.8206210  97.7064639  40.3028003  55.6776012  93.2249204  44.7380180
  54.8217609  92.8356054  44.5585819  56.0902964  93.3041164  43.8779966
  57.2075159  90.7595547  49.1371740  56.7039955  90.7225682  48.3239545
  57.5005766  91.6688290  49.1968396  53.4518045  90.8434277  48.1437921
  54.3171042  90.6477085  47.7843811  53.5195554  90.6144628  49.0707278
  63.0663176 101.1331857  41.6148115  62.2892618 100.7943017  41.1703277
  63.7454657 101.1384481  40.9403080  57.8815205  96.2526595  41.5054723
  57.5765340  96.5672744  42.3564866  58.8345647  96.3308015  41.5482056
  56.3261636 102.4116818  43.1547677  55.7982998 101.6769578  42.8420914
  55.8249139 103.1891495  42.9087645  61.3054482 100.6065839  48.2714723
  60.6478157 101.2965100  48.3594852  62.1094882 100.9962271  48.6148709
  51.0580364  93.0736485  45.5154288  51.6324116  92.8511666  44.7827481
  51.6451346  93.1425179  46.2682890  60.1159941  98.9610211  46.3218665
  60.6291823  99.5940203  46.8240375  60.7661165  98.3611407  45.9562025
  51.3849951  95.1040946  39.5350174  50.5487263  95.4415632  39.8559448
  51.2454721  94.9689925  38.5977311  53.3603032  89.9477733  44.2429358
  52.7067444  89.6326751  43.6185972  53.3183506  89.3253474  44.9689181
  54.4714237 100.2297029  36.1582650  53.5641298  99.9986282  36.3573799
  54.9685269  99.4334648  36.3456631  57.3782315 108.9394536  39.0779336
  56.7044014 109.2426232  39.6864294  57.7648137 109.7423616  38.7284793
  56.5940772  96.4359667  48.5677005  55.6763333  96.6574614  48.4098693
  57.0100916  96.5105977  47.7088713  57.3775820  97.8351083  43.6979686
  58.1247639  98.3472480  43.3886808  57.6467409  97.5135135  44.5584079
  55.6502470 100.3309623  40.6806640  54.7413689 100.0468656  40.7779110
  55.6797554 100.7508702  39.8209947  60.8821737 103.9416213  44.4497807
  60.4284065 103.1007123  44.5062998  60.2515704 104.5777611  44.7872588
  59.8254657  94.8708199  45.6798475  59.0877414  94.3585585  46.0108717
  60.0781431  94.4308581  44.8681752  59.3254677 105.7792710  45.3847626
  59.6177651 106.3397767  44.6659991  59.8353297 106.0721271  46.1400785
  59.9266284  87.6484451  46.2740244  60.2325161  86.7881814  45.9866159
  60.6518889  88.2402071  46.0739238  46.2190640  98.0515138  44.6621842
  46.0215040  97.4584498  43.9372909  45.6637304  97.7467348  45.3797781
  54.1987364  97.9438244  46.7816435  54.2535974  96.9912080  46.7058912
  53.3878566  98.0997683  47.2657734  55.3478558 101.8718367  38.0194718
  54.9097988 101.1554226  37.5600356  56.0888999 102.0994482  37.4579810
  52.1379724  96.5615304  44.5406814  51.3247590  96.8609474  44.9472006
  52.6338718  96.1670992  45.2581296  54.2888302 106.5573061  46.4741079
  54.2464481 106.7833907  45.5449611  55.2051001 106.3236435  46.6226880
  57.7353936  97.0257128  53.3721708  58.0903323  97.2528601  54.2316174
  58.3826067  97.3575505  52.7498963  63.4651673 100.1475564  44.0771037
  63.3269571 100.3377160  43.1492226  63.1087891 100.9094947  44.5339088
  51.6293799  94.1333659  50.1568049  52.2693178  93.9922418  49.4591012
  50.7971329  93.8468173  49.7806651  63.4921052 102.2152091  49.0882309
  63.9257559 102.1227380  49.9365363  64.2052633 102.1909592  48.4502325
  52.4054103 103.4336090  46.2703042  53.1994701 102.9386410  46.0685616
  51.6945795 102.9053953  45.9070747  57.2248947 105.8154185  50.6215409
  57.2785969 106.3845122  51.3893125  56.3563728 105.9856070  50.2569446
  48.7136866  97.5779171  42.3462794  47.7834454  97.5163627  42.5632756
  48.8094338  97.0555124  41.5499435  48.6322415  94.1033984  44.9341036
  48.8929232  95.0179317  44.8250196  49.4539588  93.6358427  45.0837649
  50.1047341  95.5171741  52.1039860  50.7770394  95.3089104  51.4552509
  49.2777127  95.3193827  51.6645093  64.3536602 102.2575792  51.6215194
  64.5472492 103.1621602  51.8674469  64.2537220 101.7983211  52.4553779
  56.0072913  92.1433682  54.1205521  55.3600828  92.8423632  54.0269998
  56.7773928  92.5769826  54.4881769  59.4151710 102.4082534  57.1956075
  59.2637217 102.1793086  56.2786158  59.4056390 103.3653136  57.2087420
  56.1837047  99.9814447  52.1802341  57.1129107 100.1325607  52.0071308
  55.7628077 100.0698468  51.3250988  54.9825379 104.0065112  49.9500879
  54.8436464 103.6383896  50.8226817  54.1939975 104.5212751  49.7784836
  55.5773531 109.1074208  41.2926415  55.7525286 108.6362251  42.1072038
  54.8906319 109.7339974  41.5207676  56.5330594 103.3846714  47.3389716
  56.1980426 103.3447484  48.2347366  56.0334539 102.7191430  46.8660127
  50.5074838  98.7914344  52.8642298  50.3694636  98.0594583  53.4653837
  51.4179761  98.7023244  52.5826485  59.4689785 100.7302749  37.6126776
  58.8518956 100.0049577  37.5159829  59.0006274 101.4912109  37.2693850
  53.1357138  98.5034304  52.3525977  53.8456757  97.8627496  52.3112596
  53.0926447  98.7547199  53.2752158  61.1243917 105.4401657  55.2732556
  61.0656463 104.7560877  54.6063139  61.5263435 106.1820647  54.8213182
  51.8486072  95.4899522  54.1721617  51.3123429  95.0390260  54.8243213
  51.2602781  95.6245430  53.4292081  50.1434616 112.2563571  48.0666275
  50.3831214 112.8882095  48.7445294  49.3003812 111.9051611  48.3531635
  51.2588331  94.9488173  36.7348080  50.3817798  94.8276974  36.3710327
  51.7346084  94.1574251  36.4826969  61.1261324 103.4041241  53.5046536
  60.2388103 103.0667163  53.6272935  61.6959875 102.6724272  53.7415301
  42.7790471  99.7365333  46.8289587  43.4661511  99.4227063  46.2410603
  42.6238600 100.6406697  46.5556839  47.5825194  94.6255529  51.2574611
  47.4983382  94.0181199  50.5225021  46.7607900  95.1164548  51.2584108
  54.6562478 108.0642693  50.4707779  54.5832649 108.8697665  50.9827084
  54.2139871 108.2634659  49.6455801  54.4452257 107.3014463  43.9810601
  53.6619779 107.8436144  44.0748825  55.1445003 107.8188443  44.3804842
  57.7548908  93.1109093  46.6244806  58.2517607  92.3579055  46.3045876
  56.9835889  93.1473409  46.0588016  65.6078665  98.8149458  48.2663098
  65.5968541  99.6974174  47.8957031  64.7396044  98.4621009  48.0717635
  57.1161161 107.9629527  52.6265938  57.8289133 108.5976992  52.5541839
  56.6251190 108.0593393  51.8105940  58.8378688 101.8680780  44.1983230
  57.9034967 101.9882243  44.0287934  59.0155357 100.9653247  43.9343239
  54.3383876  95.2526476  46.3516491  53.9681664  94.6997516  47.0397396
  54.8342969  94.6484609  45.7991491  62.2251240  97.7098099  44.7333264
  62.6911692  98.5426091  44.6593566  62.6758740  97.2443081  45.4378522
  52.1673075 105.7123971  53.4471509  52.8682534 106.3460454  53.6000903
  51.6968190 106.0538702  52.6867148  60.2927471 104.0541921  41.7319416
  60.5687315 103.9398515  42.6413290  59.4231969 103.6559405  41.6931589
  60.1967902  90.0778686  48.7724165  59.2830982  90.3082913  48.9406372
  60.6261004  90.1617130  49.6238197  59.9674361  98.2668578  51.2724059
  59.3145811  98.5144486  50.6176512  60.3454741  97.4532716  50.9386536
  56.9281535 108.3028271  45.3752229  57.1103929 107.4849927  45.8379982
  57.7514521 108.5195964  44.9377119  57.2623700 107.2296457  42.6367278
  57.7911467 106.7188911  42.0237440  57.5251920 106.9138987  43.5012811
  56.0161934  99.0088389  57.7590096  55.3402571  98.9082519  58.4292471
  56.8389568  98.8527603  58.2226093  47.7640793 105.2460326  50.3802611
  48.3494230 104.5004014  50.5130516  47.5665631 105.5564283  51.2639275
  50.6179448 108.2811573  45.3965054  49.9489823 108.7657701  44.9129094
  50.4792318 108.5280794  46.3108432  42.3558448  97.8165926  49.1007055
  42.3942547  97.2829517  49.8944173  41.8498740  97.2901132  48.4818032
  54.7584717 110.3155317  51.9947712  55.3103025 110.4786938  52.7596797
  55.0990910 110.9059755  51.3227737  49.7349210  92.6630467  52.5969597
  49.7990536  93.5245297  52.1846995  49.6716330  92.0504468  51.8641955
  49.2101482  94.7353599  56.2442631  49.8373521  94.3530676  56.8580155
  48.3529401  94.5167801  56.6098324  59.6095591 105.1416574  57.8496367
  60.1535495 105.7546533  57.3551321  59.0282436 105.6996153  58.3663380
  45.9867025  96.5430028  42.1760986  46.2820466  95.6340707  42.1228040
  45.0855061  96.5217768  41.8541988  57.8953104 108.2637292  48.9811394
  57.7704243 107.4627032  48.4722340  58.5532195 108.7583486  48.4925364
  49.5161272  94.6186025  48.1588535  48.7947858  95.2321993  48.0196008
  50.3054528  95.1543790  48.0805181  59.9588012 106.0646312  50.6090944
  59.0118348 105.9451664  50.5369271  60.3070785 105.1768810  50.6917206
  52.3187586  91.9540451  54.4329186  52.8421988  92.2002748  55.1955496
  52.0999919  92.7860486  54.0132324  47.7154867  94.2244126  42.3000311
  47.3867573  93.3441505  42.1175417  48.0694237  94.1691795  43.1876700
  56.9634446 105.8599029  46.8095297  56.8159408 104.9315736  46.9902867
  57.7887939 105.8819119  46.3252372  50.8296690  94.5117096  42.6675789
  51.1692762  95.0403017  41.9454397  51.2768810  94.8497502  43.4434355
  60.5668567 106.6827587  47.8960169  61.4915115 106.4770449  47.7584621
  60.3983871 106.4343989  48.8049511  53.5240131  92.8954146  52.1178857
  53.1836951  92.0961959  52.5199537  52.8179137  93.1955857  51.5455690
  54.1756603  89.9803459  50.5706180  54.9982672  89.5063937  50.4485070
  54.4194666  90.7593943  51.0704866  52.8164837  93.0091717  40.8669082
  53.5373200  93.3872970  40.3632798  52.1930141  93.7280594  40.9704060
  56.9595960  93.7136866  41.8027414  57.1759574  94.5961504  41.5016242
  56.4790027  93.3223080  41.0733056  51.6995181  96.6722579  48.3798159
  51.5539762  96.9862883  49.2722440  51.2220385  97.2907480  47.8269057
  53.5591564  93.6625127  48.4279048  53.5453133  92.7666221  48.0911346
  54.2763992  93.6695791  49.0617334  55.4117695  94.0962468  50.4732175
  55.1535473  95.0179538  50.4716506  54.8802735  93.6992902  51.1632640
  60.3563884 107.2013255  43.2522261  60.5300761 106.6359677  42.4996113
  60.8492775 108.0014150  43.0701751  46.1740844  99.2127924  51.3185820
  45.6294312  99.9887732  51.4506094  47.0520193  99.5598728  51.1604941
  52.9628460  92.5439508  43.6966618  53.0844371  91.6156154  43.8957506
  52.6730503  92.5578194  42.7844934  55.8319651  90.2294418  46.8333338
  55.8541347  90.2933751  45.8785318  56.2487710  89.3898927  47.0273844
  66.2103275  99.9649678  44.8712561  66.6534421  99.2157003  44.4731684
  65.3329785  99.9559814  44.4886293  61.3439056 106.5180019  40.3519159
  62.0389961 107.1386712  40.5706474  61.6862206 105.6675370  40.6271537
  46.9606865  98.3397820  54.2115977  46.2188601  98.4880456  54.7980607
  46.6399610  98.6006086  53.3482726  63.2430479 103.9679725  41.8806490
  63.7681803 104.3066997  41.1555810  63.1552832 103.0326740  41.6969625
  54.9050528 107.8813798  54.0096367  55.2137654 107.6362945  54.8819066
  55.7026010 108.0860437  53.5215237  54.9271140 110.0351708  46.2401743
  54.4876130 109.5428087  46.9334600  55.6779257 109.4924676  45.9993818
  47.4063479 106.2263249  46.2426371  48.2321499 105.9267021  45.8625015
  47.0557531 105.4570871  46.6916160  52.3745012 105.5789717  48.3124045
  51.7525022 104.9160422  48.0126273  53.0449879 105.6050849  47.6297693
  45.6072084 104.1449575  47.2015305  44.7703992 103.7171750  47.0199306
  45.5795730 104.3382019  48.1386096  52.4469540  94.0571505  57.9056551
  52.4957695  94.9333628  57.5234320  52.9892054  93.5148898  57.3328194
  62.9324385 104.6012628  57.1857688  62.1419929 104.5836767  56.6462187
  62.6957740 105.1400922  57.9406724  63.0522260 101.4505095  54.4990416
  63.1020265 101.2855102  55.4405939  62.9436184 100.5832354  54.1088297
  51.9358519 104.1293640  41.7882505  52.0846639 104.8129105  41.1349178
  52.7424963 104.1098730  42.3031961  60.3426023  97.4336023  55.8149723
  61.2435886  97.2942488  55.5233721  60.4173997  97.5990478  56.7547901
  54.6768828  94.8102878  54.6602909  53.8072138  95.1036444  54.3885498
  54.9128309  95.3943323  55.3810173  64.5540457 103.8702036  54.7432438
  64.2625266 104.2332017  55.5795899  63.9412589 103.1569045  54.5645770
  65.7536140 101.4354916  47.2635008  66.5883031 101.8744720  47.4272569
  65.8895268 100.9593569  46.4443254  62.8027646  98.9934651  53.2112496
  63.2781767  99.1862297  52.4031347  61.8793211  99.0493837  52.9655880
  49.6911152 100.1558818  42.7943574  49.4457194  99.2521148  42.9923784
  49.8607067 100.1575969  41.8523052  57.3807862  91.0282494  52.1768330
  57.8989806  91.7643521  51.8514818  57.0262995  91.3346488  53.0115089
  48.9606800  95.8887176  40.2929736  48.2676045  95.9631531  39.6369772
  48.7158552  95.1247519  40.8151253  57.6320456  87.4482777  47.6969226
  57.9122210  86.7805966  48.3229653  58.4171063  87.6411873  47.1843890
  55.4353925 106.6241771  39.2594253  54.8627892 107.2431958  38.8064725
  56.0086718 107.1741133  39.7934175  61.5029315  95.8700411  51.4440802
  62.4546737  95.9698509  51.4653026  61.3332765  95.0778680  51.9538886
  59.5243694  92.9555994  51.6300202  58.9293626  93.2361007  50.9346691
  59.2393391  93.4449895  52.4016944  58.6551184 106.9078921  40.3902835
  59.5881858 106.8424483  40.5935711  58.5674397 107.7435188  39.9317368
  61.2839201 106.2244791  37.3506783  61.2052833 105.8904655  38.2442541
  62.1048868 106.7166559  37.3498255  63.9817392  99.0906531  50.5583101
  63.9493712  98.1522531  50.7442785  64.5918016  99.1690567  49.8248926
  55.8200723  97.9602584  36.6010305  56.7659828  97.8308792  36.6698723
  55.4414968  97.2217246  37.0779733  64.1311881  95.8817574  50.6041384
  63.6150929  95.0976031  50.4171313  65.0151829  95.5536291  50.7687904
  61.7922608  89.6258590  46.5637197  61.5947429  89.3173678  47.4480529
  62.4022313  90.3520229  46.6935127  69.7993942 100.1522538  49.6989138
  70.5297331  99.8907826  50.2596841  69.1900888  99.4151259  49.7391206
  67.8809239  98.2930400  50.2963589  67.1542403  98.1586365  49.6880081
  67.4656526  98.6007229  51.1020307  55.7039416 102.0120330  58.0610962
  56.6242425 102.1898929  58.2551009  55.6688999 101.0676375  57.9090661
  54.0043640  95.8852560  36.5365190  53.0975096  95.5885673  36.6127904
  54.2819621  95.5882378  35.6699477  44.9221581  97.2058923  46.9864237
  44.6024365  96.3524232  46.6938611  44.3755009  97.4207502  47.7422204
  48.7001488  99.9221364  50.7033743  48.9187498 100.8538472  50.7221777
  49.1127262  99.5629339  51.4888547  55.6205706  90.4289450  42.6909432
  54.8106434  90.0836535  43.0664678  56.3090123  90.1196993  43.2797043
  57.5496254  89.5067497  44.3133728  58.1027293  89.9262950  44.9723752
  57.7866341  88.5803245  44.3556684  53.5729354  95.4954570  60.0936492
  53.4726080  96.4448927  60.0248583  53.3550896  95.1672809  59.2212562
  52.7742425  92.7439495  36.6777170  53.6361589  93.0694394  36.9372987
  52.9592769  91.9570991  36.1650235  44.7909841 100.8261835  48.9557358
  44.0973312 100.4115788  48.4427313  45.5382832 100.8682371  48.3590777
  60.9275061  91.6168022  43.8212393  60.3473730  92.2752826  43.4390445
  60.6610994  90.7945366  43.4099810  59.3778628  91.0173079  46.0233713
  59.8778406  91.1289614  45.2148032  60.0214236  90.7134132  46.6634521
  53.4360624  98.9251709  58.9101554  52.9527705  99.7252069  59.1165443
  53.5221563  98.9359654  57.9568998  46.7046583 100.7580089  46.8323373
  46.6817271 100.8567776  45.8805256  47.0147220 101.6045240  47.1540539
  49.3633961 102.8156244  50.9469988  50.3177215 102.7840186  50.8799919
  49.1646485 102.3546867  51.7620214  49.9533343 101.3857360  53.5140785
  50.7726232 101.8801438  53.5375623  50.2270151 100.4689328  53.4858353
  59.7099939  93.7768112  42.8768741  58.8225794  94.0617763  42.6588936
  60.1253928  93.6161875  42.0296018  63.0614476  93.8014633  46.5923080
  63.8374866  94.2911086  46.8647697  62.3362610  94.2272687  47.0494950
  65.4987034  94.5142252  47.6497021  66.0931525  94.2737988  46.9390329
  65.5713618  93.7949383  48.2770557  47.7184190 108.3575863  47.9640186
  47.5838658 107.5976264  47.3978184  47.3016252 109.0816763  47.4968974
  58.8543153 103.5412787  36.9716761  59.5579003 103.7462789  37.5874417
  58.1305802 104.1089549  37.2365844  59.6840963  99.2922648  43.0919031
  59.6276165  99.7491199  42.2526663  60.2369306  98.5313333  42.9141874
  63.4945769  95.0812380  43.9169151  63.2382703  94.6809016  44.7477358
  62.8698637  95.7956174  43.7919290  67.8058107  97.8208453  46.4240442
  67.2457665  97.8901642  47.1972004  67.2001610  97.6449438  45.7039938
  50.8753316 109.2545180  48.1758628  50.7585700 110.1990613  48.0737319
  50.0545762 108.9518742  48.5644427  60.7629850 103.9795316  39.0215221
  61.5975454 103.5476514  38.8392696  60.6014193 103.8077330  39.9492115
  60.4175742 100.4827429  40.3871560  60.3624546 100.3171701  39.4460004
  59.7921798 101.1903462  40.5433750  45.2068257  95.7195494  54.2132982
  45.8527121  95.2094448  54.7020208  44.9985409  96.4564175  54.7876408
  57.7321650 102.7876341  59.7125123  58.6012809 102.9616993  59.3511758
  57.2528401 103.6070758  59.5900852  53.7271868  89.9835538  39.9656879
  53.7150538  90.9277378  40.1225150  54.6195290  89.8005684  39.6716340
  51.9007830 109.9073442  51.3914557  52.8035077 109.9397052  51.7081052
  51.6745200 108.9773893  51.4060892  53.6561432 108.6604429  48.0524635
  52.7057063 108.6606290  47.9389008  53.9593918 107.9137163  47.5360670
  57.5423987  86.5778315  44.2202815  56.7756383  86.0236802  44.3659498
  57.9534692  86.6500184  45.0816967  49.5465748  92.8663111  58.3107997
  50.4097210  92.5099916  58.5211321  48.9731159  92.5277006  58.9983401
  69.3914125 114.4964967  49.1170398  70.0292535 114.3771714  48.4133738
  69.2734968 115.4445811  49.1758350  66.2003832 114.4492395  49.0531922
  65.8622343 114.3333460  48.1652457  67.0693600 114.0483560  49.0332929
  62.0590647 116.3027872  45.0428813  61.4955512 116.2117809  44.2745101
  61.9443042 115.4827776  45.5231306  66.6823615 115.6027247  55.0118128
  66.6712255 115.2080045  54.1398632  66.8444254 114.8693320  55.6051899
  59.6055079 117.7979063  47.8813034  60.3976371 117.4569888  47.4659333
  59.8451729 117.9074038  48.8015187  67.6390206 119.9698839  40.3543278
  66.9878186 120.5552920  39.9677292  68.4334569 120.5005034  40.4138316
  61.5645833 117.0587976  40.7530413  62.3376709 116.5116964  40.6143288
  61.9171232 117.9232226  40.9644874  63.4030876 118.3864359  53.9597312
  63.1120742 119.2909990  53.8443978  64.0387860 118.4280886  54.6741381
  64.3287083 115.7641207  50.5498672  64.9250655 115.5397230  49.8355634
  64.3862054 115.0225953  51.1524119  63.9012111 113.2180643  38.3848863
  64.1537632 112.6962164  37.6232326  62.9636670 113.0546788  38.4875546
  68.9455394 112.2216421  46.1923606  69.7318483 111.8035844  45.8414023
  69.2094098 113.1262513  46.3605254  69.1165471 117.6589271  40.8912263
  68.4811304 117.7323898  41.6033167  68.7862878 118.2482870  40.2131342
  74.3463821 112.1591654  47.0956584  75.0788993 111.5890871  47.3294414
  73.5903177 111.7713255  47.5363090  63.6208400 115.1208749  40.5873237
  63.5044658 114.4453652  41.2554322  63.7310660 114.6341122  39.7705391
  65.9639941 114.5818896  44.2919927  65.5998148 114.0549517  45.0032848
  66.8207057 114.1917365  44.1186412  71.8689241 105.8713228  51.5551193
  71.5372566 106.7408639  51.3312408  71.2734855 105.5549512  52.2345223
  65.6045428 109.6108795  39.2881275  65.7719830 110.4789032  39.6551746
  65.4142597 109.7736077  38.3642564  68.3620761 118.0725774  50.9547106
  68.0621484 118.9750813  50.8462913  68.0171820 117.8057957  51.8068258
  61.8133242 114.5239571  46.9883810  60.8883739 114.3915785  47.1961502
  62.0617656 115.3033790  47.4853752  71.7617905 110.5908314  48.6344543
  70.8534782 110.5223723  48.3403304  71.7105500 111.0680259  49.4626368
  65.5834649 112.0666453  40.2727942  65.4634274 112.5123504  41.1113422
  64.8887237 112.4151770  39.7141480  59.1742053 114.1672845  47.8227599
  59.3034435 114.4207324  48.7367011  58.4939505 114.7600553  47.5032254
  63.3441541 124.8370095  43.9218073  63.2665570 125.7877920  44.0006554
  62.7403184 124.4915967  44.5793000  65.8358770 112.0097960  56.5779440
  65.0592105 112.5691880  56.5682305  66.4749334 112.4954743  57.0994310
  73.6279551 108.7924753  50.4122417  72.9853931 109.0857286  49.7662211
  73.1234480 108.6777673  51.2175614  71.2819715 112.5387926  41.1008276
  72.1937571 112.7715313  40.9255974  70.7729362 113.1224970  40.5383355
  64.0905143 114.8183413  56.1397407  64.8319827 115.3568457  55.8632231
  63.3842128 115.4449702  56.2968959  69.5660482 116.9612554  54.7369569
  69.9743838 116.5194964  53.9924201  68.8437744 116.3865181  54.9903762
  65.9191552 111.8985161  52.1103126  66.7652748 112.3224574  52.2537775
  65.8590190 111.2418785  52.8041689  69.8889297 117.5213744  48.4921858
  69.2598159 117.6859459  47.7897925  69.5014959 117.9355354  49.2632822
  73.7678529 118.4568182  45.8466221  73.0829567 118.8367084  45.2963255
  73.8522378 119.0663509  46.5798169  69.0690998 109.5589529  53.7684299
  68.8251930 110.3131589  53.2318575  69.3450928 109.9374877  54.6031546
  71.0229461 116.1028141  52.4461565  71.2346356 116.7459901  51.7695946
  70.9759209 115.2690458  51.9783495  68.6255690 108.7145962  49.3498137
  67.7640169 109.0127216  49.6414875  68.6518124 108.9316361  48.4179170
  65.4417259 117.2588153  45.7571943  65.9055604 117.5375856  44.9676565
  65.1774057 116.3571597  45.5745033  62.3341340 116.8059634  48.6951706
  62.9042697 117.2346902  48.0569190  62.9249452 116.5242219  49.3935892
  64.3786145 113.3811305  42.5661508  65.0810188 113.8332349  43.0335434
  64.0466773 112.7395124  43.1941401  62.8266507 111.9723062  56.9412717
  62.1965167 112.6539342  57.1748114  62.7202594 111.8606143  55.9965855
  58.1211479 111.6394858  47.8678641  57.3310533 111.8952386  47.3918752
  58.6122726 112.4543195  47.9730682  72.1375288 118.9800097  50.6183922
  72.9592732 118.5780284  50.3366604  72.1337691 118.8768331  51.5700038
  60.0726224 112.0039437  44.8262118  59.2757388 112.1158131  45.3445614
  59.8451817 112.3426089  43.9603009  65.9031892 118.5284140  52.7744633
  65.9676324 118.9904547  53.6102805  65.1942816 117.8981505  52.9026943
  56.4049182 111.8925348  50.2993632  56.6557220 112.7772358  50.5651208
  56.9408730 111.7129950  49.5268724  80.2281282 115.3238845  46.9668894
  79.4744990 114.7546243  46.8112898  80.3628823 115.2901510  47.9139528
  65.6179910 120.1952248  42.6423613  65.4825584 121.0403783  43.0708461
  66.1589722 120.3971525  41.8789547  62.1047249 106.2743827  59.3037968
  61.7114195 105.7210026  59.9785612  62.9213390 106.5854406  59.6944486
  59.0709307 117.7127686  43.2151538  59.5833828 118.5070936  43.3657103
  59.7232020 117.0153976  43.1485140  60.8804192 120.8293442  45.2974291
  61.0570820 121.7511407  45.1095275  61.6761025 120.5151861  45.7268671
  65.0215210 107.6901706  56.8958225  65.7624924 108.2908860  56.8162687
  65.2533133 106.9479344  56.3376267  60.1656548 112.8758074  55.1736454
  60.0510063 111.9743331  55.4743553  59.3101066 113.1221770  54.8221271
  67.2448386 120.8175814  56.7723955  66.8012240 120.0312193  56.4544860
  67.9065600 121.0054965  56.1067846  62.0035507 122.3471616  51.2984634
  62.5542932 122.2188679  50.5261628  61.1646983 122.6466505  50.9479526
  69.3429624 121.0978614  54.8005356  69.3248099 121.9187495  54.3085626
  70.2649544 120.9732689  55.0255498  65.8002678 118.6122743  55.6428865
  66.3331015 117.8511032  55.4128173  65.2716759 118.3196395  56.3853019
  68.9672373 103.7182809  51.1722506  68.6236643 104.6084451  51.0961617
  69.3351336 103.5284467  50.3092092  57.0358224 116.0416340  43.9911109
  57.8733446 116.4513348  43.7744816  57.2136491 115.1015782  43.9611303
  68.9322656 113.7091421  39.6794942  68.4169279 114.4796025  39.9183329
  68.6599964 113.0356557  40.3028003  66.5169767 108.5541121  44.7380180
  65.6611363 108.1647972  44.5585819  66.9296719 108.6333082  43.8779966
  68.0468914 106.0887465  49.1371740  67.5433709 106.0517600  48.3239545
  68.3399520 106.9980207  49.1968396  64.2911799 106.1726194  48.1437921
  65.1564796 105.9769003  47.7843811  64.3589308 105.9436546  49.0707278
  73.9056930 116.4623775  41.6148115  73.1286373 116.1234935  41.1703277
  74.5848411 116.4676398  40.9403080  68.7208959 111.5818513  41.5054723
  68.4159095 111.8964662  42.3564866  69.6739401 111.6599932  41.5482056
  67.1655391 117.7408736  43.1547677  66.6376752 117.0061496  42.8420914
  66.6642894 118.5183412  42.9087645  72.1448237 115.9357756  48.2714723
  71.4871911 116.6257018  48.3594852  72.9488636 116.3254188  48.6148709
  61.8974119 108.4028402  45.5154288  62.4717870 108.1803584  44.7827481
  62.4845101 108.4717097  46.2682890  70.9553696 114.2902129  46.3218665
  71.4685577 114.9232121  46.8240375  71.6054920 113.6903325  45.9562025
  62.2243706 110.4332863  39.5350174  61.3881018 110.7707550  39.8559448
  62.0848475 110.2981843  38.5977311  64.1996786 105.2769651  44.2429358
  63.5461199 104.9618668  43.6185972  64.1577260 104.6545392  44.9689181
  65.3107991 115.5588946  36.1582650  64.4035053 115.3278200  36.3573799
  65.8079023 114.7626565  36.3456631  68.2176070 124.2686453  39.0779336
  67.5437769 124.5718150  39.6864294  68.6041892 125.0715534  38.7284793
  67.4334527 111.7651585  48.5677005  66.5157088 111.9866532  48.4098693
  67.8494670 111.8397895  47.7088713  68.2169574 113.1643000  43.6979686
  68.9641393 113.6764398  43.3886808  68.4861164 112.8427053  44.5584079
  66.4896225 115.6601541  40.6806640  65.5807444 115.3760574  40.7779110
  66.5191308 116.0800620  39.8209947  71.7215492 119.2708131  44.4497807
  71.2677819 118.4299040  44.5062998  71.0909459 119.9069529  44.7872588
  70.6648412 110.2000117  45.6798475  69.9271168 109.6877503  46.0108717
  70.9175185 109.7600498  44.8681752  70.1648431 121.1084627  45.3847626
  70.4571406 121.6689684  44.6659991  70.6747052 121.4013188  46.1400785
  70.7660039 102.9776369  46.2740244  71.0718916 102.1173732  45.9866159
  71.4912644 103.5693989  46.0739238  57.0584395 113.3807055  44.6621842
  56.8608795 112.7876416  43.9372909  56.5031059 113.0759265  45.3797781
  65.0381119 113.2730162  46.7816435  65.0929728 112.3203998  46.7058912
  64.2272321 113.4289601  47.2657734  66.1872312 117.2010285  38.0194718
  65.7491742 116.4846144  37.5600356  66.9282753 117.4286400  37.4579810
  62.9773478 111.8907221  44.5406814  62.1641344 112.1901392  44.9472006
  63.4732473 111.4962910  45.2581296  65.1282056 121.8864978  46.4741079
  65.0858235 122.1125825  45.5449611  66.0444755 121.6528353  46.6226880
  68.5747690 112.3549046  53.3721708  68.9297078 112.5820519  54.2316174
  69.2219821 112.6867423  52.7498963  74.3045427 115.4767482  44.0771037
  74.1663326 115.6669078  43.1492226  73.9481646 116.2386865  44.5339088
  62.4687553 109.4625577  50.1568049  63.1086933 109.3214336  49.4591012
  61.6365084 109.1760090  49.7806651  74.3314807 117.5444009  49.0882309
  74.7651313 117.4519298  49.9365363  75.0446387 117.5201509  48.4502325
  63.2447857 118.7628007  46.2703042  64.0388456 118.2678327  46.0685616
  62.5339550 118.2345870  45.9070747  68.0642702 121.1446103  50.6215409
  68.1179724 121.7137039  51.3893125  67.1957483 121.3147988  50.2569446
  59.5530621 112.9071089  42.3462794  58.6228209 112.8455545  42.5632756
  59.6488093 112.3847042  41.5499435  59.4716170 109.4325902  44.9341036
  59.7322987 110.3471235  44.8250196  60.2933342 108.9650344  45.0837649
  60.9441095 110.8463659  52.1039860  61.6164148 110.6381021  51.4552509
  60.1170882 110.6485745  51.6645093  75.1930356 117.5867709  51.6215194
  75.3866246 118.4913520  51.8674469  75.0930974 117.1275129  52.4553779
  66.8466667 107.4725600  54.1205521  66.1994582 108.1715550  54.0269998
  67.6167682 107.9061744  54.4881769  70.2545465 117.7374452  57.1956075
  70.1030971 117.5085004  56.2786158  70.2450144 118.6945054  57.2087420
  67.0230801 115.3106365  52.1802341  67.9522861 115.4617525  52.0071308
  66.6021831 115.3990386  51.3250988  65.8219133 119.3357029  49.9500879
  65.6830219 118.9675814  50.8226817  65.0333729 119.8504669  49.7784836
  66.4167285 124.4366126  41.2926415  66.5919041 123.9654169  42.1072038
  65.7300073 125.0631892  41.5207676  67.3724348 118.7138632  47.3389716
  67.0374181 118.6739402  48.2347366  66.8728294 118.0483348  46.8660127
  61.3468592 114.1206262  52.8642298  61.2088390 113.3886501  53.4653837
  62.2573516 114.0315162  52.5826485  70.3083540 116.0594666  37.6126776
  69.6912711 115.3341495  37.5159829  69.8400028 116.8204027  37.2693850
  63.9750893 113.8326221  52.3525977  64.6850511 113.1919414  52.3112596
  63.9320201 114.0839116  53.2752158  71.9637672 120.7693575  55.2732556
  71.9050218 120.0852795  54.6063139  72.3657190 121.5112565  54.8213182
  62.6879827 110.8191439  54.1721617  62.1517184 110.3682178  54.8243213
  62.0996535 110.9537348  53.4292081  62.0982086 110.2780091  36.7348080
  61.2211552 110.1568891  36.3710327  62.5739839 109.4866169  36.4826969
  71.9655079 118.7333159  53.5046536  71.0781858 118.3959080  53.6272935
  72.5353630 118.0016190  53.7415301  53.6184226 115.0657250  46.8289587
  54.3055266 114.7518980  46.2410603  53.4632355 115.9698615  46.5556839
  58.4218948 109.9547447  51.2574611  58.3377137 109.3473117  50.5225021
  57.6001655 110.4456465  51.2584108  65.4956232 123.3934611  50.4707779
  65.4226404 124.1989583  50.9827084  65.0533625 123.5926577  49.6455801
  65.2846012 122.6306381  43.9810601  64.5013534 123.1728061  44.0748825
  65.9838757 123.1480361  44.3804842  68.5942662 108.4401010  46.6244806
  69.0911362 107.6870973  46.3045876  67.8229644 108.4765327  46.0588016
  76.4472419 114.1441376  48.2663098  76.4362296 115.0266091  47.8957031
  75.5789799 113.7912927  48.0717635  67.9554916 123.2921445  52.6265938
  68.6682888 123.9268910  52.5541839  67.4644944 123.3885311  51.8105940
  69.6772443 117.1972698  44.1983230  68.7428721 117.3174160  44.0287934
  69.8549111 116.2945164  43.9343239  65.1777631 110.5818393  46.3516491
  64.8075418 110.0289434  47.0397396  65.6736723 109.9776527  45.7991491
  73.0644994 113.0390017  44.7333264  73.5305446 113.8718009  44.6593566
  73.5152495 112.5734999  45.4378522  63.0066829 121.0415889  53.4471509
  63.7076289 121.6752371  53.6000903  62.5361944 121.3830620  52.6867148
  71.1321225 119.3833838  41.7319416  71.4081069 119.2690433  42.6413290
  70.2625724 118.9851323  41.6931589  71.0361657 105.4070604  48.7724165
  70.1224737 105.6374831  48.9406372  71.4654758 105.4909048  49.6238197
  70.8068115 113.5960496  51.2724059  70.1539566 113.8436403  50.6176512
  71.1848495 112.7824634  50.9386536  67.7675289 123.6320189  45.3752229
  67.9497684 122.8141845  45.8379982  68.5908275 123.8487881  44.9377119
  68.1017455 122.5588374  42.6367278  68.6305221 122.0480829  42.0237440
  68.3645674 122.2430904  43.5012811  66.8555688 114.3380307  57.7590096
  66.1796325 114.2374436  58.4292471  67.6783322 114.1819521  58.2226093
  58.6034547 120.5752244  50.3802611  59.1887984 119.8295931  50.5130516
  58.4059386 120.8856200  51.2639275  61.4573203 123.6103491  45.3965054
  60.7883578 124.0949619  44.9129094  61.3186072 123.8572711  46.3108432
  53.1952202 113.1457844  49.1007055  53.2336302 112.6121434  49.8944173
  52.6892495 112.6193049  48.4818032  65.5978471 125.6447234  51.9947712
  66.1496779 125.8078856  52.7596797  65.9384665 126.2351672  51.3227737
  60.5742964 107.9922384  52.5969597  60.6384291 108.8537215  52.1846995
  60.5110085 107.3796386  51.8641955  60.0495237 110.0645517  56.2442631
  60.6767276 109.6822594  56.8580155  59.1923156 109.8459719  56.6098324
  70.4489346 120.4708492  57.8496367  70.9929249 121.0838450  57.3551321
  69.8676190 121.0288070  58.3663380  56.8260780 111.8721946  42.1760986
  57.1214221 110.9632624  42.1228040  55.9248815 111.8509685  41.8541988
  68.7346858 123.5929210  48.9811394  68.6097998 122.7918950  48.4722340
  69.3925950 124.0875403  48.4925364  60.3555027 109.9477942  48.1588535
  59.6341612 110.5613910  48.0196008  61.1448282 110.4835707  48.0805181
  70.7981767 121.3938230  50.6090944  69.8512102 121.2743581  50.5369271
  71.1464540 120.5060728  50.6917206  63.1581340 107.2832369  54.4329186
  63.6815742 107.5294666  55.1955496  62.9393673 108.1152404  54.0132324
  58.5548621 109.5536044  42.3000311  58.2261327 108.6733422  42.1175417
  58.9087992 109.4983712  43.1876700  67.8028200 121.1890946  46.8095297
  67.6553163 120.2607654  46.9902867  68.6281694 121.2111037  46.3252372
  61.6690444 109.8409013  42.6675789  62.0086517 110.3694935  41.9454397
  62.1162565 110.1789419  43.4434355  71.4062322 122.0119505  47.8960169
  72.3308869 121.8062366  47.7584621  71.2377625 121.7635906  48.8049511
  64.3633885 108.2246064  52.1178857  64.0230706 107.4253877  52.5199537
  63.6572892 108.5247775  51.5455690  65.0150357 105.3095377  50.5706180
  65.8376426 104.8355855  50.4485070  65.2588421 106.0885860  51.0704866
  63.6558592 108.3383635  40.8669082  64.3766954 108.7164888  40.3632798
  63.0323896 109.0572512  40.9704060  67.7989714 109.0428784  41.8027414
  68.0153329 109.9253422  41.5016242  67.3183782 108.6514997  41.0733056
  62.5388936 112.0014497  48.3798159  62.3933517 112.3154800  49.2722440
  62.0614139 112.6199397  47.8269057  64.3985319 108.9917045  48.4279048
  64.3846887 108.0958138  48.0911346  65.1157747 108.9987709  49.0617334
  66.2511449 109.4254385  50.4732175  65.9929227 110.3471456  50.4716506
  65.7196490 109.0284820  51.1632640  71.1957638 122.5305172  43.2522261
  71.3694516 121.9651595  42.4996113  71.6886529 123.3306067  43.0701751
  57.0134598 114.5419842  51.3185820  56.4688066 115.3179650  51.4506094
  57.8913948 114.8890646  51.1604941  63.8022215 107.8731425  43.6966618
  63.9238126 106.9448072  43.8957506  63.5124257 107.8870111  42.7844934
  66.6713405 105.5586336  46.8333338  66.6935102 105.6225669  45.8785318
  67.0881464 104.7190845  47.0273844  77.0497029 115.2941595  44.8712561
  77.4928175 114.5448921  44.4731684  76.1723540 115.2851732  44.4886293
  72.1832811 121.8471937  40.3519159  72.8783715 122.4678630  40.5706474
  72.5255961 120.9967288  40.6271537  57.8000620 113.6689738  54.2115977
  57.0582356 113.8172373  54.7980607  57.4793364 113.9298003  53.3482726
  74.0824234 119.2971642  41.8806490  74.6075558 119.6358915  41.1555810
  73.9946586 118.3618658  41.6969625  65.7444283 123.2105716  54.0096367
  66.0531409 122.9654863  54.8819066  66.5419765 123.4152355  53.5215237
  65.7664895 125.3643626  46.2401743  65.3269885 124.8720004  46.9334600
  66.5173012 124.8216593  45.9993818  58.2457234 121.5555167  46.2426371
  59.0715253 121.2558938  45.8625015  57.8951286 120.7862789  46.6916160
  63.2138767 120.9081635  48.3124045  62.5918776 120.2452340  48.0126273
  63.8843634 120.9342767  47.6297693  56.4465839 119.4741493  47.2015305
  55.6097747 119.0463667  47.0199306  56.4189484 119.6673936  48.1386096
  63.2863294 109.3863423  57.9056551  63.3351450 110.2625546  57.5234320
  63.8285808 108.8440816  57.3328194  73.7718140 119.9304546  57.1857688
  72.9813684 119.9128685  56.6462187  73.5351494 120.4692840  57.9406724
  73.8916015 116.7797012  54.4990416  73.9414020 116.6147020  55.4405939
  73.7829938 115.9124271  54.1088297  62.7752274 119.4585558  41.7882505
  62.9240394 120.1421023  41.1349178  63.5818717 119.4390648  42.3031961
  71.1819777 112.7627940  55.8149723  72.0829640 112.6234405  55.5233721
  71.2567752 112.9282395  56.7547901  65.5162583 110.1394795  54.6602909
  64.6465892 110.4328361  54.3885498  65.7522063 110.7235240  55.3810173
  75.3934212 119.1993954  54.7432438  75.1019020 119.5623934  55.5795899
  74.7806343 118.4860962  54.5645770  76.5929894 116.7646834  47.2635008
  77.4276785 117.2036638  47.4272569  76.7289023 116.2885487  46.4443254
  73.6421400 114.3226569  53.2112496  74.1175522 114.5154215  52.4031347
  72.7186965 114.3785754  52.9655880  60.5304907 115.4850736  42.7943574
  60.2850949 114.5813066  42.9923784  60.7000821 115.4867886  41.8523052
  68.2201616 106.3574412  52.1768330  68.7383560 107.0935439  51.8514818
  67.8656749 106.6638405  53.0115089  59.8000554 111.2179093  40.2929736
  59.1069799 111.2923448  39.6369772  59.5552306 110.4539437  40.8151253
  68.4714211 102.7774695  47.6969226  68.7515964 102.1097884  48.3229653
  69.2564818 102.9703790  47.1843890  66.2747679 121.9533689  39.2594253
  65.7021646 122.5723876  38.8064725  66.8480473 122.5033050  39.7934175
  72.3423069 111.1992329  51.4440802  73.2940492 111.2990426  51.4653026
  72.1726519 110.4070597  51.9538886  70.3637448 108.2847912  51.6300202
  69.7687381 108.5652925  50.9346691  70.0787145 108.7741813  52.4016944
  69.4944939 122.2370839  40.3902835  70.4275612 122.1716400  40.5935711
  69.4068152 123.0727106  39.9317368  72.1232956 121.5536709  37.3506783
  72.0446587 121.2196573  38.2442541  72.9442622 122.0458477  37.3498255
  74.8211147 114.4198448  50.5583101  74.7887467 113.4814449  50.7442785
  75.4311770 114.4982485  49.8248926  66.6594478 113.2894501  36.6010305
  67.6053582 113.1600709  36.6698723  66.2808723 112.5509163  37.0779733
  74.9705635 111.2109492  50.6041384  74.4544684 110.4267948  50.4171313
  75.8545584 110.8828208  50.7687904  72.6316362 104.9550507  46.5637197
  72.4341183 104.6465596  47.4480529  73.2416068 105.6812146  46.6935127
  80.6387697 115.4814455  49.6989138  81.3691085 115.2199743  50.2596841
  80.0294642 114.7443177  49.7391206  78.7202994 113.6222318  50.2963589
  77.9936157 113.4878283  49.6880081  78.3050281 113.9299146  51.1020307
  66.5433170 117.3412247  58.0610962  67.4636180 117.5190846  58.2551009
  66.5082753 116.3968293  57.9090661  64.8437395 111.2144478  36.5365190
  63.9368850 110.9177590  36.6127904  65.1213376 110.9174296  35.6699477
  55.7615335 112.5350841  46.9864237  55.4418120 111.6816149  46.6938611
  55.2148763 112.7499419  47.7422204  59.5395243 115.2513282  50.7033743
  59.7581253 116.1830390  50.7221777  59.9521017 114.8921257  51.4888547
  66.4599461 105.7581367  42.6909432  65.6500189 105.4128452  43.0664678
  67.1483877 105.4488911  43.2797043  68.3890009 104.8359414  44.3133728
  68.9421047 105.2554868  44.9723752  68.6260095 103.9095162  44.3556684
  64.4123108 110.8246488  60.0936492  64.3119835 111.7740845  60.0248583
  64.1944650 110.4964727  59.2212562  63.6136179 108.0731413  36.6777170
  64.4755343 108.3986311  36.9372987  63.7986524 107.2862909  36.1650235
  55.6303595 116.1553753  48.9557358  54.9367067 115.7407705  48.4427313
  56.3776586 116.1974289  48.3590777  71.7668816 106.9459939  43.8212393
  71.1867485 107.6044743  43.4390445  71.5004749 106.1237284  43.4099810
  70.2172382 106.3464997  46.0233713  70.7172161 106.4581532  45.2148032
  70.8607990 106.0426050  46.6634521  64.2754378 114.2543627  58.9101554
  63.7921460 115.0543987  59.1165443  64.3615317 114.2651572  57.9568998
  57.5440338 116.0872006  46.8323373  57.5211026 116.1859694  45.8805256
  57.8540974 116.9337157  47.1540539  60.2027716 118.1448161  50.9469988
  61.1570969 118.1132104  50.8799919  60.0040239 117.6838785  51.7620214
  60.7927098 116.7149277  53.5140785  61.6119987 117.2093356  53.5375623
  61.0663905 115.7981246  53.4858353  70.5493694 109.1060030  42.8768741
  69.6619549 109.3909680  42.6588936  70.9647683 108.9453793  42.0296018
  73.9008230 109.1306551  46.5923080  74.6768620 109.6203003  46.8647697
  73.1756364 109.5564605  47.0494950  76.3380789 109.8434170  47.6497021
  76.9325279 109.6029906  46.9390329  76.4107372 109.1241301  48.2770557
  69.6936907 118.8704704  36.9716761  70.3972758 119.0754707  37.5874417
  68.9699556 119.4381466  37.2365844  70.5234718 114.6214566  43.0919031
  70.4669919 115.0783117  42.2526663  71.0763060 113.8605250  42.9141874
  74.3339524 110.4104298  43.9169151  74.0776458 110.0100933  44.7477358
  73.7092392 111.1248092  43.7919290  78.6451861 113.1500371  46.4240442
  78.0851419 113.2193560  47.1972004  78.0395365 112.9741355  45.7039938
  71.6023605 119.3087234  39.0215221  72.4369209 118.8768432  38.8392696
  71.4407948 119.1369247  39.9492115  71.2569497 115.8119347  40.3871560
  71.2018301 115.6463618  39.4460004  70.6315552 116.5195380  40.5433750
  56.0462012 111.0487411  54.2132982  56.6920876 110.5386365  54.7020208
  55.8379163 111.7856093  54.7876408  68.5715404 118.1168259  59.7125123
  69.4406564 118.2908911  59.3511758  68.0922156 118.9362676  59.5900852
  64.5665622 105.3127456  39.9656879  64.5544292 106.2569296  40.1225150
  65.4589044 105.1297601  39.6716340  62.7401584 125.2365360  51.3914557
  63.6428831 125.2688970  51.7081052  62.5138954 124.3065811  51.4060892
  64.4955186 123.9896346  48.0524635  63.5450817 123.9898208  47.9389008
  64.7987673 123.2429081  47.5360670  68.3817742 101.9070233  44.2202815
  67.6150138 101.3528719  44.3659498  68.7928447 101.9792101  45.0816967
  60.3859503 108.1955028  58.3107997  61.2490965 107.8391833  58.5211321
  59.8124914 107.8568923  58.9983401  80.2307880 129.8256885  49.1170398
  80.8686290 129.7063632  48.4133738  80.1128723 130.7737729  49.1758350
  77.0397586 129.7784313  49.0531922  76.7016098 129.6625378  48.1652457
  77.9087354 129.3775478  49.0332929  77.5217369 130.9319165  55.0118128
  77.5106010 130.5371963  54.1398632  77.6838009 130.1985237  55.6051899
  74.7405866 128.5472560  38.3848863  74.9931386 128.0254082  37.6232326
  73.8030425 128.3838706  38.4875546  79.7849148 127.5508339  46.1923606
  80.5712238 127.1327762  45.8414023  80.0487853 128.4554431  46.3605254
  85.1857575 127.4883572  47.0956584  85.9182747 126.9182789  47.3294414
  84.4296931 127.1005172  47.5363090  76.8033695 129.9110813  44.2919927
  76.4391902 129.3841434  45.0032848  77.6600811 129.5209282  44.1186412
  82.7082996 121.2005146  51.5551193  82.3766321 122.0700557  51.3312408
  82.1128609 120.8841430  52.2345223  76.4439182 124.9400713  39.2881275
  76.6113585 125.8080949  39.6551746  76.2536351 125.1027995  38.3642564
  82.6011659 125.9200232  48.6344543  81.6928537 125.8515641  48.3403304
  82.5499255 126.3972177  49.4626368  76.4228403 127.3958370  40.2727942
  76.3028028 127.8415421  41.1113422  75.7280991 127.7443688  39.7141480
  76.6752525 127.3389878  56.5779440  75.8985859 127.8983798  56.5682305
  77.3143088 127.8246661  57.0994310  84.4673306 124.1216670  50.4122417
  83.8247686 124.4149204  49.7662211  83.9628234 124.0069591  51.2175614
  82.1213469 127.8679844  41.1008276  83.0331325 128.1007230  40.9255974
  81.6123116 128.4516888  40.5383355  76.7585307 127.2277078  52.1103126
  77.6046502 127.6516492  52.2537775  76.6983945 126.5710703  52.8041689
  79.9084752 124.8881447  53.7684299  79.6645684 125.6423507  53.2318575
  80.1844683 125.2666794  54.6031546  79.4649444 124.0437880  49.3498137
  78.6033923 124.3419133  49.6414875  79.4911879 124.2608279  48.4179170
  75.2179899 128.7103223  42.5661508  75.9203943 129.1624266  43.0335434
  74.8860528 128.0687041  43.1941401  73.6660261 127.3014979  56.9412717
  73.0358922 127.9831260  57.1748114  73.5596349 127.1898061  55.9965855
  68.9605233 126.9686775  47.8678641  68.1704287 127.2244304  47.3918752
  69.4516481 127.7835113  47.9730682  70.9119979 127.3331354  44.8262118
  70.1151142 127.4450049  45.3445614  70.6845571 127.6718007  43.9603009
  72.9441004 121.6035745  59.3037968  72.5507949 121.0501944  59.9785612
  73.7607144 121.9146324  59.6944486  75.8608965 123.0193624  56.8958225
  76.6018678 123.6200777  56.8162687  76.0926888 122.2771262  56.3376267
  79.8066128 119.0474727  51.1722506  79.4630397 119.9376369  51.0961617
  80.1745090 118.8576385  50.3092092  79.7716410 129.0383338  39.6794942
  79.2563034 129.8087943  39.9183329  79.4993719 128.3648474  40.3028003
  77.3563521 123.8833039  44.7380180  76.5005118 123.4939889  44.5585819
  77.7690473 123.9625000  43.8779966  78.8862668 121.4179382  49.1371740
  78.3827464 121.3809517  48.3239545  79.1793275 122.3272125  49.1968396
  75.1305554 121.5018112  48.1437921  75.9958551 121.3060921  47.7843811
  75.1983063 121.2728464  49.0707278  79.5602714 126.9110430  41.5054723
  79.2552849 127.2256579  42.3564866  80.5133156 126.9891850  41.5482056
  72.7367873 123.7320320  45.5154288  73.3111625 123.5095501  44.7827481
  73.3238855 123.8009014  46.2682890  81.7947450 129.6194047  46.3218665
  82.3079332 130.2524039  46.8240375  82.4448674 129.0195242  45.9562025
  73.0637460 125.7624781  39.5350174  72.2274772 126.0999467  39.8559448
  72.9242230 125.6273761  38.5977311  75.0390541 120.6061569  44.2429358
  74.3854953 120.2910586  43.6185972  74.9971015 119.9837309  44.9689181
  78.2728281 127.0943502  48.5677005  77.3550842 127.3158449  48.4098693
  78.6888425 127.1689813  47.7088713  79.0563329 128.4934918  43.6979686
  79.8035148 129.0056315  43.3886808  79.3254918 128.1718971  44.5584079
  81.5042166 125.5292034  45.6798475  80.7664923 125.0169420  46.0108717
  81.7568940 125.0892416  44.8681752  81.6053793 118.3068286  46.2740244
  81.9112670 117.4465650  45.9866159  82.3306398 118.8985906  46.0739238
  75.8774873 128.6022079  46.7816435  75.9323483 127.6495916  46.7058912
  75.0666075 128.7581518  47.2657734  73.8167233 127.2199139  44.5406814
  73.0035099 127.5193310  44.9472006  74.3126227 126.8254828  45.2581296
  79.4141445 127.6840964  53.3721708  79.7690832 127.9112437  54.2316174
  80.0613576 128.0159340  52.7498963  73.3081308 124.7917495  50.1568049
  73.9480687 124.6506254  49.4591012  72.4758838 124.5052008  49.7806651
  70.3924375 128.2363007  42.3462794  69.4621963 128.1747462  42.5632756
  70.4881847 127.7138960  41.5499435  70.3109924 124.7617820  44.9341036
  70.5716741 125.6763153  44.8250196  71.1327096 124.2942262  45.0837649
  71.7834849 126.1755577  52.1039860  72.4557903 125.9672939  51.4552509
  70.9564636 125.9777663  51.6645093  77.6860421 122.8017518  54.1205521
  77.0388337 123.5007467  54.0269998  78.4561437 123.2353662  54.4881769
  77.8624556 130.6398283  52.1802341  78.7916616 130.7909442  52.0071308
  77.4415586 130.7282303  51.3250988  81.1477294 131.3886584  37.6126776
  80.5306465 130.6633412  37.5159829  80.6793783 132.1495944  37.2693850
  74.8144647 129.1618139  52.3525977  75.5244266 128.5211331  52.3112596
  74.7713956 129.4131034  53.2752158  73.5273581 126.1483357  54.1721617
  72.9910938 125.6974095  54.8243213  72.9390290 126.2829266  53.4292081
  72.9375840 125.6072008  36.7348080  72.0605307 125.4860809  36.3710327
  73.4133593 124.8158087  36.4826969  69.2612703 125.2839365  51.2574611
  69.1770891 124.6765034  50.5225021  68.4395409 125.7748383  51.2584108
  79.4336416 123.7692928  46.6244806  79.9305116 123.0162890  46.3045876
  78.6623398 123.8057245  46.0588016  76.0171385 125.9110311  46.3516491
  75.6469173 125.3581352  47.0397396  76.5130478 125.3068445  45.7991491
  83.9038749 128.3681935  44.7333264  84.3699201 129.2009926  44.6593566
  84.3546249 127.9026916  45.4378522  81.8755411 120.7362522  48.7724165
  80.9618491 120.9666749  48.9406372  82.3048513 120.8200966  49.6238197
  81.6461870 128.9252414  51.2724059  80.9933320 129.1728321  50.6176512
  82.0242250 128.1116552  50.9386536  77.6949443 129.6672225  57.7590096
  77.0190080 129.5666354  58.4292471  78.5177077 129.5111438  58.2226093
  71.4136719 123.3214302  52.5969597  71.4778045 124.1829133  52.1846995
  71.3503839 122.7088304  51.8641955  70.8888991 125.3937434  56.2442631
  71.5161030 125.0114512  56.8580155  70.0316910 125.1751636  56.6098324
  67.6654534 127.2013864  42.1760986  67.9607975 126.2924542  42.1228040
  66.7642570 127.1801603  41.8541988  71.1948781 125.2769860  48.1588535
  70.4735367 125.8905828  48.0196008  71.9842037 125.8127625  48.0805181
  73.9975095 122.6124287  54.4329186  74.5209497 122.8586583  55.1955496
  73.7787428 123.4444321  54.0132324  69.3942376 124.8827961  42.3000311
  69.0655082 124.0025340  42.1175417  69.7481746 124.8275630  43.1876700
  72.5084199 125.1700931  42.6675789  72.8480271 125.6986852  41.9454397
  72.9556319 125.5081337  43.4434355  75.2027640 123.5537982  52.1178857
  74.8624460 122.7545795  52.5199537  74.4966646 123.8539693  51.5455690
  75.8544112 120.6387294  50.5706180  76.6770181 120.1647772  50.4485070
  76.0982175 121.4177778  51.0704866  74.4952346 123.6675553  40.8669082
  75.2160709 124.0456805  40.3632798  73.8717650 124.3864429  40.9704060
  78.6383469 124.3720702  41.8027414  78.8547083 125.2545339  41.5016242
  78.1577536 123.9806915  41.0733056  73.3782690 127.3306415  48.3798159
  73.2327271 127.6446718  49.2722440  72.9007894 127.9491315  47.8269057
  75.2379073 124.3208963  48.4279048  75.2240642 123.4250056  48.0911346
  75.9551501 124.3279627  49.0617334  77.0905204 124.7546303  50.4732175
  76.8322982 125.6763374  50.4716506  76.5590244 124.3576738  51.1632640
  74.6415969 123.2023343  43.6966618  74.7631880 122.2739989  43.8957506
  74.3518012 123.2162029  42.7844934  77.5107160 120.8878254  46.8333338
  77.5328856 120.9517587  45.8785318  77.9275219 120.0482762  47.0273844
  74.1257049 124.7155340  57.9056551  74.1745204 125.5917463  57.5234320
  74.6679563 124.1732734  57.3328194  82.0213532 128.0919858  55.8149723
  82.9223395 127.9526323  55.5233721  82.0961506 128.2574313  56.7547901
  76.3556337 125.4686713  54.6602909  75.4859647 125.7620279  54.3885498
  76.5915817 126.0527158  55.3810173  79.0595371 121.6866330  52.1768330
  79.5777315 122.4227357  51.8514818  78.7050504 121.9930323  53.0115089
  70.6394309 126.5471011  40.2929736  69.9463554 126.6215366  39.6369772
  70.3946061 125.7831355  40.8151253  79.3107965 118.1066612  47.6969226
  79.5909719 117.4389801  48.3229653  80.0958572 118.2995708  47.1843890
  83.1816823 126.5284246  51.4440802  84.1334246 126.6282344  51.4653026
  83.0120274 125.7362515  51.9538886  81.2031203 123.6139830  51.6300202
  80.6081135 123.8944842  50.9346691  80.9180900 124.1033730  52.4016944
  77.4988232 128.6186419  36.6010305  78.4447337 128.4892627  36.6698723
  77.1202477 127.8801081  37.0779733  85.8099390 126.5401409  50.6041384
  85.2938438 125.7559866  50.4171313  86.6939338 126.2120126  50.7687904
  83.4710117 120.2842425  46.5637197  83.2734938 119.9757513  47.4480529
  84.0809822 121.0104064  46.6935127  75.6831149 126.5436395  36.5365190
  74.7762605 126.2469508  36.6127904  75.9607130 126.2466213  35.6699477
  77.2993215 121.0873285  42.6909432  76.4893943 120.7420370  43.0664678
  77.9877632 120.7780829  43.2797043  79.2283763 120.1651332  44.3133728
  79.7814802 120.5846785  44.9723752  79.4653850 119.2387080  44.3556684
  75.2516863 126.1538406  60.0936492  75.1513589 127.1032762  60.0248583
  75.0338405 125.8256644  59.2212562  74.4529934 123.4023331  36.6777170
  75.3149098 123.7278229  36.9372987  74.6380278 122.6154826  36.1650235
  82.6062570 122.2751857  43.8212393  82.0261239 122.9336661  43.4390445
  82.3398503 121.4529202  43.4099810  81.0566137 121.6756915  46.0233713
  81.5565915 121.7873449  45.2148032  81.7001745 121.3717968  46.6634521
  81.3887448 124.4351947  42.8768741  80.5013303 124.7201598  42.6588936
  81.8041437 124.2745711  42.0296018  84.7401985 124.4598468  46.5923080
  85.5162375 124.9494921  46.8647697  84.0150119 124.8856523  47.0494950
  87.1774543 125.1726088  47.6497021  87.7719034 124.9321824  46.9390329
  87.2501127 124.4533218  48.2770557  81.3628472 129.9506483  43.0919031
  81.3063674 130.4075035  42.2526663  81.9156815 129.1897168  42.9141874
  85.1733278 125.7396215  43.9169151  84.9170212 125.3392851  44.7477358
  84.5486146 126.4540009  43.7919290  82.0963251 131.1411265  40.3871560
  82.0412055 130.9755536  39.4460004  81.4709307 131.8487298  40.5433750
  66.8855766 126.3779329  54.2132982  67.5314630 125.8678283  54.7020208
  66.6772918 127.1148011  54.7876408  75.4059377 120.6419374  39.9656879
  75.3938047 121.5861214  40.1225150  76.2982799 120.4589519  39.6716340
  79.2211496 117.2362150  44.2202815  78.4543892 116.6820637  44.3659498
  79.6322201 117.3084019  45.0816967  71.2253257 123.5246946  58.3107997
  72.0884719 123.1683751  58.5211321  70.6518668 123.1860841  58.9983401
  15.1945354  14.8567501  35.8415704  15.8323764  14.7374249  35.1379044
  15.0766197  15.8048345  35.9003656  12.0035060  14.8094929  35.7777229
  11.6653572  14.6935994  34.8897764  12.8724829  14.4086094  35.7578235
  12.4854843  15.9629781  41.7363435  12.4743484  15.5682579  40.8643938
  12.6475483  15.2295854  42.3297206   5.4086308  18.1581597  34.6058340
   6.2007600  17.8172422  34.1904640   5.6482958  18.2676572  35.5260494
   9.2062105  18.7466893  40.6842619   8.9151971  19.6512524  40.5689285
   9.8419089  18.7883421  41.3986688  10.1318311  16.1243741  37.2743978
  10.7281884  15.8999764  36.5600941  10.1893283  15.3828487  37.8769426
  20.1495050  12.5194188  33.8201891  20.8820222  11.9493405  34.0539720
  19.3934406  12.1315789  34.2608396  14.1651990  18.4328308  37.6792412
  13.8652713  19.3353347  37.5708219  13.8203049  18.1660492  38.5313565
  17.5649133  10.9510849  35.3589850  16.6566011  10.8826257  35.0648611
  17.5136729  11.4282794  36.1871675   9.1472769  25.1972629  30.6463380
   9.0696799  26.1480454  30.7251860   8.5434413  24.8518501  31.3038306
  11.6389999  12.3700494  43.3024747  10.8623333  12.9294414  43.2927611
  12.2780562  12.8557277  43.8239617  19.4310780   9.1527287  37.1367723
  18.7885160   9.4459820  36.4907518  18.9265708   9.0380207  37.9420920
   9.8936372  15.1785948  42.8642714  10.6351056  15.7170992  42.5877537
   9.1873357  15.8052236  43.0214266  15.3691711  17.3215088  41.4614875
  15.7775067  16.8797499  40.7169508  14.6468973  16.7467716  41.7149068
  11.7222781  12.2587695  38.8348432  12.5683976  12.6827108  38.9783081
  11.6621419  11.6021319  39.5286995  15.6920526  17.8816279  35.2167164
  15.0629388  18.0461993  34.5143232  15.3046188  18.2957888  35.9878128
  19.5709758  18.8170717  32.5711528  18.8860796  19.1969618  32.0208561
  19.6553607  19.4266043  33.3043476  14.8722227   9.9192063  40.4929606
  14.6283158  10.6734124  39.9563882  15.1482157  10.2977411  41.3276853
  16.8260689  16.4630676  39.1706871  17.0377585  17.1062435  38.4941253
  16.7790438  15.6292992  38.7028802   8.1372569  17.1662168  35.4197013
   8.7073926  17.5949437  34.7814497   8.7280681  16.8844753  36.1181198
  17.9406517  19.3402631  37.3429229  18.7623961  18.9382818  37.0611910
  17.9368920  19.2370865  38.2945345  11.7063121  18.8886674  39.4989939
  11.7707553  19.3507081  40.3348111  10.9974045  18.2584039  39.6272249
  26.0312510  15.6841379  33.6914200  25.2776219  15.1148778  33.5358205
  26.1660052  15.6504044  34.6384835   6.6835420  21.1895976  32.0219598
   6.8602049  22.1113941  31.8340582   7.4792254  20.8754395  32.4513978
  13.0479615  21.1778348  43.4969262  12.6043469  20.3914727  43.1790166
  13.7096828  21.3657499  42.8313153   7.8066736  22.7074150  38.0229940
   8.3574161  22.5791213  37.2506934   6.9678212  23.0069039  37.6724833
  15.1460853  21.4581148  41.5250663  15.1279328  22.2790029  41.0330932
  16.0680773  21.3335223  41.7500804  11.6033907  18.9725278  42.3674171
  12.1362244  18.2113566  42.1373479  11.0747988  18.6798929  43.1098326
  17.9479466  16.2960291  34.9960030  17.2903140  16.9859552  35.0840158
  18.7519865  16.6856723  35.3394016  16.7584925  14.6504663  33.0463971
  17.2716806  15.2834655  33.5485681  17.4086148  14.0505859  32.6807331
  13.2365755  12.1254119  35.2922312  12.3188317  12.3469066  35.1344000
  13.6525899  12.2000429  34.4334019  17.5246721  19.6310665  31.1743114
  17.0709048  18.7901575  31.2308305  16.8940687  20.2672063  31.5117894
  15.9679660  21.4687161  32.1092932  16.2602634  22.0292219  31.3905298
  16.4778281  21.7615722  32.8646091  10.9313285  22.2467513  33.1986385
  10.8889464  22.4728359  32.2694917  11.8475984  22.0130887  33.3472187
  14.3778919  12.7151580  40.0967015  14.7328307  12.9423053  40.9561480
  15.0251050  13.0469957  39.4744270  20.1076656  15.8370016  30.8016344
  19.9694555  16.0271612  29.8737533  19.7512875  16.5989399  31.2584395
  20.1346036  17.9046543  35.8127615  20.5682542  17.8121832  36.6610669
  20.8477616  17.8804043  35.1747631  13.8673930  21.5048637  37.3460716
  13.9210953  22.0739573  38.1138432  12.9988712  21.6750522  36.9814753
  20.9961585  17.9470244  38.3460501  21.1897475  18.8516054  38.5919775
  20.8962203  17.4877663  39.1799086  16.0576694  18.0976986  43.9201381
  15.9062200  17.8687538  43.0031465  16.0481373  19.0547588  43.9332726
  12.8262030  15.6708899  38.9047648  13.7554090  15.8220059  38.7316615
  12.4053060  15.7592920  38.0496294  11.6250362  19.6959564  36.6746185
  11.4861448  19.3278348  37.5472123  10.8364958  20.2107203  36.5030143
  12.2198514  24.7968660  28.0171722  12.3950270  24.3256703  28.8317344
  11.5331302  25.4234426  28.2452982  13.1755577  19.0741166  34.0635023
  12.8405410  19.0341936  34.9592673  12.6759523  18.4085882  33.5905433
   7.1499821  14.4808796  39.5887604   7.0119619  13.7489035  40.1899143
   8.0604745  14.3917696  39.3071792   9.7782122  14.1928756  39.0771284
  10.4881740  13.5521948  39.0357902   9.7351430  14.4441650  39.9997465
  17.7668900  21.1296109  41.9977863  17.7081447  20.4455329  41.3308446
  18.1688419  21.8715099  41.5458489   6.7859599  27.9458023  34.7911582
   7.0256197  28.5776547  35.4690601   5.9428796  27.5946063  35.0776941
  17.7686308  19.0935693  40.2291843  16.8813086  18.7561615  40.3518242
  18.3384859  18.3618724  40.4660608  11.2987461  23.7537145  37.1953086
  11.2257633  24.5592117  37.7072390  10.8564854  23.9529111  36.3701107
  11.0877241  22.9908915  30.7055907  10.3044763  23.5330595  30.7994132
  11.7869986  23.5082895  31.1050149  22.2503648  14.5043910  34.9908404
  22.2393524  15.3868626  34.6202337  21.3821028  14.1515461  34.7962941
  13.7586145  23.6523979  39.3511245  14.4714117  24.2871444  39.2787146
  13.2676173  23.7487845  38.5351246   8.8098058  21.4018423  40.1716815
   9.5107518  22.0354906  40.3246210   8.3393173  21.7433154  39.4112455
  16.6099344  13.9563030  37.9969366  15.9570794  14.2038938  37.3421819
  16.9879724  13.1427168  37.6631843  13.5706518  23.9922723  32.0997536
  13.7528913  23.1744379  32.5625288  14.3939504  24.2090416  31.6622426
  13.9048683  22.9190908  29.3612585  14.4336450  22.4083363  28.7482747
  14.1676903  22.6033439  30.2258118  12.6586917  14.6982841  44.4835403
  11.9827554  14.5976971  45.1537778  13.4814551  14.5422055  44.9471400
   4.4065776  20.9354778  37.1047918   4.9919213  20.1898466  37.2375822
   4.2090615  21.2458734  37.9884582   7.2604431  23.9706025  32.1210360
   6.5914807  24.4552153  31.6374401   7.1217301  24.2175246  33.0353739
  11.4009700  26.0049769  38.7193019  11.9528008  26.1681390  39.4842104
  11.7415893  26.5954207  38.0473044  16.2520574  20.8311026  44.5741673
  16.7960478  21.4440984  44.0796628  15.6707419  21.3890605  45.0908686
  14.5378087  23.9531744  35.7056701  14.4129227  23.1521484  35.1967646
  15.1957178  24.4477938  35.2170671  16.6012996  21.7540764  37.3336251
  15.6543331  21.6346115  37.2614578  16.9495769  20.8663262  37.4162513
  13.6059429  21.5493481  33.5340603  13.4584391  20.6210188  33.7148173
  14.4312922  21.5713571  33.0497679  17.2093551  22.3722039  34.6205476
  18.1340098  22.1664901  34.4829927  17.0408854  22.1238440  35.5294818
  16.9988867  22.8907707  29.9767568  17.1725745  22.3254129  29.2241420
  17.4917758  23.6908602  29.7947057  22.8528258  15.6544130  31.5957867
  23.2959404  14.9051455  31.1976991  21.9754768  15.6454266  31.2131599
  17.9864039  22.2074471  27.0764466  18.6814944  22.8281164  27.2951780
  18.3287190  21.3569822  27.3516844  19.8855463  19.6574177  28.6051797
  20.4106787  19.9961449  27.8801117  19.7977815  18.7221192  28.4214931
  11.5475511  23.5708250  40.7341673  11.8562638  23.3257397  41.6064373
  12.3450993  23.7754889  40.2460543  11.5696123  25.7246160  32.9647050
  11.1301114  25.2322539  33.6579906  12.3204240  25.1819128  32.7239125
   4.0488462  21.9157701  32.9671678   4.8746482  21.6161473  32.5870321
   3.6982514  21.1465323  33.4161466   9.0169996  21.2684169  35.0369351
   8.3950005  20.6054874  34.7371579   9.6874862  21.2945301  34.3542999
  19.5749369  20.2907080  43.9102995  18.7844912  20.2731219  43.3707494
  19.3382723  20.8295374  44.6652031  19.6947244  17.1399547  41.2235723
  19.7445249  16.9749554  42.1651246  19.5861167  16.2726806  40.8333604
  16.9851006  13.1230475  42.5395030  17.8860869  12.9836940  42.2479028
  17.0598981  13.2884929  43.4793207  21.1965441  19.5596488  41.4677745
  20.9050249  19.9226469  42.3041206  20.5837572  18.8463496  41.2891077
  22.3961123  17.1249368  33.9880315  23.2308014  17.5639172  34.1517875
  22.5320252  16.6488021  33.1688561  19.4452629  14.6829103  39.9357803
  19.9206750  14.8756749  39.1276654  18.5218194  14.7388289  39.6901186
  18.1454298  11.5594863  38.1686108  19.0971721  11.6592961  38.1898332
  17.9757748  10.7673131  38.6784193  16.1668677   8.6450446  38.3545509
  15.5718609   8.9255459  37.6591998  15.8818374   9.1344347  39.1262250
  20.6242376  14.7800983  37.2828408  20.5918696  13.8416983  37.4688092
  21.2342999  14.8585019  36.5494233  20.7736864  11.5712026  37.3286691
  20.2575913  10.7870483  37.1416620  21.6576813  11.2430743  37.4933211
  26.4418925  15.8416989  36.4234445  27.1722314  15.5802278  36.9842148
  25.8325871  15.1045711  36.4636513  24.5234223  13.9824852  37.0208896
  23.7967386  13.8480817  36.4125387  24.1081509  14.2901681  37.8265614
  12.3464399  17.7014782  44.7856269  13.2667408  17.8793381  44.9796315
  12.3113982  16.7570827  44.6335968   5.3426472  15.6115816  37.4279050
   5.5612481  16.5432924  37.4467084   5.7552245  15.2523791  38.2133854
  10.0785607  14.6146161  45.6346861   9.5952689  15.4146521  45.8410750
  10.1646546  14.6254106  44.6814305   6.0058944  18.5050696  37.6715294
   6.9602198  18.4734638  37.6045226   5.8071468  18.0441319  38.4865520
   6.5958327  17.0751812  40.2386092   7.4151216  17.5695890  40.2620929
   6.8695134  16.1583780  40.2103660  22.1412017  10.2036704  34.3742327
  22.7356508   9.9632440  33.6635636  22.2138601   9.4843835  35.0015864
   4.3609173  24.0470315  34.6885492   4.2263641  23.2870716  34.1223490
   3.9441235  24.7711215  34.2214281  24.4483090  13.5102905  33.1485749
  23.8882648  13.5796094  33.9217311  23.8426594  13.3343890  32.4285245
   7.5178299  24.9439632  34.9003935   7.4010683  25.8885065  34.7982625
   6.6970745  24.6413194  35.2889734  14.3746633  18.4770793  46.4370430
  15.2437793  18.6511445  46.0757065  13.8953384  19.2965210  46.3146159
   8.5432813  25.5967894  38.1159863   9.4460060  25.6291504  38.4326358
   8.3170183  24.6668345  38.1306199  10.2986415  24.3498881  34.7769942
   9.3482046  24.3500742  34.6634314  10.6018901  23.6031615  34.2605977
  26.0339109  30.1859419  35.8415704  26.6717519  30.0666166  35.1379044
  25.9159952  31.1340263  35.9003656  22.8428815  30.1386847  35.7777229
  22.5047326  30.0227912  34.8897764  23.7118583  29.7378012  35.7578235
  18.7015631  31.9922323  31.7674120  18.1380496  31.9012260  30.9990408
  18.5868026  31.1722228  32.2476613  23.3248598  31.2921699  41.7363435
  23.3137239  30.8974497  40.8643938  23.4869237  30.5587771  42.3297206
  16.2480063  33.4873515  34.6058340  17.0401355  33.1464340  34.1904640
  16.4876713  33.5968490  35.5260494  24.2815189  35.6593291  27.0788585
  23.6303169  36.2447372  26.6922599  25.0759552  36.1899486  27.1383622
  18.2070817  32.7482428  27.4775719  18.9801693  32.2011415  27.3388595
  18.5596215  33.6126678  27.6890181  20.0455859  34.0758811  40.6842619
  19.7545725  34.9804441  40.5689285  20.6812843  34.1175338  41.3986688
  20.9712066  31.4535659  37.2743978  21.5675638  31.2291682  36.5600941
  21.0287037  30.7120405  37.8769426  20.5437094  28.9075094  25.1094169
  20.7962615  28.3856616  24.3477632  19.6061653  28.7441240  25.2120853
  25.5880377  27.9110873  32.9168912  26.3743466  27.4930296  32.5659329
  25.8519081  28.8156965  33.0850561  25.7590455  33.3483723  27.6157569
  25.1236288  33.4218350  28.3278474  25.4287861  33.9377322  26.9376648
  30.9888804  27.8486106  33.8201891  31.7213976  27.2785323  34.0539720
  30.2328160  27.4607706  34.2608396  20.2633383  30.8103200  27.3118544
  20.1469641  30.1348104  27.9799628  20.3735643  30.3235574  26.4950697
  22.6064924  30.2713348  31.0165233  22.2423131  29.7443968  31.7278155
  23.4632040  29.8811817  30.8431719  28.5114225  21.5607680  38.2796499
  28.1797549  22.4303091  38.0557714  27.9159838  21.2443964  38.9590530
  22.2470411  25.3003247  26.0126582  22.4144813  26.1683484  26.3797053
  22.0567580  25.4630529  25.0887871  25.0045744  33.7620226  37.6792412
  24.7046467  34.6645265  37.5708219  24.6596804  33.4952409  38.5313565
  18.4558226  30.2134023  33.7129117  17.5308722  30.0810237  33.9206808
  18.7042639  30.9928242  34.2099059  28.4042888  26.2802766  35.3589850
  27.4959765  26.2118175  35.0648611  28.3530484  26.7574711  36.1871675
  22.2259632  27.7560905  26.9973249  22.1059257  28.2017955  27.8358729
  21.5312220  28.1046222  26.4386787  15.8167037  29.8567296  34.5472906
  15.9459418  30.1101775  35.4612317  15.1364488  30.4495004  34.2277561
  19.9866524  40.5264546  30.6463380  19.9090554  41.4772372  30.7251860
  19.3828168  40.1810419  31.3038306  22.4783754  27.6992412  43.3024747
  21.7017088  28.2586332  43.2927611  23.1174317  28.1849195  43.8239617
  30.2704534  24.4819205  37.1367723  29.6278915  24.7751738  36.4907518
  29.7659463  24.3672125  37.9420920  27.9244698  28.2282378  27.8253583
  28.8362554  28.4609765  27.6501280  27.4154345  28.8119422  27.2628661
  20.7330126  30.5077865  42.8642714  21.4744810  31.0462909  42.5877537
  20.0267112  31.1344154  43.0214266  26.2085466  32.6507006  41.4614875
  26.6168822  32.2089416  40.7169508  25.4862727  32.0759633  41.7149068
  22.5616536  27.5879612  38.8348432  23.4077731  28.0119026  38.9783081
  22.5015173  26.9313237  39.5286995  26.5314280  33.2108196  35.2167164
  25.9023143  33.3753910  34.5143232  26.1439942  33.6249806  35.9878128
  30.4103512  34.1462634  32.5711528  29.7254550  34.5261536  32.0208561
  30.4947362  34.7557961  33.3043476  25.7115981  25.2483981  40.4929606
  25.4676913  26.0026041  39.9563882  25.9875912  25.6269328  41.3276853
  27.6654444  31.7922593  39.1706871  27.8771339  32.4354353  38.4941253
  27.6184192  30.9584910  38.7028802  25.2680673  24.4040414  36.0743444
  24.4065152  24.7021667  36.3660181  25.2943107  24.6210813  35.1424476
  22.0842242  32.9482604  32.4817249  22.5480588  33.2270307  31.6921872
  21.8199040  32.0466049  32.2990340  18.9766323  32.4954086  35.4197013
  19.5467680  32.9241354  34.7814497  19.5674435  32.2136671  36.1181198
  21.0211128  29.0705757  29.2906814  21.7235172  29.5226800  29.7580741
  20.6891757  28.4289576  29.9186708  19.4691490  27.6617513  43.6658024
  18.8390150  28.3433794  43.8993421  19.3627578  27.5500595  42.7211162
  14.7636462  27.3289309  34.5923948  13.9735516  27.5846838  34.1164059
  15.2547710  28.1437647  34.6975989  28.7800272  34.6694549  37.3429229
  29.6017716  34.2674736  37.0611910  28.7762675  34.5662783  38.2945345
  16.7151208  27.6933889  31.5507425  15.9182371  27.8052583  32.0690920
  16.4876800  28.0320541  30.6848315  22.5456875  34.2178592  39.4989939
  22.6101308  34.6798999  40.3348111  21.8367799  33.5875957  39.6272249
  13.0474165  27.5819800  37.0238939  13.2982204  28.4666810  37.2896515
  13.5833714  27.4024401  36.2514031  36.8706265  31.0133297  33.6914200
  36.1169973  30.4440695  33.5358205  37.0053806  30.9795962  34.6384835
  22.2604893  35.8846699  29.3668920  22.1250568  36.7298235  29.7953767
  22.8014705  36.0865977  28.6034853  18.7472233  21.9638279  46.0283275
  18.3539178  21.4104478  46.7030919  19.5638373  22.2748858  46.4189792
  15.7134290  33.4022137  29.9396845  16.2258811  34.1965388  30.0902409
  16.3657003  32.7048428  29.8730446  17.5229175  36.5187894  32.0219598
  17.6995803  37.4405858  31.8340582  18.3186009  36.2046313  32.4513978
  21.6640194  23.3796158  43.6203531  22.4049907  23.9803311  43.5407994
  21.8958116  22.6373796  43.0621574  16.8081532  28.5652526  41.8981761
  16.6935047  27.6637783  42.1988860  15.9526049  28.8116222  41.5466578
  23.8873369  36.5070266  43.4969262  23.4437223  35.7206644  43.1790166
  24.5490583  36.6949416  42.8313153  18.6460490  38.0366068  38.0229940
  19.1967916  37.9083131  37.2506934  17.8071966  38.3360957  37.6724833
  25.9854607  36.7873066  41.5250663  25.9673083  37.6081947  41.0330932
  26.9074527  36.6627141  41.7500804  22.4427662  34.3017195  42.3674171
  22.9755998  33.5405484  42.1373479  21.9141743  34.0090847  43.1098326
  25.6097356  19.4077261  37.8967813  25.2661626  20.2978903  37.8206924
  25.9776319  19.2178919  37.0337398  13.6783207  31.7310792  30.7156415
  14.5158429  32.1407800  30.4990123  13.8561475  30.7910234  30.6856609
  25.5747639  29.3985872  26.4040248  25.0594263  30.1690477  26.6428636
  25.3024948  28.7251009  27.0273310  23.1594750  24.2435573  31.4625487
  22.3036347  23.8542424  31.2831125  23.5721702  24.3227534  30.6025272
  24.6893897  21.7781916  35.8617046  24.1858692  21.7412052  35.0484852
  24.9824504  22.6874659  35.9213703  20.9336783  21.8620646  34.8683228
  21.7989780  21.6663455  34.5089118  21.0014292  21.6330998  35.7952585
  30.5481913  32.1518227  28.3393422  29.7711356  31.8129387  27.8948584
  31.2273394  32.1570850  27.6648387  25.3633942  27.2712964  28.2300029
  25.0584078  27.5859114  29.0810173  26.3164384  27.3494384  28.2727362
  23.8080374  33.4303188  29.8792983  23.2801736  32.6955947  29.5666221
  23.3067877  34.2077864  29.6332952  28.7873220  31.6252208  34.9960030
  28.1296895  32.3151470  35.0840158  29.5913619  32.0148640  35.3394016
  18.5399102  24.0922854  32.2399595  19.1142854  23.8698036  31.5072788
  19.1270084  24.1611549  32.9928196  27.5978679  29.9796581  33.0463971
  28.1110561  30.6126573  33.5485681  28.2479903  29.3797777  32.6807331
  18.8668689  26.1227315  26.2595480  18.0306001  26.4602002  26.5804755
  18.7273459  25.9876295  25.3222617  20.8421770  20.9664103  30.9674664
  20.1886182  20.6513120  30.3431279  20.8002244  20.3439843  31.6934487
  21.9532974  31.2483398  22.8827956  21.0460036  31.0172652  23.0819105
  22.4504006  30.4521017  23.0701938  24.8601053  39.9580905  25.8024643
  24.1862752  40.2612602  26.4109600  25.2466875  40.7609986  25.4530100
  24.0759510  27.4546037  35.2922312  23.1582071  27.6760984  35.1344000
  24.4919654  27.5292347  34.4334019  24.8594558  28.8537452  30.4224992
  25.6066377  29.3658849  30.1132114  25.1286147  28.5321505  31.2829386
  23.1321208  31.3495993  27.4051947  22.2232427  31.0655026  27.5024416
  23.1616292  31.7695072  26.5455253  28.3640475  34.9602582  31.1743114
  27.9102802  34.1193492  31.2308305  27.7334442  35.5963981  31.5117894
  27.3073395  25.8894568  32.4043782  26.5696152  25.3771955  32.7354024
  27.5600168  25.4494950  31.5927058  26.8073414  36.7979079  32.1092932
  27.0996389  37.3584136  31.3905298  27.3172035  37.0907640  32.8646091
  27.4085022  18.6670820  32.9985551  27.7143899  17.8068184  32.7111466
  28.1337627  19.2588441  32.7984545  13.7009378  29.0701507  31.3867149
  13.5033778  28.4770868  30.6618215  13.1456042  28.7653717  32.1043088
  21.6806102  28.9624614  33.5061742  21.7354712  28.0098450  33.4304218
  20.8697304  29.1184053  33.9903040  22.8297296  32.8904737  24.7440025
  22.3916726  32.1740596  24.2845662  23.5707736  33.1180851  24.1825116
  19.6198462  27.5801673  31.2652121  18.8066327  27.8795844  31.6717313
  20.1157456  27.1857362  31.9826603  21.7707040  37.5759430  33.1986385
  21.7283218  37.8020277  32.2694917  22.6869739  37.3422805  33.3472187
  25.2172673  28.0443498  40.0967015  25.5722061  28.2714971  40.9561480
  25.8644805  28.3761875  39.4744270  30.9470410  31.1661934  30.8016344
  30.8088309  31.3563530  29.8737533  30.5906629  31.9281316  31.2584395
  19.1112537  25.1520029  36.8813356  19.7511916  25.0108788  36.1836319
  18.2790067  24.8654542  36.5051958  30.9739790  33.2338461  35.8127615
  31.4076297  33.1413750  36.6610669  31.6871371  33.2095961  35.1747631
  19.8872840  34.4522459  32.9948348  20.6813439  33.9572779  32.7930923
  19.1764533  33.9240322  32.6316054  24.7067685  36.8340555  37.3460716
  24.7604707  37.4031491  38.1138432  23.8382466  37.0042440  36.9814753
  16.1955604  28.5965541  29.0708101  15.2653192  28.5349996  29.2878063
  16.2913076  28.0741494  28.2744742  16.1141153  25.1220354  31.6586342
  16.3747970  26.0365687  31.5495503  16.9358325  24.6544796  31.8082955
  17.5866078  26.5358111  38.8285167  18.2589132  26.3275473  38.1797816
  16.7595865  26.3380197  38.3890399  31.8355340  33.2762161  38.3460501
  32.0291230  34.1807972  38.5919775  31.7355958  32.8169580  39.1799086
  23.4891650  23.1620052  40.8450828  22.8419565  23.8610002  40.7515304
  24.2592666  23.5956196  41.2127076  26.8970448  33.4268904  43.9201381
  26.7455955  33.1979456  43.0031465  26.8875128  34.3839505  43.9332726
  23.6655785  31.0000817  38.9047648  24.5947845  31.1511976  38.7316615
  23.2446815  31.0884838  38.0496294  22.4644116  35.0251481  36.6746185
  22.3255202  34.6570266  37.5472123  21.6758713  35.5399121  36.5030143
  23.0592268  40.1260578  28.0171722  23.2344024  39.6548621  28.8317344
  22.3725056  40.7526344  28.2452982  24.0149332  34.4033084  34.0635023
  23.6799164  34.3633854  34.9592673  23.5153277  33.7377800  33.5905433
  17.9893576  29.8100714  39.5887604  17.8513373  29.0780953  40.1899143
  18.8998499  29.7209614  39.3071792  26.9508523  31.7489118  24.3372083
  26.3337694  31.0235946  24.2405135  26.4825012  32.5098479  23.9939157
  20.6175876  29.5220673  39.0771284  21.3275495  28.8813865  39.0357902
  20.5745184  29.7733568  39.9997465  28.6062655  36.4588027  41.9977863
  28.5475201  35.7747247  41.3308446  29.0082173  37.2007017  41.5458489
  19.3304810  26.5085891  40.8966923  18.7942167  26.0576630  41.5488520
  18.7421519  26.6431800  40.1537388  17.6253354  43.2749940  34.7911582
  17.8649952  43.9068465  35.4690601  16.7822550  42.9237980  35.0776941
  28.6080062  34.4227611  40.2291843  27.7206841  34.0853532  40.3518242
  29.1778613  33.6910642  40.4660608  10.2609209  30.7551702  33.5534894
  10.9480249  30.4413432  32.9655909  10.1057338  31.6593067  33.2802146
  15.0643931  25.6441899  37.9819918  14.9802120  25.0367568  37.2470328
  14.2426638  26.1350917  37.9829414  22.1381216  39.0829063  37.1953086
  22.0651387  39.8884034  37.7072390  21.6958609  39.2821029  36.3701107
  21.9270995  38.3200833  30.7055907  21.1438517  38.8622513  30.7994132
  22.6263740  38.8374813  31.1050149  25.2367645  24.1295462  33.3490113
  25.7336345  23.3765425  33.0291183  24.4654627  24.1659779  32.7833322
  33.0897403  29.8335828  34.9908404  33.0787279  30.7160543  34.6202337
  32.2214782  29.4807379  34.7962941  24.5979899  38.9815897  39.3511245
  25.3107871  39.6163362  39.2787146  24.1069928  39.0779763  38.5351246
  26.3197426  32.8867150  30.9228536  25.3853705  33.0068612  30.7533241
  26.4974094  31.9839616  30.6588546  21.8202614  26.2712845  33.0761797
  21.4500402  25.7183886  33.7642703  22.3161707  25.6670979  32.5236797
  29.7069977  28.7284469  31.4578570  30.1730430  29.5612460  31.3838873
  30.1577478  28.2629450  32.1623829  19.6491813  36.7310340  40.1716815
  20.3501272  37.3646823  40.3246210  19.1786928  37.0725072  39.4112455
  27.7746208  35.0728290  28.4564722  28.0506052  34.9584885  29.3658597
  26.9050707  34.6745775  28.4176896  27.6786640  21.0965056  35.4969472
  26.7649720  21.3269283  35.6651679  28.1079742  21.1803500  36.3483504
  27.4493099  29.2854948  37.9969366  26.7964549  29.5330855  37.3421819
  27.8273478  28.4719086  37.6631843  24.4100272  39.3214641  32.0997536
  24.5922667  38.5036297  32.5625288  25.2333258  39.5382333  31.6622426
  24.7442438  38.2482826  29.3612585  25.2730204  37.7375281  28.7482747
  25.0070658  37.9325356  30.2258118  23.4980672  30.0274759  44.4835403
  22.8221309  29.9268888  45.1537778  24.3208305  29.8713973  44.9471400
  15.2459531  36.2646695  37.1047918  15.8312967  35.5190383  37.2375822
  15.0484369  36.5750652  37.9884582  18.0998186  39.2997943  32.1210360
  17.4308561  39.7844070  31.6374401  17.9611056  39.5467163  33.0353739
   9.8377185  28.8352296  35.8252361   9.8761285  28.3015886  36.6189479
   9.3317478  28.3087501  35.2063338  22.2403454  41.3341686  38.7193019
  22.7921763  41.4973308  39.4842104  22.5809648  41.9246124  38.0473044
  17.2167948  23.6816836  39.3214904  17.2809274  24.5431667  38.9092301
  17.1535068  23.0690838  38.5887262  16.6920220  25.7539969  42.9687938
  17.3192259  25.3717046  43.5825462  15.8348139  25.5354171  43.3343630
  27.0914329  36.1602944  44.5741673  27.6354233  36.7732902  44.0796628
  26.5101174  36.7182522  45.0908686  13.4685763  27.5616398  28.9006293
  13.7639204  26.6527076  28.8473346  12.5673799  27.5404137  28.5787295
  25.3771842  39.2823662  35.7056701  25.2522981  38.4813402  35.1967646
  26.0350933  39.7769855  35.2170671  16.9980010  25.6372394  34.8833841
  16.2766596  26.2508362  34.7441315  17.7873266  26.1730159  34.8050487
  27.4406750  37.0832682  37.3336251  26.4937086  36.9638033  37.2614578
  27.7889523  36.1955180  37.4162513  19.8006324  22.9726821  41.1574493
  20.3240725  23.2189117  41.9200802  19.5818657  23.8046856  40.7377630
  15.1973605  25.2430495  29.0245618  14.8686311  24.3627874  28.8420724
  15.5512975  25.1878164  29.9122007  24.4453183  36.8785398  33.5340603
  24.2978146  35.9502106  33.7148173  25.2706677  36.9005489  33.0497679
  18.3115428  25.5303465  29.3921095  18.6511500  26.0589387  28.6699704
  18.7587548  25.8683871  30.1679662  28.0487305  37.7013957  34.6205476
  28.9733853  37.4956818  34.4829927  27.8802609  37.4530358  35.5294818
  21.0058869  23.9140516  38.8424164  20.6655689  23.1148329  39.2444843
  20.2997875  24.2142227  38.2700997  21.6575340  20.9989828  37.2951487
  22.4801410  20.5250307  37.1730377  21.9013404  21.7780312  37.7950173
  20.2983575  24.0278087  27.5914388  21.0191937  24.4059340  27.0878105
  19.6748879  24.7466964  27.6949366  24.4414698  24.7323236  28.5272721
  24.6578312  25.6147874  28.2261549  23.9608765  24.3409449  27.7978363
  19.1813919  27.6908949  35.1043465  19.0358500  28.0049252  35.9967747
  18.7039123  28.3093849  34.5514364  21.0410302  24.6811497  35.1524355
  21.0271871  23.7852590  34.8156653  21.7582730  24.6882161  35.7862641
  22.8936433  25.1148837  37.1977482  22.6354211  26.0365908  37.1961813
  22.3621473  24.7179272  37.8877946  27.8382622  38.2199624  29.9767568
  28.0119499  37.6546047  29.2241420  28.3311513  39.0200519  29.7947057
  13.6559581  30.2314293  38.0431126  13.1113049  31.0074101  38.1751401
  14.5338931  30.5785098  37.8850248  20.4447198  23.5625877  30.4211925
  20.5663109  22.6342523  30.6202812  20.1549240  23.5764563  29.5090240
  23.3138388  21.2480788  33.5578645  23.3360085  21.3120121  32.6030624
  23.7306447  20.4085296  33.7519151  33.6922013  30.9836047  31.5957867
  34.1353159  30.2343373  31.1976991  32.8148523  30.9746184  31.2131599
  28.8257794  37.5366389  27.0764466  29.5208699  38.1573081  27.2951780
  29.1680944  36.6861740  27.3516844  14.4425603  29.3584190  40.9361283
  13.7007339  29.5066825  41.5225914  14.1218347  29.6192455  40.0728033
  30.7249217  34.9866094  28.6051797  31.2500541  35.3253367  27.8801117
  30.6371570  34.0513110  28.4214931  22.3869266  38.9000168  40.7341673
  22.6956392  38.6549315  41.6064373  23.1844748  39.1046806  40.2460543
  22.4089878  41.0538078  32.9647050  21.9694868  40.5614456  33.6579906
  23.1597995  40.5111045  32.7239125  14.8882217  37.2449618  32.9671678
  15.7140237  36.9453390  32.5870321  14.5376269  36.4757241  33.4161466
  19.8563750  36.5976087  35.0369351  19.2343759  35.9346792  34.7371579
  20.5268617  36.6237219  34.3542999  13.0890822  35.1635945  33.9260611
  12.2522730  34.7358119  33.7444613  13.0614467  35.3568388  34.8631403
  19.9288277  25.0757875  44.6301857  19.9776433  25.9519997  44.2479627
  20.4710792  24.5335268  44.0573501  30.4143123  35.6198998  43.9102995
  29.6238667  35.6023137  43.3707494  30.1776478  36.1587292  44.6652031
  30.5340998  32.4691464  41.2235723  30.5839003  32.3041472  42.1651246
  30.4254922  31.6018723  40.8333604  19.4177257  35.1480010  28.5127812
  19.5665377  35.8315474  27.8594485  20.2243700  35.1285100  29.0277268
  27.8244761  28.4522392  42.5395030  28.7254623  28.3128857  42.2479028
  27.8992735  28.6176847  43.4793207  22.1587566  25.8289247  41.3848216
  21.2890875  26.1222813  41.1130805  22.3947046  26.4129692  42.1055480
  32.0359195  34.8888406  41.4677745  31.7444003  35.2518386  42.3041206
  31.4231326  34.1755414  41.2891077  33.2354877  32.4541286  33.9880315
  34.0701769  32.8931090  34.1517875  33.3714006  31.9779939  33.1688561
  30.2846383  30.0121020  39.9357803  30.7600505  30.2048667  39.1276654
  29.3611949  30.0680206  39.6901186  17.1729890  31.1745188  29.5188881
  16.9275932  30.2707518  29.7169091  17.3425804  31.1762338  28.5768359
  24.8626600  22.0468864  38.9013636  25.3808544  22.7829891  38.5760125
  24.5081733  22.3532857  39.7360396  16.4425537  26.9073545  27.0175042
  15.7494782  26.9817900  26.3615078  16.1977289  26.1433889  27.5396559
  25.1139194  18.4669147  34.4214533  25.3940948  17.7992336  35.0474960
  25.8989801  18.6598242  33.9089197  22.9172662  37.6428140  25.9839559
  22.3446630  38.2618328  25.5310031  23.4905456  38.1927502  26.5179481
  28.9848052  26.8886781  38.1686108  29.9365475  26.9884878  38.1898332
  28.8151503  26.0965049  38.6784193  27.0062432  23.9742364  38.3545509
  26.4112364  24.2547376  37.6591998  26.7212128  24.4636265  39.1262250
  26.1369922  37.9265291  27.1148142  27.0700595  37.8610852  27.3181017
  26.0493135  38.7621557  26.6562674  28.7657939  37.2431161  24.0752089
  28.6871570  36.9091025  24.9687847  29.5867606  37.7352929  24.0743562
  31.4636130  30.1092900  37.2828408  31.4312450  29.1708901  37.4688092
  32.0736754  30.1876937  36.5494233  23.3019461  28.9788953  23.3255612
  24.2478566  28.8495161  23.3944030  22.9233706  28.2403615  23.8025040
  31.6130619  26.9003944  37.3286691  31.0969667  26.1162400  37.1416620
  32.4970567  26.5722660  37.4933211  29.2741345  20.6444959  33.2882504
  29.0766167  20.3360047  34.1725836  29.8841051  21.3706598  33.4180434
  37.2812680  31.1708907  36.4234445  38.0116068  30.9094195  36.9842148
  36.6719625  30.4337629  36.4636513  35.3627977  29.3116770  37.0208896
  34.6361141  29.1772735  36.4125387  34.9475264  29.6193598  37.8265614
  23.1858153  33.0306699  44.7856269  24.1061163  33.2085298  44.9796315
  23.1507737  32.0862745  44.6335968  12.4040318  28.2245293  33.7109544
  12.0843103  27.3710601  33.4183918  11.8573747  28.4393871  34.4667511
  16.1820226  30.9407734  37.4279050  16.4006236  31.8724842  37.4467084
  16.5946000  30.5815708  38.2133854  23.1024444  21.4475819  29.4154738
  22.2925172  21.1022904  29.7909984  23.7908861  21.1383363  30.0042350
  25.0314992  20.5253866  31.0379035  25.5846031  20.9449320  31.6969058
  25.2685078  19.5989614  31.0801991  21.0548091  26.5140940  46.8181799
  20.9544818  27.4635297  46.7493890  20.8369633  26.1859179  45.9457869
  12.2728578  31.8448204  35.6802665  11.5792050  31.4302157  35.1672620
  13.0201569  31.8868741  35.0836084  28.4093799  22.6354391  30.5457699
  27.8292468  23.2939195  30.1635752  28.1429732  21.8131736  30.1345117
  26.8597366  22.0359449  32.7479020  27.3597144  22.1475984  31.9393338
  27.5032973  21.7320502  33.3879828  20.9179361  29.9438079  45.6346861
  20.4346443  30.7438439  45.8410750  21.0040300  29.9546023  44.6814305
  14.1865321  31.7766458  33.5568680  14.1636009  31.8754146  32.6050563
  14.4965957  32.6231609  33.8785846  16.8452699  33.8342613  37.6715294
  17.7995952  33.8026556  37.6045226  16.6465222  33.3733237  38.4865520
  17.4352081  32.4043729  40.2386092  18.2544970  32.8987808  40.2620929
  17.7088889  31.4875697  40.2103660  27.1918677  24.7954482  29.6014048
  26.3044532  25.0804132  29.3834242  27.6072666  24.6348245  28.7541324
  30.5433213  24.8201003  33.3168387  31.3193603  25.3097455  33.5893004
  29.8181348  25.2459057  33.7740256  32.9805772  25.5328622  34.3742327
  33.5750263  25.2924358  33.6635636  33.0532356  24.8135752  35.0015864
  15.2002928  39.3762233  34.6885492  15.0657396  38.6162634  34.1223490
  14.7834990  40.1003133  34.2214281  26.3361891  34.5599156  23.6962068
  27.0397741  34.7649159  24.3119723  25.6124539  35.1275918  23.9611151
  27.1659701  30.3109018  29.8164338  27.1094902  30.7677569  28.9771970
  27.7188043  29.5499702  29.6387180  30.9764507  26.0998749  30.6414457
  30.7201441  25.6995385  31.4722665  30.3517375  26.8142543  30.5164596
  35.2876845  28.8394823  33.1485749  34.7276403  28.9088012  33.9217311
  34.6820348  28.6635807  32.4285245  18.3572054  40.2731550  34.9003935
  18.2404438  41.2176982  34.7982625  17.5364500  39.9705111  35.2889734
  28.2448588  34.9981686  25.7460528  29.0794192  34.5662884  25.5638002
  28.0832931  34.8263699  26.6737422  27.8994480  31.5013799  27.1116867
  27.8443284  31.3358070  26.1705311  27.2740536  32.2089832  27.2679057
  12.6886995  26.7381863  40.9378289  13.3345859  26.2280817  41.4265514
  12.4804146  27.4750545  41.5121714  25.2140387  33.8062711  46.4370430
  26.0831547  33.9803363  46.0757065  24.7347139  34.6257128  46.3146159
  21.2090606  21.0021908  26.6902185  21.1969276  21.9463748  26.8470456
  22.1014028  20.8192053  26.3961647  19.3826568  40.9259812  38.1159863
  20.2853814  40.9583422  38.4326358  19.1563938  39.9960263  38.1306199
  21.1380170  39.6790798  34.7769942  20.1875801  39.6792660  34.6634314
  21.4412656  38.9323533  34.2605977  25.0242725  17.5964684  30.9448122
  24.2575121  17.0423171  31.0904804  25.4353430  17.6686553  31.8062274
  17.0284486  23.8849480  45.0353303  17.8915948  23.5286285  45.2456628
  16.4549897  23.5463375  45.7228708  36.8732863  45.5151337  35.8415704
  37.5111273  45.3958084  35.1379044  36.7553706  46.4632181  35.9003656
  33.6822569  45.4678765  35.7777229  33.3441081  45.3519829  34.8897764
  34.5512338  45.0669930  35.7578235  29.5409385  47.3214241  31.7674120
  28.9774250  47.2304178  30.9990408  29.4261780  46.5014146  32.2476613
  34.1642352  46.6213616  41.7363435  34.1530993  46.2266415  40.8643938
  34.3262992  45.8879689  42.3297206  27.0873817  48.8165433  34.6058340
  27.8795109  48.4756257  34.1904640  27.3270467  48.9260408  35.5260494
  35.1208944  50.9885209  27.0788585  34.4696924  51.5739289  26.6922599
  35.9153307  51.5191404  27.1383622  29.0464571  48.0774346  27.4775719
  29.8195447  47.5303333  27.3388595  29.3989970  48.9418595  27.6890181
  30.8849614  49.4050728  40.6842619  30.5939480  50.3096359  40.5689285
  31.5206598  49.4467256  41.3986688  31.8105820  46.7827577  37.2743978
  32.4069393  46.5583599  36.5600941  31.8680792  46.0412322  37.8769426
  31.3830849  44.2367012  25.1094169  31.6356370  43.7148533  24.3477632
  30.4455408  44.0733158  25.2120853  36.4274132  43.2402790  32.9168912
  37.2137221  42.8222214  32.5659329  36.6912836  44.1448883  33.0850561
  36.5984209  48.6775641  27.6157569  35.9630042  48.7510267  28.3278474
  36.2681615  49.2669240  26.9376648  41.8282559  43.1778024  33.8201891
  42.5607731  42.6077240  34.0539720  41.0721914  42.7899624  34.2608396
  31.1027138  46.1395118  27.3118544  30.9863396  45.4640021  27.9799628
  31.2129397  45.6527492  26.4950697  33.4458679  45.6005265  31.0165233
  33.0816886  45.0735886  31.7278155  34.3025794  45.2103734  30.8431719
  39.3507979  36.8899598  38.2796499  39.0191304  37.7595009  38.0557714
  38.7553593  36.5735882  38.9590530  33.0864165  40.6295165  26.0126582
  33.2538568  41.4975401  26.3797053  32.8961335  40.7922447  25.0887871
  35.8439499  49.0912144  37.6792412  35.5440222  49.9937183  37.5708219
  35.4990558  48.8244327  38.5313565  29.2951980  45.5425941  33.7129117
  28.3702477  45.4102155  33.9206808  29.5436393  46.3220160  34.2099059
  39.2436642  41.6094684  35.3589850  38.3353520  41.5410092  35.0648611
  39.1924238  42.0866629  36.1871675  33.0653386  43.0852822  26.9973249
  32.9453012  43.5309873  27.8358729  32.3705975  43.4338140  26.4386787
  26.6560791  45.1859214  34.5472906  26.7853172  45.4393693  35.4612317
  25.9758242  45.7786922  34.2277561  30.8260278  55.8556464  30.6463380
  30.7484308  56.8064289  30.7251860  30.2221922  55.5102337  31.3038306
  33.3177508  43.0284330  43.3024747  32.5410842  43.5878250  43.2927611
  33.9568071  43.5141113  43.8239617  41.1098289  39.8111122  37.1367723
  40.4672669  40.1043656  36.4907518  40.6053217  39.6964043  37.9420920
  38.7638453  43.5574296  27.8253583  39.6756309  43.7901682  27.6501280
  38.2548100  44.1411340  27.2628661  31.5723881  45.8369783  42.8642714
  32.3138565  46.3754827  42.5877537  30.8660866  46.4636072  43.0214266
  37.0479220  47.9798923  41.4614875  37.4562576  47.5381334  40.7169508
  36.3256482  47.4051551  41.7149068  33.4010290  42.9171530  38.8348432
  34.2471485  43.3410944  38.9783081  33.3408928  42.2605154  39.5286995
  37.3708035  48.5400114  35.2167164  36.7416897  48.7045828  34.5143232
  36.9833697  48.9541724  35.9878128  41.2497267  49.4754552  32.5711528
  40.5648305  49.8553453  32.0208561  41.3341116  50.0849879  33.3043476
  36.5509736  40.5775899  40.4929606  36.3070667  41.3317959  39.9563882
  36.8269666  40.9561246  41.3276853  38.5048198  47.1214511  39.1706871
  38.7165094  47.7646271  38.4941253  38.4577947  46.2876827  38.7028802
  36.1074427  39.7332332  36.0743444  35.2458906  40.0313585  36.3660181
  36.1336862  39.9502730  35.1424476  32.9235997  48.2774522  32.4817249
  33.3874342  48.5562225  31.6921872  32.6592795  47.3757967  32.2990340
  29.8160078  47.8246004  35.4197013  30.3861435  48.2533272  34.7814497
  30.4068190  47.5428588  36.1181198  31.8604883  44.3997674  29.2906814
  32.5628926  44.8518718  29.7580741  31.5285511  43.7581493  29.9186708
  30.3085244  42.9909431  43.6658024  29.6783905  43.6725712  43.8993421
  30.2021332  42.8792513  42.7211162  25.6030217  42.6581227  34.5923948
  24.8129271  42.9138756  34.1164059  26.0941464  43.4729565  34.6975989
  39.6194026  49.9986466  37.3429229  40.4411470  49.5966654  37.0611910
  39.6156429  49.8954700  38.2945345  27.5544962  43.0225806  31.5507425
  26.7576125  43.1344501  32.0690920  27.3270554  43.3612459  30.6848315
  33.3850630  49.5470510  39.4989939  33.4495062  50.0090917  40.3348111
  32.6761554  48.9167875  39.6272249  23.8867920  42.9111718  37.0238939
  24.1375958  43.7958727  37.2896515  24.4227468  42.7316319  36.2514031
  47.7100019  46.3425215  33.6914200  46.9563728  45.7732613  33.5358205
  47.8447561  46.3087879  34.6384835  33.0998647  51.2138617  29.3668920
  32.9644322  52.0590153  29.7953767  33.6408460  51.4157895  28.6034853
  29.5865987  37.2930197  46.0283275  29.1932933  36.7396395  46.7030919
  30.4032127  37.6040775  46.4189792  26.5528045  48.7314055  29.9396845
  27.0652565  49.5257305  30.0902409  27.2050758  48.0340346  29.8730446
  28.3622929  51.8479811  32.0219598  28.5389558  52.7697776  31.8340582
  29.1579763  51.5338231  32.4513978  32.5033948  38.7088076  43.6203531
  33.2443661  39.3095229  43.5407994  32.7351871  37.9665714  43.0621574
  27.6475286  43.8944443  41.8981761  27.5328801  42.9929701  42.1988860
  26.7919804  44.1408140  41.5466578  34.7267124  51.8362184  43.4969262
  34.2830978  51.0498562  43.1790166  35.3884337  52.0241334  42.8313153
  29.4854245  53.3657985  38.0229940  30.0361670  53.2375049  37.2506934
  28.6465721  53.6652874  37.6724833  36.8248362  52.1164984  41.5250663
  36.8066837  52.9373865  41.0330932  37.7468282  51.9919059  41.7500804
  33.2821416  49.6309113  42.3674171  33.8149753  48.8697401  42.1373479
  32.7535497  49.3382765  43.1098326  36.4491111  34.7369179  37.8967813
  36.1055380  35.6270821  37.8206924  36.8170074  34.5470837  37.0337398
  24.5176962  47.0602709  30.7156415  25.3552184  47.4699718  30.4990123
  24.6955229  46.1202152  30.6856609  36.4141394  44.7277790  26.4040248
  35.8988017  45.4982395  26.6428636  36.1418702  44.0542926  27.0273310
  33.9988505  39.5727491  31.4625487  33.1430101  39.1834341  31.2831125
  34.4115456  39.6519452  30.6025272  35.5287651  37.1073834  35.8617046
  35.0252447  37.0703969  35.0484852  35.8218258  38.0166577  35.9213703
  31.7730537  37.1912564  34.8683228  32.6383534  36.9955373  34.5089118
  31.8408046  36.9622916  35.7952585  41.3875668  47.4810145  28.3393422
  40.6105111  47.1421304  27.8948584  42.0667149  47.4862768  27.6648387
  36.2027697  42.6004882  28.2300029  35.8977832  42.9151031  29.0810173
  37.1558139  42.6786302  28.2727362  34.6474129  48.7595105  29.8792983
  34.1195490  48.0247865  29.5666221  34.1461631  49.5369782  29.6332952
  39.6266975  46.9544126  34.9960030  38.9690649  47.6443387  35.0840158
  40.4307374  47.3440558  35.3394016  29.3792856  39.4214772  32.2399595
  29.9536608  39.1989953  31.5072788  29.9663839  39.4903466  32.9928196
  38.4372434  45.3088499  33.0463971  38.9504315  45.9418491  33.5485681
  39.0873657  44.7089694  32.6807331  29.7062443  41.4519233  26.2595480
  28.8699756  41.7893919  26.5804755  29.5667213  41.3168213  25.3222617
  31.6815524  36.2956021  30.9674664  31.0279936  35.9805038  30.3431279
  31.6395998  35.6731761  31.6934487  32.7926729  46.5775316  22.8827956
  31.8853791  46.3464569  23.0819105  33.2897761  45.7812935  23.0701938
  35.6994808  55.2872823  25.8024643  35.0256507  55.5904520  26.4109600
  36.0860630  56.0901903  25.4530100  34.9153264  42.7837954  35.2922312
  33.9975826  43.0052901  35.1344000  35.3313408  42.8584265  34.4334019
  35.6988312  44.1829370  30.4224992  36.4460131  44.6950767  30.1132114
  35.9679902  43.8613423  31.2829386  33.9714962  46.6787911  27.4051947
  33.0626182  46.3946943  27.5024416  34.0010046  47.0986989  26.5455253
  39.2034230  50.2894500  31.1743114  38.7496557  49.4485410  31.2308305
  38.5728196  50.9255898  31.5117894  38.1467149  41.2186486  32.4043782
  37.4089906  40.7063872  32.7354024  38.3993923  40.7786868  31.5927058
  37.6467169  52.1270997  32.1092932  37.9390143  52.6876054  31.3905298
  38.1565790  52.4199558  32.8646091  38.2478777  33.9962738  32.9985551
  38.5537653  33.1360102  32.7111466  38.9731381  34.5880358  32.7984545
  24.5403133  44.3993425  31.3867149  24.3427533  43.8062785  30.6618215
  23.9849797  44.0945635  32.1043088  32.5199856  44.2916531  33.5061742
  32.5748466  43.3390368  33.4304218  31.7091058  44.4475970  33.9903040
  33.6691050  48.2196654  24.7440025  33.2310480  47.5032513  24.2845662
  34.4101491  48.4472769  24.1825116  30.4592216  42.9093591  31.2652121
  29.6460082  43.2087762  31.6717313  30.9551210  42.5149280  31.9826603
  32.6100794  52.9051348  33.1986385  32.5676973  53.1312194  32.2694917
  33.5263493  52.6714722  33.3472187  36.0566428  43.3735415  40.0967015
  36.4115816  43.6006889  40.9561480  36.7038559  43.7053792  39.4744270
  41.7864165  46.4953851  30.8016344  41.6482063  46.6855447  29.8737533
  41.4300384  47.2573234  31.2584395  29.9506291  40.4811946  36.8813356
  30.5905670  40.3400706  36.1836319  29.1183822  40.1946460  36.5051958
  41.8133545  48.5630378  35.8127615  42.2470051  48.4705667  36.6610669
  42.5265125  48.5387879  35.1747631  30.7266595  49.7814377  32.9948348
  31.5207193  49.2864697  32.7930923  30.0158287  49.2532240  32.6316054
  35.5461439  52.1632472  37.3460716  35.5998462  52.7323409  38.1138432
  34.6776221  52.3334357  36.9814753  27.0349358  43.9257459  29.0708101
  26.1046947  43.8641914  29.2878063  27.1306830  43.4033411  28.2744742
  26.9534907  40.4512271  31.6586342  27.2141725  41.3657605  31.5495503
  27.7752080  39.9836714  31.8082955  28.4259833  41.8650029  38.8285167
  29.0982886  41.6567391  38.1797816  27.5989619  41.6672115  38.3890399
  42.6749094  48.6054079  38.3460501  42.8684984  49.5099889  38.5919775
  42.5749712  48.1461498  39.1799086  34.3285405  38.4911970  40.8450828
  33.6813320  39.1901919  40.7515304  35.0986420  38.9248113  41.2127076
  37.7364203  48.7560822  43.9201381  37.5849709  48.5271373  43.0031465
  37.7268882  49.7131423  43.9332726  34.5049539  46.3292734  38.9047648
  35.4341599  46.4803894  38.7316615  34.0840569  46.4176755  38.0496294
  33.3037871  50.3543399  36.6746185  33.1648957  49.9862183  37.5472123
  32.5152467  50.8691038  36.5030143  33.8986023  55.4552495  28.0171722
  34.0737779  54.9840539  28.8317344  33.2118811  56.0818262  28.2452982
  34.8543086  49.7325002  34.0635023  34.5192919  49.6925772  34.9592673
  34.3547032  49.0669718  33.5905433  28.8287330  45.1392632  39.5887604
  28.6907128  44.4072870  40.1899143  29.7392254  45.0501532  39.3071792
  37.7902278  47.0781036  24.3372083  37.1731448  46.3527864  24.2405135
  37.3218766  47.8390396  23.9939157  31.4569631  44.8512591  39.0771284
  32.1669249  44.2105783  39.0357902  31.4138939  45.1025486  39.9997465
  39.4456409  51.7879944  41.9977863  39.3868956  51.1039164  41.3308446
  39.8475928  52.5298934  41.5458489  30.1698565  41.8377809  40.8966923
  29.6335922  41.3868547  41.5488520  29.5815273  41.9723718  40.1537388
  28.4647108  58.6041858  34.7911582  28.7043706  59.2360382  35.4690601
  27.6216305  58.2529898  35.0776941  29.5800824  41.2966460  23.4593387
  28.7030290  41.1755261  23.0955634  30.0558577  40.5052539  23.2072276
  39.4473817  49.7519528  40.2291843  38.5600595  49.4145450  40.3518242
  40.0172368  49.0202559  40.4660608  21.1002964  46.0843620  33.5534894
  21.7874004  45.7705350  32.9655909  20.9451092  46.9884985  33.2802146
  25.9037686  40.9733817  37.9819918  25.8195875  40.3659486  37.2470328
  25.0820392  41.4642835  37.9829414  32.9774970  54.4120981  37.1953086
  32.9045142  55.2175952  37.7072390  32.5352363  54.6112946  36.3701107
  32.7664750  53.6492751  30.7055907  31.9832272  54.1914431  30.7994132
  33.4657495  54.1666730  31.1050149  36.0761400  39.4587380  33.3490113
  36.5730099  38.7057342  33.0291183  35.3048381  39.4951697  32.7833322
  43.9291157  45.1627746  34.9908404  43.9181033  46.0452461  34.6202337
  43.0608537  44.8099296  34.7962941  35.4373654  54.3107815  39.3511245
  36.1501626  54.9455279  39.2787146  34.9463682  54.4071681  38.5351246
  37.1591180  48.2159067  30.9228536  36.2247459  48.3360530  30.7533241
  37.3367849  47.3131534  30.6588546  32.6596369  41.6004763  33.0761797
  32.2894156  41.0475803  33.7642703  33.1555461  40.9962897  32.5236797
  40.5463732  44.0576387  31.4578570  41.0124184  44.8904378  31.3838873
  40.9971232  43.5921368  32.1623829  30.4885567  52.0602258  40.1716815
  31.1895027  52.6938741  40.3246210  30.0180682  52.4016990  39.4112455
  38.6139963  50.4020208  28.4564722  38.8899807  50.2876802  29.3658597
  37.7444462  50.0037693  28.4176896  38.5180395  36.4256974  35.4969472
  37.6043474  36.6561200  35.6651679  38.9473496  36.5095418  36.3483504
  38.2886853  44.6146866  37.9969366  37.6358303  44.8622773  37.3421819
  38.6667233  43.8011004  37.6631843  35.2494027  54.6506559  32.0997536
  35.4316421  53.8328215  32.5625288  36.0727013  54.8674251  31.6622426
  35.5836192  53.5774744  29.3612585  36.1123959  53.0667198  28.7482747
  35.8464412  53.2617274  30.2258118  34.3374426  45.3566677  44.4835403
  33.6615063  45.2560806  45.1537778  35.1602060  45.2005890  44.9471400
  26.0853285  51.5938613  37.1047918  26.6706722  50.8482301  37.2375822
  25.8878124  51.9042570  37.9884582  28.9391940  54.6289861  32.1210360
  28.2702316  55.1135988  31.6374401  28.8004810  54.8759081  33.0353739
  20.6770940  44.1644213  35.8252361  20.7155039  43.6307804  36.6189479
  20.1711233  43.6379419  35.2063338  33.0797209  56.6633604  38.7193019
  33.6315517  56.8265226  39.4842104  33.4203402  57.2538042  38.0473044
  28.0561702  39.0108754  39.3214904  28.1203029  39.8723585  38.9092301
  27.9928822  38.3982755  38.5887262  27.5313975  41.0831886  42.9687938
  28.1586014  40.7008964  43.5825462  26.6741894  40.8646088  43.3343630
  37.9308083  51.4894862  44.5741673  38.4747987  52.1024820  44.0796628
  37.3494928  52.0474440  45.0908686  24.3079517  42.8908315  28.9006293
  24.6032959  41.9818994  28.8473346  23.4067553  42.8696055  28.5787295
  36.2165596  54.6115580  35.7056701  36.0916736  53.8105319  35.1967646
  36.8744687  55.1061773  35.2170671  27.8373764  40.9664312  34.8833841
  27.1160350  41.5800280  34.7441315  28.6267020  41.5022077  34.8050487
  38.2800505  52.4124600  37.3336251  37.3330840  52.2929951  37.2614578
  38.6283278  51.5247098  37.4162513  30.6400078  38.3018739  41.1574493
  31.1634480  38.5481035  41.9200802  30.4212411  39.1338773  40.7377630
  26.0367359  40.5722413  29.0245618  25.7080065  39.6919792  28.8420724
  26.3906730  40.5170082  29.9122007  35.2846938  52.2077316  33.5340603
  35.1371900  51.2794023  33.7148173  36.1100431  52.2297407  33.0497679
  29.1509182  40.8595383  29.3921095  29.4905255  41.3881304  28.6699704
  29.5981303  41.1975789  30.1679662  38.8881060  53.0305875  34.6205476
  39.8127607  52.8248736  34.4829927  38.7196363  52.7822276  35.5294818
  31.8452623  39.2432434  38.8424164  31.5049443  38.4440247  39.2444843
  31.1391629  39.5434145  38.2700997  32.4969095  36.3281746  37.2951487
  33.3195164  35.8542224  37.1730377  32.7407158  37.1072230  37.7950173
  31.1377329  39.3570005  27.5914388  31.8585692  39.7351257  27.0878105
  30.5142633  40.0758881  27.6949366  35.2808452  40.0615154  28.5272721
  35.4972067  40.9439791  28.2261549  34.8002519  39.6701367  27.7978363
  30.0207674  43.0200867  35.1043465  29.8752254  43.3341170  35.9967747
  29.5432877  43.6385767  34.5514364  31.8804057  40.0103415  35.1524355
  31.8665625  39.1144508  34.8156653  32.5976485  40.0174078  35.7862641
  33.7330187  40.4440755  37.1977482  33.4747965  41.3657826  37.1961813
  33.2015228  40.0471189  37.8877946  38.6776376  53.5491542  29.9767568
  38.8513254  52.9837965  29.2241420  39.1705267  54.3492437  29.7947057
  24.4953336  45.5606211  38.0431126  23.9506804  46.3366019  38.1751401
  25.3732686  45.9077016  37.8850248  31.2840952  38.8917795  30.4211925
  31.4056864  37.9634441  30.6202812  30.9942995  38.9056481  29.5090240
  34.1532143  36.5772705  33.5578645  34.1753840  36.6412039  32.6030624
  34.5700202  35.7377214  33.7519151  44.5315767  46.3127965  31.5957867
  44.9746913  45.5635290  31.1976991  43.6542277  46.3038101  31.2131599
  39.6651548  52.8658306  27.0764466  40.3602453  53.4864999  27.2951780
  40.0074699  52.0153658  27.3516844  25.2819358  44.6876107  40.9361283
  24.5401094  44.8358743  41.5225914  24.9612102  44.9484373  40.0728033
  41.5642972  50.3158012  28.6051797  42.0894296  50.6545285  27.8801117
  41.4765324  49.3805027  28.4214931  33.2263020  54.2292086  40.7341673
  33.5350147  53.9841232  41.6064373  34.0238502  54.4338724  40.2460543
  33.2483632  56.3829995  32.9647050  32.8088623  55.8906374  33.6579906
  33.9991749  55.8402963  32.7239125  25.7275971  52.5741536  32.9671678
  26.5533991  52.2745308  32.5870321  25.3770023  51.8049159  33.4161466
  30.6957504  51.9268004  35.0369351  30.0737514  51.2638709  34.7371579
  31.3662371  51.9529136  34.3542999  23.9284576  50.4927863  33.9260611
  23.0916485  50.0650037  33.7444613  23.9008222  50.6860306  34.8631403
  30.7682032  40.4049792  44.6301857  30.8170187  41.2811915  44.2479627
  31.3104546  39.8627185  44.0573501  41.3734753  47.7983382  41.2235723
  41.4232758  47.6333389  42.1651246  41.2648676  46.9310641  40.8333604
  30.2571011  50.4771928  28.5127812  30.4059132  51.1607392  27.8594485
  31.0637455  50.4577018  29.0277268  38.6638515  43.7814310  42.5395030
  39.5648378  43.6420775  42.2479028  38.7386490  43.9468765  43.4793207
  32.9981320  41.1581165  41.3848216  32.1284630  41.4514731  41.1130805
  33.2340801  41.7421610  42.1055480  42.8752950  50.2180323  41.4677745
  42.5837758  50.5810304  42.3041206  42.2625081  49.5047332  41.2891077
  44.0748632  47.7833203  33.9880315  44.9095523  48.2223007  34.1517875
  44.2107761  47.3071856  33.1688561  41.1240138  45.3412938  39.9357803
  41.5994259  45.5340584  39.1276654  40.2005703  45.3972124  39.6901186
  28.0123644  46.5037105  29.5188881  27.7669686  45.5999435  29.7169091
  28.1819559  46.5054256  28.5768359  35.7020354  37.3760782  38.9013636
  36.2202298  38.1121809  38.5760125  35.3475487  37.6824775  39.7360396
  27.2819292  42.2365463  27.0175042  26.5888537  42.3109818  26.3615078
  27.0371044  41.4725807  27.5396559  35.9532948  33.7961064  34.4214533
  36.2334702  33.1284253  35.0474960  36.7383555  33.9890160  33.9089197
  33.7566417  52.9720058  25.9839559  33.1840384  53.5910245  25.5310031
  34.3299211  53.5219420  26.5179481  39.8241807  42.2178698  38.1686108
  40.7759230  42.3176796  38.1898332  39.6545257  41.4256967  38.6784193
  37.8456186  39.3034281  38.3545509  37.2506118  39.5839294  37.6591998
  37.5605883  39.7928182  39.1262250  36.9763677  53.2557208  27.1148142
  37.9094350  53.1902770  27.3181017  36.8886890  54.0913475  26.6562674
  39.6051693  52.5723079  24.0752089  39.5265325  52.2382942  24.9687847
  40.4261360  53.0644847  24.0743562  42.3029885  45.4384818  37.2828408
  42.2706205  44.5000819  37.4688092  42.9130508  45.5168855  36.5494233
  34.1413215  44.3080871  23.3255612  35.0872320  44.1787079  23.3944030
  33.7627460  43.5695533  23.8025040  42.4524373  42.2295861  37.3286691
  41.9363422  41.4454318  37.1416620  43.3364322  41.9014578  37.4933211
  40.1135100  35.9736877  33.2882504  39.9159921  35.6651965  34.1725836
  40.7234806  36.6998516  33.4180434  48.1206434  46.5000825  36.4234445
  48.8509823  46.2386113  36.9842148  47.5113380  45.7629547  36.4636513
  46.2021732  44.6408687  37.0208896  45.4754895  44.5064652  36.4125387
  45.7869018  44.9485516  37.8265614  34.0251908  48.3598617  44.7856269
  34.9454917  48.5377216  44.9796315  33.9901491  47.4154662  44.6335968
  32.3256133  42.2330847  23.2610497  31.4187588  41.9363960  23.3373211
  32.6032114  41.9360665  22.3944783  23.2434073  43.5537211  33.7109544
  22.9236857  42.7002519  33.4183918  22.6967501  43.7685789  34.4667511
  27.0213981  46.2699652  37.4279050  27.2399990  47.2016759  37.4467084
  27.4339754  45.9107626  38.2133854  33.9418198  36.7767737  29.4154738
  33.1318927  36.4314822  29.7909984  34.6302615  36.4675281  30.0042350
  35.8708747  35.8545784  31.0379035  36.4239785  36.2741237  31.6969058
  36.1078833  34.9281532  31.0801991  31.8941846  41.8432857  46.8181799
  31.7938573  42.7927214  46.7493890  31.6763388  41.5151096  45.9457869
  31.0954917  39.0917782  23.4022476  31.9574081  39.4172681  23.6618294
  31.2805261  38.3049278  22.8895542  23.1122333  47.1740122  35.6802665
  22.4185804  46.7594075  35.1672620  23.8595324  47.2160659  35.0836084
  39.2487554  37.9646309  30.5457699  38.6686223  38.6231113  30.1635752
  38.9823486  37.1423654  30.1345117  37.6991120  37.3651367  32.7479020
  38.1990898  37.4767901  31.9393338  38.3426728  37.0612419  33.3879828
  31.7573116  45.2729996  45.6346861  31.2740198  46.0730356  45.8410750
  31.8434055  45.2837941  44.6814305  25.0259075  47.1058376  33.5568680
  25.0029764  47.2046063  32.6050563  25.3359712  47.9523527  33.8785846
  27.6846453  49.1634531  37.6715294  28.6389707  49.1318473  37.6045226
  27.4858977  48.7025155  38.4865520  28.2745835  47.7335647  40.2386092
  29.0938724  48.2279726  40.2620929  28.5482643  46.8167615  40.2103660
  38.0312432  40.1246399  29.6014048  37.1438287  40.4096050  29.3834242
  38.4466421  39.9640163  28.7541324  41.3826968  40.1492920  33.3168387
  42.1587358  40.6389373  33.5893004  40.6575102  40.5750975  33.7740256
  43.8199526  40.8620540  34.3742327  44.4144017  40.6216275  33.6635636
  43.8926110  40.1427670  35.0015864  26.0396682  54.7054150  34.6885492
  25.9051150  53.9454551  34.1223490  25.6228744  55.4295050  34.2214281
  37.1755645  49.8891074  23.6962068  37.8791495  50.0941076  24.3119723
  36.4518294  50.4567836  23.9611151  38.0053455  45.6400935  29.8164338
  37.9488657  46.0969487  28.9771970  38.5581798  44.8791620  29.6387180
  41.8158261  41.4290667  30.6414457  41.5595196  41.0287303  31.4722665
  41.1911129  42.1434461  30.5164596  46.1270599  44.1686740  33.1485749
  45.5670157  44.2379930  33.9217311  45.5214103  43.9927725  32.4285245
  29.1965808  55.6023467  34.9003935  29.0798192  56.5468900  34.7982625
  28.3758254  55.2997029  35.2889734  39.0842343  50.3273603  25.7460528
  39.9187947  49.8954802  25.5638002  38.9226685  50.1555617  26.6737422
  38.7388235  46.8305717  27.1116867  38.6837039  46.6649988  26.1705311
  38.1134290  47.5381749  27.2679057  23.5280750  42.0673781  40.9378289
  24.1739613  41.5572735  41.4265514  23.3197901  42.8042463  41.5121714
  36.0534142  49.1354628  46.4370430  36.9225302  49.3095281  46.0757065
  35.5740893  49.9549045  46.3146159  32.0484360  36.3313826  26.6902185
  32.0363030  37.2755665  26.8470456  32.9407782  36.1483971  26.3961647
  30.2220322  56.2551729  38.1159863  31.1247569  56.2875340  38.4326358
  29.9957692  55.3252180  38.1306199  31.9773924  55.0082716  34.7769942
  31.0269555  55.0084578  34.6634314  32.2806410  54.2615450  34.2605977
  35.8636480  32.9256602  30.9448122  35.0968875  32.3715089  31.0904804
  36.2747185  32.9978471  31.8062274  27.8678241  39.2141398  45.0353303
  28.7309702  38.8578203  45.2456628  27.2943651  38.8755293  45.7228708
  44.5216324  60.7970682  35.7777229  44.1834835  60.6811747  34.8897764
  45.3906092  60.3961848  35.7578235  40.3803140  62.6506159  31.7674120
  39.8168005  62.5596096  30.9990408  40.2655535  61.8306063  32.2476613
  37.9267572  64.1457350  34.6058340  38.7188863  63.8048175  34.1904640
  38.1664222  64.2552325  35.5260494  45.9602698  66.3177127  27.0788585
  45.3090678  66.9031207  26.6922599  46.7547061  66.8483321  27.1383622
  39.8858326  63.4066264  27.4775719  40.6589202  62.8595251  27.3388595
  40.2383724  64.2710513  27.6890181  42.6499575  62.1119494  37.2743978
  43.2463147  61.8875517  36.5600941  42.7074546  61.3704240  37.8769426
  42.2224603  59.5658930  25.1094169  42.4750124  59.0440451  24.3477632
  41.2849162  59.4025075  25.2120853  47.2667886  58.5694708  32.9168912
  48.0530975  58.1514131  32.5659329  47.5306590  59.4740800  33.0850561
  47.4377964  64.0067558  27.6157569  46.8023796  64.0802185  28.3278474
  47.1075370  64.5961157  26.9376648  41.9420892  61.4687036  27.3118544
  41.8257150  60.7931939  27.9799628  42.0523152  60.9819410  26.4950697
  44.2852433  60.9297183  31.0165233  43.9210640  60.4027804  31.7278155
  45.1419549  60.5395652  30.8431719  50.1901734  52.2191515  38.2796499
  49.8585058  53.0886926  38.0557714  49.5947347  51.9027799  38.9590530
  43.9257920  55.9587083  26.0126582  44.0932322  56.8267319  26.3797053
  43.7355089  56.1214364  25.0887871  40.1345735  60.8717858  33.7129117
  39.2096231  60.7394072  33.9206808  40.3830148  61.6512078  34.2099059
  43.9047141  58.4144740  26.9973249  43.7846766  58.8601791  27.8358729
  43.2099729  58.7630058  26.4386787  37.4954546  60.5151132  34.5472906
  37.6246927  60.7685611  35.4612317  36.8151997  61.1078840  34.2277561
  41.6654033  71.1848382  30.6463380  41.5878063  72.1356207  30.7251860
  41.0615677  70.8394254  31.3038306  49.6032207  58.8866213  27.8253583
  50.5150063  59.1193600  27.6501280  49.0941854  59.4703257  27.2628661
  44.2404045  58.2463448  38.8348432  45.0865240  58.6702861  38.9783081
  44.1802682  57.5897072  39.5286995  46.9468182  55.0624249  36.0743444
  46.0852661  55.3605503  36.3660181  46.9730616  55.2794648  35.1424476
  43.7629751  63.6066440  32.4817249  44.2268097  63.8854143  31.6921872
  43.4986549  62.7049884  32.2990340  40.6553832  63.1537921  35.4197013
  41.2255189  63.5825190  34.7814497  41.2461944  62.8720506  36.1181198
  42.6998637  59.7289592  29.2906814  43.4022681  60.1810636  29.7580741
  42.3679266  59.0873411  29.9186708  36.4423971  57.9873145  34.5923948
  35.6523025  58.2430673  34.1164059  36.9335219  58.8021483  34.6975989
  38.3938717  58.3517724  31.5507425  37.5969880  58.4636418  32.0690920
  38.1664309  58.6904376  30.6848315  44.2244384  64.8762427  39.4989939
  44.2888817  65.3382835  40.3348111  43.5155308  64.2459792  39.6272249
  34.7261674  58.2403635  37.0238939  34.9769713  59.1250645  37.2896515
  35.2621223  58.0608237  36.2514031  43.9392402  66.5430535  29.3668920
  43.8038077  67.3882070  29.7953767  44.4802214  66.7449812  28.6034853
  37.3921799  64.0605973  29.9396845  37.9046320  64.8549223  30.0902409
  38.0444512  63.3632263  29.8730446  39.2016684  67.1771729  32.0219598
  39.3783312  68.0989694  31.8340582  39.9973517  66.8630148  32.4513978
  40.3247999  68.6949903  38.0229940  40.8755425  68.5666966  37.2506934
  39.4859475  68.9944792  37.6724833  47.6642116  67.4456901  41.5250663
  47.6460592  68.2665782  41.0330932  48.5862036  67.3210976  41.7500804
  47.2884865  50.0661097  37.8967813  46.9449135  50.9562738  37.8206924
  47.6563828  49.8762754  37.0337398  35.3570716  62.3894627  30.7156415
  36.1945938  62.7991635  30.4990123  35.5348984  61.4494069  30.6856609
  47.2535148  60.0569708  26.4040248  46.7381772  60.8274312  26.6428636
  46.9812457  59.3834844  27.0273310  44.8382259  54.9019409  31.4625487
  43.9823856  54.5126259  31.2831125  45.2509211  54.9811369  30.6025272
  46.3681406  52.4365752  35.8617046  45.8646201  52.3995887  35.0484852
  46.6612013  53.3458495  35.9213703  42.6124292  52.5204482  34.8683228
  43.4777288  52.3247290  34.5089118  42.6801801  52.2914833  35.7952585
  47.0421451  57.9296800  28.2300029  46.7371587  58.2442949  29.0810173
  47.9951893  58.0078220  28.2727362  45.4867883  64.0887023  29.8792983
  44.9589245  63.3539783  29.5666221  44.9855386  64.8661700  29.6332952
  40.2186611  54.7506689  32.2399595  40.7930363  54.5281871  31.5072788
  40.8057593  54.8195384  32.9928196  40.5456198  56.7811150  26.2595480
  39.7093510  57.1185837  26.5804755  40.4060968  56.6460130  25.3222617
  42.5209279  51.6247938  30.9674664  41.8673691  51.3096956  30.3431279
  42.4789753  51.0023679  31.6934487  43.6320483  61.9067233  22.8827956
  42.7247545  61.6756487  23.0819105  44.1291515  61.1104853  23.0701938
  46.5388562  70.6164741  25.8024643  45.8650261  70.9196437  26.4109600
  46.9254384  71.4193821  25.4530100  45.7547019  58.1129872  35.2922312
  44.8369580  58.3344819  35.1344000  46.1707162  58.1876182  34.4334019
  46.5382067  59.5121288  30.4224992  47.2853886  60.0242685  30.1132114
  46.8073656  59.1905340  31.2829386  44.8108717  62.0079828  27.4051947
  43.9019936  61.7238861  27.5024416  44.8403801  62.4278907  26.5455253
  48.4860923  67.4562914  32.1092932  48.7783898  68.0167972  31.3905298
  48.9959544  67.7491475  32.8646091  49.0872531  49.3254656  32.9985551
  49.3931408  48.4652019  32.7111466  49.8125136  49.9172276  32.7984545
  35.3796887  59.7285342  31.3867149  35.1821287  59.1354703  30.6618215
  34.8243551  59.4237553  32.1043088  43.3593611  59.6208449  33.5061742
  43.4142221  58.6682285  33.4304218  42.5484813  59.7767888  33.9903040
  44.5084805  63.5488572  24.7440025  44.0704235  62.8324431  24.2845662
  45.2495245  63.7764687  24.1825116  41.2985971  58.2385509  31.2652121
  40.4853836  58.5379679  31.6717313  41.7944965  57.8441197  31.9826603
  43.4494549  68.2343266  33.1986385  43.4070727  68.4604112  32.2694917
  44.3657248  68.0006640  33.3472187  40.7900046  55.8103864  36.8813356
  41.4299425  55.6692623  36.1836319  39.9577576  55.5238378  36.5051958
  41.5660349  65.1106295  32.9948348  42.3600948  64.6156615  32.7930923
  40.8552042  64.5824158  32.6316054  46.3855194  67.4924390  37.3460716
  46.4392216  68.0615326  38.1138432  45.5169975  67.6626275  36.9814753
  37.8743113  59.2549376  29.0708101  36.9440701  59.1933832  29.2878063
  37.9700585  58.7325329  28.2744742  37.7928662  55.7804189  31.6586342
  38.0535479  56.6949522  31.5495503  38.6145834  55.3128632  31.8082955
  39.2653587  57.1941946  38.8285167  39.9376641  56.9859308  38.1797816
  38.4383374  56.9964032  38.3890399  44.1431625  65.6835317  36.6746185
  44.0042711  65.3154101  37.5472123  43.3546222  66.1982956  36.5030143
  44.7379777  70.7844413  28.0171722  44.9131533  70.3132456  28.8317344
  44.0512565  71.4110179  28.2452982  45.6936841  65.0616919  34.0635023
  45.3586673  65.0217689  34.9592673  45.1940786  64.3961635  33.5905433
  39.6681085  60.4684549  39.5887604  39.5300882  59.7364788  40.1899143
  40.5786008  60.3793449  39.3071792  48.6296032  62.4072954  24.3372083
  48.0125203  61.6819782  24.2405135  48.1612521  63.1682314  23.9939157
  42.2963385  60.1804509  39.0771284  43.0063004  59.5397701  39.0357902
  42.2532693  60.4317403  39.9997465  50.2850164  67.1171862  41.9977863
  50.2262710  66.4331082  41.3308446  50.6869682  67.8590852  41.5458489
  39.3040863  73.9333776  34.7911582  39.5437461  74.5652300  35.4690601
  38.4610059  73.5821816  35.0776941  40.4194578  56.6258378  23.4593387
  39.5424044  56.5047179  23.0955634  40.8952331  55.8344456  23.2072276
  31.9396718  61.4135538  33.5534894  32.6267758  61.0997268  32.9655909
  31.7844847  62.3176902  33.2802146  36.7431440  56.3025734  37.9819918
  36.6589629  55.6951404  37.2470328  35.9214147  56.7934753  37.9829414
  43.8168725  69.7412898  37.1953086  43.7438896  70.5467870  37.7072390
  43.3746118  69.9404864  36.3701107  43.6058504  68.9784668  30.7055907
  42.8226026  69.5206348  30.7994132  44.3051249  69.4958648  31.1050149
  46.9155154  54.7879298  33.3490113  47.4123854  54.0349260  33.0291183
  46.1442136  54.8243614  32.7833322  46.2767408  69.6399732  39.3511245
  46.9895380  70.2747197  39.2787146  45.7857437  69.7363598  38.5351246
  43.4990123  56.9296681  33.0761797  43.1287911  56.3767721  33.7642703
  43.9949215  56.3254814  32.5236797  41.3279322  67.3894176  40.1716815
  42.0288781  68.0230659  40.3246210  40.8574437  67.7308907  39.4112455
  49.4533717  65.7312126  28.4564722  49.7293561  65.6168720  29.3658597
  48.5838216  65.3329610  28.4176896  49.3574149  51.7548891  35.4969472
  48.4437229  51.9853118  35.6651679  49.7867251  51.8387335  36.3483504
  46.0887781  69.9798476  32.0997536  46.2710176  69.1620132  32.5625288
  46.9120767  70.1966169  31.6622426  46.4229947  68.9066662  29.3612585
  46.9517713  68.3959116  28.7482747  46.6858167  68.5909192  30.2258118
  36.9247040  66.9230531  37.1047918  37.5100476  66.1774219  37.2375822
  36.7271878  67.2334488  37.9884582  39.7785695  69.9581778  32.1210360
  39.1096070  70.4427906  31.6374401  39.6398565  70.2050999  33.0353739
  31.5164694  59.4936131  35.8252361  31.5548794  58.9599722  36.6189479
  31.0104987  58.9671337  35.2063338  43.9190963  71.9925522  38.7193019
  44.4709271  72.1557143  39.4842104  44.2597157  72.5829960  38.0473044
  38.8955457  54.3400672  39.3214904  38.9596783  55.2015502  38.9092301
  38.8322577  53.7274673  38.5887262  48.7701838  66.8186779  44.5741673
  49.3141742  67.4316737  44.0796628  48.1888683  67.3766358  45.0908686
  35.1473272  58.2200233  28.9006293  35.4426713  57.3110912  28.8473346
  34.2461308  58.1987973  28.5787295  47.0559351  69.9407497  35.7056701
  46.9310490  69.1397237  35.1967646  47.7138442  70.4353691  35.2170671
  38.6767519  56.2956230  34.8833841  37.9554105  56.9092197  34.7441315
  39.4660775  56.8313995  34.8050487  41.4793832  53.6310656  41.1574493
  42.0028234  53.8772953  41.9200802  41.2606166  54.4630691  40.7377630
  36.8761114  55.9014331  29.0245618  36.5473820  55.0211710  28.8420724
  37.2300484  55.8462000  29.9122007  46.1240692  67.5369234  33.5340603
  45.9765655  66.6085941  33.7148173  46.9494186  67.5589324  33.0497679
  39.9902937  56.1887301  29.3921095  40.3299009  56.7173222  28.6699704
  40.4375057  56.5267707  30.1679662  49.7274814  68.3597792  34.6205476
  50.6521362  68.1540654  34.4829927  49.5590118  68.1114193  35.5294818
  42.6846378  54.5724351  38.8424164  42.3443198  53.7732164  39.2444843
  41.9785384  54.8726062  38.2700997  43.3362849  51.6573664  37.2951487
  44.1588919  51.1834142  37.1730377  43.5800913  52.4364148  37.7950173
  41.9771084  54.6861922  27.5914388  42.6979446  55.0643175  27.0878105
  41.3536388  55.4050799  27.6949366  46.1202207  55.3907071  28.5272721
  46.3365821  56.2731709  28.2261549  45.6396274  54.9993285  27.7978363
  40.8601428  58.3492784  35.1043465  40.7146009  58.6633087  35.9967747
  40.3826632  58.9677685  34.5514364  42.7197811  55.3395332  35.1524355
  42.7059380  54.4436426  34.8156653  43.4370239  55.3465996  35.7862641
  44.5723942  55.7732673  37.1977482  44.3141720  56.6949743  37.1961813
  44.0408982  55.3763107  37.8877946  49.5170130  68.8783460  29.9767568
  49.6907008  68.3129882  29.2241420  50.0099022  69.6784355  29.7947057
  35.3347090  60.8898129  38.0431126  34.7900558  61.6657937  38.1751401
  36.2126440  61.2368933  37.8850248  42.1234707  54.2209713  30.4211925
  42.2450618  53.2926359  30.6202812  41.8336749  54.2348399  29.5090240
  44.9925897  51.9064623  33.5578645  45.0147594  51.9703956  32.6030624
  45.4093956  51.0669132  33.7519151  50.5045303  68.1950224  27.0764466
  51.1996208  68.8156917  27.2951780  50.8468453  67.3445575  27.3516844
  36.1213112  60.0168025  40.9361283  35.3794848  60.1650660  41.5225914
  35.8005856  60.2776291  40.0728033  52.4036726  65.6449930  28.6051797
  52.9288050  65.9837202  27.8801117  52.3159079  64.7096945  28.4214931
  44.0656775  69.5584003  40.7341673  44.3743901  69.3133150  41.6064373
  44.8632257  69.7630642  40.2460543  44.0877387  71.7121913  32.9647050
  43.6482377  71.2198292  33.6579906  44.8385504  71.1694881  32.7239125
  36.5669726  67.9033454  32.9671678  37.3927746  67.6037226  32.5870321
  36.2163778  67.1341076  33.4161466  41.5351259  67.2559922  35.0369351
  40.9131268  66.5930627  34.7371579  42.2056126  67.2821054  34.3542999
  34.7678331  65.8219780  33.9260611  33.9310239  65.3941955  33.7444613
  34.7401976  66.0152224  34.8631403  52.0930632  66.2782833  43.9102995
  51.3026176  66.2606972  43.3707494  51.8563987  66.8171127  44.6652031
  41.0964766  65.8063845  28.5127812  41.2452886  66.4899310  27.8594485
  41.9031209  65.7868935  29.0277268  38.8517399  61.8329023  29.5188881
  38.6063441  60.9291353  29.7169091  39.0213313  61.8346173  28.5768359
  46.5414109  52.7052699  38.9013636  47.0596053  53.4413726  38.5760125
  46.1869242  53.0116693  39.7360396  38.1213046  57.5657381  27.0175042
  37.4282291  57.6401736  26.3615078  37.8764798  56.8017724  27.5396559
  46.7926703  49.1252982  34.4214533  47.0728457  48.4576171  35.0474960
  47.5777310  49.3182078  33.9089197  44.5960171  68.3011976  25.9839559
  44.0234139  68.9202163  25.5310031  45.1692965  68.8511337  26.5179481
  48.6849941  54.6326199  38.3545509  48.0899873  54.9131212  37.6591998
  48.3999637  55.1220100  39.1262250  47.8157431  68.5849126  27.1148142
  48.7488104  68.5194688  27.3181017  47.7280644  69.4205393  26.6562674
  50.4445448  67.9014996  24.0752089  50.3659079  67.5674860  24.9687847
  51.2655115  68.3936764  24.0743562  44.9806970  59.6372789  23.3255612
  45.9266075  59.5078997  23.3944030  44.6021215  58.8987450  23.8025040
  50.9528854  51.3028795  33.2882504  50.7553676  50.9943883  34.1725836
  51.5628560  52.0290433  33.4180434  43.1649887  57.5622765  23.2610497
  42.2581342  57.2655878  23.3373211  43.4425868  57.2652583  22.3944783
  34.0827827  58.8829128  33.7109544  33.7630612  58.0294437  33.4183918
  33.5361256  59.0977707  34.4667511  37.8607735  61.5991569  37.4279050
  38.0793745  62.5308677  37.4467084  38.2733509  61.2399544  38.2133854
  44.7811953  52.1059655  29.4154738  43.9712681  51.7606740  29.7909984
  45.4696370  51.7967198  30.0042350  46.7102501  51.1837701  31.0379035
  47.2633540  51.6033155  31.6969058  46.9472587  50.2573450  31.0801991
  41.9348672  54.4209700  23.4022476  42.7967836  54.7464598  23.6618294
  42.1199016  53.6341196  22.8895542  33.9516087  62.5032040  35.6802665
  33.2579559  62.0885993  35.1672620  34.6989078  62.5452576  35.0836084
  50.0881308  53.2938227  30.5457699  49.5079977  53.9523031  30.1635752
  49.8217241  52.4715571  30.1345117  48.5384875  52.6943284  32.7479020
  49.0384653  52.8059819  31.9393338  49.1820482  52.3904337  33.3879828
  35.8652830  62.4350294  33.5568680  35.8423518  62.5337981  32.6050563
  36.1753466  63.2815444  33.8785846  38.5240208  64.4926449  37.6715294
  39.4783461  64.4610391  37.6045226  38.3252731  64.0317072  38.4865520
  39.1139590  63.0627565  40.2386092  39.9332479  63.5571643  40.2620929
  39.3876398  62.1459533  40.2103660  48.8706186  55.4538317  29.6014048
  47.9832041  55.7387968  29.3834242  49.2860175  55.2932080  28.7541324
  52.2220722  55.4784838  33.3168387  52.9981112  55.9681290  33.5893004
  51.4968856  55.9042892  33.7740256  36.8790437  70.0346068  34.6885492
  36.7444905  69.2746469  34.1223490  36.4622499  70.7586968  34.2214281
  48.0149400  65.2182992  23.6962068  48.7185250  65.4232994  24.3119723
  47.2912048  65.7859754  23.9611151  40.0359563  70.9315385  34.9003935
  39.9191947  71.8760818  34.7982625  39.2152009  70.6288947  35.2889734
  49.9236097  65.6565521  25.7460528  50.7581701  65.2246719  25.5638002
  49.7620440  65.4847535  26.6737422  49.5781989  62.1597634  27.1116867
  49.5230793  61.9941906  26.1705311  48.9528045  62.8673667  27.2679057
  34.3674504  57.3965699  40.9378289  35.0133368  56.8864653  41.4265514
  34.1591655  58.1334380  41.5121714  42.8878115  51.6605743  26.6902185
  42.8756785  52.6047583  26.8470456  43.7801537  51.4775889  26.3961647
  41.0614077  71.5843647  38.1159863  41.9641323  71.6167257  38.4326358
  40.8351447  70.6544098  38.1306199  42.8167679  70.3374634  34.7769942
  41.8663310  70.3376495  34.6634314  43.1200165  69.5907368  34.2605977
  46.7030234  48.2548520  30.9448122  45.9362630  47.7007007  31.0904804
  47.1140939  48.3270389  31.8062274  58.5520372  76.1735172  35.8415704
  59.1898782  76.0541919  35.1379044  58.4341215  77.1216016  35.9003656
  55.3610078  76.1262600  35.7777229  55.0228590  76.0103665  34.8897764
  56.2299847  75.7253765  35.7578235  51.2196894  77.9798077  31.7674120
  50.6561759  77.8888013  30.9990408  51.1049289  77.1597981  32.2476613
  55.8429861  77.2797452  41.7363435  55.8318502  76.8850250  40.8643938
  56.0050501  76.5463524  42.3297206  48.7661326  79.4749268  34.6058340
  49.5582618  79.1340093  34.1904640  49.0057976  79.5844243  35.5260494
  56.7996453  81.6469044  27.0788585  56.1484433  82.2323125  26.6922599
  57.5940816  82.1775239  27.1383622  50.7252080  78.7358181  27.4775719
  51.4982956  78.1887168  27.3388595  51.0777479  79.6002431  27.6890181
  52.5637123  80.0634564  40.6842619  52.2726989  80.9680194  40.5689285
  53.1994107  80.1051091  41.3986688  53.4893329  77.4411412  37.2743978
  54.0856902  77.2167435  36.5600941  53.5468301  76.6996158  37.8769426
  53.0618358  74.8950847  25.1094169  53.3143879  74.3732369  24.3477632
  52.1242917  74.7316993  25.2120853  58.1061641  73.8986626  32.9168912
  58.8924730  73.4806049  32.5659329  58.3700345  74.8032718  33.0850561
  58.2771718  79.3359476  27.6157569  57.6417551  79.4094103  28.3278474
  57.9469124  79.9253075  26.9376648  52.7814647  76.7978953  27.3118544
  52.6650905  76.1223857  27.9799628  52.8916906  76.3111327  26.4950697
  55.1246187  76.2589101  31.0165233  54.7604395  75.7319722  31.7278155
  55.9813303  75.8687570  30.8431719  54.7651674  71.2879000  26.0126582
  54.9326077  72.1559237  26.3797053  54.5748844  71.4506282  25.0887871
  57.5227008  79.7495979  37.6792412  57.2227731  80.6521018  37.5708219
  57.1778067  79.4828162  38.5313565  50.9739489  76.2009776  33.7129117
  50.0489986  76.0685990  33.9206808  51.2223902  76.9803995  34.2099059
  54.7440895  73.7436658  26.9973249  54.6240521  74.1893708  27.8358729
  54.0493484  74.0921975  26.4386787  48.3348300  75.8443050  34.5472906
  48.4640681  76.0977528  35.4612317  47.6545751  76.4370758  34.2277561
  52.5047787  86.5140299  30.6463380  52.4271817  87.4648125  30.7251860
  51.9009431  86.1686172  31.3038306  54.9965017  73.6868165  43.3024747
  54.2198351  74.2462085  43.2927611  55.6355580  74.1724948  43.8239617
  60.4425962  74.2158131  27.8253583  61.3543818  74.4485518  27.6501280
  59.9335609  74.7995175  27.2628661  53.2511390  76.4953618  42.8642714
  53.9926074  77.0338662  42.5877537  52.5448375  77.1219907  43.0214266
  58.7266729  78.6382759  41.4614875  59.1350085  78.1965169  40.7169508
  58.0043991  78.0635386  41.7149068  55.0797799  73.5755366  38.8348432
  55.9258994  73.9994779  38.9783081  55.0196437  72.9188990  39.5286995
  59.0495544  79.1983949  35.2167164  58.4204406  79.3629663  34.5143232
  58.6621206  79.6125559  35.9878128  62.9284776  80.1338387  32.5711528
  62.2435814  80.5137289  32.0208561  63.0128625  80.7433714  33.3043476
  58.2297245  71.2359734  40.4929606  57.9858176  71.9901794  39.9563882
  58.5057175  71.6145081  41.3276853  60.1835707  77.7798346  39.1706871
  60.3952603  78.4230106  38.4941253  60.1365456  76.9460663  38.7028802
  57.7861936  70.3916167  36.0743444  56.9246415  70.6897420  36.3660181
  57.8124371  70.6086566  35.1424476  54.6023506  78.9358357  32.4817249
  55.0661851  79.2146060  31.6921872  54.3380304  78.0341802  32.2990340
  51.4947587  78.4829839  35.4197013  52.0648944  78.9117107  34.7814497
  52.0855699  78.2012424  36.1181198  53.5392392  75.0581510  29.2906814
  54.2416435  75.5102553  29.7580741  53.2073020  74.4165329  29.9186708
  51.9872753  73.6493266  43.6658024  51.3571414  74.3309547  43.8993421
  51.8808841  73.5376348  42.7211162  47.2817726  73.3165062  34.5923948
  46.4916780  73.5722591  34.1164059  47.7728973  74.1313400  34.6975989
  61.2981535  80.6570302  37.3429229  62.1198979  80.2550489  37.0611910
  61.2943938  80.5538536  38.2945345  49.2332471  73.6809642  31.5507425
  48.4363634  73.7928336  32.0690920  49.0058063  74.0196294  30.6848315
  55.0638139  80.2054345  39.4989939  55.1282571  80.6674752  40.3348111
  54.3549063  79.5751710  39.6272249  45.5655429  73.5695553  37.0238939
  45.8163467  74.4542563  37.2896515  46.1014977  73.3900154  36.2514031
  69.3887528  77.0009050  33.6914200  68.6351237  76.4316448  33.5358205
  69.5235070  76.9671715  34.6384835  54.7786156  81.8722452  29.3668920
  54.6431831  82.7173988  29.7953767  55.3195969  82.0741730  28.6034853
  51.2653496  67.9514032  46.0283275  50.8720442  67.3980231  46.7030919
  52.0819636  68.2624611  46.4189792  48.2315554  79.3897890  29.9396845
  48.7440074  80.1841141  30.0902409  48.8838267  78.6924181  29.8730446
  50.0410438  82.5063647  32.0219598  50.2177067  83.4281611  31.8340582
  50.8367272  82.1922066  32.4513978  54.1821457  69.3671911  43.6203531
  54.9231170  69.9679065  43.5407994  54.4139380  68.6249549  43.0621574
  49.3262795  74.5528279  41.8981761  49.2116310  73.6513536  42.1988860
  48.4707313  74.7991975  41.5466578  56.4054633  82.4946019  43.4969262
  55.9618487  81.7082398  43.1790166  57.0671846  82.6825169  42.8313153
  51.1641754  84.0241821  38.0229940  51.7149179  83.8958884  37.2506934
  50.3253230  84.3236710  37.6724833  58.5035871  82.7748819  41.5250663
  58.4854346  83.5957700  41.0330932  59.4255791  82.6502894  41.7500804
  54.9608925  80.2892948  42.3674171  55.4937262  79.5281237  42.1373479
  54.4323006  79.9966600  43.1098326  46.1964471  77.7186545  30.7156415
  47.0339693  78.1283553  30.4990123  46.3742738  76.7785987  30.6856609
  58.0928903  75.3861625  26.4040248  57.5775526  76.1566230  26.6428636
  57.8206211  74.7126762  27.0273310  55.6776014  70.2311326  31.4625487
  54.8217610  69.8418177  31.2831125  56.0902965  70.3103287  30.6025272
  57.2075160  67.7657669  35.8617046  56.7039956  67.7287805  35.0484852
  57.5005767  68.6750412  35.9213703  53.4518046  67.8496399  34.8683228
  54.3171043  67.6539208  34.5089118  53.5195555  67.6206751  35.7952585
  63.0663177  78.1393980  28.3393422  62.2892620  77.8005140  27.8948584
  63.7454658  78.1446603  27.6648387  57.8815206  73.2588718  28.2300029
  57.5765341  73.5734867  29.0810173  58.8345648  73.3370137  28.2727362
  56.3261638  79.4178941  29.8792983  55.7982999  78.6831700  29.5666221
  55.8249140  80.1953617  29.6332952  61.3054484  77.6127961  34.9960030
  60.6478158  78.3027223  35.0840158  62.1094883  78.0024393  35.3394016
  51.0580365  70.0798607  32.2399595  51.6324117  69.8573789  31.5072788
  51.6451348  70.1487302  32.9928196  60.1159942  75.9672334  33.0463971
  60.6291824  76.6002326  33.5485681  60.7661166  75.3673530  32.6807331
  51.3849952  72.1103068  26.2595480  50.5487265  72.4477755  26.5804755
  51.2454722  71.9752048  25.3222617  53.3603033  66.9539856  30.9674664
  52.7067445  66.6388873  30.3431279  53.3183507  66.3315596  31.6934487
  54.4714238  77.2359151  22.8827956  53.5641300  77.0048405  23.0819105
  54.9685270  76.4396770  23.0701938  57.3782317  85.9456658  25.8024643
  56.7044015  86.2488355  26.4109600  57.7648139  86.7485739  25.4530100
  56.5940773  73.4421790  35.2922312  55.6763335  73.6636737  35.1344000
  57.0100917  73.5168100  34.4334019  57.3775821  74.8413205  30.4224992
  58.1247640  75.3534602  30.1132114  57.6467411  74.5197258  31.2829386
  55.6502471  77.3371746  27.4051947  54.7413691  77.0530779  27.5024416
  55.6797555  77.7570825  26.5455253  60.8821739  80.9478335  31.1743114
  60.4284066  80.1069245  31.2308305  60.2515705  81.5839734  31.5117894
  59.3254678  82.7854832  32.1092932  59.6177652  83.3459889  31.3905298
  59.8353299  83.0783393  32.8646091  46.2190642  75.0577260  31.3867149
  46.0215041  74.4646621  30.6618215  45.6637306  74.7529470  32.1043088
  54.1987365  74.9500367  33.5061742  54.2535975  73.9974203  33.4304218
  53.3878567  75.1059806  33.9903040  55.3478559  78.8780490  24.7440025
  54.9097989  78.1616349  24.2845662  56.0889000  79.1056604  24.1825116
  52.1379725  73.5677426  31.2652121  51.3247591  73.8671597  31.6717313
  52.6338719  73.1733115  31.9826603  54.2888303  83.5635183  33.1986385
  54.2464482  83.7896030  32.2694917  55.2051002  83.3298558  33.3472187
  57.7353937  74.0319251  40.0967015  58.0903325  74.2590724  40.9561480
  58.3826068  74.3637628  39.4744270  63.4651674  77.1537687  30.8016344
  63.3269572  77.3439283  29.8737533  63.1087893  77.9157070  31.2584395
  51.6293800  71.1395782  36.8813356  52.2693179  70.9984541  36.1836319
  50.7971331  70.8530295  36.5051958  63.4921053  79.2214214  35.8127615
  63.9257560  79.1289503  36.6610669  64.2052634  79.1971714  35.1747631
  52.4054104  80.4398212  32.9948348  53.1994702  79.9448532  32.7930923
  51.6945796  79.9116075  32.6316054  57.2248948  82.8216308  37.3460716
  57.2785971  83.3907244  38.1138432  56.3563730  82.9918193  36.9814753
  48.7136867  74.5841294  29.0708101  47.7834455  74.5225749  29.2878063
  48.8094339  74.0617247  28.2744742  48.6322416  71.1096107  31.6586342
  48.8929234  72.0241440  31.5495503  49.4539589  70.6420549  31.8082955
  50.1047342  72.5233864  38.8285167  50.7770395  72.3151226  38.1797816
  49.2777128  72.3255950  38.3890399  64.3536603  79.2637914  38.3460501
  64.5472493  80.1683725  38.5919775  64.2537221  78.8045333  39.1799086
  56.0072914  69.1495805  40.8450828  55.3600829  69.8485755  40.7515304
  56.7773929  69.5831949  41.2127076  59.4151712  79.4144657  43.9201381
  59.2637218  79.1855209  43.0031465  59.4056391  80.3715259  43.9332726
  56.1837048  76.9876570  38.9047648  57.1129108  77.1387729  38.7316615
  55.7628078  77.0760591  38.0496294  54.9825380  81.0127234  36.6746185
  54.8436466  80.6446019  37.5472123  54.1939976  81.5274874  36.5030143
  55.5773532  86.1136331  28.0171722  55.7525288  85.6424374  28.8317344
  54.8906320  86.7402097  28.2452982  56.5330595  80.3908837  34.0635023
  56.1980428  80.3509607  34.9592673  56.0334541  79.7253553  33.5905433
  50.5074839  75.7976467  39.5887604  50.3694637  75.0656706  40.1899143
  51.4179762  75.7085367  39.3071792  59.4689787  77.7364871  24.3372083
  58.8518957  77.0111699  24.2405135  59.0006275  78.4974232  23.9939157
  53.1357140  75.5096426  39.0771284  53.8456758  74.8689618  39.0357902
  53.0926448  75.7609321  39.9997465  61.1243918  82.4463780  41.9977863
  61.0656465  81.7623000  41.3308446  61.5263437  83.1882770  41.5458489
  51.8486074  72.4961644  40.8966923  51.3123431  72.0452383  41.5488520
  51.2602782  72.6307553  40.1537388  50.1434617  89.2625693  34.7911582
  50.3831215  89.8944218  35.4690601  49.3003814  88.9113734  35.0776941
  51.2588333  71.9550296  23.4593387  50.3817799  71.8339096  23.0955634
  51.7346086  71.1636374  23.2072276  61.1261326  80.4103364  40.2291843
  60.2388104  80.0729285  40.3518242  61.6959877  79.6786395  40.4660608
  42.7790473  76.7427455  33.5534894  43.4661513  76.4289185  32.9655909
  42.6238601  77.6468820  33.2802146  47.5825195  71.6317652  37.9819918
  47.4983384  71.0243321  37.2470328  46.7607901  72.1226670  37.9829414
  54.6562479  85.0704816  37.1953086  54.5832651  85.8759787  37.7072390
  54.2139872  85.2696782  36.3701107  54.4452259  84.3076586  30.7055907
  53.6619781  84.8498266  30.7994132  55.1445004  84.8250566  31.1050149
  65.6078666  75.8211581  34.9908404  65.5968542  76.7036296  34.6202337
  64.7396046  75.4683132  34.7962941  57.1161163  84.9691650  39.3511245
  57.8289135  85.6039115  39.2787146  56.6251191  85.0655516  38.5351246
  58.8378689  78.8742903  30.9228536  57.9034968  78.9944365  30.7533241
  59.0155358  77.9715369  30.6588546  54.3383878  72.2588598  33.0761797
  53.9681665  71.7059639  33.7642703  54.8342970  71.6546732  32.5236797
  62.2251241  74.7160222  31.4578570  62.6911693  75.5488214  31.3838873
  62.6758741  74.2505203  32.1623829  52.1673076  82.7186093  40.1716815
  52.8682536  83.3522576  40.3246210  51.6968191  83.0600825  39.4112455
  60.2927472  81.0604043  28.4564722  60.5687316  80.9460638  29.3658597
  59.4231971  80.6621528  28.4176896  59.9674362  75.2730701  37.9969366
  59.3145812  75.5206608  37.3421819  60.3454742  74.4594839  37.6631843
  56.9281536  85.3090394  32.0997536  57.1103930  84.4912050  32.5625288
  57.7514522  85.5258086  31.6622426  57.2623701  84.2358579  29.3612585
  57.7911468  83.7251034  28.7482747  57.5251921  83.9201109  30.2258118
  56.0161935  76.0150512  44.4835403  55.3402572  75.9144641  45.1537778
  56.8389569  75.8589726  44.9471400  47.7640794  82.2522448  37.1047918
  48.3494231  81.5066136  37.2375822  47.5665633  82.5626405  37.9884582
  50.6179449  85.2873696  32.1210360  49.9489825  85.7719823  31.6374401
  50.4792319  85.5342916  33.0353739  42.3558449  74.8228049  35.8252361
  42.3942548  74.2891639  36.6189479  41.8498742  74.2963254  35.2063338
  54.7584718  87.3217439  38.7193019  55.3103026  87.4849061  39.4842104
  55.0990911  87.9121877  38.0473044  49.7349211  69.6692589  39.3214904
  49.7990538  70.5307420  38.9092301  49.6716331  69.0566591  38.5887262
  49.2101484  71.7415722  42.9687938  49.8373523  71.3592799  43.5825462
  48.3529403  71.5229924  43.3343630  59.6095592  82.1478697  44.5741673
  60.1535496  82.7608655  44.0796628  59.0282437  82.7058275  45.0908686
  45.9867026  73.5492151  28.9006293  46.2820468  72.6402829  28.8473346
  45.0855062  73.5279890  28.5787295  57.8953105  85.2699415  35.7056701
  57.7704245  84.4689155  35.1967646  58.5532196  85.7645608  35.2170671
  49.5161273  71.6248147  34.8833841  48.7947859  72.2384115  34.7441315
  50.3054529  72.1605912  34.8050487  59.9588014  83.0708435  37.3336251
  59.0118349  82.9513786  37.2614578  60.3070787  82.1830933  37.4162513
  52.3187587  68.9602574  41.1574493  52.8421989  69.2064870  41.9200802
  52.0999920  69.7922609  40.7377630  47.7154868  71.2306248  29.0245618
  47.3867574  70.3503627  28.8420724  48.0694239  71.1753917  29.9122007
  56.9634447  82.8661151  33.5340603  56.8159409  81.9377859  33.7148173
  57.7887940  82.8881242  33.0497679  50.8296691  71.5179218  29.3921095
  51.1692764  72.0465140  28.6699704  51.2768812  71.8559624  30.1679662
  60.5668569  83.6889710  34.6205476  61.4915116  83.4832571  34.4829927
  60.3983872  83.4406111  35.5294818  53.5240132  69.9016269  38.8424164
  53.1836952  69.1024082  39.2444843  52.8179138  70.2017980  38.2700997
  54.1756604  66.9865581  37.2951487  54.9982673  66.5126060  37.1730377
  54.4194667  67.7656065  37.7950173  52.8164838  70.0153840  27.5914388
  53.5373201  70.3935093  27.0878105  52.1930142  70.7342717  27.6949366
  56.9595961  70.7198989  28.5272721  57.1759576  71.6023627  28.2261549
  56.4790028  70.3285202  27.7978363  51.6995183  73.6784702  35.1043465
  51.5539763  73.9925005  35.9967747  51.2220386  74.2969602  34.5514364
  53.5591565  70.6687250  35.1524355  53.5453134  69.7728343  34.8156653
  54.2763994  70.6757914  35.7862641  55.4117696  71.1024590  37.1977482
  55.1535474  72.0241661  37.1961813  54.8802737  70.7055025  37.8877946
  60.3563885  84.2075377  29.9767568  60.5300762  83.6421800  29.2241420
  60.8492776  85.0076272  29.7947057  46.1740845  76.2190046  38.0431126
  45.6294313  76.9949854  38.1751401  47.0520195  76.5660851  37.8850248
  52.9628461  69.5501630  30.4211925  53.0844373  68.6218277  30.6202812
  52.6730504  69.5640316  29.5090240  55.8319652  67.2356541  33.5578645
  55.8541349  67.2995874  32.6030624  56.2487711  66.3961049  33.7519151
  66.2103276  76.9711800  31.5957867  66.6534422  76.2219126  31.1976991
  65.3329786  76.9621937  31.2131599  61.3439057  83.5242142  27.0764466
  62.0389962  84.1448834  27.2951780  61.6862208  82.6737493  27.3516844
  46.9606867  75.3459943  40.9361283  46.2188603  75.4942578  41.5225914
  46.6399611  75.6068208  40.0728033  63.2430481  80.9741847  28.6051797
  63.7681805  81.3129120  27.8801117  63.1552833  80.0388863  28.4214931
  54.9050529  84.8875921  40.7341673  55.2137656  84.6425068  41.6064373
  55.7026011  85.0922559  40.2460543  54.9271141  87.0413831  32.9647050
  54.4876132  86.5490209  33.6579906  55.6779258  86.4986798  32.7239125
  47.4063480  83.2325371  32.9671678  48.2321500  82.9329143  32.5870321
  47.0557532  82.4632994  33.4161466  52.3745013  82.5851840  35.0369351
  51.7525023  81.9222545  34.7371579  53.0449880  82.6112972  34.3542999
  45.6072085  81.1511698  33.9260611  44.7703994  80.7233872  33.7444613
  45.5795731  81.3444141  34.8631403  52.4469541  71.0633628  44.6301857
  52.4957696  71.9395751  44.2479627  52.9892055  70.5211021  44.0573501
  62.9324387  81.6074751  43.9102995  62.1419930  81.5898890  43.3707494
  62.6957741  82.1463045  44.6652031  63.0522262  78.4567217  41.2235723
  63.1020267  78.2917225  42.1651246  62.9436185  77.5894476  40.8333604
  51.9358520  81.1355763  28.5127812  52.0846641  81.8191227  27.8594485
  52.7424964  81.1160853  29.0277268  60.3426024  74.4398145  42.5395030
  61.2435887  74.3004610  42.2479028  60.4173999  74.6052600  43.4793207
  54.6768829  71.8165000  41.3848216  53.8072139  72.1098566  41.1130805
  54.9128310  72.4005445  42.1055480  64.5540459  80.8764159  41.4677745
  64.2625267  81.2394139  42.3041206  63.9412590  80.1631167  41.2891077
  65.7536141  78.4417039  33.9880315  66.5883032  78.8806843  34.1517875
  65.8895270  77.9655692  33.1688561  62.8027647  75.9996773  39.9357803
  63.2781768  76.1924420  39.1276654  61.8793212  76.0555959  39.6901186
  49.6911153  77.1620941  29.5188881  49.4457195  76.2583271  29.7169091
  49.8607068  77.1638091  28.5768359  48.9606801  72.8949298  27.0175042
  48.2676046  72.9693653  26.3615078  48.7158553  72.1309642  27.5396559
  55.4353926  83.6303893  25.9839559  54.8627893  84.2494081  25.5310031
  56.0086720  84.1803255  26.5179481  58.6551186  83.9141044  27.1148142
  59.5881859  83.8486605  27.3181017  58.5674399  84.7497310  26.6562674
  61.2839202  83.2306914  24.0752089  61.2052834  82.8966778  24.9687847
  62.1048869  83.7228682  24.0743562  63.9817394  76.0968653  37.2828408
  63.9493714  75.1584654  37.4688092  64.5918017  76.1752690  36.5494233
  55.8200724  74.9664706  23.3255612  56.7659829  74.8370914  23.3944030
  55.4414969  74.2279368  23.8025040  69.7993943  77.1584660  36.4234445
  70.5297332  76.8969948  36.9842148  69.1900889  76.4213382  36.4636513
  55.7039417  79.0182452  44.7856269  56.6242426  79.1961051  44.9796315
  55.6689000  78.0738498  44.6335968  54.0043642  72.8914683  23.2610497
  53.0975097  72.5947795  23.3373211  54.2819623  72.5944501  22.3944783
  44.9221582  74.2121046  33.7109544  44.6024366  73.3586354  33.4183918
  44.3755010  74.4269624  34.4667511  48.7001489  76.9283487  37.4279050
  48.9187499  77.8600595  37.4467084  49.1127263  76.5691461  38.2133854
  55.6205707  67.4351572  29.4154738  54.8106436  67.0898657  29.7909984
  56.3090124  67.1259116  30.0042350  53.5729355  72.5016693  46.8181799
  53.4726082  73.4511050  46.7493890  53.3550897  72.1734932  45.9457869
  52.7742426  69.7501618  23.4022476  53.6361590  70.0756516  23.6618294
  52.9592770  68.9633114  22.8895542  44.7909842  77.8323958  35.6802665
  44.0973313  77.4177910  35.1672620  45.5382833  77.8744494  35.0836084
  53.4360625  75.9313832  45.6346861  52.9527707  76.7314192  45.8410750
  53.5221564  75.9421776  44.6814305  46.7046584  77.7642211  33.5568680
  46.6817273  77.8629899  32.6050563  47.0147221  78.6107362  33.8785846
  49.3633962  79.8218366  37.6715294  50.3177216  79.7902309  37.6045226
  49.1646486  79.3608990  38.4865520  49.9533344  78.3919482  40.2386092
  50.7726233  78.8863561  40.2620929  50.2270152  77.4751451  40.2103660
  47.7184191  85.3637986  34.6885492  47.5838659  84.6038387  34.1223490
  47.3016253  86.0878886  34.2214281  58.8543154  80.5474909  23.6962068
  59.5579004  80.7524912  24.3119723  58.1305803  81.1151671  23.9611151
  59.6840964  76.2984771  29.8164338  59.6276166  76.7553322  28.9771970
  60.2369307  75.5375455  29.6387180  50.8753317  86.2607303  34.9003935
  50.7585701  87.2052735  34.7982625  50.0545763  85.9580864  35.2889734
  60.7629852  80.9857439  25.7460528  61.5975455  80.5538637  25.5638002
  60.6014194  80.8139452  26.6737422  60.4175744  77.4889552  27.1116867
  60.3624548  77.3233823  26.1705311  59.7921799  78.1965585  27.2679057
  45.2068259  72.7257616  40.9378289  45.8527122  72.2156570  41.4265514
  44.9985410  73.4626298  41.5121714  57.7321651  79.7938464  46.4370430
  58.6012811  79.9679116  46.0757065  57.2528402  80.6132881  46.3146159
  53.7271869  66.9897661  26.6902185  53.7150539  67.9339501  26.8470456
  54.6195291  66.8067806  26.3961647  51.9007831  86.9135565  38.1159863
  52.8035078  86.9459175  38.4326358  51.6745201  85.9836016  38.1306199
  53.6561433  85.6666551  34.7769942  52.7057064  85.6668413  34.6634314
  53.9593919  84.9199286  34.2605977  49.5465750  69.8725233  45.0353303
  50.4097211  69.5162038  45.2456628  48.9731160  69.5339128  45.7228708
  69.3914127  91.5027090  35.8415704  70.0292537  91.3833837  35.1379044
  69.2734970  92.4507934  35.9003656  66.2003833  91.4554518  35.7777229
  65.8622344  91.3395582  34.8897764  67.0693601  91.0545683  35.7578235
  62.0590649  93.3089994  31.7674120  61.4955514  93.2179931  30.9990408
  61.9443044  92.4889899  32.2476613  66.6823616  92.6089369  41.7363435
  66.6712257  92.2142168  40.8643938  66.8444255  91.8755442  42.3297206
  59.6055081  94.8041186  34.6058340  60.3976372  94.4632010  34.1904640
  59.8451731  94.9136161  35.5260494  67.6390207  96.9760962  27.0788585
  66.9878187  97.5615042  26.6922599  68.4334570  97.5067157  27.1383622
  61.5645834  94.0650099  27.4775719  62.3376710  93.5179086  27.3388595
  61.9171233  94.9294348  27.6890181  63.4030877  95.3926481  40.6842619
  63.1120743  96.2972112  40.5689285  64.0387861  95.4343009  41.3986688
  64.3287084  92.7703330  37.2743978  64.9250656  92.5459352  36.5600941
  64.3862055  92.0288075  37.8769426  63.9012112  90.2242765  25.1094169
  64.1537633  89.7024286  24.3477632  62.9636671  90.0608911  25.2120853
  68.9455395  89.2278544  32.9168912  69.7318484  88.8097967  32.5659329
  69.2094099  90.1324636  33.0850561  69.1165472  94.6651394  27.6157569
  68.4811305  94.7386020  28.3278474  68.7862879  95.2544993  26.9376648
  74.3463822  89.1653777  33.8201891  75.0788994  88.5952994  34.0539720
  73.5903178  88.7775377  34.2608396  63.6208401  92.1270871  27.3118544
  63.5044659  91.4515774  27.9799628  63.7310661  91.6403245  26.4950697
  65.9639942  91.5881018  31.0165233  65.5998149  91.0611639  31.7278155
  66.8207058  91.1979487  30.8431719  71.8689243  82.8775351  38.2796499
  71.5372567  83.7470762  38.0557714  71.2734856  82.5611635  38.9590530
  65.6045429  86.6170918  26.0126582  65.7719831  87.4851154  26.3797053
  65.4142598  86.7798200  25.0887871  68.3620762  95.0787897  37.6792412
  68.0621485  95.9812936  37.5708219  68.0171822  94.8120080  38.5313565
  61.8133244  91.5301694  33.7129117  60.8883740  91.3977908  33.9206808
  62.0617657  92.3095913  34.2099059  71.7617906  87.5970437  35.3589850
  70.8534783  87.5285845  35.0648611  71.7105502  88.0742382  36.1871675
  65.5834650  89.0728575  26.9973249  65.4634275  89.5185626  27.8358729
  64.8887238  89.4213893  26.4386787  59.1742055  91.1734967  34.5472906
  59.3034436  91.4269446  35.4612317  58.4939506  91.7662675  34.2277561
  63.3441542 101.8432217  30.6463380  63.2665572 102.7940042  30.7251860
  62.7403186 101.4978090  31.3038306  65.8358772  89.0160083  43.3024747
  65.0592106  89.5754003  43.2927611  66.4749335  89.5016866  43.8239617
  73.6279552  85.7986875  37.1367723  72.9853933  86.0919409  36.4907518
  73.1234481  85.6839796  37.9420920  71.2819716  89.5450049  27.8253583
  72.1937572  89.7777435  27.6501280  70.7729363  90.1287093  27.2628661
  64.0905144  91.8245536  42.8642714  64.8319828  92.3630580  42.5877537
  63.3842129  92.4511825  43.0214266  69.5660484  93.9674676  41.4614875
  69.9743840  93.5257087  40.7169508  68.8437745  93.3927304  41.7149068
  65.9191554  88.9047283  38.8348432  66.7652749  89.3286697  38.9783081
  65.8590191  88.2480907  39.5286995  69.8889298  94.5275867  35.2167164
  69.2598161  94.6921581  34.5143232  69.5014960  94.9417477  35.9878128
  73.7678530  95.4630305  32.5711528  73.0829568  95.8429206  32.0208561
  73.8522380  96.0725632  33.3043476  69.0690999  86.5651652  40.4929606
  68.8251931  87.3193712  39.9563882  69.3450930  86.9436999  41.3276853
  71.0229462  93.1090264  39.1706871  71.2346357  93.7522024  38.4941253
  70.9759210  92.2752580  38.7028802  68.6255691  85.7208085  36.0743444
  67.7640170  86.0189338  36.3660181  68.6518125  85.9378483  35.1424476
  65.4417260  94.2650275  32.4817249  65.9055606  94.5437978  31.6921872
  65.1774058  93.3633720  32.2990340  62.3341341  93.8121757  35.4197013
  62.9042698  94.2409025  34.7814497  62.9249453  93.5304341  36.1181198
  64.3786146  90.3873428  29.2906814  65.0810190  90.8394471  29.7580741
  64.0466775  89.7457246  29.9186708  62.8266508  88.9785184  43.6658024
  62.1965168  89.6601465  43.8993421  62.7202596  88.8668266  42.7211162
  58.1211480  88.6456980  34.5923948  57.3310534  88.9014509  34.1164059
  58.6122728  89.4605318  34.6975989  72.1375290  95.9862219  37.3429229
  72.9592733  95.5842407  37.0611910  72.1337693  95.8830453  38.2945345
  60.0726226  89.0101559  31.5507425  59.2757389  89.1220254  32.0690920
  59.8451818  89.3488212  30.6848315  65.9031893  95.5346263  39.4989939
  65.9676326  95.9966670  40.3348111  65.1942817  94.9043628  39.6272249
  56.4049183  88.8987471  37.0238939  56.6557222  89.7834481  37.2896515
  56.9408732  88.7192072  36.2514031  80.2281283  92.3300968  33.6914200
  79.4744991  91.7608366  33.5358205  80.3628824  92.2963632  34.6384835
  65.6179911  97.2014370  29.3668920  65.4825586  98.0465906  29.7953767
  66.1589723  97.4033648  28.6034853  62.1047250  83.2805950  46.0283275
  61.7114196  82.7272149  46.7030919  62.9213391  83.5916528  46.4189792
  59.0709308  94.7189808  29.9396845  59.5833829  95.5133058  30.0902409
  59.7232021  94.0216099  29.8730446  60.8804193  97.8355564  32.0219598
  61.0570821  98.7573529  31.8340582  61.6761026  97.5213984  32.4513978
  65.0215211  84.6963829  43.6203531  65.7624925  85.2970982  43.5407994
  65.2533134  83.9541467  43.0621574  60.1656549  89.8820196  41.8981761
  60.0510065  88.9805454  42.1988860  59.3101067  90.1283893  41.5466578
  67.2448387  97.8237937  43.4969262  66.8012241  97.0374315  43.1790166
  67.9065601  98.0117087  42.8313153  62.0035508  99.3533738  38.0229940
  62.5542934  99.2250802  37.2506934  61.1646984  99.6528627  37.6724833
  69.3429625  98.1040737  41.5250663  69.3248101  98.9249618  41.0330932
  70.2649545  97.9794812  41.7500804  65.8002679  95.6184866  42.3674171
  66.3331016  94.8573154  42.1373479  65.2716761  95.3258518  43.1098326
  68.9672374  80.7244932  37.8967813  68.6236644  81.6146574  37.8206924
  69.3351337  80.5346590  37.0337398  57.0358225  93.0478462  30.7156415
  57.8733447  93.4575471  30.4990123  57.2136493  92.1077905  30.6856609
  68.9322657  90.7153543  26.4040248  68.4169281  91.4858148  26.6428636
  68.6599966  90.0418679  27.0273310  66.5169768  85.5603244  31.4625487
  65.6611365  85.1710094  31.2831125  66.9296720  85.6395205  30.6025272
  68.0468915  83.0949587  35.8617046  67.5433710  83.0579722  35.0484852
  68.3399522  84.0042330  35.9213703  64.2911801  83.1788317  34.8683228
  65.1564797  82.9831126  34.5089118  64.3589310  82.9498669  35.7952585
  73.9056931  93.4685898  28.3393422  73.1286374  93.1297057  27.8948584
  74.5848412  93.4738521  27.6648387  68.7208960  88.5880635  28.2300029
  68.4159096  88.9026784  29.0810173  69.6739402  88.6662055  28.2727362
  67.1655392  94.7470859  29.8792983  66.6376754  94.0123618  29.5666221
  66.6642895  95.5245535  29.6332952  72.1448238  92.9419879  34.9960030
  71.4871913  93.6319140  35.0840158  72.9488637  93.3316311  35.3394016
  61.8974120  85.4090525  32.2399595  62.4717872  85.1865706  31.5072788
  62.4845102  85.4779219  32.9928196  70.9553697  91.2964252  33.0463971
  71.4685579  91.9294244  33.5485681  71.6054921  90.6965447  32.6807331
  62.2243707  87.4394986  26.2595480  61.3881019  87.7769672  26.5804755
  62.0848477  87.3043966  25.3222617  64.1996787  82.2831774  30.9674664
  63.5461200  81.9680791  30.3431279  64.1577262  81.6607514  31.6934487
  65.3107992  92.5651069  22.8827956  64.4035054  92.3340322  23.0819105
  65.8079024  91.7688688  23.0701938  68.2176071 101.2748576  25.8024643
  67.5437770 101.5780273  26.4109600  68.6041893 102.0777656  25.4530100
  67.4334528  88.7713707  35.2922312  66.5157089  88.9928654  35.1344000
  67.8494671  88.8460018  34.4334019  68.2169576  90.1705123  30.4224992
  68.9641395  90.6826520  30.1132114  68.4861165  89.8489176  31.2829386
  66.4896226  92.6663664  27.4051947  65.5807445  92.3822696  27.5024416
  66.5191310  93.0862742  26.5455253  71.7215493  96.2770253  31.1743114
  71.2677820  95.4361163  31.2308305  71.0909460  96.9131652  31.5117894
  70.6648413  87.2062239  32.4043782  69.9271170  86.6939625  32.7354024
  70.9175186  86.7662621  31.5927058  70.1648432  98.1146750  32.1092932
  70.4571407  98.6751807  31.3905298  70.6747053  98.4075311  32.8646091
  70.7660040  79.9838491  32.9985551  71.0718917  79.1235855  32.7111466
  71.4912645  80.5756111  32.7984545  57.0584396  90.3869178  31.3867149
  56.8608796  89.7938538  30.6618215  56.5031060  90.0821388  32.1043088
  65.0381120  90.2792284  33.5061742  65.0929730  89.3266121  33.4304218
  64.2272322  90.4351723  33.9903040  66.1872314  94.2072407  24.7440025
  65.7491744  93.4908266  24.2845662  66.9282754  94.4348522  24.1825116
  62.9773480  88.8969344  31.2652121  62.1641345  89.1963515  31.6717313
  63.4732474  88.5025033  31.9826603  65.1282058  98.8927101  33.1986385
  65.0858236  99.1187947  32.2694917  66.0444756  98.6590476  33.3472187
  68.5747691  89.3611168  40.0967015  68.9297079  89.5882642  40.9561480
  69.2219823  89.6929545  39.4744270  74.3045428  92.4829604  30.8016344
  74.1663327  92.6731200  29.8737533  73.9481647  93.2448987  31.2584395
  62.4687555  86.4687700  36.8813356  63.1086934  86.3276459  36.1836319
  61.6365085  86.1822213  36.5051958  74.3314808  94.5506131  35.8127615
  74.7651315  94.4581420  36.6610669  75.0446389  94.5263632  35.1747631
  63.2447858  95.7690130  32.9948348  64.0388457  95.2740450  32.7930923
  62.5339551  95.2407993  32.6316054  68.0642703  98.1508225  37.3460716
  68.1179725  98.7199162  38.1138432  67.1957484  98.3210111  36.9814753
  59.5530622  89.9133212  29.0708101  58.6228210  89.8517667  29.2878063
  59.6488094  89.3909164  28.2744742  59.4716171  86.4388025  31.6586342
  59.7322988  87.3533358  31.5495503  60.2933343  85.9712467  31.8082955
  60.9441096  87.8525782  38.8285167  61.6164150  87.6443144  38.1797816
  60.1170883  87.6547868  38.3890399  75.1930358  94.5929832  38.3460501
  75.3866248  95.4975643  38.5919775  75.0930976  94.1337251  39.1799086
  66.8466668  84.4787723  40.8450828  66.1994583  85.1777672  40.7515304
  67.6167684  84.9123867  41.2127076  70.2545466  94.7436575  43.9201381
  70.1030973  94.5147126  43.0031465  70.2450146  95.7007176  43.9332726
  67.0230803  92.3168488  38.9047648  67.9522863  92.4679647  38.7316615
  66.6021833  92.4052508  38.0496294  65.8219134  96.3419152  36.6746185
  65.6830220  95.9737936  37.5472123  65.0333731  96.8566791  36.5030143
  66.4167286 101.4428248  28.0171722  66.5919042 100.9716292  28.8317344
  65.7300074 102.0694015  28.2452982  67.3724350  95.7200755  34.0635023
  67.0374182  95.6801525  34.9592673  66.8728295  95.0545471  33.5905433
  61.3468594  91.1268385  39.5887604  61.2088391  90.3948623  40.1899143
  62.2573517  91.0377285  39.3071792  70.3083541  93.0656789  24.3372083
  69.6912712  92.3403617  24.2405135  69.8400030  93.8266149  23.9939157
  63.9750894  90.8388344  39.0771284  64.6850513  90.1981536  39.0357902
  63.9320202  91.0901239  39.9997465  71.9637673  97.7755697  41.9977863
  71.9050219  97.0914917  41.3308446  72.3657191  98.5174687  41.5458489
  62.6879828  87.8253562  40.8966923  62.1517185  87.3744300  41.5488520
  62.0996537  87.9599471  40.1537388  60.9828372 104.5917611  34.7911582
  61.2224970 105.2236135  35.4690601  60.1397568 104.2405651  35.0776941
  62.0982087  87.2842213  23.4593387  61.2211553  87.1631014  23.0955634
  62.5739840  86.4928292  23.2072276  71.9655080  95.7395281  40.2291843
  71.0781859  95.4021203  40.3518242  72.5353631  95.0078312  40.4660608
  53.6184227  92.0719373  33.5534894  54.3055267  91.7581103  32.9655909
  53.4632356  92.9760738  33.2802146  58.4218949  86.9609570  37.9819918
  58.3377138  86.3535239  37.2470328  57.6001656  87.4518588  37.9829414
  65.4956234 100.3996734  37.1953086  65.4226405 101.2051705  37.7072390
  65.0533627 100.5988699  36.3701107  65.2846013  99.6368504  30.7055907
  64.5013535 100.1790184  30.7994132  65.9838758 100.1542483  31.1050149
  68.5942663  85.4463133  33.3490113  69.0911363  84.6933095  33.0291183
  67.8229645  85.4827450  32.7833322  76.4472421  91.1503499  34.9908404
  76.4362297  92.0328214  34.6202337  75.5789800  90.7975049  34.7962941
  67.9554917 100.2983568  39.3511245  68.6682889 100.9331032  39.2787146
  67.4644946 100.3947434  38.5351246  69.6772444  94.2034820  30.9228536
  68.7428723  94.3236283  30.7533241  69.8549112  93.3007287  30.6588546
  65.1777632  87.5880516  33.0761797  64.8075420  87.0351556  33.7642703
  65.6736724  86.9838650  32.5236797  73.0644995  90.0452140  31.4578570
  73.5305448  90.8780131  31.3838873  73.5152496  89.5797121  32.1623829
  63.0066831  98.0478011  40.1716815  63.7076290  98.6814494  40.3246210
  62.5361946  98.3892743  39.4112455  71.1321226  96.3895961  28.4564722
  71.4081070  96.2752555  29.3658597  70.2625725  95.9913446  28.4176896
  71.0361658  82.4132727  35.4969472  70.1224738  82.6436953  35.6651679
  71.4654760  82.4971171  36.3483504  70.8068117  90.6022619  37.9969366
  70.1539567  90.8498526  37.3421819  71.1848496  89.7886757  37.6631843
  67.7675290 100.6382312  32.0997536  67.9497685  99.8203968  32.5625288
  68.5908276 100.8550004  31.6622426  68.1017456  99.5650497  29.3612585
  68.6305222  99.0542951  28.7482747  68.3645676  99.2493027  30.2258118
  66.8555690  91.3442430  44.4835403  66.1796327  91.2436559  45.1537778
  67.6783323  91.1881643  44.9471400  58.6034549  97.5814366  37.1047918
  59.1887985  96.8358054  37.2375822  58.4059387  97.8918323  37.9884582
  61.4573204 100.6165614  32.1210360  60.7883579 101.1011741  31.6374401
  61.3186074 100.8634834  33.0353739  53.1952203  90.1519966  35.8252361
  53.2336303  89.6183557  36.6189479  52.6892496  89.6255172  35.2063338
  65.5978472 102.6509357  38.7193019  66.1496780 102.8140979  39.4842104
  65.9384666 103.2413795  38.0473044  60.5742966  84.9984507  39.3214904
  60.6384292  85.8599338  38.9092301  60.5110086  84.3858509  38.5887262
  60.0495238  87.0707639  42.9687938  60.6767277  86.6884717  43.5825462
  59.1923157  86.8521841  43.3343630  70.4489347  97.4770615  44.5741673
  70.9929251  98.0900573  44.0796628  69.8676192  98.0350193  45.0908686
  56.8260781  88.8784069  28.9006293  57.1214222  87.9694747  28.8473346
  55.9248817  88.8571808  28.5787295  68.7346860 100.5991333  35.7056701
  68.6097999  99.7981072  35.1967646  69.3925951 101.0937526  35.2170671
  60.3555028  86.9540065  34.8833841  59.6341614  87.5676033  34.7441315
  61.1448284  87.4897830  34.8050487  70.7981768  98.4000353  37.3336251
  69.8512104  98.2805704  37.2614578  71.1464541  97.5122851  37.4162513
  63.1581341  84.2894492  41.1574493  63.6815743  84.5356788  41.9200802
  62.9393675  85.1214526  40.7377630  58.5548623  86.5598166  29.0245618
  58.2261329  85.6795545  28.8420724  58.9087993  86.5045835  29.9122007
  67.8028201  98.1953069  33.5340603  67.6553164  97.2669776  33.7148173
  68.6281695  98.2173160  33.0497679  61.6690446  86.8471136  29.3921095
  62.0086518  87.3757057  28.6699704  62.1162566  87.1851542  30.1679662
  71.4062323  99.0181628  34.6205476  72.3308871  98.8124489  34.4829927
  71.2377627  98.7698029  35.5294818  64.3633887  85.2308187  38.8424164
  64.0230707  84.4316000  39.2444843  63.6572893  85.5309898  38.2700997
  65.0150358  82.3157499  37.2951487  65.8376428  81.8417977  37.1730377
  65.2588422  83.0947983  37.7950173  63.6558593  85.3445758  27.5914388
  64.3766955  85.7227010  27.0878105  63.0323897  86.0634634  27.6949366
  67.7989716  86.0490907  28.5272721  68.0153330  86.9315544  28.2261549
  67.3183783  85.6577120  27.7978363  62.5388937  89.0076620  35.1043465
  62.3933518  89.3216923  35.9967747  62.0614141  89.6261520  34.5514364
  64.3985320  85.9979168  35.1524355  64.3846889  85.1020261  34.8156653
  65.1157748  86.0049831  35.7862641  66.2511451  86.4316508  37.1977482
  65.9929229  87.3533579  37.1961813  65.7196491  86.0346942  37.8877946
  71.1957639  99.5367295  29.9767568  71.3694517  98.9713718  29.2241420
  71.6886531 100.3368190  29.7947057  57.0134599  91.5481964  38.0431126
  56.4688067  92.3241772  38.1751401  57.8913949  91.8952769  37.8850248
  63.8022216  84.8793548  30.4211925  63.9238127  83.9510194  30.6202812
  63.5124258  84.8932234  29.5090240  66.6713406  82.5648458  33.5578645
  66.6935103  82.6287792  32.6030624  67.0881465  81.7252967  33.7519151
  77.0497031  92.3003718  31.5957867  77.4928177  91.5511043  31.1976991
  76.1723541  92.2913854  31.2131599  72.1832812  98.8534059  27.0764466
  72.8783717  99.4740752  27.2951780  72.5255962  98.0029411  27.3516844
  57.8000621  90.6751860  40.9361283  57.0582357  90.8234496  41.5225914
  57.4793365  90.9360126  40.0728033  74.0824235  96.3033765  28.6051797
  74.6075559  96.6421038  27.8801117  73.9946588  95.3680780  28.4214931
  65.7444284 100.2167839  40.7341673  66.0531410  99.9716985  41.6064373
  66.5419766 100.4214477  40.2460543  65.7664896 102.3705748  32.9647050
  65.3269886 101.8782127  33.6579906  66.5173013 101.8278716  32.7239125
  58.2457235  98.5617289  32.9671678  59.0715255  98.2621061  32.5870321
  57.8951287  97.7924912  33.4161466  63.2138768  97.9143757  35.0369351
  62.5918777  97.2514462  34.7371579  63.8843635  97.9404889  34.3542999
  56.4465840  96.4803616  33.9260611  55.6097748  96.0525790  33.7444613
  56.4189485  96.6736059  34.8631403  63.2863295  86.3925545  44.6301857
  63.3351451  87.2687668  44.2479627  63.8285810  85.8502938  44.0573501
  73.7718141  96.9366669  43.9102995  72.9813685  96.9190807  43.3707494
  73.5351496  97.4754962  44.6652031  73.8916016  93.7859135  41.2235723
  73.9414021  93.6209142  42.1651246  73.7829940  92.9186394  40.8333604
  62.7752275  96.4647681  28.5127812  62.9240395  97.1483145  27.8594485
  63.5818718  96.4452771  29.0277268  71.1819779  89.7690063  42.5395030
  72.0829641  89.6296528  42.2479028  71.2567753  89.9344518  43.4793207
  65.5162584  87.1456918  41.3848216  64.6465893  87.4390484  41.1130805
  65.7522064  87.7297363  42.1055480  75.3934213  96.2056077  41.4677745
  75.1019021  96.5686057  42.3041206  74.7806344  95.4923085  41.2891077
  76.5929895  93.7708956  33.9880315  77.4276787  94.2098760  34.1517875
  76.7289024  93.2947610  33.1688561  73.6421401  91.3288691  39.9357803
  74.1175523  91.5216337  39.1276654  72.7186967  91.3847877  39.6901186
  60.5304908  92.4912858  29.5188881  60.2850950  91.5875188  29.7169091
  60.7000822  92.4930009  28.5768359  68.2201618  83.3636535  38.9013636
  68.7383562  84.0997562  38.5760125  67.8656751  83.6700528  39.7360396
  59.8000555  88.2241216  27.0175042  59.1069800  88.2985571  26.3615078
  59.5552307  87.4601560  27.5396559  68.4714212  79.7836817  34.4214533
  68.7515966  79.1160006  35.0474960  69.2564819  79.9765913  33.9089197
  66.2747680  98.9595811  25.9839559  65.7021647  99.5785998  25.5310031
  66.8480474  99.5095173  26.5179481  72.3423070  88.2054451  38.1686108
  73.2940493  88.3052549  38.1898332  72.1726521  87.4132720  38.6784193
  70.3637450  85.2910034  38.3545509  69.7687382  85.5715047  37.6591998
  70.0787146  85.7803935  39.1262250  69.4944940  99.2432961  27.1148142
  70.4275613  99.1778523  27.3181017  69.4068153 100.0789228  26.6562674
  72.1232957  98.5598832  24.0752089  72.0446588  98.2258695  24.9687847
  72.9442624  99.0520600  24.0743562  74.8211148  91.4260571  37.2828408
  74.7887468  90.4876572  37.4688092  75.4311772  91.5044608  36.5494233
  66.6594479  90.2956624  23.3255612  67.6053584  90.1662832  23.3944030
  66.2808724  89.5571286  23.8025040  74.9705637  88.2171614  37.3286691
  74.4544685  87.4330071  37.1416620  75.8545585  87.8890331  37.4933211
  72.6316363  81.9612630  33.2882504  72.4341185  81.6527718  34.1725836
  73.2416069  82.6874269  33.4180434  80.6387698  92.4876578  36.4234445
  81.3691086  92.2261866  36.9842148  80.0294643  91.7505300  36.4636513
  78.7202995  90.6284440  37.0208896  77.9936159  90.4940405  36.4125387
  78.3050282  90.9361269  37.8265614  66.5433171  94.3474370  44.7856269
  67.4636181  94.5252969  44.9796315  66.5082754  93.4030415  44.6335968
  64.8437396  88.2206600  23.2610497  63.9368851  87.9239713  23.3373211
  65.1213377  87.9236418  22.3944783  55.7615336  89.5412964  33.7109544
  55.4418121  88.6878272  33.4183918  55.2148765  89.7561542  34.4667511
  59.5395244  92.2575405  37.4279050  59.7581254  93.1892513  37.4467084
  59.9521018  91.8983379  38.2133854  66.4599462  82.7643490  29.4154738
  65.6500190  82.4190575  29.7909984  67.1483879  82.4551034  30.0042350
  68.3890010  81.8421537  31.0379035  68.9421049  82.2616990  31.6969058
  68.6260096  80.9157285  31.0801991  64.4123109  87.8308610  46.8181799
  64.3119836  88.7802967  46.7493890  64.1944651  87.5026849  45.9457869
  63.6136181  85.0793536  23.4022476  64.4755345  85.4048434  23.6618294
  63.7986525  84.2925031  22.8895542  55.6303596  93.1615875  35.6802665
  54.9367068  92.7469828  35.1672620  56.3776587  93.2036412  35.0836084
  71.7668817  83.9522062  30.5457699  71.1867486  84.6106866  30.1635752
  71.5004750  83.1299407  30.1345117  70.2172384  83.3527120  32.7479020
  70.7172162  83.4643654  31.9393338  70.8607991  83.0488173  33.3879828
  64.2754379  91.2605749  45.6346861  63.7921461  92.0606109  45.8410750
  64.3615318  91.2713694  44.6814305  57.5440339  93.0934129  33.5568680
  57.5211027  93.1921816  32.6050563  57.8540975  93.9399280  33.8785846
  60.2027717  95.1510284  37.6715294  61.1570970  95.1194226  37.6045226
  60.0040240  94.6900908  38.4865520  60.7927099  93.7211400  40.2386092
  61.6119988  94.2155479  40.2620929  61.0663907  92.8043368  40.2103660
  70.5493695  86.1122152  29.6014048  69.6619550  86.3971803  29.3834242
  70.9647684  85.9515916  28.7541324  73.9008231  86.1368673  33.3168387
  74.6768621  86.6265126  33.5893004  73.1756365  86.5626728  33.7740256
  76.3380790  86.8496293  34.3742327  76.9325281  86.6092029  33.6635636
  76.4107374  86.1303423  35.0015864  58.5577946 100.6929903  34.6885492
  58.4232414  99.9330304  34.1223490  58.1410008 101.4170803  34.2214281
  69.6936909  95.8766827  23.6962068  70.3972759  96.0816830  24.3119723
  68.9699557  96.4443589  23.9611151  70.5234719  91.6276688  29.8164338
  70.4669920  92.0845240  28.9771970  71.0763061  90.8667373  29.6387180
  74.3339525  87.4166420  30.6414457  74.0776459  87.0163056  31.4722665
  73.7092393  88.1310214  30.5164596  78.6451863  90.1562493  33.1485749
  78.0851421  90.2255683  33.9217311  78.0395366  89.9803478  32.4285245
  61.7147071 101.5899221  34.9003935  61.5979456 102.5344653  34.7982625
  60.8939518 101.2872782  35.2889734  71.6023606  96.3149356  25.7460528
  72.4369210  95.8830555  25.5638002  71.4407949  96.1431370  26.6737422
  71.2569498  92.8181470  27.1116867  71.2018302  92.6525741  26.1705311
  70.6315553  93.5257502  27.2679057  56.0462013  88.0549534  40.9378289
  56.6920877  87.5448488  41.4265514  55.8379164  88.7918216  41.5121714
  68.5715405  95.1230381  46.4370430  69.4406565  95.2971034  46.0757065
  68.0922157  95.9424798  46.3146159  64.5665624  82.3189579  26.6902185
  64.5544294  83.2631418  26.8470456  65.4589046  82.1359724  26.3961647
  62.7401586 102.2427482  38.1159863  63.6428832 102.2751093  38.4326358
  62.5138956 101.3127933  38.1306199  64.4955188 100.9958469  34.7769942
  63.5450819 100.9960331  34.6634314  64.7987674 100.2491204  34.2605977
  68.3817743  78.9132355  30.9448122  67.6150139  78.3590842  31.0904804
  68.7928448  78.9854224  31.8062274  60.3859504  85.2017151  45.0353303
  61.2490966  84.8453956  45.2456628  59.8124915  84.8631046  45.7228708
  80.2307881 106.8319007  35.8415704  80.8686291 106.7125755  35.1379044
  80.1128724 107.7799851  35.9003656  77.0397587 106.7846435  35.7777229
  76.7016099 106.6687500  34.8897764  77.9087356 106.3837601  35.7578235
  72.8984403 108.6381912  31.7674120  72.3349268 108.5471849  30.9990408
  72.7836798 107.8181816  32.2476613  77.5217370 107.9381287  41.7363435
  77.5106011 107.5434085  40.8643938  77.6838010 107.2047360  42.3297206
  70.4448835 110.1333103  34.6058340  71.2370127 109.7923928  34.1904640
  70.6845485 110.2428079  35.5260494  78.4783962 112.3052880  27.0788585
  77.8271942 112.8906960  26.6922599  79.2728325 112.8359074  27.1383622
  72.4039589 109.3942017  27.4775719  73.1770465 108.8471004  27.3388595
  72.7564988 110.2586266  27.6890181  74.2424632 110.7218399  40.6842619
  73.9514498 111.6264030  40.5689285  74.8781616 110.7634927  41.3986688
  75.1680838 108.0995248  37.2743978  75.7644411 107.8751270  36.5600941
  75.2255810 107.3579993  37.8769426  74.7405867 105.5534683  25.1094169
  74.9931387 105.0316204  24.3477632  73.8030426 105.3900828  25.2120853
  79.7849150 104.5570461  32.9168912  80.5712239 104.1389884  32.5659329
  80.0487854 105.4616553  33.0850561  79.9559227 109.9943312  27.6157569
  79.3205060 110.0677938  28.3278474  79.6256633 110.5836910  26.9376648
  85.1857577 104.4945694  33.8201891  85.9182749 103.9244911  34.0539720
  84.4296932 104.1067295  34.2608396  74.4602156 107.4562789  27.3118544
  74.3438414 106.7807692  27.9799628  74.5704415 106.9695163  26.4950697
  76.8033696 106.9172936  31.0165233  76.4391904 106.3903557  31.7278155
  77.6600812 106.5271405  30.8431719  82.7082997  98.2067268  38.2796499
  82.3766322  99.0762679  38.0557714  82.1128610  97.8903553  38.9590530
  76.4439183 101.9462836  26.0126582  76.6113586 102.8143072  26.3797053
  76.2536353 102.1090117  25.0887871  79.2014517 110.4079814  37.6792412
  78.9015240 111.3104853  37.5708219  78.8565576 110.1411998  38.5313565
  72.6526998 106.8593611  33.7129117  71.7277495 106.7269825  33.9206808
  72.9011411 107.6387831  34.2099059  82.6011660 102.9262355  35.3589850
  81.6928538 102.8577763  35.0648611  82.5499256 103.4034300  36.1871675
  76.4228404 104.4020493  26.9973249  76.3028030 104.8477544  27.8358729
  75.7280993 104.7505811  26.4386787  70.0135809 106.5026885  34.5472906
  70.1428190 106.7561364  35.4612317  69.3333260 107.0954593  34.2277561
  74.1835296 117.1724135  30.6463380  74.1059326 118.1231960  30.7251860
  73.5796940 116.8270007  31.3038306  76.6752526 104.3452000  43.3024747
  75.8985860 104.9045920  43.2927611  77.3143089 104.8308783  43.8239617
  84.4673307 101.1278793  37.1367723  83.8247687 101.4211326  36.4907518
  83.9628235 101.0131713  37.9420920  82.1213470 104.8741966  27.8253583
  83.0331327 105.1069353  27.6501280  81.6123118 105.4579010  27.2628661
  74.9298899 107.1537454  42.8642714  75.6713583 107.6922498  42.5877537
  74.2235884 107.7803742  43.0214266  80.4054238 109.2966594  41.4614875
  80.8137594 108.8549005  40.7169508  79.6831500 108.7219222  41.7149068
  76.7585308 104.2339201  38.8348432  77.6046503 104.6578614  38.9783081
  76.6983946 103.5772825  39.5286995  80.7283053 109.8567785  35.2167164
  80.0991915 110.0213499  34.5143232  80.3408715 110.2709394  35.9878128
  84.6072285 110.7922223  32.5711528  83.9223323 111.1721124  32.0208561
  84.6916134 111.4017549  33.3043476  79.9084754 101.8943569  40.4929606
  79.6645685 102.6485630  39.9563882  80.1844684 102.2728917  41.3276853
  81.8623216 108.4382182  39.1706871  82.0740112 109.0813941  38.4941253
  81.8152965 107.6044498  38.7028802  79.4649445 101.0500002  36.0743444
  78.6033924 101.3481256  36.3660181  79.4911880 101.2670401  35.1424476
  76.2811015 109.5942193  32.4817249  76.7449360 109.8729896  31.6921872
  76.0167813 108.6925637  32.2990340  73.1735096 109.1413674  35.4197013
  73.7436453 109.5700943  34.7814497  73.7643208 108.8596259  36.1181198
  75.2179901 105.7165345  29.2906814  75.9203944 106.1686389  29.7580741
  74.8860529 105.0749164  29.9186708  73.6660262 104.3077102  43.6658024
  73.0358923 104.9893383  43.8993421  73.5596350 104.1960183  42.7211162
  68.9605235 103.9748898  34.5923948  68.1704289 104.2306426  34.1164059
  69.4516482 104.7897236  34.6975989  82.9769044 111.3154137  37.3429229
  83.7986488 110.9134324  37.0611910  82.9731447 111.2122371  38.2945345
  70.9119980 104.3393477  31.5507425  70.1151143 104.4512171  32.0690920
  70.6845572 104.6780129  30.6848315  76.7425648 110.8638180  39.4989939
  76.8070080 111.3258588  40.3348111  76.0336572 110.2335545  39.6272249
  67.2442938 104.2279388  37.0238939  67.4950976 105.1126398  37.2896515
  67.7802486 104.0483990  36.2514031  91.0675037 107.6592885  33.6914200
  90.3138746 107.0900284  33.5358205  91.2022579 107.6255550  34.6384835
  76.4573665 112.5306288  29.3668920  76.3219340 113.3757824  29.7953767
  76.9983478 112.7325565  28.6034853  72.9441005  98.6097868  46.0283275
  72.5507951  98.0564066  46.7030919  73.7607145  98.9208446  46.4189792
  69.9103063 110.0481726  29.9396845  70.4227583 110.8424976  30.0902409
  70.5625776 109.3508016  29.8730446  71.7197947 113.1647482  32.0219598
  71.8964576 114.0865447  31.8340582  72.5154781 112.8505901  32.4513978
  75.8608966 100.0255747  43.6203531  76.6018679 100.6262900  43.5407994
  76.0926889  99.2833385  43.0621574  71.0050304 105.2112114  41.8981761
  70.8903819 104.3097371  42.1988860  70.1494822 105.4575811  41.5466578
  78.0842142 113.1529854  43.4969262  77.6405996 112.3666233  43.1790166
  78.7459355 113.3409005  42.8313153  72.8429263 114.6825656  38.0229940
  73.3936688 114.5542719  37.2506934  72.0040739 114.9820545  37.6724833
  80.1823380 113.4332654  41.5250663  80.1641855 114.2541535  41.0330932
  81.1043300 113.3086729  41.7500804  76.6396434 110.9476784  42.3674171
  77.1724771 110.1865072  42.1373479  76.1110515 110.6550436  43.1098326
  79.8066129  96.0536850  37.8967813  79.4630398  96.9438491  37.8206924
  80.1745092  95.8638507  37.0337398  67.8751980 108.3770380  30.7156415
  68.7127202 108.7867388  30.4990123  68.0530247 107.4369822  30.6856609
  79.7716412 106.0445461  26.4040248  79.2563035 106.8150065  26.6428636
  79.4993720 105.3710597  27.0273310  77.3563523 100.8895162  31.4625487
  76.5005119 100.5002012  31.2831125  77.7690474 100.9687122  30.6025272
  78.8862669  98.4241505  35.8617046  78.3827465  98.3871640  35.0484852
  79.1793276  99.3334248  35.9213703  75.1305555  98.5080235  34.8683228
  75.9958552  98.3123043  34.5089118  75.1983064  98.2790586  35.7952585
  84.7450686 108.7977815  28.3393422  83.9680129 108.4588975  27.8948584
  85.4242167 108.8030439  27.6648387  79.5602715 103.9172553  28.2300029
  79.2552850 104.2318702  29.0810173  80.5133157 103.9953973  28.2727362
  78.0049147 110.0762776  29.8792983  77.4770508 109.3415536  29.5666221
  77.5036649 110.8537453  29.6332952  82.9841993 108.2711797  34.9960030
  82.3265667 108.9611058  35.0840158  83.7882392 108.6608229  35.3394016
  72.7367874 100.7382442  32.2399595  73.3111626 100.5157624  31.5072788
  73.3238857 100.8071137  32.9928196  81.7947451 106.6256169  33.0463971
  82.3079333 107.2586161  33.5485681  82.4448675 106.0257365  32.6807331
  73.0637461 102.7686904  26.2595480  72.2274774 103.1061590  26.5804755
  72.9242231 102.6335883  25.3222617  75.0390542  97.6123691  30.9674664
  74.3854954  97.2972709  30.3431279  74.9971016  96.9899432  31.6934487
  76.1501747 107.8942986  22.8827956  75.2428809 107.6632240  23.0819105
  76.6472779 107.0980606  23.0701938  78.2728282 104.1005625  35.2922312
  77.3550844 104.3220572  35.1344000  78.6888426 104.1751935  34.4334019
  79.0563330 105.4997041  30.4224992  79.8035149 106.0118438  30.1132114
  79.3254920 105.1781093  31.2829386  77.3289980 107.9955581  27.4051947
  76.4201200 107.7114614  27.5024416  77.3585064 108.4154660  26.5455253
  82.5609248 111.6062171  31.1743114  82.1071575 110.7653081  31.2308305
  81.9303214 112.2423569  31.5117894  81.5042167 102.5354157  32.4043782
  80.7664924 102.0231543  32.7354024  81.7568941 102.0954538  31.5927058
  81.0042187 113.4438668  32.1092932  81.2965161 114.0043725  31.3905298
  81.5140807 113.7367229  32.8646091  81.6053795  95.3130409  32.9985551
  81.9112671  94.4527772  32.7111466  82.3306399  95.9048029  32.7984545
  67.8978151 105.7161095  31.3867149  67.7002550 105.1230456  30.6618215
  67.3424815 105.4113306  32.1043088  75.8774874 105.6084202  33.5061742
  75.9323484 104.6558038  33.4304218  75.0666076 105.7643641  33.9903040
  77.0266068 109.5364325  24.7440025  76.5885498 108.8200184  24.2845662
  77.7676509 109.7640440  24.1825116  73.8167234 104.2261262  31.2652121
  73.0035100 104.5255432  31.6717313  74.3126228 103.8316950  31.9826603
  75.9675812 114.2219019  33.1986385  75.9251991 114.4479865  32.2694917
  76.8838511 113.9882393  33.3472187  79.4141446 104.6903086  40.0967015
  79.7690834 104.9174559  40.9561480  80.0613577 105.0221463  39.4744270
  85.1439183 107.8121522  30.8016344  85.0057081 108.0023118  29.8737533
  84.7875402 108.5740905  31.2584395  73.3081309 101.7979617  36.8813356
  73.9480688 101.6568376  36.1836319  72.4758840 101.5114131  36.5051958
  85.1708562 109.8798049  35.8127615  85.6045069 109.7873338  36.6610669
  85.8840143 109.8555550  35.1747631  74.0841613 111.0982048  32.9948348
  74.8782211 110.6032368  32.7930923  73.3733305 110.5699911  32.6316054
  78.9036457 113.4800143  37.3460716  78.9573480 114.0491079  38.1138432
  78.0351239 113.6502028  36.9814753  70.3924376 105.2425129  29.0708101
  69.4621964 105.1809585  29.2878063  70.4881848 104.7201082  28.2744742
  70.3109925 101.7679942  31.6586342  70.5716743 102.6825275  31.5495503
  71.1327098 101.3004385  31.8082955  71.7834851 103.1817699  38.8285167
  72.4557904 102.9735061  38.1797816  70.9564637 102.9839785  38.3890399
  86.0324112 109.9221750  38.3460501  86.2260002 110.8267560  38.5919775
  85.9324730 109.4629169  39.1799086  77.6860423  99.8079640  40.8450828
  77.0388338 100.5069590  40.7515304  78.4561438 100.2415784  41.2127076
  81.0939221 110.0728492  43.9201381  80.9424727 109.8439044  43.0031465
  81.0843900 111.0299094  43.9332726  77.8624557 107.6460405  38.9047648
  78.7916617 107.7971565  38.7316615  77.4415587 107.7344426  38.0496294
  76.6612889 111.6711070  36.6746185  76.5223975 111.3029854  37.5472123
  75.8727485 112.1858709  36.5030143  77.2561041 116.7720166  28.0171722
  77.4312797 116.3008209  28.8317344  76.5693829 117.3985932  28.2452982
  78.2118104 111.0492672  34.0635023  77.8767937 111.0093442  34.9592673
  77.7122050 110.3837388  33.5905433  72.1862348 106.4560302  39.5887604
  72.0482146 105.7240541  40.1899143  73.0967271 106.3669202  39.3071792
  81.1477296 108.3948707  24.3372083  80.5306466 107.6695535  24.2405135
  80.6793784 109.1558067  23.9939157  74.8144649 106.1680262  39.0771284
  75.5244267 105.5273454  39.0357902  74.7713957 106.4193157  39.9997465
  82.8031427 113.1047615  41.9977863  82.7443974 112.4206835  41.3308446
  83.2050946 113.8466605  41.5458489  73.5273583 103.1545480  40.8966923
  72.9910940 102.7036218  41.5488520  72.9390291 103.2891388  40.1537388
  71.8222126 119.9209529  34.7911582  72.0618724 120.5528053  35.4690601
  70.9791323 119.5697569  35.0776941  72.9375842 102.6134131  23.4593387
  72.0605308 102.4922932  23.0955634  73.4133595 101.8220209  23.2072276
  82.8048835 111.0687199  40.2291843  81.9175613 110.7313121  40.3518242
  83.3747386 110.3370230  40.4660608  64.4577982 107.4011291  33.5534894
  65.1449022 107.0873021  32.9655909  64.3026110 108.3052655  33.2802146
  69.2612704 102.2901487  37.9819918  69.1770893 101.6827157  37.2470328
  68.4395410 102.7810506  37.9829414  76.3349988 115.7288651  37.1953086
  76.2620159 116.5343623  37.7072390  75.8927381 115.9280617  36.3701107
  76.1239768 114.9660421  30.7055907  75.3407290 115.5082101  30.7994132
  76.8232513 115.4834401  31.1050149  79.4336418 100.7755051  33.3490113
  79.9305117 100.0225013  33.0291183  78.6623399 100.8119367  32.7833322
  87.2866175 106.4795416  34.9908404  87.2756051 107.3620132  34.6202337
  86.4183555 106.1266967  34.7962941  78.7948672 115.6275485  39.3511245
  79.5076644 116.2622950  39.2787146  78.3038700 115.7239351  38.5351246
  80.5166198 109.5326738  30.9228536  79.5822477 109.6528200  30.7533241
  80.6942867 108.6299205  30.6588546  76.0171386 102.9172434  33.0761797
  75.6469174 102.3643474  33.7642703  76.5130479 102.3130567  32.5236797
  83.9038750 105.3744057  31.4578570  84.3699202 106.2072049  31.3838873
  84.3546250 104.9089039  32.1623829  73.8460585 113.3769929  40.1716815
  74.5470045 114.0106412  40.3246210  73.3755700 113.7184660  39.4112455
  81.9714981 111.7187879  28.4564722  82.2474825 111.6044473  29.3658597
  81.1019480 111.3205363  28.4176896  81.8755413  97.7424644  35.4969472
  80.9618492  97.9728871  35.6651679  82.3048514  97.8263088  36.3483504
  81.6461871 105.9314536  37.9969366  80.9933321 106.1790444  37.3421819
  82.0242251 105.1178674  37.6631843  78.6069045 115.9674229  32.0997536
  78.7891439 115.1495885  32.5625288  79.4302031 116.1841922  31.6622426
  78.9411210 114.8942415  29.3612585  79.4698977 114.3834869  28.7482747
  79.2039430 114.5784945  30.2258118  77.6949444 106.6734347  44.4835403
  77.0190081 106.5728477  45.1537778  78.5177078 106.5173561  44.9471400
  69.4428303 112.9106284  37.1047918  70.0281740 112.1649972  37.2375822
  69.2453142 113.2210241  37.9884582  72.2966958 115.9457531  32.1210360
  71.6277334 116.4303659  31.6374401  72.1579828 116.1926752  33.0353739
  64.0345958 105.4811884  35.8252361  64.0730057 104.9475475  36.6189479
  63.5286251 104.9547090  35.2063338  76.4372227 117.9801275  38.7193019
  76.9890535 118.1432896  39.4842104  76.7778420 118.5705713  38.0473044
  71.4136720 100.3276425  39.3214904  71.4778047 101.1891255  38.9092301
  71.3503840  99.7150426  38.5887262  70.8888993 102.3999557  42.9687938
  71.5161032 102.0176634  43.5825462  70.0316912 102.1813759  43.3343630
  81.2883101 112.8062532  44.5741673  81.8323005 113.4192491  44.0796628
  80.7069946 113.3642111  45.0908686  67.6654535 104.2075986  28.9006293
  67.9607977 103.2986665  28.8473346  66.7642571 104.1863726  28.5787295
  79.5740614 115.9283250  35.7056701  79.4491754 115.1272990  35.1967646
  80.2319705 116.4229444  35.2170671  71.1948782 102.2831983  34.8833841
  70.4735368 102.8967950  34.7441315  71.9842038 102.8189748  34.8050487
  81.6375523 113.7292270  37.3336251  80.6905858 113.6097622  37.2614578
  81.9858296 112.8414768  37.4162513  73.9975096  99.6186409  41.1574493
  74.5209498  99.8648706  41.9200802  73.7787429 100.4506444  40.7377630
  69.3942377 101.8890084  29.0245618  69.0655083 101.0087463  28.8420724
  69.7481748 101.8337753  29.9122007  78.6421956 113.5244987  33.5340603
  78.4946918 112.5961694  33.7148173  79.4675449 113.5465077  33.0497679
  72.5084200 102.1763054  29.3921095  72.8480273 102.7048975  28.6699704
  72.9556321 102.5143460  30.1679662  82.2456078 114.3473545  34.6205476
  83.1702625 114.1416407  34.4829927  82.0771381 114.0989946  35.5294818
  75.2027641 100.5600104  38.8424164  74.8624461  99.7607917  39.2444843
  74.4966647 100.8601815  38.2700997  75.8544113  97.6449417  37.2951487
  76.6770182  97.1709895  37.1730377  76.0982176  98.4239901  37.7950173
  74.4952347 100.6737675  27.5914388  75.2160710 101.0518928  27.0878105
  73.8717651 101.3926552  27.6949366  78.6383470 101.3782824  28.5272721
  78.8547085 102.2607462  28.2261549  78.1577537 100.9869038  27.7978363
  73.3782692 104.3368537  35.1043465  73.2327272 104.6508841  35.9967747
  72.9007895 104.9553438  34.5514364  75.2379074 101.3271085  35.1524355
  75.2240643 100.4312179  34.8156653  75.9551503 101.3341749  35.7862641
  77.0905205 101.7608426  37.1977482  76.8322983 102.6825496  37.1961813
  76.5590246 101.3638860  37.8877946  82.0351394 114.8659213  29.9767568
  82.2088271 114.3005635  29.2241420  82.5280285 115.6660108  29.7947057
  67.8528354 106.8773882  38.0431126  67.3081822 107.6533690  38.1751401
  68.7307704 107.2244686  37.8850248  74.6415970 100.2085466  30.4211925
  74.7631882  99.2802112  30.6202812  74.3518013 100.2224152  29.5090240
  77.5107161  97.8940376  33.5578645  77.5328858  97.9579709  32.6030624
  77.9275220  97.0544885  33.7519151  87.8890785 107.6295636  31.5957867
  88.3321931 106.8802961  31.1976991  87.0117295 107.6205772  31.2131599
  83.0226566 114.1825977  27.0764466  83.7177471 114.8032670  27.2951780
  83.3649717 113.3321328  27.3516844  68.6394376 106.0043778  40.9361283
  67.8976112 106.1526413  41.5225914  68.3187120 106.2652044  40.0728033
  84.9217990 111.6325683  28.6051797  85.4469314 111.9712955  27.8801117
  84.8340342 110.6972698  28.4214931  76.5838038 115.5459756  40.7341673
  76.8925165 115.3008903  41.6064373  77.3813520 115.7506395  40.2460543
  76.6058650 117.6997666  32.9647050  76.1663641 117.2074045  33.6579906
  77.3566767 117.1570634  32.7239125  69.0850989 113.8909207  32.9671678
  69.9109009 113.5912979  32.5870321  68.7345041 113.1216829  33.4161466
  74.0532522 113.2435675  35.0369351  73.4312532 112.5806380  34.7371579
  74.7237389 113.2696807  34.3542999  67.2859594 111.8095533  33.9260611
  66.4491503 111.3817708  33.7444613  67.2583240 112.0027977  34.8631403
  74.1257050 101.7217463  44.6301857  74.1745205 102.5979586  44.2479627
  74.6679564 101.1794856  44.0573501  84.6111896 112.2658586  43.9102995
  83.8207439 112.2482725  43.3707494  84.3745250 112.8046880  44.6652031
  84.7309771 109.1151053  41.2235723  84.7807776 108.9501060  42.1651246
  84.6223694 108.2478312  40.8333604  73.6146029 111.7939598  28.5127812
  73.7634150 112.4775063  27.8594485  74.4212473 111.7744688  29.0277268
  82.0213533 105.0981981  42.5395030  82.9223396 104.9588446  42.2479028
  82.0961508 105.2636436  43.4793207  76.3556338 102.4748835  41.3848216
  75.4859648 102.7682402  41.1130805  76.5915819 103.0589280  42.1055480
  86.2327968 111.5347994  41.4677745  85.9412776 111.8977975  42.3041206
  85.6200099 110.8215002  41.2891077  87.4323650 109.1000874  33.9880315
  88.2670541 109.5390678  34.1517875  87.5682779 108.6239527  33.1688561
  84.4815156 106.6580609  39.9357803  84.9569277 106.8508255  39.1276654
  83.5580721 106.7139795  39.6901186  71.3698662 107.8204776  29.5188881
  71.1244704 106.9167106  29.7169091  71.5394577 107.8221926  28.5768359
  79.0595372  98.6928452  38.9013636  79.5777316  99.4289479  38.5760125
  78.7050505  98.9992446  39.7360396  70.6394310 103.5533134  27.0175042
  69.9463555 103.6277489  26.3615078  70.3946062 102.7893477  27.5396559
  79.3107966  95.1128735  34.4214533  79.5909720  94.4451924  35.0474960
  80.0958573  95.3057831  33.9089197  77.1141435 114.2887729  25.9839559
  76.5415402 114.9077916  25.5310031  77.6874229 114.8387091  26.5179481
  83.1816825 103.5346369  38.1686108  84.1334248 103.6344467  38.1898332
  83.0120275 102.7424637  38.6784193  81.2031204 100.6201952  38.3545509
  80.6081136 100.9006965  37.6591998  80.9180901 101.1095853  39.1262250
  80.3338695 114.5724879  27.1148142  81.2669368 114.5070441  27.3181017
  80.2461908 115.4081146  26.6562674  85.6604903 106.7552489  37.2828408
  85.6281223 105.8168489  37.4688092  86.2705526 106.8336525  36.5494233
  77.4988233 105.6248542  23.3255612  78.4447338 105.4954750  23.3944030
  77.1202478 104.8863203  23.8025040  85.8099391 103.5463532  37.3286691
  85.2938440 102.7621989  37.1416620  86.6939340 103.2182249  37.4933211
  83.4710118  97.2904548  33.2882504  83.2734939  96.9819636  34.1725836
  84.0809824  98.0166187  33.4180434  91.4781452 107.8168495  36.4234445
  92.2084841 107.5553784  36.9842148  90.8688398 107.0797217  36.4636513
  89.5596750 105.9576358  37.0208896  88.8329913 105.8232323  36.4125387
  89.1444036 106.2653187  37.8265614  77.3826926 109.6766288  44.7856269
  78.3029935 109.8544887  44.9796315  77.3476509 108.7322333  44.6335968
  75.6831151 103.5498518  23.2610497  74.7762606 103.2531631  23.3373211
  75.9607132 103.2528336  22.3944783  66.6009091 104.8704881  33.7109544
  66.2811875 104.0170190  33.4183918  66.0542519 105.0853460  34.4667511
  70.3788998 107.5867322  37.4279050  70.5975008 108.5184430  37.4467084
  70.7914772 107.2275297  38.2133854  77.2993216  98.0935408  29.4154738
  76.4893945  97.7482493  29.7909984  77.9877633  97.7842951  30.0042350
  79.2283765  97.1713455  31.0379035  79.7814803  97.5908908  31.6969058
  79.4653851  96.2449203  31.0801991  75.2516864 103.1600528  46.8181799
  75.1513591 104.1094885  46.7493890  75.0338406 102.8318767  45.9457869
  74.4529935 100.4085453  23.4022476  75.3149099 100.7340352  23.6618294
  74.6380279  99.6216949  22.8895542  66.4697351 108.4907793  35.6802665
  65.7760822 108.0761746  35.1672620  67.2170342 108.5328329  35.0836084
  82.6062572  99.2813980  30.5457699  82.0261241  99.9398784  30.1635752
  82.3398504  98.4591324  30.1345117  81.0566138  98.6819037  32.7479020
  81.5565916  98.7935572  31.9393338  81.7001746  98.3780090  33.3879828
  75.1148134 106.5897667  45.6346861  74.6315216 107.3898027  45.8410750
  75.2009073 106.6005612  44.6814305  68.3834093 108.4226047  33.5568680
  68.3604782 108.5213734  32.6050563  68.6934730 109.2691197  33.8785846
  71.0421471 110.4802202  37.6715294  71.9964725 110.4486144  37.6045226
  70.8433995 110.0192825  38.4865520  71.6320853 109.0503318  40.2386092
  72.4513742 109.5447396  40.2620929  71.9057661 108.1335286  40.2103660
  81.3887450 101.4414070  29.6014048  80.5013305 101.7263721  29.3834242
  81.8041439 101.2807833  28.7541324  84.7401986 101.4660591  33.3168387
  85.5162376 101.9557043  33.5893004  84.0150120 101.8918645  33.7740256
  87.1774544 102.1788210  34.3742327  87.7719035 101.9383946  33.6635636
  87.2501128 101.4595341  35.0015864  69.3971700 116.0221821  34.6885492
  69.2626168 115.2622222  34.1223490  68.9803762 116.7462721  34.2214281
  81.3628473 106.9568606  29.8164338  81.3063675 107.4137157  28.9771970
  81.9156816 106.1959291  29.6387180  85.1733279 102.7458338  30.6414457
  84.9170214 102.3454974  31.4722665  84.5486147 103.4602132  30.5164596
  89.4845617 105.4854411  33.1485749  88.9245175 105.5547600  33.9217311
  88.8789121 105.3095396  32.4285245  72.5540826 116.9191138  34.9003935
  72.4373210 117.8636571  34.7982625  71.7333272 116.6164700  35.2889734
  82.4417361 111.6441274  25.7460528  83.2762964 111.2122472  25.5638002
  82.2801703 111.4723288  26.6737422  82.0963253 108.1473387  27.1116867
  82.0412057 107.9817659  26.1705311  81.4709308 108.8549420  27.2679057
  66.8855768 103.3841452  40.9378289  67.5314631 102.8740406  41.4265514
  66.6772919 104.1210133  41.5121714  79.4109160 110.4522299  46.4370430
  80.2800320 110.6262951  46.0757065  78.9315911 111.2716716  46.3146159
  75.4059378  97.6481496  26.6902185  75.3938048  98.5923336  26.8470456
  76.2982800  97.4651642  26.3961647  73.5795340 117.5719400  38.1159863
  74.4822587 117.6043010  38.4326358  73.3532710 116.6419851  38.1306199
  75.3348942 116.3250387  34.7769942  74.3844573 116.3252248  34.6634314
  75.6381428 115.5783121  34.2605977  79.2211498  94.2424273  30.9448122
  78.4543893  93.6882760  31.0904804  79.6322203  94.3146142  31.8062274
  71.2253259 100.5309069  45.0353303  72.0884720 100.1745874  45.2456628
  70.6518669 100.1922963  45.7228708  91.0701636 122.1610925  35.8415704
  91.7080046 122.0417672  35.1379044  90.9522479 123.1091769  35.9003656
  87.8791342 122.1138353  35.7777229  87.5409853 121.9979418  34.8897764
  88.7481110 121.7129518  35.7578235  88.3611125 123.2673205  41.7363435
  88.3499766 122.8726003  40.8643938  88.5231764 122.5339277  42.3297206
  81.2842590 125.4625021  34.6058340  82.0763881 125.1215846  34.1904640
  81.5239240 125.5719996  35.5260494  85.0818386 126.0510317  40.6842619
  84.7908252 126.9555947  40.5689285  85.7175370 126.0926844  41.3986688
  86.0074593 123.4287165  37.2743978  86.6038165 123.2043188  36.5600941
  86.0649564 122.6871911  37.8769426  93.5476752 113.5359186  38.2796499
  93.2160076 114.4054597  38.0557714  92.9522365 113.2195470  38.9590530
  83.4920753 122.1885529  33.7129117  82.5671249 122.0561743  33.9206808
  83.7405166 122.9679748  34.2099059  93.4405415 118.2554272  35.3589850
  92.5322292 118.1869681  35.0648611  93.3893011 118.7326217  36.1871675
  80.8529564 121.8318803  34.5472906  80.9821945 122.0853281  35.4612317
  80.1727015 122.4246511  34.2277561  87.5146281 119.6743918  43.3024747
  86.7379615 120.2337838  43.2927611  88.1536844 120.1600701  43.8239617
  95.3067061 116.4570711  37.1367723  94.6641442 116.7503244  36.4907518
  94.8021990 116.3423631  37.9420920  85.7692653 122.4829371  42.8642714
  86.5107337 123.0214415  42.5877537  85.0629638 123.1095660  43.0214266
  91.2447993 124.6258512  41.4614875  91.6531349 124.1840922  40.7169508
  90.5225254 124.0511139  41.7149068  87.5979063 119.5631119  38.8348432
  88.4440258 119.9870532  38.9783081  87.5377700 118.9064743  39.5286995
  90.7478508 117.2235487  40.4929606  90.5039440 117.9777547  39.9563882
  91.0238439 117.6020835  41.3276853  90.3043200 116.3791920  36.0743444
  89.4427679 116.6773173  36.3660181  90.3305634 116.5962319  35.1424476
  84.0128850 124.4705592  35.4197013  84.5830207 124.8992860  34.7814497
  84.6036962 124.1888177  36.1181198  84.5054017 119.6369019  43.6658024
  83.8752677 120.3185300  43.8993421  84.3990105 119.5252101  42.7211162
  79.7998989 119.3040816  34.5923948  79.0098043 119.5598344  34.1164059
  80.2910237 120.1189153  34.6975989  81.7513735 119.6685395  31.5507425
  80.9544898 119.7804089  32.0690920  81.5239327 120.0072047  30.6848315
  87.5819402 126.1930098  39.4989939  87.6463835 126.6550505  40.3348111
  86.8730326 125.5627463  39.6272249  78.0836692 119.5571306  37.0238939
  78.3344731 120.4418316  37.2896515  78.6196241 119.3775907  36.2514031
  83.7834759 113.9389785  46.0283275  83.3901705 113.3855984  46.7030919
  84.6000900 114.2500364  46.4189792  86.7002720 115.3547664  43.6203531
  87.4412434 115.9554818  43.5407994  86.9320643 114.6125302  43.0621574
  81.8444058 120.5404032  41.8981761  81.7297574 119.6389289  42.1988860
  80.9888576 120.7867728  41.5466578  83.6823017 130.0117574  38.0229940
  84.2330443 129.8834637  37.2506934  82.8434493 130.3112463  37.6724833
  87.4790188 126.2768701  42.3674171  88.0118525 125.5156990  42.1373479
  86.9504270 125.9842353  43.1098326  90.6459883 111.3828767  37.8967813
  90.3024153 112.2730409  37.8206924  91.0138846 111.1930425  37.0337398
  88.1957277 116.2187079  31.4625487  87.3398873 115.8293930  31.2831125
  88.6084229 116.2979040  30.6025272  89.7256424 113.7533423  35.8617046
  89.2221219 113.7163558  35.0484852  90.0187031 114.6626165  35.9213703
  85.9699310 113.8372152  34.8683228  86.8352306 113.6414961  34.5089118
  86.0376819 113.6082504  35.7952585  83.5761629 116.0674360  32.2399595
  84.1505381 115.8449542  31.5072788  84.1632611 116.1363055  32.9928196
  85.8784296 112.9415609  30.9674664  85.2248709 112.6264626  30.3431279
  85.8364771 112.3191350  31.6934487  89.1122037 119.4297543  35.2922312
  88.1944598 119.6512490  35.1344000  89.5282180 119.5043853  34.4334019
  92.4447549 110.6422327  32.9985551  92.7506426 109.7819690  32.7111466
  93.1700154 111.2339947  32.7984545  78.7371905 121.0453013  31.3867149
  78.5396305 120.4522374  30.6618215  78.1818569 120.7405223  32.1043088
  86.7168629 120.9376120  33.5061742  86.7717239 119.9849956  33.4304218
  85.9059831 121.0935559  33.9903040  84.6560989 119.5553179  31.2652121
  83.8428854 119.8547350  31.6717313  85.1519983 119.1608868  31.9826603
  90.2535200 120.0195004  40.0967015  90.6084588 120.2466477  40.9561480
  90.9007332 120.3513381  39.4744270  84.1475063 117.1271535  36.8813356
  84.7874443 116.9860294  36.1836319  83.3152594 116.8406048  36.5051958
  81.1503680 117.0971860  31.6586342  81.4110497 118.0117193  31.5495503
  81.9720852 116.6296302  31.8082955  82.6228605 118.5109617  38.8285167
  83.2951659 118.3026979  38.1797816  81.7958392 118.3131703  38.3890399
  88.5254177 115.1371558  40.8450828  87.8782092 115.8361508  40.7515304
  89.2955193 115.5707702  41.2127076  88.7018312 122.9752323  38.9047648
  89.6310372 123.1263482  38.7316615  88.2809342 123.0636344  38.0496294
  87.5006643 127.0002987  36.6746185  87.3617729 126.6321772  37.5472123
  86.7121240 127.5150627  36.5030143  83.0256102 121.7852220  39.5887604
  82.8875900 121.0532459  40.1899143  83.9361026 121.6961120  39.3071792
  85.6538403 121.4972179  39.0771284  86.3638022 120.8565372  39.0357902
  85.6107711 121.7485074  39.9997465  84.3667337 118.4837397  40.8966923
  83.8304694 118.0328136  41.5488520  83.7784046 118.6183306  40.1537388
  75.2971736 122.7303208  33.5534894  75.9842776 122.4164938  32.9655909
  75.1419865 123.6344573  33.2802146  80.1006458 117.6193405  37.9819918
  80.0164647 117.0119074  37.2470328  79.2789165 118.1102423  37.9829414
  90.2730172 116.1046968  33.3490113  90.7698872 115.3516931  33.0291183
  89.5017154 116.1411285  32.7833322  86.8565141 118.2464351  33.0761797
  86.4862929 117.6935392  33.7642703  87.3524233 117.6422485  32.5236797
  84.6854340 128.7061846  40.1716815  85.3863799 129.3398329  40.3246210
  84.2149455 129.0476578  39.4112455  92.7149167 113.0716562  35.4969472
  91.8012247 113.3020789  35.6651679  93.1442268 113.1555006  36.3483504
  92.4855626 121.2606454  37.9969366  91.8327076 121.5082361  37.3421819
  92.8636005 120.4470592  37.6631843  88.5343199 122.0026265  44.4835403
  87.8583836 121.9020394  45.1537778  89.3570832 121.8465479  44.9471400
  80.2822058 128.2398201  37.1047918  80.8675494 127.4941889  37.2375822
  80.0846896 128.5502158  37.9884582  74.8739712 120.8103802  35.8252361
  74.9123812 120.2767392  36.6189479  74.3680005 120.2839007  35.2063338
  82.2530475 115.6568342  39.3214904  82.3171801 116.5183173  38.9092301
  82.1897595 115.0442344  38.5887262  81.7282747 117.7291475  42.9687938
  82.3554786 117.3468552  43.5825462  80.8710666 117.5105677  43.3343630
  78.5048290 119.5367904  28.9006293  78.8001731 118.6278582  28.8473346
  77.6036326 119.5155643  28.5787295  82.0342537 117.6123900  34.8833841
  81.3129123 118.2259868  34.7441315  82.8235793 118.1481665  34.8050487
  84.8368850 114.9478327  41.1574493  85.3603252 115.1940623  41.9200802
  84.6181184 115.7798362  40.7377630  80.2336132 117.2182002  29.0245618
  79.9048838 116.3379380  28.8420724  80.5875502 117.1629670  29.9122007
  86.0421396 115.8892022  38.8424164  85.7018216 115.0899835  39.2444843
  85.3360402 116.1893733  38.2700997  86.6937867 112.9741334  37.2951487
  87.5163937 112.5001813  37.1730377  86.9375931 113.7531818  37.7950173
  84.2176446 119.6660455  35.1043465  84.0721027 119.9800758  35.9967747
  83.7401650 120.2845355  34.5514364  86.0772829 116.6563003  35.1524355
  86.0634398 115.7604096  34.8156653  86.7945257 116.6633667  35.7862641
  87.9298960 117.0900343  37.1977482  87.6716738 118.0117414  37.1961813
  87.3984000 116.6930778  37.8877946  78.6922108 122.2065799  38.0431126
  78.1475576 122.9825607  38.1751401  79.5701458 122.5536604  37.8850248
  85.4809725 115.5377383  30.4211925  85.6025636 114.6094030  30.6202812
  85.1911767 115.5516069  29.5090240  88.3500915 113.2232294  33.5578645
  88.3722612 113.2871627  32.6030624  88.7668974 112.3836802  33.7519151
  79.4788130 121.3335696  40.9361283  78.7369866 121.4818331  41.5225914
  79.1580874 121.5943961  40.0728033  78.1253349 127.1387451  33.9260611
  77.2885257 126.7109625  33.7444613  78.0976994 127.3319894  34.8631403
  84.9650804 117.0509381  44.6301857  85.0138960 117.9271504  44.2479627
  85.5073319 116.5086774  44.0573501  92.8607288 120.4273898  42.5395030
  93.7617150 120.2880363  42.2479028  92.9355262 120.5928353  43.4793207
  87.1950093 117.8040753  41.3848216  86.3253402 118.0974319  41.1130805
  87.4309573 118.3881198  42.1055480  89.8989127 114.0220370  38.9013636
  90.4171071 114.7581397  38.5760125  89.5444259 114.3284363  39.7360396
  90.1501721 110.4420653  34.4214533  90.4303475 109.7743842  35.0474960
  90.9352328 110.6349748  33.9089197  94.0210579 118.8638287  38.1686108
  94.9728002 118.9636384  38.1898332  93.8514030 118.0716555  38.6784193
  92.0424959 115.9493870  38.3545509  91.4474891 116.2298883  37.6591998
  91.7574655 116.4387771  39.1262250  96.6493146 118.8755450  37.3286691
  96.1332194 118.0913906  37.1416620  97.5333094 118.5474166  37.4933211
  94.3103872 112.6196465  33.2882504  94.1128694 112.3111553  34.1725836
  94.9203578 113.3458104  33.4180434  88.2220680 125.0058205  44.7856269
  89.1423690 125.1836804  44.9796315  88.1870263 124.0614251  44.6335968
  77.4402845 120.1996799  33.7109544  77.1205630 119.3462107  33.4183918
  76.8936274 120.4145377  34.4667511  81.2182753 122.9159240  37.4279050
  81.4368763 123.8476348  37.4467084  81.6308527 122.5567214  38.2133854
  88.1386971 113.4227325  29.4154738  87.3287699 113.0774410  29.7909984
  88.8271388 113.1134869  30.0042350  90.0677519 112.5005372  31.0379035
  90.6208558 112.9200826  31.6969058  90.3047605 111.5741120  31.0801991
  86.0910618 118.4892446  46.8181799  85.9907345 119.4386803  46.7493890
  85.8732160 118.1610685  45.9457869  77.3091105 123.8199711  35.6802665
  76.6154577 123.4053663  35.1672620  78.0564096 123.8620247  35.0836084
  91.8959893 114.0110955  32.7479020  92.3959671 114.1227490  31.9393338
  92.5395500 113.7072008  33.3879828  85.9541888 121.9189585  45.6346861
  85.4708970 122.7189945  45.8410750  86.0402827 121.9297530  44.6814305
  79.2227848 123.7517964  33.5568680  79.1998536 123.8505652  32.6050563
  79.5328484 124.5983115  33.8785846  81.8815226 125.8094119  37.6715294
  82.8358479 125.7778062  37.6045226  81.6827749 125.3484743  38.4865520
  82.4714608 124.3795235  40.2386092  83.2907497 124.8739314  40.2620929
  82.7451416 123.4627204  40.2103660  77.7249522 118.7133369  40.9378289
  78.3708386 118.2032323  41.4265514  77.5166673 119.4502051  41.5121714
  90.0605252 109.5716191  30.9448122  89.2937648 109.0174677  31.0904804
  90.4715957 109.6438059  31.8062274  82.0647013 115.8600986  45.0353303
  82.9278475 115.5037791  45.2456628  81.4912424 115.5214881  45.7228708
  28.6062656  13.4650149  28.7223170  28.5475202  12.7809369  28.0553753
  29.0082175  14.2069139  28.2703796  27.0914330  13.1665066  31.2986980
  27.6354234  13.7795025  30.8041935  26.5101175  13.7244645  31.8153993
  30.4143124  12.6261121  30.6348301  29.6238668  12.6085259  30.0952801
  30.1776479  13.1649414  31.3897338  32.0359196  11.8950528  28.1923051
  31.7444005  12.2580509  29.0286512  31.4231328  11.1817537  28.0136383
  25.2140389  10.8124833  33.1615736  26.0831548  10.9865486  32.8002371
  24.7347140  11.6319250  33.0391466  36.8732864  22.5213459  22.5661011
  37.5111274  22.4020207  21.8624351  36.7553707  23.4694303  22.6248963
  33.6822571  22.4740887  22.5022536  33.3441082  22.3581952  21.6143071
  34.5512339  22.0732052  22.4823542  34.1642354  23.6275739  28.4608741
  34.1530994  23.2328537  27.5889245  34.3262993  22.8941812  29.0542513
  27.0873818  25.8227555  21.3303647  27.8795110  25.4818380  20.9149946
  27.3270469  25.9322530  22.2505800  30.8849615  26.4112851  27.4087925
  30.5939481  27.3158482  27.2934592  31.5206599  26.4529378  28.1231995
  31.8105822  23.7889699  23.9989285  32.4069394  23.5645722  23.2846248
  31.8680793  23.0474445  24.6014733  41.8282560  20.1840146  20.5447198
  42.5607732  19.6139363  20.7785027  41.0721916  19.7961747  20.9853703
  39.3507980  13.8961720  25.0041806  39.0191305  14.7657131  24.7803021
  38.7553594  13.5798004  25.6835837  35.8439500  26.0974266  24.4037719
  35.5440223  26.9999305  24.2953526  35.4990559  25.8306450  25.2558872
  39.2436644  18.6156807  22.0835156  38.3353521  18.5472215  21.7893917
  39.1924240  19.0928751  22.9116982  30.8260280  32.8618587  17.3708687
  30.7484309  33.8126412  17.4497167  30.2221923  32.5164459  18.0283613
  33.3177509  20.0346452  30.0270053  32.5410844  20.5940372  30.0172918
  33.9568073  20.5203235  30.5484924  41.1098290  16.8173245  23.8613030
  40.4672670  17.1105778  23.2152825  40.6053219  16.7026165  24.6666227
  31.5723882  22.8431906  29.5888020  32.3138566  23.3816949  29.3122844
  30.8660867  23.4698194  29.7459572  37.0479221  24.9861046  28.1860182
  37.4562577  24.5443457  27.4414814  36.3256483  24.4113673  28.4394375
  33.4010291  19.9233653  25.5593739  34.2471487  20.3473066  25.7028388
  33.3408929  19.2667277  26.2532302  37.3708036  25.5462237  21.9412471
  36.7416899  25.7107951  21.2388539  36.9833698  25.9603846  22.7123435
  41.2497268  26.4816674  19.2956835  40.5648306  26.8615576  18.7453868
  41.3341117  27.0912001  20.0288782  36.5509737  17.5838021  27.2174913
  36.3070669  18.3380082  26.6809188  36.8269667  17.9623369  28.0522160
  38.5048200  24.1276633  25.8952178  38.7165095  24.7708393  25.2186559
  38.4577948  23.2938950  25.4274108  29.8160079  24.8308126  22.1442319
  30.3861436  25.2595395  21.5059804  30.4068191  24.5490711  22.8426505
  30.3085246  19.9971554  30.3903330  29.6783906  20.6787835  30.6238727
  30.2021333  19.8854635  29.4456469  39.6194028  27.0048589  24.0674535
  40.4411471  26.6028776  23.7857217  39.6156430  26.9016823  25.0190651
  33.3850631  26.5532632  26.2235246  33.4495064  27.0153039  27.0593418
  32.6761555  25.9229997  26.3517556  47.7100021  23.3487337  20.4159507
  46.9563729  22.7794735  20.2603511  47.8447562  23.3150002  21.3630142
  29.5865988  14.2992320  32.7528582  29.1932934  13.7458518  33.4276226
  30.4032129  14.6102898  33.1435099  28.3622931  28.8541934  18.7464905
  28.5389559  29.7759899  18.5585888  29.1579764  28.5400353  19.1759284
  32.5033949  15.7150199  30.3448838  33.2443663  16.3157352  30.2653301
  32.7351872  14.9727836  29.7866881  27.6475287  20.9006566  28.6227068
  27.5328802  19.9991823  28.9234167  26.7919805  21.1470263  28.2711884
  34.7267125  28.8424306  30.2214568  34.2830979  28.0560685  29.9035473
  35.3884339  29.0303457  29.5558459  29.4854246  30.3720108  24.7475247
  30.0361671  30.2437171  23.9752241  28.6465722  30.6714997  24.3970140
  36.8248363  29.1227106  28.2495970  36.8066838  29.9435987  27.7576239
  37.7468283  28.9981181  28.4746111  33.2821417  26.6371236  29.0919478
  33.8149754  25.8759524  28.8618786  32.7535498  26.3444887  29.8343633
  39.6266976  23.9606249  21.7205336  38.9690650  24.6505510  21.8085465
  40.4307375  24.3502681  22.0639323  38.4372435  22.3150621  19.7709278
  38.9504317  22.9480613  20.2730988  39.0873659  21.7151817  19.4052638
  34.9153266  19.7900077  22.0167619  33.9975827  20.0115024  21.8589307
  35.3313409  19.8646387  21.1579326  39.2034231  27.2956623  17.8988421
  38.7496558  26.4547533  17.9553611  38.5728198  27.9318021  18.2363201
  37.6467170  29.1333119  18.8338239  37.9390145  29.6938177  18.1150604
  38.1565791  29.4261680  19.5891398  32.6100795  29.9113470  19.9231692
  32.5676974  30.1374317  18.9940224  33.5263494  29.6776845  20.0717493
  36.0566429  20.3797538  26.8212321  36.4115817  20.6069011  27.6806787
  36.7038560  20.7115915  26.1989577  41.7864166  23.5015974  17.5261650
  41.6482065  23.6917570  16.5982840  41.4300385  24.2635357  17.9829701
  41.8133546  25.5692501  22.5372922  42.2470052  25.4767790  23.3855976
  42.5265126  25.5450001  21.8992938  35.5461441  29.1694595  24.0706022
  35.5998463  29.7385531  24.8383738  34.6776222  29.3396480  23.7060060
  28.4259834  18.8712151  25.5530474  29.0982887  18.6629513  24.9043123
  27.5989621  18.6734237  25.1135706  42.6749095  25.6116202  25.0705807
  42.8684985  26.5162012  25.3165082  42.5749713  25.1523621  25.9044392
  34.3285406  15.4974092  27.5696135  33.6813321  16.1964042  27.4760611
  35.0986421  15.9310236  27.9372383  37.7364204  25.7622944  30.6446688
  37.5849710  25.5333496  29.7276772  37.7268883  26.7193546  30.6578033
  34.5049540  23.3354857  25.6292954  35.4341600  23.4866017  25.4561922
  34.0840570  23.4238878  24.7741601  33.3037872  27.3605521  23.3991492
  33.1648958  26.9924306  24.2717430  32.5152468  27.8753161  23.2275450
  33.8986024  32.4614618  14.7417028  34.0737780  31.9902661  15.5562651
  33.2118812  33.0880384  14.9698289  34.8543087  26.7387124  20.7880330
  34.5192920  26.6987894  21.6837980  34.3547033  26.0731840  20.3150740
  28.8287331  22.1454754  26.3132911  28.6907129  21.4134993  26.9144450
  29.7392255  22.0563654  26.0317099  31.4569632  21.8574714  25.8016590
  32.1669250  21.2167906  25.7603209  31.4138940  22.1087608  26.7242771
  39.4456411  28.7942067  28.7223170  39.3868957  28.1101287  28.0553753
  39.8475929  29.5361057  28.2703796  30.1698566  18.8439931  27.6212230
  29.6335923  18.3930670  28.2733826  29.5815274  18.9785840  26.8782694
  28.4647109  35.6103981  21.5156889  28.7043708  36.2422505  22.1935907
  27.6216306  35.2592021  21.8022248  39.4473818  26.7581651  26.9537149
  38.5600597  26.4207573  27.0763548  40.0172369  26.0264682  27.1905915
  32.9774971  31.4183103  23.9198393  32.9045143  32.2238075  24.4317697
  32.5352364  31.6175069  23.0946414  32.7664751  30.6554873  17.4301214
  31.9832273  31.1976553  17.5239439  33.4657496  31.1728853  17.8295455
  43.9291158  22.1689868  21.7153711  43.9181035  23.0514584  21.3447644
  43.0608538  21.8161419  21.5208248  35.4373655  31.3169937  26.0756551
  36.1501627  31.9517402  26.0032453  34.9463683  31.4133803  25.2596553
  30.4885568  29.0664381  26.8962122  31.1895028  29.7000864  27.0491516
  30.0180683  29.4079112  26.1357761  38.2886854  21.6208988  24.7214672
  37.6358305  21.8684896  24.0667125  38.6667234  20.8073126  24.3877150
  35.2494028  31.6568681  18.8242843  35.4316423  30.8390337  19.2870595
  36.0727014  31.8736374  18.3867733  35.5836194  30.5836866  16.0857891
  36.1123960  30.0729321  15.4728053  35.8464413  30.2679397  16.9503424
  34.3374427  22.3628799  31.2080709  33.6615064  22.2622928  31.8783085
  35.1602061  22.2068013  31.6716707  26.0853286  28.6000736  23.8293225
  26.6706723  27.8544424  23.9621129  25.8878125  28.9104692  24.7129889
  28.9391942  31.6351983  18.8455667  28.2702317  32.1198111  18.3619707
  28.8004811  31.8821204  19.7599046  33.0797210  33.6695727  25.4438325
  33.6315518  33.8327348  26.2087411  33.4203404  34.2600164  24.7718350
  27.5313976  18.0894009  29.6933244  28.1586015  17.7071086  30.3070769
  26.6741895  17.8708211  30.0588937  37.9308085  28.4956984  31.2986980
  38.4747989  29.1086942  30.8041935  37.3494929  29.0536563  31.8153993
  36.2165598  31.6177702  22.4302008  36.0916737  30.8167442  21.9212953
  36.8744689  32.1123896  21.9415978  38.2800506  29.4186722  24.0581558
  37.3330841  29.2992073  23.9859884  38.6283279  28.5309220  24.1407819
  30.6400079  15.3080861  27.8819800  31.1634481  15.5543158  28.6446109
  30.4212413  16.1400896  27.4622937  35.2846939  29.2139438  20.2585910
  35.1371902  28.2856146  20.4393480  36.1100433  29.2359529  19.7742985
  38.8881061  30.0367997  21.3450783  39.8127609  29.8310859  21.2075234
  38.7196364  29.7884398  22.2540124  31.8452624  16.2494556  25.5669470
  31.5049445  15.4502369  25.9690150  31.1391631  16.5496267  24.9946303
  33.7330188  17.4502878  23.9222789  33.4747966  18.3719948  23.9207119
  33.2015229  17.0533312  24.6123253  38.6776377  30.5553665  16.7012874
  38.8513255  29.9900087  15.9486727  39.1705268  31.3554560  16.5192364
  24.4953337  22.5668334  24.7676433  23.9506805  23.3428142  24.8996707
  25.3732687  22.9139138  24.6095554  44.5315768  23.3190088  18.3203174
  44.9746914  22.5697413  17.9222297  43.6542279  23.3100224  17.9376906
  39.6651550  29.8720429  13.8009772  40.3602454  30.4927122  14.0197087
  40.0074700  29.0215780  14.0762150  25.2819359  21.6938230  27.6606590
  24.5401095  21.8420865  28.2471220  24.9612103  21.9546496  26.7973339
  41.5642973  27.3220135  15.3297103  42.0894297  27.6607407  14.6046423
  41.4765325  26.3867150  15.1460238  33.2263022  31.2354208  27.4586980
  33.5350148  30.9903355  28.3309679  34.0238504  31.4400847  26.9705850
  33.2483634  33.3892118  19.6892356  32.8088624  32.8968497  20.3825213
  33.9991751  32.8465086  19.4484432  25.7275973  29.5803659  19.6916984
  26.5533992  29.2807431  19.3115628  25.3770025  28.8111281  20.1406773
  30.6957506  28.9330127  21.7614658  30.0737515  28.2700832  21.4616886
  31.3662373  28.9591259  21.0788306  30.7682033  17.4111915  31.3547164
  30.8170189  18.2874038  30.9724934  31.3104547  16.8689308  30.7818807
  41.2536879  27.9553038  30.6348301  40.4632423  27.9377177  30.0952801
  41.0170233  28.4941332  31.3897338  41.3734754  24.8045505  27.9481030
  41.4232759  24.6395512  28.8896552  41.2648677  23.9372764  27.5578910
  38.6638516  20.7876433  29.2640336  39.5648379  20.6482897  28.9724334
  38.7386491  20.9530887  30.2038514  32.9981322  18.1643287  28.1093523
  32.1284631  18.4576853  27.8376111  33.2340802  18.7483732  28.8300786
  42.8752951  27.2242446  28.1923051  42.5837759  27.5872427  29.0286512
  42.2625082  26.5109454  28.0136383  44.0748633  24.7895326  20.7125621
  44.9095524  25.2285130  20.8763182  44.2107762  24.3133979  19.8933867
  41.1240139  22.3475061  26.6603109  41.5994261  22.5402707  25.8521961
  40.2005704  22.4034247  26.4146493  35.7020356  14.3822904  25.6258943
  36.2202299  15.1183931  25.3005432  35.3475488  14.6886898  26.4605702
  39.8241808  19.2240821  24.8931415  40.7759231  19.3238918  24.9143639
  39.6545258  18.4319089  25.4029499  37.8456188  16.3096404  25.0790816
  37.2506120  16.5901417  24.3837304  37.5605884  16.7990305  25.8507557
  42.3029886  22.4446941  24.0073714  42.2706206  21.5062941  24.1933398
  42.9130509  22.5230977  23.2739539  42.4524374  19.2357984  24.0531998
  41.9363423  18.4516441  23.8661927  43.3364323  18.9076701  24.2178517
  48.1206436  23.5062947  23.1479751  48.8509824  23.2448235  23.7087455
  47.5113381  22.7691669  23.1881819  46.2021733  21.6470810  23.7454202
  45.4754896  21.5126775  23.1370694  45.7869020  21.9547639  24.5510921
  34.0251909  25.3660740  31.5101575  34.9454919  25.5439339  31.7041622
  33.9901492  24.4216785  31.3581275  27.0213982  23.2761774  24.1524357
  27.2399992  24.2078882  24.1712390  27.4339756  22.9169749  24.9379160
  31.8941847  18.8494980  33.5427106  31.7938574  19.7989337  33.4739197
  31.6763389  18.5213219  32.6703176  31.7573117  22.2792119  32.3592167
  31.2740199  23.0792479  32.5656056  31.8434056  22.2900064  31.4059611
  27.6846455  26.1696654  24.3960601  28.6389708  26.1380596  24.3290533
  27.4858978  25.7087277  25.2110827  28.2745837  24.7397770  26.9631399
  29.0938726  25.2341848  26.9866236  28.5482644  23.8229738  26.9348966
  43.8199528  17.8682662  21.0987634  44.4144019  17.6278398  20.3880942
  43.8926111  17.1489793  21.7261170  26.0396683  31.7116273  21.4130799
  25.9051151  30.9516674  20.8468797  25.6228746  32.4357173  20.9459588
  46.1270600  21.1748863  19.8731055  45.5670158  21.2442052  20.6462617
  45.5214104  20.9989848  19.1530552  29.1965809  32.6085590  21.6249242
  29.0798193  33.5531023  21.5227932  28.3758256  32.3059152  22.0135041
  23.5280751  19.0735903  27.6623596  24.1739615  18.5634857  28.1510821
  23.3197902  19.8104585  28.2367021  36.0534143  26.1416751  33.1615736
  36.9225303  26.3157403  32.8002371  35.5740895  26.9611168  33.0391466
  30.2220323  33.2613852  24.8405170  31.1247570  33.2937462  25.1571665
  29.9957693  32.3314303  24.8551506  31.9773925  32.0144839  21.5015249
  31.0269556  32.0146700  21.3879621  32.2806412  31.2677573  20.9851283
  27.8678242  16.2203521  31.7598610  28.7309704  15.8640325  31.9701935
  27.2943653  15.8817415  32.4474014  47.7126619  37.8505377  22.5661011
  48.3505029  37.7312124  21.8624351  47.5947462  38.7986221  22.6248963
  44.5216325  37.8032805  22.5022536  44.1834837  37.6873870  21.6143071
  45.3906093  37.4023970  22.4823542  40.3803141  39.6568281  18.4919427
  39.8168006  39.5658218  17.7235714  40.2655536  38.8368186  18.9721919
  45.0036108  38.9567657  28.4608741  44.9924749  38.5620455  27.5889245
  45.1656748  38.2233729  29.0542513  37.9267573  41.1519473  21.3303647
  38.7188865  40.8110298  20.9149946  38.1664223  41.2614448  22.2505800
  45.9602700  43.3239249  13.8033892  45.3090679  43.9093330  13.4167905
  46.7547062  43.8545444  13.8628929  39.8858327  40.4128386  14.2021026
  40.6589203  39.8657373  14.0633902  40.2383726  41.2772636  14.4135487
  41.7243369  41.7404769  27.4087925  41.4333235  42.6450399  27.2934592
  42.3600354  41.7821296  28.1231995  42.6499576  39.1181617  23.9989285
  43.2463148  38.8937639  23.2846248  42.7074548  38.3766363  24.6014733
  42.2224605  36.5721052  11.8339476  42.4750125  36.0502574  11.0722939
  41.2849164  36.4087198  11.9366159  47.2667887  35.5756831  19.6414219
  48.0530977  35.1576254  19.2904636  47.5306592  36.4802923  19.8095867
  47.4377965  41.0129681  14.3402876  46.8023798  41.0864308  15.0523780
  47.1075371  41.6023280  13.6621955  52.6676315  35.5132064  20.5447198
  53.4001486  34.9431281  20.7785027  51.9115670  35.1253664  20.9853703
  41.9420893  38.4749158  14.0363851  41.8257151  37.7994062  14.7044935
  42.0523153  37.9881532  13.2196004  44.2852434  37.9359305  17.7410540
  43.9210641  37.4089926  18.4523461  45.1419550  37.5457775  17.5677025
  50.1901735  29.2253638  25.0041806  49.8585060  30.0949049  24.7803021
  49.5947348  28.9089922  25.6835837  43.9257921  32.9649205  12.7371889
  44.0932324  33.8329442  13.1042360  43.7355090  33.1276487  11.8133178
  46.6833254  41.4266184  24.4037719  46.3833978  42.3291223  24.2953526
  46.3384314  41.1598367  25.2558872  40.1345736  37.8779981  20.4374423
  39.2096232  37.7456195  20.6452115  40.3830149  38.6574200  20.9344366
  50.0830398  33.9448724  22.0835156  49.1747276  33.8764133  21.7893917
  50.0317994  34.4220669  22.9116982  43.9047142  35.4206863  13.7218555
  43.7846767  35.8663913  14.5604036  43.2099730  35.7692180  13.1632093
  37.4954547  37.5213254  21.2718212  37.6246928  37.7747733  22.1857624
  36.8151998  38.1140962  20.9522867  41.6654034  48.1910504  17.3708687
  41.5878064  49.1418329  17.4497167  41.0615678  47.8456377  18.0283613
  44.1571264  35.3638370  30.0270053  43.3804598  35.9232290  30.0172918
  44.7961827  35.8495153  30.5484924  51.9492045  32.1465163  23.8613030
  51.3066425  32.4397696  23.2152825  51.4446973  32.0318083  24.6666227
  49.6032208  35.8928336  14.5498889  50.5150064  36.1255723  14.3746587
  49.0941855  36.4765380  13.9873968  42.4117636  38.1723823  29.5888020
  43.1532321  38.7108867  29.3122844  41.7054622  38.7990112  29.7459572
  47.8872976  40.3152964  28.1860182  48.2956332  39.8735374  27.4414814
  47.1650237  39.7405591  28.4394375  44.2404046  35.2525570  25.5593739
  45.0865241  35.6764984  25.7028388  44.1802684  34.5959195  26.2532302
  48.2101791  40.8754154  21.9412471  47.5810653  41.0399868  21.2388539
  47.8227453  41.2895764  22.7123435  52.0891022  41.8108592  19.2956835
  51.4042061  42.1907493  18.7453868  52.1734872  42.4203919  20.0288782
  47.3903491  32.9129939  27.2174913  47.1464423  33.6671999  26.6809188
  47.6663422  33.2915286  28.0522160  49.3441954  39.4568551  25.8952178
  49.5558849  40.1000311  25.2186559  49.2971702  38.6230868  25.4274108
  46.9468183  32.0686372  22.7988750  46.0852662  32.3667625  23.0905488
  46.9730618  32.2856771  21.8669783  43.7629752  40.6128562  19.2062556
  44.2268098  40.8916265  18.4167178  43.4986551  39.7112007  19.0235647
  40.6553834  40.1600044  22.1442319  41.2255191  40.5887312  21.5059804
  41.2461945  39.8782629  22.8426505  42.6998639  36.7351715  16.0152121
  43.4022682  37.1872758  16.4826047  42.3679267  36.0935534  16.6432014
  41.1479000  35.3263471  30.3903330  40.5177661  36.0079752  30.6238727
  41.0415088  35.2146553  29.4456469  36.4423972  34.9935267  21.3169255
  35.6523026  35.2492796  20.8409365  36.9335220  35.8083605  21.4221295
  50.4587782  42.3340507  24.0674535  51.2805226  41.9320694  23.7857217
  50.4550185  42.2308741  25.0190651  38.3938718  35.3579847  18.2752731
  37.5969881  35.4698541  18.7936227  38.1664310  35.6966499  17.4093622
  44.2244385  41.8824550  26.2235246  44.2888818  42.3444957  27.0593418
  43.5155309  41.2521915  26.3517556  34.7261675  35.2465758  23.7484245
  34.9769714  36.1312768  24.0141821  35.2621224  35.0670359  22.9759337
  58.5493775  38.6779255  20.4159507  57.7957483  38.1086653  20.2603511
  58.6841316  38.6441920  21.3630142  43.9392403  43.5492657  16.0914226
  43.8038078  44.3944193  16.5199074  44.4802216  43.7511935  15.3280160
  40.4259743  29.6284237  32.7528582  40.0326688  29.0750436  33.4276226
  41.2425883  29.9394816  33.1435099  37.3921801  41.0668095  16.6642151
  37.9046321  41.8611346  16.8147716  38.0444513  40.3694386  16.5975753
  39.2016685  44.1833852  18.7464905  39.3783314  45.1051816  18.5585888
  39.9973519  43.8692271  19.1759284  43.3427704  31.0442116  30.3448838
  44.0837417  31.6449269  30.2653301  43.5745627  30.3019754  29.7866881
  38.4869042  36.2298484  28.6227068  38.3722557  35.3283741  28.9234167
  37.6313560  36.4762180  28.2711884  45.5660880  44.1716224  30.2214568
  45.1224734  43.3852602  29.9035473  46.2278093  44.3595374  29.5558459
  40.3248001  45.7012025  24.7475247  40.8755426  45.5729089  23.9752241
  39.4859477  46.0006914  24.3970140  47.6642118  44.4519024  28.2495970
  47.6460593  45.2727905  27.7576239  48.5862038  44.3273099  28.4746111
  44.1215172  41.9663153  29.0919478  44.6543509  41.2051441  28.8618786
  43.5929253  41.6736805  29.8343633  47.2884867  27.0723219  24.6213120
  46.9449136  27.9624861  24.5452230  47.6563829  26.8824877  23.7582705
  35.3570717  39.3956750  17.4401722  36.1945939  39.8053758  17.2235430
  35.5348985  38.4556192  17.4101916  47.2535149  37.0631830  13.1285555
  46.7381773  37.8336435  13.3673942  46.9812458  36.3896967  13.7518616
  44.8382260  31.9081531  18.1870793  43.9823857  31.5188382  18.0076432
  45.2509212  31.9873492  17.3270579  46.3681407  29.4427874  22.5862353
  45.8646203  29.4058010  21.7730158  46.6612014  30.3520617  22.6459010
  42.6124293  29.5266604  21.5928535  43.4777290  29.3309413  21.2334424
  42.6801802  29.2976956  22.5197892  52.2269424  39.8164185  15.0638728
  51.4498866  39.4775344  14.6193890  52.9060905  39.8216808  14.3893693
  47.0421453  34.9358922  14.9545336  46.7371588  35.2505072  15.8055479
  47.9951895  35.0140342  14.9972669  45.4867884  41.0949146  16.6038290
  44.9589246  40.3601905  16.2911527  44.9855387  41.8723822  16.3578258
  50.4660730  39.2898166  21.7205336  49.8084405  39.9797428  21.8085465
  51.2701130  39.6794598  22.0639323  40.2186612  31.7568812  18.9644902
  40.7930364  31.5343994  18.2318095  40.8057594  31.8257507  19.7173503
  49.2766189  37.6442539  19.7709278  49.7898071  38.2772531  20.2730988
  49.9267413  37.0443734  19.4052638  40.5456199  33.7873273  12.9840787
  39.7093511  34.1247960  13.3050062  40.4060969  33.6522253  12.0467924
  42.5209280  28.6310061  17.6919971  41.8673692  28.3159078  17.0676586
  42.4789754  28.0085801  18.4179794  43.6320485  38.9129356   9.6073263
  42.7247546  38.6818609   9.8064412  44.1291517  38.1166975   9.7947245
  46.5388564  47.6226863  12.5269949  45.8650262  47.9258560  13.1354907
  46.9254385  48.4255944  12.1775406  45.7547020  35.1191994  22.0167619
  44.8369581  35.3406941  21.8589307  46.1707164  35.1938305  21.1579326
  46.5382068  36.5183410  17.1470299  47.2853887  37.0304807  16.8377421
  46.8073657  36.1967463  18.0074692  44.8108718  39.0141951  14.1297253
  43.9019937  38.7300984  14.2269723  44.8403802  39.4341029  13.2700560
  50.0427985  42.6248540  17.8988421  49.5890313  41.7839450  17.9553611
  49.4121952  43.2609939  18.2363201  48.9860905  33.5540526  19.1289088
  48.2483662  33.0417913  19.4599331  49.2387679  33.1140908  18.3172365
  48.4860925  44.4625037  18.8338239  48.7783899  45.0230094  18.1150604
  48.9959545  44.7553598  19.5891398  49.0872532  26.3316778  19.7230857
  49.3931409  25.4714142  19.4356773  49.8125137  26.9234399  19.5229851
  35.3796888  36.7347465  18.1112455  35.1821288  36.1416826  17.3863522
  34.8243552  36.4299675  18.8288394  43.3593612  36.6270571  20.2307049
  43.4142222  35.6744408  20.1549525  42.5484814  36.7830011  20.7148347
  44.5084806  40.5550695  11.4685332  44.0704236  39.8386553  11.0090969
  45.2495247  40.7826809  10.9070423  41.2985972  35.2447631  17.9897427
  40.4853838  35.5441802  18.3962620  41.7944966  34.8503320  18.7071910
  43.4494550  45.2405388  19.9231692  43.4070729  45.4666234  18.9940224
  44.3657249  45.0068763  20.0717493  46.8960184  35.7089456  26.8212321
  47.2509571  35.9360929  27.6806787  47.5432315  36.0407833  26.1989577
  52.6257921  38.8307892  17.5261650  52.4875819  39.0209488  16.5982840
  52.2694139  39.5927274  17.9829701  40.7900047  32.8165987  23.6058662
  41.4299426  32.6754746  22.9081626  39.9577577  32.5300500  23.2297264
  52.6527300  40.8984419  22.5372922  53.0863807  40.8059708  23.3855976
  53.3658881  40.8741919  21.8992938  41.5660351  42.1168417  19.7193655
  42.3600949  41.6218737  19.5176230  40.8552043  41.5886280  19.3561360
  46.3855195  44.4986513  24.0706022  46.4392217  45.0677449  24.8383738
  45.5169977  44.6688398  23.7060060  37.8743114  36.2611499  15.7953407
  36.9440702  36.1995954  16.0123370  37.9700586  35.7387452  14.9990049
  37.7928663  32.7866312  18.3831649  38.0535480  33.7011645  18.2740810
  38.6145836  32.3190754  18.5328262  39.2653589  34.2004069  25.5530474
  39.9376642  33.9921431  24.9043123  38.4383375  34.0026155  25.1135706
  53.5142850  40.9408119  25.0705807  53.7078740  41.8453930  25.3165082
  53.4143468  40.4815538  25.9044392  45.1679161  30.8266010  27.5696135
  44.5207076  31.5255959  27.4760611  45.9380176  31.2602154  27.9372383
  48.5757958  41.0914862  30.6446688  48.4243465  40.8625414  29.7276772
  48.5662638  42.0485463  30.6578033  45.3443295  38.6646775  25.6292954
  46.2735355  38.8157934  25.4561922  44.9234325  38.7530796  24.7741601
  44.1431627  42.6897439  23.3991492  44.0042712  42.3216224  24.2717430
  43.3546223  43.2045079  23.2275450  44.7379779  47.7906536  14.7417028
  44.9131534  47.3194579  15.5562651  44.0512567  48.4172302  14.9698289
  45.6936842  42.0679042  20.7880330  45.3586674  42.0279812  21.6837980
  45.1940788  41.4023758  20.3150740  39.6681086  37.4746672  26.3132911
  39.5300884  36.7426911  26.9144450  40.5786009  37.3855572  26.0317099
  48.6296033  39.4135076  11.0617389  48.0125204  38.6881904  10.9650442
  48.1612522  40.1744436  10.7184464  42.2963386  37.1866631  25.8016590
  43.0063005  36.5459823  25.7603209  42.2532695  37.4379526  26.7242771
  50.2850165  44.1233985  28.7223170  50.2262711  43.4393205  28.0553753
  50.6869684  44.8652975  28.2703796  41.0092320  34.1731849  27.6212230
  40.4729677  33.7222588  28.2733826  40.4209029  34.3077758  26.8782694
  39.3040864  50.9395898  21.5156889  39.5437462  51.5714423  22.1935907
  38.4610060  50.5883938  21.8022248  50.2867572  42.0873569  26.9537149
  49.3994351  41.7499490  27.0763548  50.8566123  41.3556600  27.1905915
  31.9396720  38.4197660  20.2780201  32.6267759  38.1059390  19.6901216
  31.7844848  39.3239025  20.0047452  36.7431442  33.3087857  24.7065224
  36.6589630  32.7013526  23.9715634  35.9214148  33.7996875  24.7074721
  43.8168726  46.7475021  23.9198393  43.7438897  47.5529992  24.4317697
  43.3746119  46.9466987  23.0946414  43.6058505  45.9846791  17.4301214
  42.8226027  46.5268471  17.5239439  44.3051251  46.5020771  17.8295455
  46.9155156  31.7941420  20.0735420  47.4123855  31.0411383  19.7536490
  46.1442137  31.8305737  19.5078629  54.7684913  37.4981786  21.7153711
  54.7574789  38.3806501  21.3447644  53.9002292  37.1453337  21.5208248
  46.2767409  46.6461855  26.0756551  46.9895382  47.2809320  26.0032453
  45.7857438  46.7425721  25.2596553  47.9984936  40.5513108  17.6473843
  47.0641215  40.6714570  17.4778547  48.1761605  39.6485574  17.3833853
  43.4990124  33.9358803  19.8007104  43.1287912  33.3829844  20.4888010
  43.9949217  33.3316937  19.2482104  51.3857488  36.3930427  18.1823877
  51.8517940  37.2258418  18.1084180  51.8364988  35.9275408  18.8869136
  41.3279323  44.3956298  26.8962122  42.0288782  45.0292781  27.0491516
  40.8574438  44.7371030  26.1357761  49.4533719  42.7374248  15.1810029
  49.7293563  42.6230843  16.0903903  48.5838217  42.3391733  15.1422202
  49.3574150  28.7611014  22.2214778  48.4437230  28.9915241  22.3896985
  49.7867252  28.8449458  23.0728811  49.1280609  36.9500906  24.7214672
  48.4752059  37.1976813  24.0667125  49.5060989  36.1365044  24.3877150
  46.0887783  46.9860599  18.8242843  46.2710177  46.1682255  19.2870595
  46.9120769  47.2028291  18.3867733  46.4229948  45.9128784  16.0857891
  46.9517715  45.4021239  15.4728053  46.6858168  45.5971314  16.9503424
  45.1768182  37.6920717  31.2080709  44.5008819  37.5914846  31.8783085
  45.9995816  37.5359931  31.6716707  36.9247041  43.9292653  23.8293225
  37.5100478  43.1836341  23.9621129  36.7271879  44.2396610  24.7129889
  39.7785696  46.9643901  18.8455667  39.1096071  47.4490028  18.3619707
  39.6398566  47.2113121  19.7599046  31.5164696  36.4998254  22.5497668
  31.5548795  35.9661844  23.3434786  31.0104988  35.9733459  21.9308645
  43.9190965  48.9987644  25.4438325  44.4709273  49.1619266  26.2087411
  44.2597158  49.5892082  24.7718350  38.8955458  31.3462794  26.0460210
  38.9596784  32.2077625  25.6337608  38.8322578  30.7336796  25.3132569
  38.3707730  33.4185927  29.6933244  38.9979769  33.0363004  30.3070769
  37.5135649  33.2000129  30.0588937  48.7701839  43.8248902  31.2986980
  49.3141743  44.4378860  30.8041935  48.1888684  44.3828480  31.8153993
  35.1473273  35.2262356  15.6251599  35.4426714  34.3173034  15.5718653
  34.2461309  35.2050095  15.3032602  47.0559352  46.9469620  22.4302008
  46.9310491  46.1459360  21.9212953  47.7138443  47.4415813  21.9415978
  38.6767520  33.3018352  21.6079148  37.9554106  33.9154320  21.4686621
  39.4660776  33.8376117  21.5295794  49.1194260  44.7478640  24.0581558
  48.1724596  44.6283991  23.9859884  49.4677033  43.8601138  24.1407819
  41.4793834  30.6372779  27.8819800  42.0028236  30.8835075  28.6446109
  41.2606167  31.4692814  27.4622937  36.8761115  32.9076453  15.7490924
  36.5473821  32.0273832  15.5666030  37.2300486  32.8524122  16.6367314
  46.1240694  44.5431356  20.2585910  45.9765656  43.6148064  20.4393480
  46.9494187  44.5651447  19.7742985  39.9902938  33.1949423  16.1166402
  40.3299010  33.7235344  15.3945010  40.4375058  33.5329829  16.8924969
  49.7274816  45.3659915  21.3450783  50.6521363  45.1602776  21.2075234
  49.5590119  45.1176316  22.2540124  42.6846379  31.5786474  25.5669470
  42.3443199  30.7794287  25.9690150  41.9785385  31.8788185  24.9946303
  43.3362851  28.6635786  24.0196793  44.1588920  28.1896265  23.8975684
  43.5800914  29.4426270  24.5195479  41.9771085  31.6924045  14.3159695
  42.6979448  32.0705298  13.8123412  41.3536389  32.4112922  14.4194673
  46.1202208  32.3969194  15.2518027  46.3365822  33.2793832  14.9506855
  45.6396275  32.0055407  14.5223669  40.8601429  35.3554907  21.8288772
  40.7146010  35.6695210  22.7213053  40.3826633  35.9739807  21.2759670
  42.7197812  32.3457455  21.8769661  42.7059381  31.4498548  21.5401959
  43.4370240  32.3528119  22.5107947  44.5723943  32.7794795  23.9222789
  44.3141721  33.7011866  23.9207119  44.0408983  32.3825230  24.6123253
  49.5170132  45.8845582  16.7012874  49.6907009  45.3192005  15.9486727
  50.0099023  46.6846477  16.5192364  35.3347092  37.8960251  24.7676433
  34.7900560  38.6720059  24.8996707  36.2126441  38.2431056  24.6095554
  42.1234708  31.2271835  17.1457231  42.2450619  30.2988481  17.3448119
  41.8336751  31.2410521  16.2335547  44.9925899  28.9126746  20.2823951
  45.0147595  28.9766079  19.3275931  45.4093958  28.0731254  20.4764457
  55.3709523  38.6482005  18.3203174  55.8140669  37.8989330  17.9222297
  54.4936033  38.6392142  17.9376906  50.5045304  45.2012347  13.8009772
  51.1996209  45.8219039  14.0197087  50.8468454  44.3507698  14.0762150
  36.1213113  37.0230148  27.6606590  35.3794849  37.1712783  28.2471220
  35.8005858  37.2838413  26.7973339  52.4036727  42.6512052  15.3297103
  52.9288051  42.9899325  14.6046423  52.3159080  41.7159068  15.1460238
  44.0656776  46.5646126  27.4586980  44.3743902  46.3195273  28.3309679
  44.8632258  46.7692764  26.9705850  44.0877388  48.7184036  19.6892356
  43.6482378  48.2260414  20.3825213  44.8385505  48.1757003  19.4484432
  36.5669727  44.9095576  19.6916984  37.3927747  44.6099348  19.3115628
  36.2163779  44.1403199  20.1406773  41.5351260  44.2622045  21.7614658
  40.9131270  43.5992750  21.4616886  42.2056127  44.2883177  21.0788306
  34.7678332  42.8281903  20.6505918  33.9310240  42.4004077  20.4689919
  34.7401978  43.0214346  21.5876709  41.6075788  32.7403833  31.3547164
  41.6563943  33.6165955  30.9724934  42.1498302  32.1981226  30.7818807
  52.0930633  43.2844956  30.6348301  51.3026177  43.2669095  30.0952801
  51.8563988  43.8233250  31.3897338  52.2128508  40.1337422  27.9481030
  52.2626513  39.9687430  28.8896552  52.1042432  39.2664681  27.5578910
  41.0964767  42.8125968  15.2373119  41.2452888  43.4961432  14.5839791
  41.9031211  42.7931058  15.7522574  49.5032271  36.1168350  29.2640336
  50.4042134  35.9774815  28.9724334  49.5780245  36.2822805  30.2038514
  43.8375076  33.4935205  28.1093523  42.9678386  33.7868771  27.8376111
  44.0734557  34.0775650  28.8300786  53.7146705  42.5534364  28.1923051
  53.4231514  42.9164344  29.0286512  53.1018837  41.8401372  28.0136383
  54.9142388  40.1187244  20.7125621  55.7489279  40.5577048  20.8763182
  55.0501516  39.6425897  19.8933867  51.9633894  37.6766978  26.6603109
  52.4388015  37.8694625  25.8521961  51.0399459  37.7326164  26.4146493
  38.8517400  38.8391146  16.2434188  38.6063442  37.9353476  16.4414398
  39.0213315  38.8408296  15.3013666  46.5414110  29.7114822  25.6258943
  47.0596054  30.4475849  25.3005432  46.1869243  30.0178815  26.4605702
  38.1213048  34.5719503  13.7420349  37.4282293  34.6463858  13.0860385
  37.8764800  33.8079847  14.2641866  46.7926704  26.1315104  21.1459840
  47.0728458  25.4638294  21.7720266  47.5777311  26.3244200  20.6334504
  44.5960173  45.3074098  12.7084866  44.0234140  45.9264286  12.2555338
  45.1692966  45.8573460  13.2424788  50.6635563  34.5532738  24.8931415
  51.6152985  34.6530836  24.9143639  50.4939013  33.7611007  25.4029499
  48.6849942  31.6388322  25.0790816  48.0899874  31.9193334  24.3837304
  48.3999639  32.1282223  25.8507557  47.8157432  45.5911249  13.8393448
  48.7488106  45.5256810  14.0426324  47.7280645  46.4267515  13.3807981
  50.4445449  44.9077119  10.7997396  50.3659081  44.5736982  11.6933154
  51.2655116  45.3998887  10.7988868  53.1423640  37.7738858  24.0073714
  53.1099960  36.8354859  24.1933398  53.7524264  37.8522895  23.2739539
  44.9806971  36.6434911  10.0500919  45.9266076  36.5141119  10.1189337
  44.6021216  35.9049573  10.5270347  53.2918129  34.5649902  24.0531998
  52.7757177  33.7808358  23.8661927  54.1758077  34.2368618  24.2178517
  50.9528856  28.3090917  20.0127810  50.7553677  28.0006005  20.8971142
  51.5628561  29.0352556  20.1425740  58.9600190  38.8354865  23.1479751
  59.6903579  38.5740153  23.7087455  58.3507136  38.0983587  23.1881819
  57.0415487  36.9762728  23.7454202  56.3148651  36.8418693  23.1370694
  56.6262774  37.2839556  24.5510921  44.8645664  40.6952657  31.5101575
  45.7848673  40.8731256  31.7041622  44.8295247  39.7508703  31.3581275
  34.0827829  35.8891251  20.4354850  33.7630613  35.0356559  20.1429224
  33.5361257  36.1039829  21.1912817  37.8607736  38.6053692  24.1524357
  38.0793746  39.5370800  24.1712390  38.2733510  38.2461666  24.9379160
  44.7811954  29.1121777  16.1400045  43.9712682  28.7668862  16.5155291
  45.4696371  28.8029321  16.7287657  46.7102502  28.1899824  17.7624342
  47.2633541  28.6095277  18.4214365  46.9472589  27.2635572  17.8047298
  42.7335602  34.1786898  33.5427106  42.6332328  35.1281255  33.4739197
  42.5157144  33.8505137  32.6703176  33.9516089  39.5094162  22.4047972
  33.2579560  39.0948115  21.8917926  34.6989080  39.5514699  21.8081391
  50.0881309  30.3000349  17.2703006  49.5079978  30.9585153  16.8881058
  49.8217242  29.4777694  16.8590423  48.5384876  29.7005407  19.4724326
  49.0384654  29.8121941  18.6638645  49.1820484  29.3966460  20.1125135
  42.5966872  37.6084037  32.3592167  42.1133953  38.4084397  32.5656056
  42.6827811  37.6191981  31.4059611  35.8652831  39.4412416  20.2813987
  35.8423519  39.5400103  19.3295870  36.1753468  40.2877567  20.6031153
  38.5240209  41.4988571  24.3960601  39.4783463  41.4672514  24.3290533
  38.3252733  41.0379195  25.2110827  39.1139591  40.0689687  26.9631399
  39.9332480  40.5633766  26.9866236  39.3876399  39.1521655  26.9348966
  48.8706187  32.4600440  16.3259354  47.9832042  32.7450090  16.1079549
  49.2860177  32.2994203  15.4786631  52.2220724  32.4846961  20.0413693
  52.9981114  32.9743413  20.3138310  51.4968858  32.9105015  20.4985563
  54.6593282  33.1974580  21.0987634  55.2537773  32.9570316  20.3880942
  54.7319866  32.4781710  21.7261170  36.8790438  47.0408191  21.4130799
  36.7444906  46.2808592  20.8468797  36.4622500  47.7649091  20.9459588
  48.0149401  42.2245114  10.4207374  48.7185251  42.4295117  11.0365030
  47.2912050  42.7921876  10.6856458  48.8447211  37.9754976  16.5409644
  48.7882413  38.4323527  15.7017277  49.3975554  37.2145660  16.3632487
  52.6552017  33.7644707  17.3659764  52.3988951  33.3641343  18.1967972
  52.0304885  34.4788501  17.2409903  56.9664355  36.5040781  19.8731055
  56.4063913  36.5733970  20.6462617  56.3607858  36.3281765  19.1530552
  40.0359564  47.9377508  21.6249242  39.9191948  48.8822940  21.5227932
  39.2152010  47.6351069  22.0135041  49.9236098  42.6627643  12.4705834
  50.7581702  42.2308842  12.2883309  49.7620441  42.4909657  13.3982729
  49.5781991  39.1659757  13.8362174  49.5230794  39.0004028  12.8950618
  48.9528046  39.8735790  13.9924363  34.3674505  34.4027821  27.6623596
  35.0133369  33.8926775  28.1510821  34.1591657  35.1396503  28.2367021
  46.8927898  41.4708669  33.1615736  47.7619057  41.6449321  32.8002371
  46.4134649  42.2903085  33.0391466  42.8878116  28.6667866  13.4147492
  42.8756786  29.6109706  13.5715763  43.7801538  28.4838011  13.1206953
  41.0614078  48.5905770  24.8405170  41.9641325  48.6229380  25.1571665
  40.8351448  47.6606221  24.8551506  42.8167680  47.3436756  21.5015249
  41.8663311  47.3438618  21.3879621  43.1200166  46.5969491  20.9851283
  46.7030235  25.2610642  17.6693429  45.9362631  24.7069129  17.8150111
  47.1140940  25.3332511  18.5307580  38.7071996  31.5495438  31.7598610
  39.5703458  31.1932243  31.9701935  38.1337407  31.2109333  32.4474014
  58.5520373  53.1797295  22.5661011  59.1898783  53.0604042  21.8624351
  58.4341216  54.1278139  22.6248963  55.3610080  53.1324723  22.5022536
  55.0228591  53.0165787  21.6143071  56.2299848  52.7315888  22.4823542
  51.2196895  54.9860199  18.4919427  50.6561761  54.8950136  17.7235714
  51.1049290  54.1660104  18.9721919  48.7661327  56.4811391  21.3303647
  49.5582619  56.1402215  20.9149946  49.0057977  56.5906366  22.2505800
  56.7996454  58.6531167  13.8033892  56.1484434  59.2385247  13.4167905
  57.5940817  59.1837362  13.8628929  50.7252081  55.7420304  14.2021026
  51.4982957  55.1949291  14.0633902  51.0777480  56.6064553  14.4135487
  53.4893331  54.4473535  23.9989285  54.0856903  54.2229557  23.2846248
  53.5468302  53.7058280  24.6014733  53.0618359  51.9012970  11.8339476
  53.3143880  51.3794491  11.0722939  52.1242918  51.7379116  11.9366159
  58.1061642  50.9048748  19.6414219  58.8924731  50.4868172  19.2904636
  58.3700346  51.8094841  19.8095867  58.2771719  56.3421599  14.3402876
  57.6417552  56.4156225  15.0523780  57.9469126  56.9315198  13.6621955
  63.5070069  50.8423982  20.5447198  64.2395241  50.2723198  20.7785027
  62.7509425  50.4545582  20.9853703  52.7814648  53.8041076  14.0363851
  52.6650906  53.1285979  14.7044935  52.8916908  53.3173450  13.2196004
  55.1246189  53.2651223  17.7410540  54.7604396  52.7381844  18.4523461
  55.9813305  52.8749692  17.5677025  61.0295489  44.5545556  25.0041806
  60.6978814  45.4240967  24.7803021  60.4341103  44.2381840  25.6835837
  54.7651676  48.2941123  12.7371889  54.9326078  49.1621359  13.1042360
  54.5748845  48.4568405  11.8133178  57.5227009  56.7558102  24.4037719
  57.2227732  57.6583141  24.2953526  57.1778068  56.4890285  25.2558872
  50.9739490  53.2071899  20.4374423  50.0489987  53.0748113  20.6452115
  51.2223904  53.9866118  20.9344366  60.9224153  49.2740642  22.0835156
  60.0141030  49.2056050  21.7893917  60.8711748  49.7512587  22.9116982
  54.7440897  50.7498780  13.7218555  54.6240522  51.1955831  14.5604036
  54.0493485  51.0984098  13.1632093  48.3348301  52.8505172  21.2718212
  48.4640683  53.1039651  22.1857624  47.6545753  53.4432880  20.9522867
  52.5047789  63.5202422  17.3708687  52.4271818  64.4710247  17.4497167
  51.9009432  63.1748295  18.0283613  54.9965018  50.6930288  30.0270053
  54.2198353  51.2524208  30.0172918  55.6355582  51.1787070  30.5484924
  62.7885799  47.4757080  23.8613030  62.1460179  47.7689613  23.2152825
  62.2840728  47.3610001  24.6666227  60.4425963  51.2220254  14.5498889
  61.3543819  51.4547640  14.3746587  59.9335610  51.8057298  13.9873968
  53.2511391  53.5015741  29.5888020  53.9926075  54.0400785  29.3122844
  52.5448376  54.1282030  29.7459572  55.0797800  50.5817488  25.5593739
  55.9258996  51.0056902  25.7028388  55.0196438  49.9251112  26.2532302
  59.0495545  56.2046072  21.9412471  58.4204408  56.3691786  21.2388539
  58.6621207  56.6187682  22.7123435  62.9284777  57.1400510  19.2956835
  62.2435815  57.5199411  18.7453868  63.0128626  57.7495836  20.0288782
  58.2297246  48.2421856  27.2174913  57.9858178  48.9963917  26.6809188
  58.5057176  48.6207204  28.0522160  57.7861938  47.3978289  22.7988750
  56.9246417  47.6959543  23.0905488  57.8124372  47.6148688  21.8669783
  54.6023507  55.9420480  19.2062556  55.0661852  56.2208183  18.4167178
  54.3380305  55.0403925  19.0235647  51.4947588  55.4891962  22.1442319
  52.0648945  55.9179230  21.5059804  52.0855700  55.2074546  22.8426505
  53.5392393  52.0643632  16.0152121  54.2416436  52.5164676  16.4826047
  53.2073021  51.4227451  16.6432014  51.9872755  50.6555389  30.3903330
  51.3571415  51.3371670  30.6238727  51.8808842  50.5438471  29.4456469
  47.2817727  50.3227185  21.3169255  46.4916781  50.5784714  20.8409365
  47.7728974  51.1375523  21.4221295  61.2981537  57.6632424  24.0674535
  62.1198980  57.2612612  23.7857217  61.2943939  57.5600658  25.0190651
  49.2332472  50.6871764  18.2752731  48.4363636  50.7990459  18.7936227
  49.0058065  51.0258417  17.4093622  45.5655430  50.5757676  23.7484245
  45.8163468  51.4604685  24.0141821  46.1014978  50.3962277  22.9759337
  69.3887530  54.0071173  20.4159507  68.6351238  53.4378571  20.2603511
  69.5235071  53.9733837  21.3630142  54.7786158  58.8784575  16.0914226
  54.6431832  59.7236111  16.5199074  55.3195970  59.0803853  15.3280160
  51.2653497  44.9576155  32.7528582  50.8720443  44.4042353  33.4276226
  52.0819638  45.2686733  33.1435099  48.2315555  56.3960013  16.6642151
  48.7440076  57.1903263  16.8147716  48.8838268  55.6986304  16.5975753
  50.0410440  59.5125769  18.7464905  50.2177068  60.4343734  18.5585888
  50.8367273  59.1984189  19.1759284  54.1821458  46.3734034  30.3448838
  54.9231172  46.9741187  30.2653301  54.4139381  45.6311672  29.7866881
  49.3262796  51.5590401  28.6227068  49.2116311  50.6575658  28.9234167
  48.4707314  51.8054098  28.2711884  51.1641755  61.0303943  24.7475247
  51.7149180  60.9021007  23.9752241  50.3253231  61.3298832  24.3970140
  58.1278621  42.4015137  24.6213120  57.7842891  43.2916779  24.5452230
  58.4957584  42.2116795  23.7582705  46.1964472  54.7248667  17.4401722
  47.0339694  55.1345676  17.2235430  46.3742739  53.7848110  17.4101916
  58.0928904  52.3923748  13.1285555  57.5775527  53.1628353  13.3673942
  57.8206212  51.7188884  13.7518616  55.6776015  47.2373449  18.1870793
  54.8217611  46.8480299  18.0076432  56.0902967  47.3165410  17.3270579
  57.2075162  44.7719792  22.5862353  56.7039957  44.7349927  21.7730158
  57.5005768  45.6812535  22.6459010  53.4518047  44.8558522  21.5928535
  54.3171044  44.6601330  21.2334424  53.5195556  44.6268874  22.5197892
  63.0663178  55.1456103  15.0638728  62.2892621  54.8067262  14.6193890
  63.7454659  55.1508726  14.3893693  57.8815207  50.2650840  14.9545336
  57.5765343  50.5796989  15.8055479  58.8345649  50.3432260  14.9972669
  56.3261639  56.4241063  16.6038290  55.7983001  55.6893823  16.2911527
  55.8249142  57.2015740  16.3578258  61.3054485  54.6190084  21.7205336
  60.6478159  55.3089345  21.8085465  62.1094884  55.0086516  22.0639323
  51.0580367  47.0860730  18.9644902  51.6324118  46.8635911  18.2318095
  51.6451349  47.1549424  19.7173503  60.1159944  52.9734457  19.7709278
  60.6291825  53.6064448  20.2730988  60.7661168  52.3735652  19.4052638
  51.3849954  49.1165191  12.9840787  50.5487266  49.4539877  13.3050062
  51.2454723  48.9814171  12.0467924  53.3603034  43.9601979  17.6919971
  52.7067447  43.6450996  17.0676586  53.3183508  43.3377719  18.4179794
  54.4714239  54.2421274   9.6073263  53.5641301  54.0110527   9.8064412
  54.9685271  53.4458893   9.7947245  57.3782318  62.9518781  12.5269949
  56.7044017  63.2550478  13.1354907  57.7648140  63.7547861  12.1775406
  56.5940775  50.4483912  22.0167619  55.6763336  50.6698859  21.8589307
  57.0100918  50.5230223  21.1579326  57.3775822  51.8475328  17.1470299
  58.1247641  52.3596725  16.8377421  57.6467412  51.5259381  18.0074692
  55.6502473  54.3433869  14.1297253  54.7413692  54.0592901  14.2269723
  55.6797556  54.7632947  13.2700560  60.8821740  57.9540458  17.8988421
  60.4284067  57.1131368  17.9553611  60.2515707  58.5901856  18.2363201
  59.8254660  48.8832444  19.1289088  59.0877416  48.3709830  19.4599331
  60.0781433  48.4432826  18.3172365  59.3254679  59.7916955  18.8338239
  59.6177654  60.3522012  18.1150604  59.8353300  60.0845516  19.5891398
  59.9266287  41.6608696  19.7230857  60.2325164  40.8006060  19.4356773
  60.6518892  42.2526316  19.5229851  46.2190643  52.0639383  18.1112455
  46.0215043  51.4708743  17.3863522  45.6637307  51.7591593  18.8288394
  54.1987367  51.9562489  20.2307049  54.2535976  51.0036326  20.1549525
  53.3878569  52.1121928  20.7148347  55.3478560  55.8842612  11.4685332
  54.9097990  55.1678471  11.0090969  56.0889001  56.1118727  10.9070423
  52.1379727  50.5739549  17.9897427  51.3247592  50.8733719  18.3962620
  52.6338721  50.1795238  18.7071910  54.2888304  60.5697306  19.9231692
  54.2464483  60.7958152  18.9940224  55.2051003  60.3360680  20.0717493
  57.7353938  51.0381373  26.8212321  58.0903326  51.2652847  27.6806787
  58.3826069  51.3699750  26.1989577  63.4651675  54.1599809  17.5261650
  63.3269574  54.3501405  16.5982840  63.1087894  54.9219192  17.9829701
  51.6293801  48.1457904  23.6058662  52.2693181  48.0046664  22.9081626
  50.7971332  47.8592418  23.2297264  63.4921055  56.2276336  22.5372922
  63.9257561  56.1351625  23.3855976  64.2052635  56.2033837  21.8992938
  52.4054105  57.4460335  19.7193655  53.1994704  56.9510655  19.5176230
  51.6945798  56.9178198  19.3561360  57.2248950  59.8278430  24.0706022
  57.2785972  60.3969367  24.8383738  56.3563731  59.9980315  23.7060060
  48.7136869  51.5903417  15.7953407  47.7834457  51.5287872  16.0123370
  48.8094341  51.0679369  14.9990049  48.6322418  48.1158229  18.3831649
  48.8929235  49.0303563  18.2740810  49.4539590  47.6482672  18.5328262
  50.1047343  49.5295987  25.5530474  50.7770396  49.3213349  24.9043123
  49.2777130  49.3318073  25.1135706  56.0072915  46.1557928  27.5696135
  55.3600830  46.8547877  27.4760611  56.7773930  46.5894071  27.9372383
  56.1837049  53.9938692  25.6292954  57.1129109  54.1449852  25.4561922
  55.7628079  54.0822713  24.7741601  54.9825381  58.0189357  23.3991492
  54.8436467  57.6508141  24.2717430  54.1939977  58.5336996  23.2275450
  55.5773533  63.1198453  14.7417028  55.7525289  62.6486497  15.5562651
  54.8906321  63.7464220  14.9698289  56.5330596  57.3970960  20.7880330
  56.1980429  57.3571730  21.6837980  56.0334542  56.7315675  20.3150740
  50.5074840  52.8038590  26.3132911  50.3694638  52.0718828  26.9144450
  51.4179764  52.7147490  26.0317099  59.4689788  54.7426994  11.0617389
  58.8518959  54.0173822  10.9650442  59.0006276  55.5036354  10.7184464
  53.1357141  52.5158549  25.8016590  53.8456759  51.8751741  25.7603209
  53.0926449  52.7671444  26.7242771  51.8486075  49.5023767  27.6212230
  51.3123432  49.0514505  28.2733826  51.2602783  49.6369676  26.8782694
  50.1434618  66.2687816  21.5156889  50.3831217  66.9006340  22.1935907
  49.3003815  65.9175856  21.8022248  51.2588334  48.9612418  10.1838694
  50.3817800  48.8401219   9.8200940  51.7346087  48.1698496   9.9317582
  42.7790474  53.7489578  20.2780201  43.4661514  53.4351308  19.6901216
  42.6238603  54.6530943  20.0047452  47.5825196  48.6379774  24.7065224
  47.4983385  48.0305444  23.9715634  46.7607903  49.1288793  24.7074721
  54.6562480  62.0766939  23.9198393  54.5832652  62.8821910  24.4317697
  54.2139873  62.2758904  23.0946414  54.4452260  61.3138709  17.4301214
  53.6619782  61.8560389  17.5239439  55.1445005  61.8312688  17.8295455
  57.7548910  47.1233338  20.0735420  58.2517610  46.3703300  19.7536490
  56.9835892  47.1597655  19.5078629  65.6078667  52.8273704  21.7153711
  65.5968544  53.7098419  21.3447644  64.7396047  52.4745254  21.5208248
  57.1161164  61.9753773  26.0756551  57.8289136  62.6101237  26.0032453
  56.6251192  62.0717639  25.2596553  58.8378691  55.8805025  17.6473843
  57.9034969  56.0006488  17.4778547  59.0155359  54.9777492  17.3833853
  54.3383879  49.2650721  19.8007104  53.9681666  48.7121761  20.4888010
  54.8342971  48.6608854  19.2482104  62.2251242  51.7222345  18.1823877
  62.6911694  52.5550336  18.1084180  62.6758743  51.2567326  18.8869136
  52.1673077  59.7248216  26.8962122  52.8682537  60.3584699  27.0491516
  51.6968192  60.0662948  26.1357761  60.2927473  58.0666166  15.1810029
  60.5687317  57.9522760  16.0903903  59.4231972  57.6683651  15.1422202
  60.1967905  44.0902932  22.2214778  59.2830985  44.3207158  22.3896985
  60.6261006  44.1741376  23.0728811  59.9674363  52.2792823  24.7214672
  59.3145814  52.5268731  24.0667125  60.3454743  51.4656962  24.3877150
  56.9281537  62.3152517  18.8242843  57.1103932  61.4974173  19.2870595
  57.7514523  62.5320209  18.3867733  57.2623703  61.2420702  16.0857891
  57.7911469  60.7313156  15.4728053  57.5251922  60.9263232  16.9503424
  47.7640795  59.2584571  23.8293225  48.3494232  58.5128259  23.9621129
  47.5665634  59.5688528  24.7129889  50.6179451  62.2935818  18.8455667
  49.9489826  62.7781946  18.3619707  50.4792320  62.5405039  19.7599046
  42.3558450  51.8290171  22.5497668  42.3942550  51.2953762  23.3434786
  41.8498743  51.3025377  21.9308645  54.7584719  64.3279562  25.4438325
  55.3103027  64.4911183  26.2087411  55.0990913  64.9184000  24.7718350
  49.7349212  46.6754712  26.0460210  49.7990539  47.5369543  25.6337608
  49.6716333  46.0628713  25.3132569  49.2101485  48.7477844  29.6933244
  49.8373524  48.3654922  30.3070769  48.3529404  48.5292046  30.0588937
  45.9867028  50.5554273  15.6251599  46.2820469  49.6464952  15.5718653
  45.0855063  50.5342013  15.3032602  57.8953106  62.2761538  22.4302008
  57.7704246  61.4751277  21.9212953  58.5532198  62.7707731  21.9415978
  49.5161275  48.6310270  21.6079148  48.7947860  49.2446238  21.4686621
  50.3054530  49.1668035  21.5295794  59.9588015  60.0770558  24.0581558
  59.0118350  59.9575909  23.9859884  60.3070788  59.1893056  24.1407819
  52.3187588  45.9664697  27.8819800  52.8421990  46.2126993  28.6446109
  52.0999922  46.7984731  27.4622937  47.7154869  48.2368371  15.7490924
  47.3867575  47.3565750  15.5666030  48.0694240  48.1816040  16.6367314
  56.9634448  59.8723274  20.2585910  56.8159411  58.9439981  20.4393480
  57.7887942  59.8943365  19.7742985  50.8296692  48.5241341  16.1166402
  51.1692765  49.0527262  15.3945010  51.2768813  48.8621747  16.8924969
  60.5668570  60.6951833  21.3450783  61.4915117  60.4894694  21.2075234
  60.3983873  60.4468234  22.2540124  53.5240133  46.9078392  25.5669470
  53.1836954  46.1086205  25.9690150  52.8179140  47.2080102  24.9946303
  54.1756605  43.9927704  24.0196793  54.9982674  43.5188182  23.8975684
  54.4194669  44.7718188  24.5195479  52.8164840  47.0215962  14.3159695
  53.5373202  47.3997215  13.8123412  52.1930144  47.7404839  14.4194673
  56.9595962  47.7261111  15.2518027  57.1759577  48.6085749  14.9506855
  56.4790030  47.3347325  14.5223669  51.6995184  50.6846825  21.8288772
  51.5539765  50.9987128  22.7213053  51.2220387  51.3031725  21.2759670
  53.5591567  47.6749373  21.8769661  53.5453136  46.7790466  21.5401959
  54.2763995  47.6820036  22.5107947  55.4117697  48.1086713  23.9222789
  55.1535475  49.0303784  23.9207119  54.8802738  47.7117147  24.6123253
  60.3563886  61.2137500  16.7012874  60.5300764  60.6483922  15.9486727
  60.8492777  62.0138395  16.5192364  46.1740846  53.2252169  24.7676433
  45.6294314  54.0011977  24.8996707  47.0520196  53.5722974  24.6095554
  52.9628463  46.5563753  17.1457231  53.0844374  45.6280399  17.3448119
  52.6730505  46.5702439  16.2335547  55.8319653  44.2418663  20.2823951
  55.8541350  44.3057996  19.3275931  56.2487712  43.4023172  20.4764457
  66.2103277  53.9773923  18.3203174  66.6534423  53.2281248  17.9222297
  65.3329788  53.9684059  17.9376906  61.3439059  60.5304264  13.8009772
  62.0389963  61.1510957  14.0197087  61.6862209  59.6799616  14.0762150
  46.9606868  52.3522065  27.6606590  46.2188604  52.5004701  28.2471220
  46.6399612  52.6130331  26.7973339  63.2430482  57.9803970  15.3297103
  63.7681806  58.3191243  14.6046423  63.1552834  57.0450985  15.1460238
  54.9271143  64.0475953  19.6892356  54.4876133  63.5552332  20.3825213
  55.6779260  63.5048921  19.4484432  47.4063482  60.2387494  19.6916984
  48.2321501  59.9391266  19.3115628  47.0557534  59.4695116  20.1406773
  52.3745015  59.5913962  21.7614658  51.7525024  58.9284667  21.4616886
  53.0449882  59.6175094  21.0788306  45.6072087  58.1573821  20.6505918
  44.7703995  57.7295995  20.4689919  45.5795732  58.3506264  21.5876709
  52.4469542  48.0695750  31.3547164  52.4957698  48.9457873  30.9724934
  52.9892056  47.5273143  30.7818807  51.9358522  58.1417886  15.2373119
  52.0846642  58.8253350  14.5839791  52.7424965  58.1222976  15.7522574
  54.6768831  48.8227123  28.1093523  53.8072140  49.1160689  27.8376111
  54.9128311  49.4067568  28.8300786  65.7536142  55.4479161  20.7125621
  66.5883033  55.8868965  20.8763182  65.8895271  54.9717814  19.8933867
  49.6911155  54.1683063  16.2434188  49.4457197  53.2645393  16.4414398
  49.8607069  54.1700214  15.3013666  57.3807865  45.0406740  25.6258943
  57.8989808  45.7767767  25.3005432  57.0262997  45.3470733  26.4605702
  48.9606802  49.9011421  13.7420349  48.2676047  49.9755776  13.0860385
  48.7158554  49.1371764  14.2641866  57.6320459  41.4607022  21.1459840
  57.9122212  40.7930211  21.7720266  58.4171066  41.6536118  20.6334504
  55.4353927  60.6366016  12.7084866  54.8627894  61.2556203  12.2555338
  56.0086721  61.1865378  13.2424788  61.5029317  49.8824656  24.8931415
  62.4546740  49.9822754  24.9143639  61.3332767  49.0902925  25.4029499
  59.5243696  46.9680239  25.0790816  58.9293629  47.2485252  24.3837304
  59.2393393  47.4574140  25.8507557  58.6551187  60.9203166  13.8393448
  59.5881860  60.8548728  14.0426324  58.5674400  61.7559433  13.3807981
  61.2839204  60.2369037  10.7997396  61.2052835  59.9028900  11.6933154
  62.1048870  60.7290804  10.7988868  63.9817395  53.1030776  24.0073714
  63.9493715  52.1646777  24.1933398  64.5918018  53.1814813  23.2739539
  55.8200726  51.9726829  10.0500919  56.7659830  51.8433037  10.1189337
  55.4414971  51.2341491  10.5270347  64.1311883  49.8941819  24.0531998
  63.6150932  49.1100276  23.8661927  65.0151832  49.5660536  24.2178517
  61.7922610  43.6382835  20.0127810  61.5947431  43.3297923  20.8971142
  62.4022316  44.3644474  20.1425740  54.0043643  49.8976805   9.9855804
  53.0975098  49.6009918  10.0618517  54.2819624  49.6006623   9.1190090
  44.9221583  51.2183169  20.4354850  44.6024368  50.3648477  20.1429224
  44.3755011  51.4331747  21.1912817  48.7001491  53.9345610  24.1524357
  48.9187501  54.8662717  24.1712390  49.1127265  53.5753584  24.9379160
  55.6205709  44.4413695  16.1400045  54.8106437  44.0960780  16.5155291
  56.3090125  44.1321239  16.7287657  57.5496257  43.5191742  17.7624342
  58.1027295  43.9387195  18.4214365  57.7866343  42.5927490  17.8047298
  53.5729356  49.5078815  33.5427106  53.4726083  50.4573172  33.4739197
  53.3550898  49.1797054  32.6703176  52.7742427  46.7563740  10.1267783
  53.6361591  47.0818639  10.3863600  52.9592772  45.9695236   9.6140849
  44.7909843  54.8386080  22.4047972  44.0973315  54.4240033  21.8917926
  45.5382834  54.8806617  21.8081391  60.9275064  45.6292267  17.2703006
  60.3473733  46.2877071  16.8881058  60.6610997  44.8069611  16.8590423
  59.3778630  45.0297325  19.4724326  59.8778409  45.1413859  18.6638645
  60.0214238  44.7258377  20.1125135  53.4360626  52.9375954  32.3592167
  52.9527708  53.7376314  32.5656056  53.5221565  52.9483899  31.4059611
  46.7046586  54.7704334  20.2813987  46.6817274  54.8692021  19.3295870
  47.0147222  55.6169485  20.6031153  49.3633964  56.8280489  24.3960601
  50.3177217  56.7964431  24.3290533  49.1646487  56.3671113  25.2110827
  49.9533346  55.3981605  26.9631399  50.7726235  55.8925684  26.9866236
  50.2270153  54.4813573  26.9348966  59.7099942  47.7892357  16.3259354
  58.8225797  48.0742008  16.1079549  60.1253931  47.6286121  15.4786631
  63.0614478  47.8138878  20.0413693  63.8374868  48.3035331  20.3138310
  62.3362612  48.2396932  20.4985563  65.4987037  48.5266497  21.0987634
  66.0931528  48.2862233  20.3880942  65.5713620  47.8073628  21.7261170
  47.7184192  62.3700108  21.4130799  47.5838660  61.6100509  20.8468797
  47.3016255  63.0941008  20.9459588  58.8543155  57.5537032  10.4207374
  59.5579006  57.7587034  11.0365030  58.1305804  58.1213794  10.6856458
  59.6840966  53.3046893  16.5409644  59.6276167  53.7615445  15.7017277
  60.2369308  52.5437578  16.3632487  63.4945772  49.0936625  17.3659764
  63.2382706  48.6933261  18.1967972  62.8698640  49.8080419  17.2409903
  67.8058109  51.8332698  19.8731055  67.2457667  51.9025888  20.6462617
  67.2001613  51.6573683  19.1530552  50.8753318  63.2669425  21.6249242
  50.7585702  64.2114858  21.5227932  50.0545765  62.9642987  22.0135041
  60.7629853  57.9919561  12.4705834  61.5975457  57.5600760  12.2883309
  60.6014196  57.8201575  13.3982729  60.4175745  54.4951674  13.8362174
  60.3624549  54.3295946  12.8950618  59.7921800  55.2027707  13.9924363
  45.2068260  49.7319739  27.6623596  45.8527124  49.2218693  28.1510821
  44.9985411  50.4688420  28.2367021  53.7271870  43.9959783  13.4147492
  53.7150540  44.9401623  13.5715763  54.6195292  43.8129929  13.1206953
  51.9007832  63.9197687  24.8405170  52.8035079  63.9521298  25.1571665
  51.6745202  62.9898138  24.8551506  53.6561434  62.6728674  21.5015249
  52.7057065  62.6730535  21.3879621  53.9593921  61.9261408  20.9851283
  57.5423990  40.5902560  17.6693429  56.7756386  40.0361047  17.8150111
  57.9534695  40.6624429  18.5307580  49.5465751  46.8787356  31.7598610
  50.4097213  46.5224161  31.9701935  48.9731162  46.5401251  32.4474014
  69.3914128  68.5089212  22.5661011  70.0292538  68.3895960  21.8624351
  69.2734971  69.4570056  22.6248963  66.2003834  68.4616640  22.5022536
  65.8622346  68.3457705  21.6143071  67.0693602  68.0607805  22.4823542
  62.0590650  70.3152117  18.4919427  61.4955515  70.2242054  17.7235714
  61.9443045  69.4952021  18.9721919  59.6055082  71.8103308  21.3303647
  60.3976374  71.4694133  20.9149946  59.8451732  71.9198283  22.2505800
  67.6390209  73.9823084  13.8033892  66.9878188  74.5677165  13.4167905
  68.4334571  74.5129279  13.8628929  61.5645836  71.0712222  14.2021026
  62.3376712  70.5241209  14.0633902  61.9171235  71.9356471  14.4135487
  64.3287085  69.7765452  23.9989285  64.9250657  69.5521475  23.2846248
  64.3862057  69.0350198  24.6014733  63.9012114  67.2304888  11.8339476
  64.1537634  66.7086409  11.0722939  62.9636673  67.0671033  11.9366159
  68.9455396  66.2340666  19.6414219  69.7318486  65.8160089  19.2904636
  69.2094101  67.1386758  19.8095867  69.1165474  71.6713516  14.3402876
  68.4811307  71.7448143  15.0523780  68.7862880  72.2607115  13.6621955
  74.3463824  66.1715899  20.5447198  75.0788995  65.6015116  20.7785027
  73.5903179  65.7837500  20.9853703  63.6208402  69.1332994  14.0363851
  63.5044660  68.4577897  14.7044935  63.7310662  68.6465368  13.2196004
  65.9639943  68.5943141  17.7410540  65.5998150  68.0673762  18.4523461
  66.8207059  68.2041610  17.5677025  65.6045430  63.6233040  12.7371889
  65.7719833  64.4913277  13.1042360  65.4142599  63.7860322  11.8133178
  68.3620763  72.0850019  24.4037719  68.0621486  72.9875058  24.2953526
  68.0171823  71.8182203  25.2558872  71.7617907  64.6032560  22.0835156
  70.8534785  64.5347968  21.7893917  71.7105503  65.0804505  22.9116982
  65.5834651  66.0790698  13.7218555  65.4634276  66.5247749  14.5604036
  64.8887239  66.4276016  13.1632093  63.3441543  78.8494340  17.3708687
  63.2665573  79.8002165  17.4497167  62.7403187  78.5040212  18.0283613
  73.6279554  62.8048998  23.8613030  72.9853934  63.0981531  23.2152825
  73.1234482  62.6901918  24.6666227  71.2819717  66.5512171  14.5498889
  72.1937573  66.7839558  14.3746587  70.7729364  67.1349215  13.9873968
  69.8889300  71.5337990  21.9412471  69.2598162  71.6983704  21.2388539
  69.5014962  71.9479599  22.7123435  73.7678531  72.4692427  19.2956835
  73.0829570  72.8491329  18.7453868  73.8522381  73.0787754  20.0288782
  71.0229463  70.1152387  25.8952178  71.2346358  70.7584146  25.2186559
  70.9759211  69.2814703  25.4274108  68.6255692  62.7270207  22.7988750
  67.7640171  63.0251461  23.0905488  68.6518127  62.9440606  21.8669783
  65.4417261  71.2712398  19.2062556  65.9055607  71.5500101  18.4167178
  65.1774060  70.3695842  19.0235647  64.3786147  67.3935550  16.0152121
  65.0810191  67.8456594  16.4826047  64.0466776  66.7519369  16.6432014
  58.1211481  65.6519103  21.3169255  57.3310535  65.9076631  20.8409365
  58.6122729  66.4667441  21.4221295  72.1375291  72.9924342  24.0674535
  72.9592735  72.5904529  23.7857217  72.1337694  72.8892576  25.0190651
  60.0726227  66.0163682  18.2752731  59.2757390  66.1282376  18.7936227
  59.8451819  66.3550334  17.4093622  56.4049184  65.9049593  23.7484245
  56.6557223  66.7896603  24.0141821  56.9408733  65.7254195  22.9759337
  80.2281284  69.3363090  20.4159507  79.4744992  68.7670488  20.2603511
  80.3628825  69.3025755  21.3630142  65.6179912  74.2076493  16.0914226
  65.4825587  75.0528028  16.5199074  66.1589725  74.4095770  15.3280160
  59.0709310  71.7251931  16.6642151  59.5833830  72.5195181  16.8147716
  59.7232022  71.0278221  16.5975753  60.8804194  74.8417687  18.7464905
  61.0570823  75.7635652  18.5585888  61.6761028  74.5276106  19.1759284
  62.0035510  76.3595861  24.7475247  62.5542935  76.2312924  23.9752241
  61.1646986  76.6590750  24.3970140  69.3429627  75.1102859  28.2495970
  69.3248102  75.9311740  27.7576239  70.2649547  74.9856934  28.4746111
  57.0358226  70.0540585  17.4401722  57.8733448  70.4637593  17.2235430
  57.2136494  69.1140027  17.4101916  68.9322658  67.7215666  13.1285555
  68.4169282  68.4920270  13.3673942  68.6599967  67.0480802  13.7518616
  66.5169769  62.5665366  18.1870793  65.6611366  62.1772217  18.0076432
  66.9296721  62.6457327  17.3270579  64.2911802  60.1850439  21.5928535
  65.1564799  59.9893248  21.2334424  64.3589311  59.9560791  22.5197892
  73.9056933  70.4748020  15.0638728  73.1286375  70.1359180  14.6193890
  74.5848414  70.4800644  14.3893693  68.7208962  65.5942758  14.9545336
  68.4159097  65.9088907  15.8055479  69.6739404  65.6724178  14.9972669
  67.1655393  71.7532981  16.6038290  66.6376755  71.0185741  16.2911527
  66.6642896  72.5307657  16.3578258  72.1448239  69.9482002  21.7205336
  71.4871914  70.6381263  21.8085465  72.9488639  70.3378434  22.0639323
  61.8974121  62.4152647  18.9644902  62.4717873  62.1927829  18.2318095
  62.4845103  62.4841342  19.7173503  70.9553698  68.3026374  19.7709278
  71.4685580  68.9356366  20.2730988  71.6054922  67.7027570  19.4052638
  62.2243708  64.4457108  12.9840787  61.3881020  64.7831795  13.3050062
  62.0848478  64.3106088  12.0467924  64.1996789  59.2893896  17.6919971
  63.5461201  58.9742913  17.0676586  64.1577263  58.6669637  18.4179794
  65.3107994  69.5713191   9.6073263  64.4035055  69.3402445   9.8064412
  65.8079026  68.7750811   9.7947245  68.2176072  78.2810699  12.5269949
  67.5437771  78.5842395  13.1354907  68.6041894  79.0839779  12.1775406
  67.4334529  65.7775830  22.0167619  66.5157090  65.9990777  21.8589307
  67.8494673  65.8522140  21.1579326  68.2169577  67.1767246  17.1470299
  68.9641396  67.6888643  16.8377421  68.4861166  66.8551298  18.0074692
  66.4896227  69.6725786  14.1297253  65.5807446  69.3884819  14.2269723
  66.5191311  70.0924865  13.2700560  71.7215494  73.2832376  17.8988421
  71.2677822  72.4423286  17.9553611  71.0909461  73.9193774  18.2363201
  70.6648414  64.2124362  19.1289088  69.9271171  63.7001748  19.4599331
  70.9175188  63.7724743  18.3172365  70.1648434  75.1208872  18.8338239
  70.4571408  75.6813930  18.1150604  70.6747054  75.4137433  19.5891398
  70.7660041  56.9900614  19.7230857  71.0718918  56.1297977  19.4356773
  71.4912646  57.5818234  19.5229851  57.0584397  67.3931300  18.1112455
  56.8608797  66.8000661  17.3863522  56.5031061  67.0883511  18.8288394
  65.0381121  67.2854407  20.2307049  65.0929731  66.3328243  20.1549525
  64.2272323  67.4413846  20.7148347  66.1872315  71.2134530  11.4685332
  65.7491745  70.4970389  11.0090969  66.9282756  71.4410645  10.9070423
  62.9773481  65.9031467  17.9897427  62.1641347  66.2025637  18.3962620
  63.4732475  65.5087155  18.7071910  65.1282059  75.8989224  19.9231692
  65.0858238  76.1250070  18.9940224  66.0444758  75.6652598  20.0717493
  74.3045430  69.4891727  17.5261650  74.1663328  69.6793323  16.5982840
  73.9481648  70.2511110  17.9829701  62.4687556  63.4749822  23.6058662
  63.1086935  63.3338581  22.9081626  61.6365086  63.1884336  23.2297264
  74.3314809  71.5568254  22.5372922  74.7651316  71.4643543  23.3855976
  75.0446390  71.5325754  21.8992938  63.2447860  72.7752253  19.7193655
  64.0388458  72.2802573  19.5176230  62.5339552  72.2470116  19.3561360
  68.0642704  75.1570348  24.0706022  68.1179726  75.7261284  24.8383738
  67.1957486  75.3272233  23.7060060  59.5530623  66.9195334  15.7953407
  58.6228211  66.8579790  16.0123370  59.6488095  66.3971287  14.9990049
  59.4716172  63.4450147  18.3831649  59.7322989  64.3595480  18.2740810
  60.2933345  62.9774590  18.5328262  75.1930359  71.5991955  25.0705807
  75.3866249  72.5037765  25.3165082  75.0930977  71.1399374  25.9044392
  67.0230804  69.3230610  25.6292954  67.9522864  69.4741770  25.4561922
  66.6021834  69.4114631  24.7741601  65.8219136  73.3481275  23.3991492
  65.6830221  72.9800059  24.2717430  65.0333732  73.8628914  23.2275450
  66.4167288  78.4490371  14.7417028  66.5919043  77.9778414  15.5562651
  65.7300076  79.0756137  14.9698289  67.3724351  72.7262877  20.7880330
  67.0374183  72.6863647  21.6837980  66.8728296  72.0607593  20.3150740
  70.3083542  70.0718912  11.0617389  69.6912713  69.3465740  10.9650442
  69.8400031  70.8328272  10.7184464  71.9637674  74.7817820  28.7223170
  71.9050220  74.0977040  28.0553753  72.3657192  75.5236810  28.2703796
  60.9828373  81.5979734  21.5156889  61.2224971  82.2298258  22.1935907
  60.1397569  81.2467774  21.8022248  62.0982088  64.2904336  10.1838694
  61.2211555  64.1693137   9.8200940  62.5739841  63.4990414   9.9317582
  71.9655081  72.7457404  26.9537149  71.0781860  72.4083326  27.0763548
  72.5353632  72.0140435  27.1905915  53.6184228  69.0781496  20.2780201
  54.3055268  68.7643226  19.6901216  53.4632357  69.9822860  20.0047452
  65.4956235  77.4058856  23.9198393  65.4226406  78.2113828  24.4317697
  65.0533628  77.6050822  23.0946414  65.2846014  76.6430626  17.4301214
  64.5013536  77.1852306  17.5239439  65.9838760  77.1604606  17.8295455
  68.5942665  62.4525256  20.0735420  69.0911364  61.6995218  19.7536490
  67.8229646  62.4889572  19.5078629  76.4472422  68.1565621  21.7153711
  76.4362298  69.0390337  21.3447644  75.5789801  67.8037172  21.5208248
  67.9554918  77.3045690  26.0756551  68.6682891  77.9393155  26.0032453
  67.4644947  77.4009556  25.2596553  69.6772445  71.2096943  17.6473843
  68.7428724  71.3298405  17.4778547  69.8549114  70.3069410  17.3833853
  65.1777633  64.5942639  19.8007104  64.8075421  64.0413679  20.4888010
  65.6736726  63.9900772  19.2482104  73.0644997  67.0514262  18.1823877
  73.5305449  67.8842254  18.1084180  73.5152497  66.5859244  18.8869136
  63.0066832  75.0540134  26.8962122  63.7076291  75.6876617  27.0491516
  62.5361947  75.3954865  26.1357761  71.1321228  73.3958083  15.1810029
  71.4081072  73.2814678  16.0903903  70.2625726  72.9975568  15.1422202
  71.0361659  59.4194849  22.2214778  70.1224739  59.6499076  22.3896985
  71.4654761  59.5033293  23.0728811  70.8068118  67.6084741  24.7214672
  70.1539568  67.8560649  24.0667125  71.1848498  66.7948879  24.3877150
  67.7675292  77.6444434  18.8242843  67.9497686  76.8266090  19.2870595
  68.5908278  77.8612127  18.3867733  68.1017457  76.5712619  16.0857891
  68.6305224  76.0605074  15.4728053  68.3645677  76.2555150  16.9503424
  58.6034550  74.5876489  23.8293225  59.1887987  73.8420177  23.9621129
  58.4059388  74.8980445  24.7129889  61.4573205  77.6227736  18.8455667
  60.7883580  78.1073864  18.3619707  61.3186075  77.8696957  19.7599046
  53.1952205  67.1582089  22.5497668  53.2336304  66.6245680  23.3434786
  52.6892497  66.6317294  21.9308645  65.5978474  79.6571480  25.4438325
  66.1496782  79.8203101  26.2087411  65.9384667  80.2475917  24.7718350
  56.8260782  65.8846191  15.6251599  57.1214223  64.9756870  15.5718653
  55.9248818  65.8633931  15.3032602  68.7346861  77.6053455  22.4302008
  68.6098000  76.8043195  21.9212953  69.3925952  78.0999649  21.9415978
  60.3555029  63.9602188  21.6079148  59.6341615  64.5738155  21.4686621
  61.1448285  64.4959953  21.5295794  70.7981769  75.4062475  24.0581558
  69.8512105  75.2867826  23.9859884  71.1464542  74.5184973  24.1407819
  58.5548624  63.5660289  15.7490924  58.2261330  62.6857668  15.5666030
  58.9087994  63.5107957  16.6367314  67.8028203  75.2015191  20.2585910
  67.6553165  74.2731899  20.4393480  68.6281696  75.2235282  19.7742985
  61.6690447  63.8533259  16.1166402  62.0086519  64.3819180  15.3945010
  62.1162567  64.1913665  16.8924969  71.4062324  76.0243750  21.3450783
  72.3308872  75.8186612  21.2075234  71.2377628  75.7760151  22.2540124
  63.6558594  62.3507880  14.3159695  64.3766957  62.7289133  13.8123412
  63.0323898  63.0696757  14.4194673  67.7989717  63.0553029  15.2518027
  68.0153331  63.9377667  14.9506855  67.3183784  62.6639243  14.5223669
  64.3985321  63.0041290  21.8769661  64.3846890  62.1082384  21.5401959
  65.1157749  63.0111954  22.5107947  71.1957641  76.5429418  16.7012874
  71.3694518  75.9775840  15.9486727  71.6886532  77.3430313  16.5192364
  63.8022217  61.8855671  17.1457231  63.9238128  60.9572317  17.3448119
  63.5124260  61.8994357  16.2335547  66.6713408  59.5710581  20.2823951
  66.6935104  59.6349914  19.3275931  67.0881467  58.7315090  20.4764457
  77.0497032  69.3065841  18.3203174  77.4928178  68.5573166  17.9222297
  76.1723542  69.2975977  17.9376906  72.1832813  75.8596182  13.8009772
  72.8783718  76.4802875  14.0197087  72.5255963  75.0091533  14.0762150
  74.0824236  73.3095888  15.3297103  74.6075560  73.6483160  14.6046423
  73.9946589  72.3742903  15.1460238  65.7444285  77.2229961  27.4586980
  66.0531411  76.9779108  28.3309679  66.5419767  77.4276600  26.9705850
  65.7664897  79.3767871  19.6892356  65.3269887  78.8844250  20.3825213
  66.5173014  78.8340839  19.4484432  58.2457236  75.5679412  19.6916984
  59.0715256  75.2683184  19.3115628  57.8951288  74.7987034  20.1406773
  63.2138769  74.9205880  21.7614658  62.5918779  74.2576585  21.4616886
  63.8843636  74.9467012  21.0788306  56.4465841  73.4865738  20.6505918
  55.6097749  73.0587913  20.4689919  56.4189487  73.6798182  21.5876709
  73.8916017  70.7921258  27.9481030  73.9414022  70.6271265  28.8896552
  73.7829941  69.9248517  27.5578910  62.7752276  73.4709803  15.2373119
  62.9240396  74.1545268  14.5839791  63.5818720  73.4514893  15.7522574
  75.3934214  73.2118199  28.1923051  75.1019023  73.5748180  29.0286512
  74.7806346  72.4985207  28.0136383  76.5929897  70.7771079  20.7125621
  77.4276788  71.2160883  20.8763182  76.7289025  70.3009732  19.8933867
  73.6421403  68.3350814  26.6603109  74.1175524  68.5278460  25.8521961
  72.7186968  68.3910000  26.4146493  60.5304909  69.4974981  16.2434188
  60.2850951  68.5937311  16.4414398  60.7000824  69.4992131  15.3013666
  59.8000557  65.2303339  13.7420349  59.1069802  65.3047694  13.0860385
  59.5552309  64.4663682  14.2641866  68.4714213  56.7898940  21.1459840
  68.7515967  56.1222129  21.7720266  69.2564820  56.9828035  20.6334504
  66.2747682  75.9657934  12.7084866  65.7021649  76.5848121  12.2555338
  66.8480475  76.5157295  13.2424788  72.3423072  65.2116574  24.8931415
  73.2940494  65.3114672  24.9143639  72.1726522  64.4194842  25.4029499
  69.4944941  76.2495084  13.8393448  70.4275615  76.1840646  14.0426324
  69.4068154  77.0851351  13.3807981  72.1232958  75.5660954  10.7997396
  72.0446590  75.2320818  11.6933154  72.9442625  76.0582722  10.7988868
  74.8211149  68.4322694  24.0073714  74.7887469  67.4938694  24.1933398
  75.4311773  68.5106730  23.2739539  66.6594480  67.3018747  10.0500919
  67.6053585  67.1724955  10.1189337  66.2808725  66.5633408  10.5270347
  74.9705638  65.2233737  24.0531998  74.4544686  64.4392194  23.8661927
  75.8545586  64.8952454  24.2178517  72.6316365  58.9674753  20.0127810
  72.4341186  58.6589841  20.8971142  73.2416070  59.6936391  20.1425740
  80.6387699  69.4938700  23.1479751  81.3691088  69.2323989  23.7087455
  80.0294645  68.7567422  23.1881819  78.7202996  67.6346563  23.7454202
  77.9936160  67.5002528  23.1370694  78.3050283  67.9423392  24.5510921
  64.8437397  65.2268723   9.9855804  63.9368853  64.9301836  10.0618517
  65.1213378  64.9298541   9.1190090  55.7615338  66.5475086  20.4354850
  55.4418122  65.6940394  20.1429224  55.2148766  66.7623664  21.1912817
  66.4599463  59.7705613  16.1400045  65.6500191  59.4252698  16.5155291
  67.1483880  59.4613156  16.7287657  68.3890011  58.8483659  17.7624342
  68.9421050  59.2679113  18.4214365  68.6260098  57.9219408  17.8047298
  63.6136182  62.0855658  10.1267783  64.4755346  62.4110556  10.3863600
  63.7986526  61.2987154   9.6140849  55.6303598  70.1677998  22.4047972
  54.9367069  69.7531951  21.8917926  56.3776589  70.2098534  21.8081391
  71.7668818  60.9584185  17.2703006  71.1867487  61.6168989  16.8881058
  71.5004751  60.1361529  16.8590423  70.2172385  60.3589242  19.4724326
  70.7172163  60.4705777  18.6638645  70.8607993  60.0550295  20.1125135
  57.5440340  70.0996252  20.2813987  57.5211028  70.1983939  19.3295870
  57.8540977  70.9461402  20.6031153  60.2027718  72.1572407  24.3960601
  61.1570972  72.1256349  24.3290533  60.0040242  71.6963030  25.2110827
  70.5493696  63.1184275  16.3259354  69.6619551  63.4033926  16.1079549
  70.9647686  62.9578038  15.4786631  73.9008233  63.1430796  20.0413693
  74.6768623  63.6327248  20.3138310  73.1756367  63.5688850  20.4985563
  76.3380791  63.8558415  21.0987634  76.9325282  63.6154151  20.3880942
  76.4107375  63.1365546  21.7261170  58.5577947  77.6992026  21.4130799
  58.4232415  76.9392427  20.8468797  58.1410009  78.4232926  20.9459588
  69.6936910  72.8828950  10.4207374  70.3972760  73.0878952  11.0365030
  68.9699559  73.4505712  10.6856458  70.5234720  68.6338811  16.5409644
  70.4669922  69.0907362  15.7017277  71.0763063  67.8729495  16.3632487
  74.3339526  64.4228543  17.3659764  74.0776460  64.0225178  18.1967972
  73.7092394  65.1372337  17.2409903  78.6451864  67.1624616  19.8731055
  78.0851422  67.2317805  20.6462617  78.0395367  66.9865601  19.1530552
  61.7147073  78.5961343  21.6249242  61.5979457  79.5406776  21.5227932
  60.8939519  78.2934905  22.0135041  71.6023607  73.3211479  12.4705834
  72.4369211  72.8892677  12.2883309  71.4407950  73.1493493  13.3982729
  71.2569499  69.8243592  13.8362174  71.2018303  69.6587864  12.8950618
  70.6315555  70.5319625  13.9924363  64.5665625  59.3251701  13.4147492
  64.5544295  60.2693541  13.5715763  65.4589047  59.1421847  13.1206953
  62.7401587  79.2489605  24.8405170  63.6428834  79.2813215  25.1571665
  62.5138957  78.3190056  24.8551506  64.4955189  78.0020592  21.5015249
  63.5450820  78.0022453  21.3879621  64.7987675  77.2553326  20.9851283
  68.3817744  55.9194478  17.6693429  67.6150140  55.3652964  17.8150111
  68.7928449  55.9916347  18.5307580  80.2307882  83.8381130  22.5661011
  80.8686292  83.7187877  21.8624351  80.1128725  84.7861974  22.6248963
  77.0397589  83.7908558  22.5022536  76.7016100  83.6749623  21.6143071
  77.9087357  83.3899723  22.4823542  72.8984404  85.6444034  18.4919427
  72.3349270  85.5533971  17.7235714  72.7836799  84.8243939  18.9721919
  77.5217372  84.9443410  28.4608741  77.5106012  84.5496208  27.5889245
  77.6838011  84.2109482  29.0542513  70.4448836  87.1395226  21.3303647
  71.2370128  86.7986051  20.9149946  70.6845486  87.2490201  22.2505800
  78.4783963  89.3115002  13.8033892  77.8271943  89.8969083  13.4167905
  79.2728326  89.8421197  13.8628929  72.4039590  86.4004139  14.2021026
  73.1770466  85.8533126  14.0633902  72.7564989  87.2648389  14.4135487
  74.2424633  87.7280522  27.4087925  73.9514499  88.6326152  27.2934592
  74.8781617  87.7697049  28.1231995  75.1680840  85.1057370  23.9989285
  75.7644412  84.8813392  23.2846248  75.2255811  84.3642116  24.6014733
  74.7405868  82.5596805  11.8339476  74.9931389  82.0378327  11.0722939
  73.8030427  82.3962951  11.9366159  79.7849151  81.5632584  19.6414219
  80.5712240  81.1452007  19.2904636  80.0487855  82.4678676  19.8095867
  79.9559228  87.0005434  14.3402876  79.3205061  87.0740061  15.0523780
  79.6256635  87.5899033  13.6621955  85.1857578  81.5007817  20.5447198
  85.9182750  80.9307034  20.7785027  84.4296934  81.1129417  20.9853703
  74.4602157  84.4624911  14.0363851  74.3438415  83.7869815  14.7044935
  74.5704417  83.9757285  13.2196004  76.8033698  83.9235058  17.7410540
  76.4391905  83.3965679  18.4523461  77.6600814  83.5333528  17.5677025
  82.7082998  75.2129391  25.0041806  82.3766323  76.0824802  24.7803021
  82.1128612  74.8965675  25.6835837  76.4439185  78.9524958  12.7371889
  76.6113587  79.8205195  13.1042360  76.2536354  79.1152240  11.8133178
  79.2014518  87.4141937  24.4037719  78.9015241  88.3166976  24.2953526
  78.8565577  87.1474120  25.2558872  72.6526999  83.8655734  20.4374423
  71.7277496  83.7331948  20.6452115  72.9011413  84.6449953  20.9344366
  82.6011662  79.9324477  22.0835156  81.6928539  79.8639886  21.7893917
  82.5499257  80.4096422  22.9116982  76.4228406  81.4082616  13.7218555
  76.3028031  81.8539666  14.5604036  75.7280994  81.7567933  13.1632093
  70.0135810  83.5089007  21.2718212  70.1428192  83.7623486  22.1857624
  69.3333262  84.1016715  20.9522867  74.1835298  94.1786257  17.3708687
  74.1059327  95.1294083  17.4497167  73.5796941  93.8332130  18.0283613
  76.6752527  81.3514123  30.0270053  75.8985862  81.9108043  30.0172918
  77.3143091  81.8370906  30.5484924  84.4673308  78.1340916  23.8613030
  83.8247688  78.4273449  23.2152825  83.9628237  78.0193836  24.6666227
  82.1213472  81.8804089  14.5498889  83.0331328  82.1131476  14.3746587
  81.6123119  82.4641133  13.9873968  74.9298900  84.1599576  29.5888020
  75.6713584  84.6984620  29.3122844  74.2235885  84.7865865  29.7459572
  80.4054239  86.3028717  28.1860182  80.8137595  85.8611127  27.4414814
  79.6831501  85.7281344  28.4394375  76.7585309  81.2401323  25.5593739
  77.6046505  81.6640737  25.7028388  76.6983947  80.5834948  26.2532302
  80.7283054  86.8629907  21.9412471  80.0991916  87.0275621  21.2388539
  80.3408716  87.2771517  22.7123435  84.6072286  87.7984345  19.2956835
  83.9223324  88.1783247  18.7453868  84.6916135  88.4079672  20.0288782
  79.9084755  78.9005692  27.2174913  79.6645687  79.6547752  26.6809188
  80.1844685  79.2791039  28.0522160  81.8623218  85.4444304  25.8952178
  82.0740113  86.0876064  25.2186559  81.8152966  84.6106621  25.4274108
  79.4649447  78.0562125  22.7988750  78.6033926  78.3543378  23.0905488
  79.4911881  78.2732524  21.8669783  76.2811016  86.6004315  19.2062556
  76.7449361  86.8792018  18.4167178  76.0167814  85.6987760  19.0235647
  73.1735097  86.1475797  22.1442319  73.7436454  86.5763065  21.5059804
  73.7643209  85.8658382  22.8426505  75.2179902  82.7227468  16.0152121
  75.9203945  83.1748511  16.4826047  74.8860530  82.0811287  16.6432014
  73.6660264  81.3139224  30.3903330  73.0358924  81.9955505  30.6238727
  73.5596351  81.2022306  29.4456469  68.9605236  80.9811020  21.3169255
  68.1704290  81.2368549  20.8409365  69.4516483  81.7959358  21.4221295
  82.9769046  88.3216260  24.0674535  83.7986489  87.9196447  23.7857217
  82.9731448  88.2184494  25.0190651  70.9119981  81.3455600  18.2752731
  70.1151145  81.4574294  18.7936227  70.6845574  81.6842252  17.4093622
  76.7425649  87.8700303  26.2235246  76.8070081  88.3320710  27.0593418
  76.0336573  87.2397668  26.3517556  67.2442939  81.2341511  23.7484245
  67.4950977  82.1188521  24.0141821  67.7802487  81.0546112  22.9759337
  91.0675039  84.6655008  20.4159507  90.3138747  84.0962406  20.2603511
  91.2022580  84.6317673  21.3630142  76.4573667  89.5368410  16.0914226
  76.3219341  90.3819946  16.5199074  76.9983479  89.7387688  15.3280160
  69.9103064  87.0543848  16.6642151  70.4227585  87.8487099  16.8147716
  70.5625777  86.3570139  16.5975753  71.7197949  90.1709605  18.7464905
  71.8964577  91.0927569  18.5585888  72.5154782  89.8568024  19.1759284
  71.0050305  82.2174237  28.6227068  70.8903820  81.3159494  28.9234167
  70.1494823  82.4637933  28.2711884  78.0842143  90.1591977  30.2214568
  77.6405997  89.3728355  29.9035473  78.7459357  90.3471127  29.5558459
  72.8429264  91.6887778  24.7475247  73.3936689  91.5604842  23.9752241
  72.0040740  91.9882668  24.3970140  80.1823381  90.4394777  28.2495970
  80.1641856  91.2603658  27.7576239  81.1043301  90.3148852  28.4746111
  76.6396435  87.9538906  29.0919478  77.1724772  87.1927194  28.8618786
  76.1110516  87.6612558  29.8343633  79.8066130  73.0598972  24.6213120
  79.4630400  73.9500614  24.5452230  80.1745093  72.8700630  23.7582705
  67.8751981  85.3832503  17.4401722  68.7127203  85.7929511  17.2235430
  68.0530248  84.4431945  17.4101916  79.7716413  83.0507583  13.1285555
  79.2563036  83.8212188  13.3673942  79.4993721  82.3772720  13.7518616
  77.3563524  77.8957284  18.1870793  76.5005120  77.5064135  18.0076432
  77.7690476  77.9749245  17.3270579  78.8862671  75.4303627  22.5862353
  78.3827466  75.3933763  21.7730158  79.1793277  76.3396370  22.6459010
  75.1305556  75.5142357  21.5928535  75.9958553  75.3185166  21.2334424
  75.1983065  75.2852709  22.5197892  84.7450687  85.8039938  15.0638728
  83.9680130  85.4651098  14.6193890  85.4242168  85.8092561  14.3893693
  79.5602716  80.9234675  14.9545336  79.2552852  81.2380825  15.8055479
  80.5133158  81.0016095  14.9972669  78.0049148  87.0824899  16.6038290
  77.4770509  86.3477658  16.2911527  77.5036651  87.8599575  16.3578258
  82.9841994  85.2773919  21.7205336  82.3265668  85.9673181  21.8085465
  83.7882393  85.6670351  22.0639323  72.7367876  77.7444565  18.9644902
  73.3111627  77.5219747  18.2318095  73.3238858  77.8133260  19.7173503
  81.7947453  83.6318292  19.7709278  82.3079334  84.2648284  20.2730988
  82.4448677  83.0319487  19.4052638  73.0637463  79.7749026  12.9840787
  72.2274775  80.1123713  13.3050062  72.9242232  79.6398006  12.0467924
  75.0390543  74.6185814  17.6919971  74.3854956  74.3034831  17.0676586
  74.9971017  73.9961554  18.4179794  76.1501748  84.9005109   9.6073263
  75.2428810  84.6694363   9.8064412  76.6472780  84.1042728   9.7947245
  78.2728284  81.1067748  22.0167619  77.3550845  81.3282695  21.8589307
  78.6888427  81.1814058  21.1579326  79.0563331  82.5059163  17.1470299
  79.8035150  83.0180560  16.8377421  79.3254921  82.1843216  18.0074692
  77.3289982  85.0017704  14.1297253  76.4201201  84.7176737  14.2269723
  77.3585065  85.4216782  13.2700560  82.5609249  88.6124293  17.8988421
  82.1071576  87.7715203  17.9553611  81.9303216  89.2485692  18.2363201
  81.5042169  79.5416279  19.1289088  80.7664925  79.0293666  19.4599331
  81.7568942  79.1016661  18.3172365  81.0042188  90.4500790  18.8338239
  81.2965163  91.0105847  18.1150604  81.5140809  90.7429351  19.5891398
  81.6053796  72.3192531  19.7230857  81.9112673  71.4589895  19.4356773
  82.3306401  72.9110152  19.5229851  67.8978152  82.7223218  18.1112455
  67.7002552  82.1292579  17.3863522  67.3424816  82.4175428  18.8288394
  75.8774876  82.6146325  20.2307049  75.9323485  81.6620161  20.1549525
  75.0666078  82.7705764  20.7148347  77.0266069  86.5426448  11.4685332
  76.5885499  85.8262307  11.0090969  77.7676510  86.7702562  10.9070423
  73.8167235  81.2323384  17.9897427  73.0035101  81.5317555  18.3962620
  74.3126230  80.8379073  18.7071910  75.9675813  91.2281141  19.9231692
  75.9251992  91.4541988  18.9940224  76.8838512  90.9944516  20.0717493
  79.4141447  81.6965209  26.8212321  79.7690835  81.9236682  27.6806787
  80.0613578  82.0283586  26.1989577  85.1439184  84.8183645  17.5261650
  85.0057083  85.0085241  16.5982840  84.7875403  85.5803027  17.9829701
  73.3081310  78.8041740  23.6058662  73.9480690  78.6630499  22.9081626
  72.4758841  78.5176253  23.2297264  85.1708564  86.8860172  22.5372922
  85.6045070  86.7935461  23.3855976  85.8840144  86.8617672  21.8992938
  74.0841614  88.1044170  19.7193655  74.8782213  87.6094490  19.5176230
  73.3733307  87.5762033  19.3561360  78.9036459  90.4862266  24.0706022
  78.9573481  91.0553202  24.8383738  78.0351240  90.6564151  23.7060060
  70.3924378  82.2487252  15.7953407  69.4621966  82.1871707  16.0123370
  70.4881850  81.7263205  14.9990049  70.3109927  78.7742065  18.3831649
  70.5716744  79.6887398  18.2740810  71.1327099  78.3066507  18.5328262
  71.7834852  80.1879822  25.5530474  72.4557905  79.9797184  24.9043123
  70.9564639  79.9901908  25.1135706  86.0324113  86.9283872  25.0705807
  86.2260003  87.8329683  25.3165082  85.9324731  86.4691291  25.9044392
  77.6860424  76.8141763  27.5696135  77.0388339  77.5131713  27.4760611
  78.4561439  77.2477907  27.9372383  81.0939222  87.0790615  30.6446688
  80.9424728  86.8501167  29.7276772  81.0843901  88.0361216  30.6578033
  77.8624558  84.6522528  25.6292954  78.7916618  84.8033687  25.4561922
  77.4415588  84.7406549  24.7741601  76.6612890  88.6773192  23.3991492
  76.5223976  88.3091977  24.2717430  75.8727486  89.1920832  23.2275450
  77.2561042  93.7782289  14.7417028  77.4312798  93.3070332  15.5562651
  76.5693830  94.4048055  14.9698289  78.2118105  88.0554795  20.7880330
  77.8767938  88.0155565  21.6837980  77.7122051  87.3899511  20.3150740
  72.1862349  83.4622425  26.3132911  72.0482147  82.7302664  26.9144450
  73.0967273  83.3731325  26.0317099  81.1477297  85.4010829  11.0617389
  80.5306468  84.6757657  10.9650442  80.6793785  86.1620190  10.7184464
  74.8144650  83.1742384  25.8016590  75.5244268  82.5335576  25.7603209
  74.7713958  83.4255279  26.7242771  82.8031429  90.1109738  28.7223170
  82.7443975  89.4268958  28.0553753  83.2050947  90.8528728  28.2703796
  73.5273584  80.1607602  27.6212230  72.9910941  79.7098341  28.2733826
  72.9390292  80.2953511  26.8782694  71.8222127  96.9271651  21.5156889
  72.0618726  97.5590176  22.1935907  70.9791324  96.5759691  21.8022248
  72.9375843  79.6196254  10.1838694  72.0605309  79.4985054   9.8200940
  73.4133596  78.8282332   9.9317582  82.8048836  88.0749322  26.9537149
  81.9175615  87.7375243  27.0763548  83.3747387  87.3432353  27.1905915
  64.4577983  84.4073413  20.2780201  65.1449023  84.0935143  19.6901216
  64.3026112  85.3114778  20.0047452  69.2612705  79.2963610  24.7065224
  69.1770894  78.6889279  23.9715634  68.4395412  79.7872628  24.7074721
  76.3349989  92.7350774  23.9198393  76.2620161  93.5405745  24.4317697
  75.8927382  92.9342740  23.0946414  76.1239769  91.9722544  17.4301214
  75.3407291  92.5144224  17.5239439  76.8232514  92.4896524  17.8295455
  79.4336419  77.7817173  20.0735420  79.9305119  77.0287136  19.7536490
  78.6623401  77.8181490  19.5078629  87.2866176  83.4857539  21.7153711
  87.2756053  84.3682254  21.3447644  86.4183556  83.1329090  21.5208248
  78.7948673  92.6337608  26.0756551  79.5076645  93.2685073  26.0032453
  78.3038701  92.7301474  25.2596553  80.5166200  86.5388861  17.6473843
  79.5822478  86.6590323  17.4778547  80.6942868  85.6361327  17.3833853
  76.0171388  79.9234556  19.8007104  75.6469175  79.3705597  20.4888010
  76.5130480  79.3192690  19.2482104  83.9038751  82.3806180  18.1823877
  84.3699203  83.2134171  18.1084180  84.3546252  81.9151161  18.8869136
  73.8460586  90.3832051  26.8962122  74.5470046  91.0168534  27.0491516
  73.3755701  90.7246783  26.1357761  81.9714982  88.7250001  15.1810029
  82.2474826  88.6106596  16.0903903  81.1019481  88.3267486  15.1422202
  81.8755414  74.7486767  22.2214778  80.9618494  74.9790994  22.3896985
  82.3048515  74.8325211  23.0728811  81.6461872  82.9376659  24.7214672
  80.9933323  83.1852566  24.0667125  82.0242252  82.1240797  24.3877150
  78.6069046  92.9736352  18.8242843  78.7891441  92.1558008  19.2870595
  79.4302032  93.1904044  18.3867733  78.9411212  91.9004537  16.0857891
  79.4698978  91.3896992  15.4728053  79.2039431  91.5847067  16.9503424
  77.6949445  83.6796470  31.2080709  77.0190082  83.5790599  31.8783085
  78.5177079  83.5235684  31.6716707  69.4428304  89.9168406  23.8293225
  70.0281741  89.1712094  23.9621129  69.2453143  90.2272363  24.7129889
  72.2966960  92.9519654  18.8455667  71.6277335  93.4365781  18.3619707
  72.1579829  93.1988874  19.7599046  64.0345959  82.4874007  22.5497668
  64.0730059  81.9537597  23.3434786  63.5286252  81.9609212  21.9308645
  76.4372228  94.9863397  25.4438325  76.9890536  95.1495019  26.2087411
  76.7778422  95.5767835  24.7718350  71.4136721  77.3338547  26.0460210
  71.4778048  78.1953378  25.6337608  71.3503842  76.7212549  25.3132569
  70.8888994  79.4061680  29.6933244  71.5161033  79.0238757  30.3070769
  70.0316913  79.1875882  30.0588937  81.2883103  89.8124655  31.2986980
  81.8323006  90.4254613  30.8041935  80.7069947  90.3704233  31.8153993
  67.6654537  81.2138109  15.6251599  67.9607978  80.3048787  15.5718653
  66.7642572  81.1925848  15.3032602  79.5740615  92.9345373  22.4302008
  79.4491755  92.1335113  21.9212953  80.2319707  93.4291566  21.9415978
  71.1948784  79.2894105  21.6079148  70.4735369  79.9030073  21.4686621
  71.9842039  79.8251870  21.5295794  81.6375524  90.7354393  24.0581558
  80.6905859  90.6159744  23.9859884  81.9858297  89.8476891  24.1407819
  73.9975097  76.6248532  27.8819800  74.5209499  76.8710828  28.6446109
  73.7787430  77.4568567  27.4622937  69.3942378  78.8952206  15.7490924
  69.0655084  78.0149585  15.5666030  69.7481749  78.8399875  16.6367314
  78.6421957  90.5307109  20.2585910  78.4946920  89.6023817  20.4393480
  79.4675451  90.5527200  19.7742985  72.5084201  79.1825176  16.1166402
  72.8480274  79.7111097  15.3945010  72.9556322  79.5205582  16.8924969
  82.2456079  91.3535668  21.3450783  83.1702626  91.1478529  21.2075234
  82.0771382  91.1052069  22.2540124  75.2027642  77.5662227  25.5669470
  74.8624463  76.7670040  25.9690150  74.4966649  77.8663938  24.9946303
  75.8544114  74.6511539  24.0196793  76.6770183  74.1772018  23.8975684
  76.0982178  75.4302023  24.5195479  74.4952349  77.6799798  14.3159695
  75.2160711  78.0581051  13.8123412  73.8717653  78.3988675  14.4194673
  78.6383471  78.3844947  15.2518027  78.8547086  79.2669585  14.9506855
  78.1577539  77.9931160  14.5223669  73.3782693  81.3430660  21.8288772
  73.2327274  81.6570963  22.7213053  72.9007896  81.9615560  21.2759670
  75.2379076  78.3333208  21.8769661  75.2240644  77.4374301  21.5401959
  75.9551504  78.3403872  22.5107947  77.0905206  78.7670548  23.9222789
  76.8322984  79.6887619  23.9207119  76.5590247  78.3700983  24.6123253
  82.0351395  91.8721335  16.7012874  82.2088273  91.3067758  15.9486727
  82.5280286  92.6722230  16.5192364  67.8528355  83.8836004  24.7676433
  67.3081823  84.6595812  24.8996707  68.7307705  84.2306809  24.6095554
  74.6415972  77.2147588  17.1457231  74.7631883  76.2864234  17.3448119
  74.3518014  77.2286274  16.2335547  77.5107162  74.9002499  20.2823951
  77.5328859  74.9641832  19.3275931  77.9275221  74.0607007  20.4764457
  87.8890786  84.6357758  18.3203174  88.3321932  83.8865083  17.9222297
  87.0117297  84.6267895  17.9376906  83.0226568  91.1888100  13.8009772
  83.7177472  91.8094792  14.0197087  83.3649718  90.3383451  14.0762150
  68.6394377  83.0105901  27.6606590  67.8976113  83.1588536  28.2471220
  68.3187121  83.2714166  26.7973339  84.9217991  88.6387805  15.3297103
  85.4469315  88.9775078  14.6046423  84.8340343  87.7034821  15.1460238
  76.5838040  92.5521879  27.4586980  76.8925166  92.3071026  28.3309679
  77.3813522  92.7568517  26.9705850  76.6058652  94.7059789  19.6892356
  76.1663642  94.2136167  20.3825213  77.3566769  94.1632756  19.4484432
  69.0850991  90.8971329  19.6916984  69.9109010  90.5975101  19.3115628
  68.7345043  90.1278952  20.1406773  74.0532524  90.2497798  21.7614658
  73.4312533  89.5868503  21.4616886  74.7237391  90.2758930  21.0788306
  67.2859596  88.8157656  20.6505918  66.4491504  88.3879830  20.4689919
  67.2583241  89.0090099  21.5876709  84.6111897  89.2720709  30.6348301
  83.8207441  89.2544848  30.0952801  84.3745251  89.8109003  31.3897338
  84.7309772  86.1213175  27.9481030  84.7807777  85.9563183  28.8896552
  84.6223695  85.2540434  27.5578910  73.6146031  88.8001721  15.2373119
  73.7634151  89.4837185  14.5839791  74.4212474  88.7806811  15.7522574
  82.0213534  82.1044103  29.2640336  82.9223397  81.9650568  28.9724334
  82.0961509  82.2698558  30.2038514  76.3556340  79.4810958  28.1093523
  75.4859649  79.7744524  27.8376111  76.5915820  80.0651403  28.8300786
  86.2327969  88.5410117  28.1923051  85.9412777  88.9040097  29.0286512
  85.6200100  87.8277125  28.0136383  87.4323651  86.1062997  20.7125621
  88.2670542  86.5452801  20.8763182  87.5682780  85.6301650  19.8933867
  84.4815157  83.6642731  26.6603109  84.9569279  83.8570378  25.8521961
  83.5580722  83.7201917  26.4146493  71.3698664  84.8266899  16.2434188
  71.1244706  83.9229229  16.4414398  71.5394578  84.8284049  15.3013666
  79.0595373  75.6990575  25.6258943  79.5777317  76.4351602  25.3005432
  78.7050506  76.0054568  26.4605702  70.6394311  80.5595256  13.7420349
  69.9463556  80.6339611  13.0860385  70.3946063  79.7955600  14.2641866
  79.3107968  72.1190858  21.1459840  79.5909721  71.4514047  21.7720266
  80.0958575  72.3119953  20.6334504  77.1141436  91.2949851  12.7084866
  76.5415403  91.9140039  12.2555338  77.6874230  91.8449213  13.2424788
  83.1816826  80.5408492  24.8931415  84.1334249  80.6406589  24.9143639
  83.0120276  79.7486760  25.4029499  81.2031205  77.6264075  25.0790816
  80.6081138  77.9069087  24.3837304  80.9180902  78.1157976  25.8507557
  80.3338696  91.5787002  13.8393448  81.2669369  91.5132563  14.0426324
  80.2461909  92.4143268  13.3807981  85.6604904  83.7614611  24.0073714
  85.6281224  82.8230612  24.1933398  86.2705527  83.8398648  23.2739539
  77.4988235  82.6310664  10.0500919  78.4447339  82.5016872  10.1189337
  77.1202480  81.8925326  10.5270347  85.8099392  80.5525655  24.0531998
  85.2938441  79.7684111  23.8661927  86.6939341  80.2244371  24.2178517
  83.4710119  74.2966670  20.0127810  83.2734940  73.9881758  20.8971142
  84.0809825  75.0228309  20.1425740  91.4781454  84.8230618  23.1479751
  92.2084842  84.5615906  23.7087455  90.8688399  84.0859340  23.1881819
  89.5596751  82.9638481  23.7454202  88.8329914  82.8294446  23.1370694
  89.1444038  83.2715309  24.5510921  77.3826927  86.6828410  31.5101575
  78.3029937  86.8607009  31.7041622  77.3476510  85.7384456  31.3581275
  75.6831152  80.5560641   9.9855804  74.7762607  80.2593753  10.0618517
  75.9607133  80.2590459   9.1190090  66.6009092  81.8767004  20.4354850
  66.2811877  81.0232312  20.1429224  66.0542520  82.0915582  21.1912817
  70.3789000  84.5929445  24.1524357  70.5975010  85.5246553  24.1712390
  70.7914774  84.2337419  24.9379160  77.2993218  75.0997530  16.1400045
  76.4893946  74.7544615  16.5155291  77.9877634  74.7905074  16.7287657
  79.2283766  74.1775577  17.7624342  79.7814804  74.5971031  18.4214365
  79.4653852  73.2511325  17.8047298  74.4529936  77.4147576  10.1267783
  75.3149100  77.7402474  10.3863600  74.6380281  76.6279072   9.6140849
  66.4697352  85.4969915  22.4047972  65.7760824  85.0823868  21.8917926
  67.2170343  85.5390452  21.8081391  82.6062573  76.2876102  17.2703006
  82.0261242  76.9460906  16.8881058  82.3398506  75.4653447  16.8590423
  81.0566139  75.6881160  19.4724326  81.5565918  75.7997694  18.6638645
  81.7001747  75.3842213  20.1125135  75.1148135  83.5959790  32.3592167
  74.6315217  84.3960150  32.5656056  75.2009074  83.6067734  31.4059611
  68.3834095  85.4288169  20.2813987  68.3604783  85.5275857  19.3295870
  68.6934731  86.2753320  20.6031153  71.0421473  87.4864324  24.3960601
  71.9964726  87.4548267  24.3290533  70.8433996  87.0254948  25.2110827
  71.6320855  86.0565440  26.9631399  72.4513744  86.5509519  26.9866236
  71.9057662  85.1397408  26.9348966  81.3887451  78.4476193  16.3259354
  80.5013306  78.7325843  16.1079549  81.8041440  78.2869956  15.4786631
  84.7401987  78.4722714  20.0413693  85.5162377  78.9619166  20.3138310
  84.0150121  78.8980768  20.4985563  87.1774546  79.1850333  21.0987634
  87.7719036  78.9446069  20.3880942  87.2501129  78.4657463  21.7261170
  69.3971701  93.0283944  21.4130799  69.2626169  92.2684345  20.8468797
  68.9803764  93.7524844  20.9459588  81.3628475  83.9630729  16.5409644
  81.3063676  84.4199280  15.7017277  81.9156817  83.2021413  16.3632487
  85.1733281  79.7520460  17.3659764  84.9170215  79.3517096  18.1967972
  84.5486149  80.4664254  17.2409903  89.4845618  82.4916534  19.8731055
  88.9245176  82.5609723  20.6462617  88.8789122  82.3157518  19.1530552
  72.5540827  93.9253261  21.6249242  72.4373211  94.8698693  21.5227932
  71.7333274  93.6226822  22.0135041  82.4417362  88.6503397  12.4705834
  83.2762966  88.2184595  12.2883309  82.2801705  88.4785410  13.3982729
  82.0963254  85.1535510  13.8362174  82.0412058  84.9879781  12.8950618
  81.4709309  85.8611543  13.9924363  66.8855769  80.3903574  27.6623596
  67.5314633  79.8802528  28.1510821  66.6772920  81.1272256  28.2367021
  79.4109161  87.4584422  33.1615736  80.2800321  87.6325074  32.8002371
  78.9315913  88.2778839  33.0391466  75.4059379  74.6543619  13.4147492
  75.3938049  75.5985459  13.5715763  76.2982801  74.4713764  13.1206953
  73.5795341  94.5781523  24.8405170  74.4822588  94.6105133  25.1571665
  73.3532711  93.6481974  24.8551506  75.3348943  93.3312509  21.5015249
  74.3844574  93.3314371  21.3879621  75.6381430  92.5845244  20.9851283
  79.2211499  71.2486395  17.6693429  78.4543895  70.6944882  17.8150111
  79.6322204  71.3208264  18.5307580  91.0701637  99.1673048  22.5661011
  91.7080047  99.0479795  21.8624351  90.9522480 100.1153892  22.6248963
  87.8791343  99.1200476  22.5022536  87.5409855  99.0041540  21.6143071
  88.7481111  98.7191641  22.4823542  88.3611126 100.2735327  28.4608741
  88.3499767  99.8788126  27.5889245  88.5231766  99.5401400  29.0542513
  81.2842591 102.4687144  21.3303647  82.0763883 102.1277968  20.9149946
  81.5239241 102.5782119  22.2505800  85.0818387 103.0572439  27.4087925
  84.7908253 103.9618070  27.2934592  85.7175372 103.0988967  28.1231995
  86.0074594 100.4349288  23.9989285  86.6038166 100.2105310  23.2846248
  86.0649566  99.6934033  24.6014733  93.5476753  90.5421309  25.0041806
  93.2160078  91.4116720  24.7803021  92.9522366  90.2257593  25.6835837
  90.0408272 102.7433855  24.4037719  89.7408995 103.6458894  24.2953526
  89.6959332 102.4766038  25.2558872  83.4920754  99.1947652  20.4374423
  82.5671250  99.0623866  20.6452115  83.7405167  99.9741871  20.9344366
  93.4405416  95.2616395  22.0835156  92.5322294  95.1931803  21.7893917
  93.3893012  95.7388340  22.9116982  80.8529565  98.8380925  21.2718212
  80.9821946  99.0915404  22.1857624  80.1727016  99.4308633  20.9522867
  87.5146282  96.6806041  30.0270053  86.7379616  97.2399961  30.0172918
  88.1536845  97.1662824  30.5484924  95.3067063  93.4632833  23.8613030
  94.6641443  93.7565367  23.2152825  94.8021991  93.3485754  24.6666227
  85.7692654  99.4891494  29.5888020  86.5107339 100.0276538  29.3122844
  85.0629640 100.1157783  29.7459572  91.2447994 101.6320634  28.1860182
  91.6531350 101.1903045  27.4414814  90.5225255 101.0573262  28.4394375
  87.5979064  96.5693241  25.5593739  88.4440259  96.9932655  25.7028388
  87.5377702  95.9126865  26.2532302  90.7478509  94.2297609  27.2174913
  90.5039441  94.9839670  26.6809188  91.0238440  94.6082957  28.0522160
  92.7016972 100.7736222  25.8952178  92.9133867 101.4167982  25.2186559
  92.6546720  99.9398538  25.4274108  90.3043201  93.3854043  22.7988750
  89.4427680  93.6835296  23.0905488  90.3305636  93.6024441  21.8669783
  84.0128851 101.4767715  22.1442319  84.5830209 101.9054983  21.5059804
  84.6036963 101.1950299  22.8426505  84.5054018  96.6431142  30.3903330
  83.8752679  97.3247423  30.6238727  84.3990106  96.5314224  29.4456469
  79.7998990  96.3102938  21.3169255  79.0098044  96.5660467  20.8409365
  80.2910238  97.1251276  21.4221295  81.7513736  96.6747517  18.2752731
  80.9544899  96.7866212  18.7936227  81.5239328  97.0134170  17.4093622
  87.5819403 103.1992221  26.2235246  87.6463836 103.6612628  27.0593418
  86.8730327 102.5689585  26.3517556  78.0836693  96.5633429  23.7484245
  78.3344732  97.4480438  24.0141821  78.6196242  96.3838030  22.9759337
  83.7834761  90.9451908  32.7528582  83.3901706  90.3918106  33.4276226
  84.6000901  91.2562486  33.1435099  86.7002722  92.3609787  30.3448838
  87.4412435  92.9616940  30.2653301  86.9320645  91.6187425  29.7866881
  81.8444060  97.5466154  28.6227068  81.7297575  96.6451412  28.9234167
  80.9888577  97.7929851  28.2711884  88.9235897 105.4883895  30.2214568
  88.4799752 104.7020273  29.9035473  89.5853111 105.6763045  29.5558459
  83.6823019 107.0179696  24.7475247  84.2330444 106.8896760  23.9752241
  82.8434495 107.3174585  24.3970140  91.0217136 105.7686695  28.2495970
  91.0035611 106.5895576  27.7576239  91.9437056 105.6440770  28.4746111
  87.4790190 103.2830824  29.0919478  88.0118526 102.5219112  28.8618786
  86.9504271 102.9904476  29.8343633  90.6459885  88.3890890  24.6213120
  90.3024154  89.2792532  24.5452230  91.0138847  88.1992548  23.7582705
  88.1957278  93.2249202  18.1870793  87.3398875  92.8356052  18.0076432
  88.6084230  93.3041163  17.3270579  89.7256425  90.7595545  22.5862353
  89.2221221  90.7225680  21.7730158  90.0187032  91.6688288  22.6459010
  85.9699311  90.8434275  21.5928535  86.8352308  90.6477084  21.2334424
  86.0376820  90.6144627  22.5197892  83.5761630  93.0736483  18.9644902
  84.1505382  92.8511664  18.2318095  84.1632612  93.1425177  19.7173503
  85.8784298  89.9477732  17.6919971  85.2248710  89.6326749  17.0676586
  85.8364772  89.3253472  18.4179794  89.1122038  96.4359665  22.0167619
  88.1944599  96.6574612  21.8589307  89.5282182  96.5105976  21.1579326
  92.4447550  87.6484449  19.7230857  92.7506427  86.7881813  19.4356773
  93.1700155  88.2402069  19.5229851  78.7371906  98.0515136  18.1112455
  78.5396306  97.4584496  17.3863522  78.1818570  97.7467346  18.8288394
  86.7168630  97.9438242  20.2307049  86.7717240  96.9912079  20.1549525
  85.9059832  98.0997681  20.7148347  84.6560990  96.5615302  17.9897427
  83.8428856  96.8609472  18.3962620  85.1519984  96.1670991  18.7071910
  90.2535202  97.0257126  26.8212321  90.6084589  97.2528600  27.6806787
  90.9007333  97.3575503  26.1989577  84.1475065  94.1333657  23.6058662
  84.7874444  93.9922417  22.9081626  83.3152595  93.8468171  23.2297264
  81.1503681  94.1033982  18.3831649  81.4110498  95.0179316  18.2740810
  81.9720853  93.6358425  18.5328262  82.6228606  95.5171740  25.5530474
  83.2951660  95.3089102  24.9043123  81.7958393  95.3193826  25.1135706
  88.5254179  92.1433681  27.5696135  87.8782094  92.8423630  27.4760611
  89.2955194  92.5769824  27.9372383  91.9332976 102.4082533  30.6446688
  91.7818483 102.1793084  29.7276772  91.9237656 103.3653134  30.6578033
  88.7018313  99.9814445  25.6292954  89.6310373 100.1325605  25.4561922
  88.2809343 100.0698466  24.7741601  87.5006645 104.0065110  23.3991492
  87.3617730 103.6383894  24.2717430  86.7121241 104.5212749  23.2275450
  83.0256104  98.7914343  26.3132911  82.8875902  98.0594581  26.9144450
  83.9361027  98.7023243  26.0317099  85.6538404  98.5034302  25.8016590
  86.3638023  97.8627494  25.7603209  85.6107713  98.7547197  26.7242771
  93.6425183 105.4401655  28.7223170  93.5837729 104.7560875  28.0553753
  94.0444701 106.1820645  28.2703796  84.3667338  95.4899520  27.6212230
  83.8304695  95.0390258  28.2733826  83.7784047  95.6245429  26.8782694
  93.6442590 103.4041239  26.9537149  92.7569369 103.0667161  27.0763548
  94.2141141 102.6724270  27.1905915  75.2971737  99.7365331  20.2780201
  75.9842777  99.4227061  19.6901216  75.1419866 100.6406696  20.0047452
  80.1006460  94.6255528  24.7065224  80.0164648  94.0181197  23.9715634
  79.2789166  95.1164546  24.7074721  90.2730173  93.1109091  20.0735420
  90.7698873  92.3579053  19.7536490  89.5017155  93.1473408  19.5078629
  86.8565142  95.2526474  19.8007104  86.4862930  94.6997514  20.4888010
  87.3524235  94.6484608  19.2482104  84.6854341 105.7123969  26.8962122
  85.3863800 106.3460452  27.0491516  84.2149456 106.0538701  26.1357761
  92.7149168  90.0778685  22.2214778  91.8012248  90.3082911  22.3896985
  93.1442270  90.1617129  23.0728811  92.4855627  98.2668576  24.7214672
  91.8327077  98.5144484  24.0667125  92.8636007  97.4532715  24.3877150
  88.5343200  99.0088388  31.2080709  87.8583837  98.9082517  31.8783085
  89.3570834  98.8527601  31.6716707  80.2822059 105.2460324  23.8293225
  80.8675496 104.5004012  23.9621129  80.0846897 105.5564281  24.7129889
  74.8739714  97.8165924  22.5497668  74.9123813  97.2829515  23.3434786
  74.3680006  97.2901130  21.9308645  82.2530476  92.6630465  26.0460210
  82.3171802  93.5245296  25.6337608  82.1897596  92.0504466  25.3132569
  81.7282748  94.7353597  29.6933244  82.3554787  94.3530675  30.3070769
  80.8710667  94.5167799  30.0588937  92.1276857 105.1416573  31.2986980
  92.6716761 105.7546531  30.8041935  91.5463702 105.6996151  31.8153993
  78.5048291  96.5430026  15.6251599  78.8001732  95.6340705  15.5718653
  77.6036327  96.5217766  15.3032602  82.0342538  94.6186023  21.6079148
  81.3129124  95.2321991  21.4686621  82.8235794  95.1543788  21.5295794
  84.8368852  91.9540450  27.8819800  85.3603254  92.2002746  28.6446109
  84.6181185  92.7860484  27.4622937  80.2336133  94.2244124  15.7490924
  79.9048839  93.3441503  15.5666030  80.5875503  94.1691793  16.6367314
  86.0421397  92.8954145  25.5669470  85.7018217  92.0961958  25.9690150
  85.3360403  93.1955855  24.9946303  86.6937869  89.9803457  24.0196793
  87.5163938  89.5063935  23.8975684  86.9375932  90.7593941  24.5195479
  84.2176447  96.6722578  21.8288772  84.0721028  96.9862881  22.7213053
  83.7401651  97.2907478  21.2759670  86.0772830  93.6625126  21.8769661
  86.0634399  92.7666219  21.5401959  86.7945258  93.6695789  22.5107947
  87.9298961  94.0962466  23.9222789  87.6716739  95.0179537  23.9207119
  87.3984001  93.6992900  24.6123253  78.6922109  99.2127922  24.7676433
  78.1475578  99.9887730  24.8996707  79.5701459  99.5598727  24.6095554
  85.4809726  92.5439506  17.1457231  85.6025637  91.6156152  17.3448119
  85.1911769  92.5578192  16.2335547  88.3500917  90.2294416  20.2823951
  88.3722613  90.2933749  19.3275931  88.7668976  89.3898925  20.4764457
  79.4788131  98.3397818  27.6606590  78.7369867  98.4880454  28.2471220
  79.1580876  98.6006084  26.7973339  87.4231794 107.8813797  27.4586980
  87.7318920 107.6362943  28.3309679  88.2207276 108.0860435  26.9705850
  78.1253350 104.1449574  20.6505918  77.2885258 103.7171748  20.4689919
  78.0976996 104.3382017  21.5876709  84.9650806  94.0571503  31.3547164
  85.0138961  94.9333626  30.9724934  85.5073320  93.5148896  30.7818807
  95.4505651 104.6012627  30.6348301  94.6601195 104.5836765  30.0952801
  95.2139006 105.1400920  31.3897338  95.5703526 101.4505093  27.9481030
  95.6201531 101.2855100  28.8896552  95.4617450 100.5832352  27.5578910
  92.8607289  97.4336021  29.2640336  93.7617152  97.2942486  28.9724334
  92.9355263  97.5990476  30.2038514  87.1950094  94.8102876  28.1093523
  86.3253404  95.1036442  27.8376111  87.4309574  95.3943321  28.8300786
  97.0721723 103.8702034  28.1923051  96.7806532 104.2332015  29.0286512
  96.4593855 103.1569043  28.0136383  95.3208911  98.9934649  26.6603109
  95.7963033  99.1862295  25.8521961  94.3974477  99.0493835  26.4146493
  89.8989128  91.0282493  25.6258943  90.4171072  91.7643520  25.3005432
  89.5444261  91.3346486  26.4605702  90.1501722  87.4482775  21.1459840
  90.4303476  86.7805964  21.7720266  90.9352329  87.6411871  20.6334504
  94.0210580  95.8700409  24.8931415  94.9728003  95.9698507  24.9143639
  93.8514031  95.0778678  25.4029499  92.0424960  92.9555992  25.0790816
  91.4474892  93.2361005  24.3837304  91.7574657  93.4449893  25.8507557
  96.6493147  95.8817572  24.0531998  96.1332195  95.0976029  23.8661927
  97.5333095  95.5536289  24.2178517  94.3103874  89.6258588  20.0127810
  94.1128695  89.3173676  20.8971142  94.9203579  90.3520227  20.1425740
  88.2220682 102.0120328  31.5101575  89.1423691 102.1898927  31.7041622
  88.1870265 101.0676373  31.3581275  77.4402847  97.2058922  20.4354850
  77.1205631  96.3524230  20.1429224  76.8936275  97.4207500  21.1912817
  81.2182754  99.9221363  24.1524357  81.4368764 100.8538470  24.1712390
  81.6308528  99.5629337  24.9379160  88.1386972  90.4289448  16.1400045
  87.3287700  90.0836533  16.5155291  88.8271389  90.1196992  16.7287657
  90.0677520  89.5067495  17.7624342  90.6208559  89.9262948  18.4214365
  90.3047607  88.5803243  17.8047298  86.0910620  95.4954568  33.5427106
  85.9907346  96.4448925  33.4739197  85.8732162  95.1672807  32.6703176
  77.3091107 100.8261833  22.4047972  76.6154578 100.4115786  21.8917926
  78.0564098 100.8682370  21.8081391  91.8959894  91.0173078  19.4724326
  92.3959672  91.1289612  18.6638645  92.5395502  90.7134130  20.1125135
  85.9541890  98.9251707  32.3592167  85.4708971  99.7252067  32.5656056
  86.0402829  98.9359652  31.4059611  79.2227849 100.7580087  20.2813987
  79.1998537 100.8567774  19.3295870  79.5328486 101.6045238  20.6031153
  81.8815227 102.8156242  24.3960601  82.8358481 102.7840184  24.3290533
  81.6827751 102.3546866  25.2110827  82.4714609 101.3857358  26.9631399
  83.2907498 101.8801437  26.9866236  82.7451417 100.4689326  26.9348966
  77.7249523  95.7195492  27.6623596  78.3708387  95.2094446  28.1510821
  77.5166675  96.4564174  28.2367021  90.2502916 102.7876339  33.1615736
  91.1194075 102.9616992  32.8002371  89.7709667 103.6070756  33.0391466
  84.4189096 109.9073440  24.8405170  85.3216343 109.9397051  25.1571665
  84.1926466 108.9773891  24.8551506  90.0605253  86.5778313  17.6693429
  89.2937649  86.0236800  17.8150111  90.4715958  86.6500182  18.5307580
  82.0647014  92.8663109  31.7598610  82.9278476  92.5099914  31.9701935
  81.4912425  92.5277004  32.4474014  94.6228515 106.2743826  32.7528582
  94.2295461 105.7210024  33.4276226  95.4394656 106.5854404  33.1435099
  97.5396476 107.6901705  30.3448838  98.2806190 108.2908858  30.2653301
  97.7714399 106.9479342  29.7866881  92.5676503 110.0645515  29.6933244
  93.1948542 109.6822592  30.3070769  91.7104422 109.8459717  30.0588937
  95.8044560 109.3863421  31.3547164  95.8532716 110.2625544  30.9724934
  96.3467074 108.8440814  30.7818807  96.9304374 110.8246486  33.5427106
  96.8301101 111.7740843  33.4739197  96.7125916 110.4964725  32.6703176
  88.5643278 111.0487410  27.6623596  89.2102142 110.5386364  28.1510821
  88.3560429 111.7856091  28.2367021  92.9040769 108.1955027  31.7598610
  93.7672230 107.8391831  31.9701935  92.3306180 107.8568921  32.4474014
  50.2850166  21.1296107  15.4468476  50.2262713  20.4455327  14.7799059
  50.6869685  21.8715097  14.9949102  48.7701840  20.8311024  18.0232287
  49.3141744  21.4440983  17.5287241  48.1888685  21.3890603  18.5399300
  52.0930635  20.2907078  17.3593608  51.3026178  20.2731217  16.8198107
  51.8563989  20.8295372  18.1142644  53.7146707  19.5596486  14.9168358
  53.4231515  19.9226467  15.7531819  53.1018838  18.8463495  14.7381690
  46.8927899  18.4770791  19.8861043  47.7619059  18.6511444  19.5247678
  46.4134650  19.2965208  19.7636772  58.5520375  30.1859417   9.2906318
  59.1898785  30.0666165   8.5869658  58.4341218  31.1340261   9.3494270
  55.3610081  30.1386845   9.2267842  55.0228592  30.0227910   8.3388377
  56.2299849  29.7378010   9.2068848  55.8429864  31.2921697  15.1854048
  55.8318505  30.8974495  14.3134552  56.0050503  30.5587770  15.7787819
  48.7661329  33.4873513   8.0548954  49.5582620  33.1464338   7.6395253
  49.0057979  33.5968488   8.9751107  52.5637125  34.0758809  14.1333232
  52.2726991  34.9804440  14.0179898  53.1994109  34.1175336  14.8477301
  53.4893332  31.4535657  10.7234591  54.0856904  31.2291680  10.0091554
  53.5468303  30.7120403  11.3260039  63.5070070  27.8486104   7.2692504
  64.2395242  27.2785321   7.5030334  62.7509426  27.4607705   7.7099010
  61.0295491  21.5607678  11.7287113  60.6978815  22.4303089  11.5048328
  60.4341104  21.2443962  12.4081143  57.5227010  33.7620224  11.1283026
  57.2227733  34.6645263  11.0198833  57.1778070  33.4952408  11.9804178
  60.9224154  26.2802765   8.8080463  60.0141031  26.2118173   8.5139224
  60.8711750  26.7574709   9.6362288  52.5047790  40.5264545   4.0953993
  52.4271820  41.4772370   4.1742474  51.9009434  40.1810417   4.7528920
  54.9965020  27.6992410  16.7515360  54.2198354  28.2586330  16.7418225
  55.6355583  28.1849193  17.2730230  62.7885800  24.4819203  10.5858337
  62.1460181  24.7751736   9.9398131  62.2840729  24.3672123  11.3911533
  53.2511392  30.5077863  16.3133327  53.9926076  31.0462907  16.0368151
  52.5448378  31.1344152  16.4704879  58.7266732  32.6507004  14.9105489
  59.1350088  32.2089414  14.1660121  58.0043993  32.0759631  15.1639682
  55.0797802  27.5879611  12.2839046  55.9258997  28.0119024  12.4273695
  55.0196439  26.9313235  12.9777609  59.0495546  33.2108195   8.6657777
  58.4204409  33.3753909   7.9633845  58.6621208  33.6249804   9.4368742
  62.9284778  34.1462632   6.0202141  62.2435816  34.5261534   5.4699175
  63.0128628  34.7557959   6.7534089  58.2297247  25.2483979  13.9420219
  57.9858179  26.0026040  13.4054495  58.5057178  25.6269327  14.7767466
  60.1835710  31.7922591  12.6197485  60.3952605  32.4354351  11.9431866
  60.1365458  30.9584908  12.1519415  51.4947589  32.4954084   8.8687626
  52.0648946  32.9241353   8.2305110  52.0855701  32.2136669   9.5671812
  51.9872756  27.6617512  17.1148637  51.3571416  28.3433792  17.3484034
  51.8808844  27.5500593  16.1701775  61.2981538  34.6694547  10.7919842
  62.1198982  34.2674734  10.5102524  61.2943941  34.5662781  11.7435958
  55.0638141  34.2178590  12.9480553  55.1282574  34.6798997  13.7838724
  54.3549065  33.5875955  13.0762862  69.3887531  31.0133295   7.1404814
  68.6351239  30.4440693   6.9848818  69.5235072  30.9795960   8.0875448
  51.2653499  21.9638277  19.4773888  50.8720444  21.4104476  20.1521532
  52.0819639  22.2748856  19.8680406  50.0410441  36.5187892   5.4710211
  50.2177069  37.4405857   5.2831195  50.8367274  36.2046311   5.9004591
  54.1821460  23.3796157  17.0694145  54.9231173  23.9803310  16.9898607
  54.4139382  22.6373794  16.5112187  49.3262798  28.5652524  15.3472374
  49.2116313  27.6637781  15.6479473  48.4707315  28.8116221  14.9957191
  56.4054635  36.5070264  16.9459875  55.9618489  35.7206643  16.6280780
  57.0671849  36.6949415  16.2803766  51.1641756  38.0366066  11.4720554
  51.7149182  37.9083129  10.6997547  50.3253232  38.3360955  11.1215446
  58.5035873  36.7873064  14.9741276  58.4854349  37.6081945  14.4821545
  59.4255793  36.6627139  15.1991417  54.9608927  34.3017194  15.8164785
  55.4937264  33.5405482  15.5864093  54.4323009  34.0090845  16.5588939
  61.3054486  31.6252207   8.4450643  60.6478161  32.3151468   8.5330772
  62.1094885  32.0148638   8.7884629  60.1159945  29.9796579   6.4954585
  60.6291827  30.6126571   6.9976294  60.7661169  29.3797775   6.1297945
  56.5940776  27.4546035   8.7412925  55.6763337  27.6760982   8.5834613
  57.0100919  27.5292345   7.8824633  60.8821741  34.9602581   4.6233727
  60.4284068  34.1193491   4.6798918  60.2515708  35.5963979   4.9608508
  59.3254680  36.7979077   5.5583546  59.6177655  37.3584134   4.8395911
  59.8353301  37.0907638   6.3136705  54.2888306  37.5759428   6.6476999
  54.2464484  37.8020275   5.7185531  55.2051005  37.3422803   6.7962800
  57.7353939  28.0443496  13.5457628  58.0903327  28.2714969  14.4052094
  58.3826071  28.3761873  12.9234883  63.4651676  31.1661932   4.2506957
  63.3269575  31.3563528   3.3228146  63.1087895  31.9281315   4.7075008
  63.4921056  33.2338459   9.2618228  63.9257563  33.1413748  10.1101282
  64.2052637  33.2095959   8.6238244  57.2248951  36.8340553  10.7951329
  57.2785973  37.4031489  11.5629045  56.3563732  37.0042438  10.4305366
  50.1047344  26.5358109  12.2775780  50.7770398  26.3275471  11.6288429
  49.2777131  26.3380195  11.8381013  64.3536606  33.2762160  11.7951114
  64.5472496  34.1807970  12.0410389  64.2537224  32.8169579  12.6289699
  56.0072916  23.1620050  14.2941441  55.3600831  23.8610000  14.2005918
  56.7773932  23.5956194  14.6617689  59.4151714  33.4268902  17.3691994
  59.2637221  33.1979454  16.4522078  59.4056394  34.3839504  17.3823339
  56.1837051  31.0000815  12.3538261  57.1129111  31.1511975  12.1807228
  55.7628081  31.0884836  11.4986907  54.9825382  35.0251479  10.1236799
  54.8436468  34.6570264  10.9962737  54.1939979  35.5399119   9.9520756
  55.5773534  40.1260576   1.4662335  55.7525290  39.6548619   2.2807958
  54.8906322  40.7526342   1.6943596  56.5330598  34.4033082   7.5125636
  56.1980430  34.3633852   8.4083286  56.0334543  33.7377798   7.0396047
  50.5074842  29.8100712  13.0378217  50.3694639  29.0780951  13.6389757
  51.4179765  29.7209612  12.7562405  53.1357142  29.5220671  12.5261897
  53.8456761  28.8813864  12.4848516  53.0926450  29.7733566  13.4488078
  61.1243921  36.4588025  15.4468476  61.0656467  35.7747245  14.7799059
  61.5263439  37.2007015  14.9949102  51.8486076  26.5085889  14.3457537
  51.3123433  26.0576628  14.9979133  51.2602785  26.6431798  13.6028001
  50.1434620  43.2749939   8.2402195  50.3831218  43.9068463   8.9181214
  49.3003816  42.9237979   8.5267554  61.1261328  34.4227609  13.6782456
  60.2388107  34.0853531  13.8008855  61.6959879  33.6910640  13.9151221
  54.6562482  39.0829061  10.6443699  54.5832653  39.8884033  11.1563004
  54.2139875  39.2821027   9.8191721  54.4452261  38.3200831   4.1546521
  53.6619783  38.8622511   4.2484745  55.1445006  38.8374811   4.5540762
  65.6078669  29.8335826   8.4399018  65.5968545  30.7160542   8.0692951
  64.7396048  29.4807377   8.2453555  57.1161165  38.9815895  12.8001858
  57.8289137  39.6163360  12.7277759  56.6251194  39.0779761  11.9841860
  52.1673079  36.7310339  13.6207429  52.8682538  37.3646822  13.7736823
  51.6968194  37.0725070  12.8603068  59.9674365  29.2854946  11.4459979
  59.3145815  29.5330854  10.7912432  60.3454744  28.4719084  11.1122456
  56.9281538  39.3214639   5.5488149  57.1103933  38.5036295   6.0115902
  57.7514524  39.5382331   5.1113039  57.2623704  38.2482824   2.8103198
  57.7911470  37.7375279   2.1973360  57.5251924  37.9325355   3.6748731
  56.0161938  30.0274757  17.9326016  55.3402575  29.9268886  18.6028391
  56.8389571  29.8713971  18.3962013  47.7640797  36.2646694  10.5538531
  48.3494233  35.5190382  10.6866436  47.5665635  36.5750650  11.4375195
  50.6179452  39.2997941   5.5700974  49.9489827  39.7844069   5.0865014
  50.4792322  39.5467161   6.4844352  54.7584720  41.3341685  12.1683632
  55.3103029  41.4973306  12.9332717  55.0990914  41.9246122  11.4963657
  49.2101486  25.7539967  16.4178551  49.8373525  25.3717044  17.0316075
  48.3529405  25.5354169  16.7834244  59.6095595  36.1602942  18.0232287
  60.1535499  36.7732900  17.5287241  59.0282440  36.7182520  18.5399300
  57.8953108  39.2823660   9.1547314  57.7704247  38.4813400   8.6458260
  58.5532199  39.7769853   8.6661284  59.9588016  37.0832680  10.7826864
  59.0118352  36.9638031  10.7105191  60.3070789  36.1955178  10.8653126
  52.3187590  22.9726819  14.6065106  52.8421991  23.2189116  15.3691416
  52.0999923  23.8046854  14.1868244  56.9634449  36.8785396   6.9831217
  56.8159412  35.9502104   7.1638787  57.7887943  36.9005487   6.4988292
  60.5668571  37.7013955   8.0696089  61.4915119  37.4956816   7.9320540
  60.3983875  37.4530356   8.9785431  53.5240135  23.9140514  12.2914777
  53.1836955  23.1148327  12.6935457  52.8179141  24.2142225  11.7191610
  55.4117699  25.1148835  10.6468095  55.1535477  26.0365906  10.6452426
  54.8802739  24.7179270  11.3368560  60.3563887  38.2199623   3.4258181
  60.5300765  37.6546045   2.6732033  60.8492779  39.0200517   3.2437671
  46.1740847  30.2314292  11.4921740  45.6294315  31.0074100  11.6242014
  47.0520197  30.5785096  11.3340861  66.2103279  30.9836046   5.0448481
  66.6534425  30.2343371   4.6467604  65.3329789  30.9746182   4.6622213
  61.3439060  37.5366387   0.5255079  62.0389965  38.1573080   0.7442394
  61.6862210  36.6861738   0.8007457  46.9606869  29.3584188  14.3851896
  46.2188605  29.5066823  14.9716527  46.6399613  29.6192454  13.5218646
  63.2430483  34.9866093   2.0542410  63.7681807  35.3253365   1.3291730
  63.1552836  34.0513108   1.8705544  54.9050532  38.9000166  14.1832286
  55.2137658  38.6549313  15.0554986  55.7026014  39.1046805  13.6951157
  54.9271144  41.0538076   6.4137663  54.4876134  40.5614454   7.1070520
  55.6779261  40.5111043   6.1729738  47.4063483  37.2449617   6.4162291
  48.2321503  36.9453389   6.0360935  47.0557535  36.4757239   6.8652080
  52.3745016  36.5976085   8.4859965  51.7525025  35.9346790   8.1862193
  53.0449883  36.6237217   7.8033612  52.4469543  25.0757873  18.0792471
  52.4957699  25.9519996  17.6970240  52.9892058  24.5335266  17.5064114
  62.9324389  35.6198996  17.3593608  62.1419933  35.6023135  16.8198107
  62.6957744  36.1587290  18.1142644  63.0522264  32.4691463  14.6726336
  63.1020269  32.3041470  15.6141859  62.9436188  31.6018722  14.2824217
  60.3426027  28.4522391  15.9885643  61.2435889  28.3128855  15.6969641
  60.4174001  28.6176845  16.9283820  54.6768832  25.8289245  14.8338829
  53.8072141  26.1222811  14.5621418  54.9128312  26.4129690  15.5546093
  64.5540461  34.8888404  14.9168358  64.2625269  35.2518385  15.7531819
  63.9412592  34.1755412  14.7381690  65.7536143  32.4541284   7.4370928
  66.5883035  32.8931088   7.6008488  65.8895272  31.9779937   6.6179174
  62.8027649  30.0121019  13.3848416  63.2781771  30.2048665  12.5767267
  61.8793215  30.0680205  13.1391800  57.3807866  22.0468862  12.3504250
  57.8989810  22.7829889  12.0250738  57.0262999  22.3532856  13.1851009
  61.5029318  26.8886779  11.6176721  62.4546741  26.9884876  11.6388946
  61.3332769  26.0965047  12.1274806  59.5243698  23.9742362  11.8036122
  58.9293630  24.2547375  11.1082611  59.2393394  24.4636263  12.5752863
  63.9817396  30.1092898  10.7319021  63.9493716  29.1708899  10.9178705
  64.5918020  30.1876935   9.9984846  64.1311885  26.9003942  10.7777304
  63.6150933  26.1162399  10.5907233  65.0151833  26.5722659  10.9423824
  69.7993946  31.1708905   9.8725058  70.5297334  30.9094193  10.4332761
  69.1900891  30.4337627   9.9127126  67.8809243  29.3116768  10.4699509
  67.1542407  29.1772733   9.8616001  67.4656530  29.6193596  11.2756227
  55.7039419  33.0306698  18.2346882  56.6242429  33.2085297  18.4286929
  55.6689002  32.0862743  18.0826581  48.7001492  30.9407732  10.8769663
  48.9187502  31.8724840  10.8957697  49.1127266  30.5815707  11.6624467
  53.5729357  26.5140938  20.2672412  53.4726084  27.4635295  20.1984503
  53.3550899  26.1859177  19.3948482  53.4360627  29.9438077  19.0837474
  52.9527709  30.7438437  19.2901363  53.5221566  29.9546022  18.1304918
  49.3633965  33.8342612  11.1205908  50.3177218  33.8026554  11.0535839
  49.1646488  33.3733235  11.9356134  49.9533347  32.4043728  13.6876705
  50.7726236  32.8987806  13.7111543  50.2270155  31.4875696  13.6594273
  65.4987038  25.5328620   7.8232941  66.0931529  25.2924356   7.1126249
  65.5713622  24.8135751   8.4506477  47.7184194  39.3762231   8.1376106
  47.5838662  38.6162632   7.5714104  47.3016256  40.1003131   7.6704894
  67.8058111  28.8394821   6.5976362  67.2457669  28.9088010   7.3707924
  67.2001614  28.6635806   5.8775858  50.8753320  40.2731548   8.3494548
  50.7585704  41.2176981   8.2473238  50.0545766  39.9705110   8.7380347
  45.2068261  26.7381861  14.3868902  45.8527125  26.2280815  14.8756128
  44.9985412  27.4750543  14.9612328  57.7321653  33.8062709  19.8861043
  58.6012813  33.9803361  19.5247678  57.2528405  34.6257126  19.7636772
  51.9007834  40.9259810  11.5650477  52.8035080  40.9583420  11.8816972
  51.6745204  39.9960261  11.5796812  53.6561436  39.6790796   8.2260555
  52.7057067  39.6792658   8.1124928  53.9593922  38.9323531   7.7096590
  49.5465752  23.8849479  18.4843917  50.4097214  23.5286283  18.6947241
  48.9731163  23.5463373  19.1719321  69.3914129  45.5151335   9.2906318
  70.0292539  45.3958082   8.5869658  69.2734972  46.4632179   9.3494270
  66.2003835  45.4678763   9.2267842  65.8622347  45.3519828   8.3388377
  67.0693604  45.0669928   9.2068848  62.0590651  47.3214239   5.2164733
  61.4955516  47.2304176   4.4481021  61.9443046  46.5014144   5.6967226
  66.6823618  46.6213615  15.1854048  66.6712259  46.2266413  14.3134552
  66.8444258  45.8879687  15.7787819  59.6055083  48.8165431   8.0548954
  60.3976375  48.4756256   7.6395253  59.8451733  48.9260406   8.9751107
  67.6390210  50.9885207   0.5279198  66.9878190  51.5739287   0.1413212
  68.4334573  51.5191402   0.5874236  61.5645837  48.0774344   0.9266333
  62.3376713  47.5303331   0.7879208  61.9171236  48.9418594   1.1380794
  63.4030880  49.4050726  14.1333232  63.1120746  50.3096357  14.0179898
  64.0387864  49.4467254  14.8477301  64.3287086  46.7827575  10.7234591
  64.9250659  46.5583597  10.0091554  64.3862058  46.0412320  11.3260039
  63.9012115  44.2367010  -1.4415218  64.1537636  43.7148532  -2.2031755
  62.9636674  44.0733156  -1.3388534  68.9455398  43.2402789   6.3659526
  69.7318487  42.8222212   6.0149943  69.2094102  44.1448881   6.5341174
  69.1165475  48.6775639   1.0648182  68.4811308  48.7510266   1.7769087
  68.7862881  49.2669238   0.3867262  74.3463825  43.1778022   7.2692504
  75.0788997  42.6077239   7.5030334  73.5903180  42.7899622   7.7099010
  63.6208404  46.1395116   0.7609157  63.5044662  45.4640020   1.4290242
  63.7310663  45.6527490  -0.0558690  65.9639944  45.6005263   4.4655847
  65.5998152  45.0735884   5.1768768  66.8207060  45.2103732   4.2922332
  71.8689245  36.8899596  11.7287113  71.5372570  37.7595007  11.5048328
  71.2734859  36.5735880  12.4081143  65.6045431  40.6295163  -0.5382805
  65.7719834  41.4975400  -0.1712334  65.4142601  40.7922445  -1.4621516
  68.3620765  49.0912142  11.1283026  68.0621488  49.9937181  11.0198833
  68.0171824  48.8244325  11.9804178  61.8133246  45.5425939   7.1619730
  60.8883743  45.4102153   7.3697422  62.0617659  46.3220158   7.6589672
  71.7617908  41.6094682   8.8080463  70.8534786  41.5410091   8.5139224
  71.7105504  42.0866627   9.6362288  65.5834652  43.0852821   0.4463862
  65.4634278  43.5309871   1.2849342  64.8887241  43.4338138  -0.1122600
  59.1742057  45.1859212   7.9963519  59.3034438  45.4393691   8.9102931
  58.4939508  45.7786920   7.6768174  63.3441544  55.8556462   4.0953993
  63.2665574  56.8064287   4.1742474  62.7403188  55.5102335   4.7528920
  65.8358774  43.0284328  16.7515360  65.0592108  43.5878248  16.7418225
  66.4749337  43.5141111  17.2730230  73.6279555  39.8111121  10.5858337
  72.9853935  40.1043654   9.9398131  73.1234483  39.6964041  11.3911533
  71.2819719  43.5574294   1.2744196  72.1937575  43.7901681   1.0991894
  70.7729366  44.1411338   0.7119275  64.0905147  45.8369781  16.3133327
  64.8319831  46.3754825  16.0368151  63.3842132  46.4636070  16.4704879
  69.5660486  47.9798922  14.9105489  69.9743842  47.5381332  14.1660121
  68.8437748  47.4051549  15.1639682  65.9191556  42.9171528  12.2839046
  66.7652751  43.3410942  12.4273695  65.8590194  42.2605153  12.9777609
  69.8889301  48.5400112   8.6657777  69.2598163  48.7045826   7.9633845
  69.5014963  48.9541722   9.4368742  73.7678533  49.4754550   6.0202141
  73.0829571  49.8553451   5.4699175  73.8522382  50.0849877   6.7534089
  69.0691002  40.5775897  13.9420219  68.8251933  41.3317957  13.4054495
  69.3450932  40.9561244  14.7767466  71.0229464  47.1214509  12.6197485
  71.2346360  47.7646269  11.9431866  70.9759213  46.2876826  12.1519415
  68.6255693  39.7332330   9.5234057  67.7640172  40.0313583   9.8150794
  68.6518128  39.9502729   8.5915090  65.4417263  48.2774520   5.9307863
  65.9055608  48.5562223   5.1412485  65.1774061  47.3757965   5.7480953
  62.3341344  47.8246002   8.8687626  62.9042701  48.2533270   8.2305110
  62.9249456  47.5428587   9.5671812  64.3786149  44.3997673   2.7397428
  65.0810192  44.8518716   3.2071354  64.0466777  43.7581492   3.3677321
  62.8266510  42.9909429  17.1148637  62.1965171  43.6725710  17.3484034
  62.7202598  42.8792511  16.1701775  58.1211483  42.6581225   8.0414561
  57.3310537  42.9138754   7.5654672  58.6122730  43.4729563   8.1466602
  72.1375292  49.9986465  10.7919842  72.9592736  49.5966652  10.5102524
  72.1337695  49.8954699  11.7435958  60.0726228  43.0225805   4.9998038
  59.2757391  43.1344499   5.5181534  59.8451820  43.3612457   4.1338929
  65.9031896  49.5470508  12.9480553  65.9676328  50.0090915  13.7838724
  65.1942820  48.9167873  13.0762862  56.4049186  42.9111716  10.4729552
  56.6557224  43.7958726  10.7387128  56.9408734  42.7316317   9.7004644
  80.2281285  46.3425213   7.1404814  79.4744994  45.7732611   6.9848818
  80.3628827  46.3087878   8.0875448  65.6179913  51.2138615   2.8159533
  65.4825588  52.0590151   3.2444381  66.1589726  51.4157893   2.0525467
  62.1047253  37.2930195  19.4773888  61.7114199  36.7396394  20.1521532
  62.9213393  37.6040774  19.8680406  59.0709311  48.7314053   3.3887458
  59.5833831  49.5257304   3.5393023  59.7232024  48.0340344   3.3221059
  60.8804195  51.8479810   5.4710211  61.0570824  52.7697774   5.2831195
  61.6761029  51.5338229   5.9004591  65.0215214  38.7088074  17.0694145
  65.7624927  39.3095227  16.9898607  65.2533137  37.9665712  16.5112187
  60.1656552  43.8944442  15.3472374  60.0510067  42.9929699  15.6479473
  59.3101070  44.1408138  14.9957191  67.2448390  51.8362182  16.9459875
  66.8012244  51.0498560  16.6280780  67.9065603  52.0241332  16.2803766
  62.0035511  53.3657983  11.4720554  62.5542936  53.2375047  10.6997547
  61.1646987  53.6652872  11.1215446  69.3429628  52.1164982  14.9741276
  69.3248103  52.9373863  14.4821545  70.2649548  51.9919057  15.1991417
  65.8002682  49.6309111  15.8164785  66.3331019  48.8697399  15.5864093
  65.2716763  49.3382763  16.5588939  68.9672377  34.7369177  11.3458426
  68.6236646  35.6270819  11.2697537  69.3351340  34.5470835  10.4828011
  57.0358228  47.0602708   4.1647029  57.8733450  47.4699716   3.9480736
  57.2136495  46.1202150   4.1347222  68.9322660  44.7277788  -0.1469138
  68.4169283  45.4982393   0.0919249  68.6599968  44.0542924   0.4763923
  66.5169771  39.5727489   4.9116100  65.6611367  39.1834339   4.7321739
  66.9296722  39.6519450   4.0515885  68.0468917  37.1073832   9.3107660
  67.5433713  37.0703968   8.4975465  68.3399524  38.0166575   9.3704316
  64.2911803  37.1912562   8.3173841  65.1564800  36.9955371   7.9579731
  64.3589312  36.9622914   9.2443198  73.9056934  47.4810143   1.7884035
  73.1286377  47.1421302   1.3439197  74.5848415  47.4862766   1.1139000
  68.7208963  42.6004880   1.6790643  68.4159098  42.9151030   2.5300786
  69.6739405  42.6786300   1.7217976  67.1655395  48.7595104   3.3283597
  66.6376756  48.0247863   3.0156834  66.6642897  49.5369780   3.0823565
  72.1448241  46.9544124   8.4450643  71.4871915  47.6443386   8.5330772
  72.9488640  47.3440556   8.7884629  61.8974122  39.4214770   5.6890208
  62.4717874  39.1989951   4.9563401  62.4845105  39.4903465   6.4418810
  70.9553700  45.3088497   6.4954585  71.4685581  45.9418489   6.9976294
  71.6054923  44.7089692   6.1297945  62.2243709  41.4519231  -0.2913907
  61.3881022  41.7893918   0.0295368  62.0848479  41.3168211  -1.2286770
  64.1996790  36.2956019   4.4165278  63.5461202  35.9805036   3.7921892
  64.1577264  35.6731759   5.1425101  65.3107995  46.5775314  -3.6681430
  64.4035057  46.3464567  -3.4690281  65.8079027  45.7812933  -3.4807449
  68.2176074  55.2872821  -0.7484744  67.5437773  55.5904518  -0.1399786
  68.6041896  56.0901902  -1.0979287  67.4334530  42.7837952   8.7412925
  66.5157092  43.0052899   8.5834613  67.8494674  42.8584263   7.8824633
  68.2169578  44.1829368   3.8715606  68.9641397  44.6950765   3.5622728
  68.4861168  43.8613421   4.7319999  66.4896228  46.6787909   0.8542560
  65.5807448  46.3946942   0.9515030  66.5191312  47.0986987  -0.0054133
  71.7215496  50.2894498   4.6233727  71.2677823  49.4485408   4.6798918
  71.0909462  50.9255897   4.9608508  70.6648415  41.2186484   5.8534395
  69.9271172  40.7063871   6.1844637  70.9175189  40.7786866   5.0417672
  70.1648435  52.1270995   5.5583546  70.4571409  52.6876052   4.8395911
  70.6747056  52.4199556   6.3136705  70.7660043  33.9962736   6.4476164
  71.0718919  33.1360100   6.1602079  71.4912647  34.5880357   6.2475158
  57.0584399  44.3993423   4.8357762  56.8608798  43.8062784   4.1108829
  56.5031063  44.0945633   5.5533701  65.0381122  44.2916529   6.9552355
  65.0929732  43.3390366   6.8794832  64.2272324  44.4475969   7.4393654
  66.1872316  48.2196653  -1.8069362  65.7491746  47.5032511  -2.2663724
  66.9282757  48.4472767  -2.3684270  62.9773482  42.9093589   4.7142734
  62.1641348  43.2087760   5.1207926  63.4732476  42.5149278   5.4317216
  65.1282060  52.9051346   6.6476999  65.0858239  53.1312192   5.7185531
  66.0444759  52.6714721   6.7962800  68.5747694  43.3735414  13.5457628
  68.9297082  43.6006887  14.4052094  69.2219825  43.7053790  12.9234883
  74.3045431  46.4953850   4.2506957  74.1663329  46.6855446   3.3228146
  73.9481650  47.2573232   4.7075008  62.4687557  40.4811945  10.3303969
  63.1086936  40.3400704   9.6326932  61.6365088  40.1946458   9.9542571
  74.3314810  48.5630377   9.2618228  74.7651317  48.4705666  10.1101282
  75.0446391  48.5387877   8.6238244  63.2447861  49.7814375   6.4438961
  64.0388459  49.2864695   6.2421536  62.5339553  49.2532238   6.0806667
  68.0642705  52.1632471  10.7951329  68.1179728  52.7323407  11.5629045
  67.1957487  52.3334356  10.4305366  59.5530624  43.9257457   2.5198714
  58.6228212  43.8641912   2.7368676  59.6488096  43.4033410   1.7235355
  59.4716173  40.4512270   5.1076956  59.7322991  41.3657603   4.9986116
  60.2933346  39.9836712   5.2573569  60.9441099  41.8650027  12.2775780
  61.6164152  41.6567389  11.6288429  60.1170885  41.6672113  11.8381013
  75.1930360  48.6054077  11.7951114  75.3866250  49.5099888  12.0410389
  75.0930978  48.1461496  12.6289699  66.8466671  38.4911968  14.2941441
  66.1994586  39.1901917  14.2005918  67.6167686  38.9248112  14.6617689
  70.2545469  48.7560820  17.3691994  70.1030975  48.5271372  16.4522078
  70.2450148  49.7131421  17.3823339  67.0230805  46.3292733  12.3538261
  67.9522865  46.4803892  12.1807228  66.6021835  46.4176753  11.4986907
  65.8219137  50.3543397  10.1236799  65.6830223  49.9862182  10.9962737
  65.0333733  50.8691037   9.9520756  66.4167289  55.4552494   1.4662335
  66.5919045  54.9840537   2.2807958  65.7300077  56.0818260   1.6943596
  67.3724352  49.7325000   7.5125636  67.0374185  49.6925770   8.4083286
  66.8728298  49.0669716   7.0396047  61.3468596  45.1392630  13.0378217
  61.2088394  44.4072869  13.6389757  62.2573519  45.0501530  12.7562405
  70.3083544  47.0781034  -2.2137304  69.6912714  46.3527862  -2.3104251
  69.8400032  47.8390394  -2.5570230  63.9750897  44.8512589  12.5261897
  64.6850515  44.2105781  12.4848516  63.9320205  45.1025484  13.4488078
  71.9637675  51.7879943  15.4468476  71.9050222  51.1039163  14.7799059
  72.3657194  52.5298933  14.9949102  62.6879831  41.8377807  14.3457537
  62.1517188  41.3868546  14.9979133  62.0996539  41.9723716  13.6028001
  60.9828374  58.6041856   8.2402195  61.2224972  59.2360381   8.9181214
  60.1397571  58.2529896   8.5267554  71.9655083  49.7519526  13.6782456
  71.0781861  49.4145448  13.8008855  72.5353634  49.0202558  13.9151221
  53.6184230  46.0843618   7.0025507  54.3055270  45.7705348   6.4146523
  53.4632358  46.9884983   6.7292759  58.4218952  40.9733815  11.4310531
  58.3377141  40.3659484  10.6960941  57.6001658  41.4642833  11.4320027
  65.4956236  54.4120979  10.6443699  65.4226408  55.2175950  11.1563004
  65.0533629  54.6112945   9.8191721  65.2846016  53.6492749   4.1546521
  64.5013538  54.1914429   4.2484745  65.9838761  54.1666728   4.5540762
  68.5942666  39.4587378   6.7980726  69.0911365  38.7057341   6.4781796
  67.8229647  39.4951695   6.2323935  76.4472423  45.1627744   8.4399018
  76.4362299  46.0452459   8.0692951  75.5789803  44.8099295   8.2453555
  67.9554920  54.3107813  12.8001858  68.6682892  54.9455278  12.7277759
  67.4644948  54.4071679  11.9841860  69.6772446  48.2159066   4.3719150
  68.7428725  48.3360528   4.2023854  69.8549115  47.3131532   4.1079159
  65.1777635  41.6004761   6.5252411  64.8075422  41.0475802   7.2133316
  65.6736727  40.9962895   5.9727411  73.0644998  44.0576385   4.9069184
  73.5305450  44.8904376   4.8329486  73.5152498  43.5921366   5.6114442
  63.0066833  52.0602256  13.6207429  63.7076293  52.6938739  13.7736823
  62.5361948  52.4016988  12.8603068  71.1321229  50.4020206   1.9055336
  71.4081073  50.2876801   2.8149210  70.2625728  50.0037691   1.8667509
  71.0361661  36.4256972   8.9460085  70.1224740  36.6561199   9.1142292
  71.4654762  36.5095416   9.7974117  70.8068119  44.6146864  11.4459979
  70.1539569  44.8622771  10.7912432  71.1848499  43.8011002  11.1122456
  67.7675293  54.6506557   5.5488149  67.9497687  53.8328213   6.0115902
  68.5908279  54.8674249   5.1113039  68.1017458  53.5774742   2.8103198
  68.6305225  53.0667197   2.1973360  68.3645678  53.2617272   3.6748731
  66.8555692  45.3566675  17.9326016  66.1796329  45.2560804  18.6028391
  67.6783326  45.2005889  18.3962013  58.6034551  51.5938611  10.5538531
  59.1887988  50.8482299  10.6866436  58.4059390  51.9042568  11.4375195
  61.4573206  54.6289859   5.5700974  60.7883582  55.1135986   5.0865014
  61.3186076  54.8759079   6.4844352  53.1952206  44.1644212   9.2742975
  53.2336305  43.6307802  10.0680093  52.6892499  43.6379417   8.6553952
  65.5978475  56.6633602  12.1683632  66.1496783  56.8265224  12.9332717
  65.9384668  57.2538040  11.4963657  60.5742968  39.0108752  12.7705517
  60.6384295  39.8723583  12.3582915  60.5110088  38.3982754  12.0377875
  60.0495241  41.0831885  16.4178551  60.6767280  40.7008962  17.0316075
  59.1923160  40.8646087  16.7834244  70.4489349  51.4894860  18.0232287
  70.9929253  52.1024818  17.5287241  69.8676194  52.0474438  18.5399300
  56.8260783  42.8908314   2.3496906  57.1214225  41.9818992   2.2963960
  55.9248819  42.8696053   2.0277908  68.7346862  54.6115578   9.1547314
  68.6098002  53.8105318   8.6458260  69.3925953  55.1061771   8.6661284
  60.3555030  40.9664310   8.3324455  59.6341616  41.5800278   8.1931928
  61.1448286  41.5022075   8.2541100  70.7981771  52.4124598  10.7826864
  69.8512106  52.2929949  10.7105191  71.1464544  51.5247096  10.8653126
  63.1581344  38.3018737  14.6065106  63.6815746  38.5481033  15.3691416
  62.9393677  39.1338772  14.1868244  58.5548625  40.5722411   2.4736231
  58.2261331  39.6919790   2.2911337  58.9087996  40.5170080   3.3612620
  67.8028204  52.2077314   6.9831217  67.6553166  51.2794021   7.1638787
  68.6281697  52.2297405   6.4988292  61.6690448  40.8595381   2.8411709
  62.0086521  41.3881302   2.1190317  62.1162569  41.1975787   3.6170275
  71.4062326  53.0305873   8.0696089  72.3308873  52.8248734   7.9320540
  71.2377629  52.7822274   8.9785431  64.3633889  39.2432432  12.2914777
  64.0230709  38.4440245  12.6935457  63.6572895  39.5434143  11.7191610
  65.0150361  36.3281744  10.7442100  65.8376430  35.8542223  10.6220990
  65.2588424  37.1072228  11.2440786  63.6558595  39.3570003   1.0405002
  64.3766958  39.7351256   0.5368718  63.0323899  40.0758880   1.1439979
  67.7989718  40.0615152   1.9763334  68.0153333  40.9439790   1.6752162
  67.3183785  39.6701365   1.2468976  62.5388940  43.0200865   8.5534078
  62.3933520  43.3341168   9.4458360  62.0614143  43.6385765   8.0004977
  64.3985322  40.0103413   8.6014968  64.3846891  39.1144506   8.2647266
  65.1157751  40.0174077   9.2353254  66.2511453  40.4440753  10.6468095
  65.9929231  41.3657824  10.6452426  65.7196494  40.0471188  11.3368560
  71.1957642  53.5491540   3.4258181  71.3694520  52.9837963   2.6732033
  71.6886533  54.3492435   3.2437671  57.0134602  45.5606209  11.4921740
  56.4688070  46.3366017  11.6242014  57.8913952  45.9077014  11.3340861
  63.8022218  38.8917793   3.8702538  63.9238130  37.9634439   4.0693426
  63.5124261  38.9056479   2.9580854  66.6713409  36.5772704   7.0069258
  66.6935106  36.6412037   6.0521238  67.0881468  35.7377212   7.2009764
  77.0497033  46.3127963   5.0448481  77.4928179  45.5635288   4.6467604
  76.1723543  46.3038100   4.6622213  72.1832814  52.8658305   0.5255079
  72.8783719  53.4864997   0.7442394  72.5255965  52.0153656   0.8007457
  57.8000624  44.6876106  14.3851896  57.0582360  44.8358741  14.9716527
  57.4793368  44.9484371  13.5218646  74.0824238  50.3158010   2.0542410
  74.6075562  50.6545283   1.3291730  73.9946590  49.3805026   1.8705544
  65.7444286  54.2292084  14.1832286  66.0531413  53.9841231  15.0554986
  66.5419768  54.4338722  13.6951157  65.7664898  56.3829993   6.4137663
  65.3269889  55.8906372   7.1070520  66.5173015  55.8402961   6.1729738
  58.2457237  52.5741534   6.4162291  59.0715257  52.2745306   6.0360935
  57.8951289  51.8049157   6.8652080  63.2138770  51.9268003   8.4859965
  62.5918780  51.2638708   8.1862193  63.8843637  51.9529134   7.8033612
  56.4465842  50.4927861   7.3751225  55.6097751  50.0650035   7.1935226
  56.4189488  50.6860304   8.3122016  63.2863298  40.4049791  18.0792471
  63.3351453  41.2811913  17.6970240  63.8285812  39.8627184  17.5064114
  73.7718144  50.9490914  17.3593608  72.9813687  50.9315053  16.8198107
  73.5351498  51.4879208  18.1142644  73.8916019  47.7983380  14.6726336
  73.9414024  47.6333388  15.6141859  73.7829942  46.9310639  14.2824217
  62.7752277  50.4771926   1.9618425  62.9240398  51.1607390   1.3085098
  63.5818721  50.4577016   2.4767881  71.1819781  43.7814308  15.9885643
  72.0829644  43.6420773  15.6969641  71.2567756  43.9468763  16.9283820
  65.5162586  41.1581163  14.8338829  64.6465896  41.4514729  14.5621418
  65.7522067  41.7421608  15.5546093  75.3934216  50.2180322  14.9168358
  75.1019024  50.5810302  15.7531819  74.7806347  49.5047330  14.7381690
  76.5929898  47.7833202   7.4370928  77.4276789  48.2223006   7.6008488
  76.7289027  47.3071855   6.6179174  73.6421404  45.3412936  13.3848416
  74.1175525  45.5340583  12.5767267  72.7186969  45.3972122  13.1391800
  60.5304910  46.5037104   2.9679494  60.2850952  45.5999434   3.1659704
  60.7000825  46.5054254   2.0258972  68.2201620  37.3760780  12.3504250
  68.7383564  38.1121807  12.0250738  67.8656753  37.6824773  13.1851009
  59.8000558  42.2365461   0.4665656  59.1069803  42.3109816  -0.1894308
  59.5552310  41.4725805   0.9887173  68.4714214  33.7961062   7.8705146
  68.7515968  33.1284252   8.4965573  69.2564821  33.9890158   7.3579810
  66.2747683  52.9720056  -0.5669827  65.7021650  53.5910243  -1.0199355
  66.8480477  53.5219418  -0.0329905  72.3423073  42.2178696  11.6176721
  73.2940496  42.3176794  11.6388946  72.1726523  41.4256965  12.1274806
  70.3637452  39.3034280  11.8036122  69.7687384  39.5839292  11.1082611
  70.0787149  39.7928181  12.5752863  69.4944943  53.2557206   0.5638755
  70.4275616  53.1902768   0.7671630  69.4068156  54.0913473   0.1053288
  72.1232959  52.5723077  -2.4757297  72.0446591  52.2382940  -1.5821540
  72.9442626  53.0644845  -2.4765825  74.8211151  45.4384816  10.7319021
  74.7887471  44.5000817  10.9178705  75.4311774  45.5168853   9.9984846
  66.6594481  44.3080869  -3.2253775  67.6053586  44.1787077  -3.1565357
  66.2808726  43.5695531  -2.7484347  74.9705639  42.2295860  10.7777304
  74.4544688  41.4454316  10.5907233  75.8545588  41.9014576  10.9423824
  72.6316366  35.9736875   6.7373117  72.4341187  35.6651963   7.6216449
  73.2416072  36.6998514   6.8671047  80.6387700  46.5000823   9.8725058
  81.3691089  46.2386111  10.4332761  80.0294646  45.7629545   9.9127126
  78.7202998  44.6408686  10.4699509  77.9936161  44.5064650   9.8616001
  78.3050284  44.9485514  11.2756227  66.5433174  48.3598615  18.2346882
  67.4636183  48.5377214  18.4286929  66.5082757  47.4154661  18.0826581
  55.7615339  43.5537209   7.1600157  55.4418123  42.7002517   6.8674531
  55.2148767  43.7685787   7.9158124  59.5395246  46.2699650  10.8769663
  59.7581256  47.2016758  10.8957697  59.9521020  45.9107624  11.6624467
  66.4599464  36.7767735   2.8645352  65.6500193  36.4314820   3.2400598
  67.1483881  36.4675279   3.4532963  68.3890013  35.8545782   4.4869648
  68.9421051  36.2741235   5.1459671  68.6260099  34.9281530   4.5292604
  64.4123112  41.8432856  20.2672412  64.3119839  42.7927213  20.1984503
  64.1944654  41.5151095  19.3948482  55.6303599  47.1740120   9.1293278
  54.9367070  46.7594073   8.6163233  56.3776590  47.2160657   8.5326697
  71.7668820  37.9646307   3.9948313  71.1867489  38.6231111   3.6126365
  71.5004752  37.1423652   3.5835730  70.2172386  37.3651365   6.1969633
  70.7172164  37.4767899   5.3883952  70.8607994  37.0612418   6.8370441
  64.2754382  45.2729994  19.0837474  63.7921464  46.0730355  19.2901363
  64.3615321  45.2837939  18.1304918  57.5440341  47.1058374   7.0059293
  57.5211030  47.2046061   6.0541176  57.8540978  47.9523525   7.3276459
  60.2027719  49.1634529  11.1205908  61.1570973  49.1318472  11.0535839
  60.0040243  48.7025153  11.9356134  60.7927101  47.7335645  13.6876705
  61.6119990  48.2279724  13.7111543  61.0663909  46.8167613  13.6594273
  70.5493698  40.1246398   3.0504661  69.6619553  40.4096048   2.8324856
  70.9647687  39.9640161   2.2031938  73.9008234  40.1492919   6.7659000
  74.6768624  40.6389371   7.0383617  73.1756368  40.5750973   7.2230870
  76.3380792  40.8620538   7.8232941  76.9325283  40.6216274   7.1126249
  76.4107376  40.1427668   8.4506477  58.5577948  54.7054149   8.1376106
  58.4232416  53.9454550   7.5714104  58.1410010  55.4295049   7.6704894
  69.6936911  49.8891072  -2.8547319  70.3972761  50.0941075  -2.2389664
  68.9699560  50.4567834  -2.5898236  70.5234721  45.6400933   3.2654951
  70.4669923  46.0969485   2.4262583  71.0763064  44.8791618   3.0877794
  74.3339527  41.4290665   4.0905071  74.0776462  41.0287301   4.9213278
  73.7092395  42.1434459   3.9655210  78.6451865  44.1686739   6.5976362
  78.0851423  44.2379928   7.3707924  78.0395369  43.9927723   5.8775858
  61.7147074  55.6023466   8.3494548  61.5979458  56.5468898   8.2473238
  60.8939520  55.2997027   8.7380347  71.6023609  50.3273601  -0.8048859
  72.4369212  49.8954800  -0.9871384  71.4407951  50.1555615   0.1228035
  71.2569501  46.8305715   0.5607480  71.2018305  46.6649986  -0.3804076
  70.6315556  47.5381748   0.7169670  56.0462016  42.0673779  14.3868902
  56.6920879  41.5572733  14.8756128  55.8379167  42.8042461  14.9612328
  68.5715408  49.1354627  19.8861043  69.4406568  49.3095279  19.5247678
  68.0922159  49.9549043  19.7636772  64.5665626  36.3313824   0.1392799
  64.5544296  37.2755664   0.2961069  65.4589048  36.1483969  -0.1547740
  62.7401588  56.2551728  11.5650477  63.6428835  56.2875338  11.8816972
  62.5138958  55.3252179  11.5796812  64.4955190  55.0082714   8.2260555
  63.5450821  55.0084576   8.1124928  64.7987676  54.2615449   7.7096590
  68.3817746  32.9256600   4.3938735  67.6150141  32.3715087   4.5395418
  68.7928451  32.9978469   5.2552887  60.3859507  39.2141396  18.4843917
  61.2490968  38.8578201  18.6947241  59.8124917  38.8755291  19.1719321
  80.2307884  60.8443253   9.2906318  80.8686294  60.7250000   8.5869658
  80.1128727  61.7924096   9.3494270  77.0397590  60.7970681   9.2267842
  76.7016101  60.6811745   8.3388377  77.9087358  60.3961846   9.2068848
  72.8984406  62.6506157   5.2164733  72.3349271  62.5596094   4.4481021
  72.7836801  61.8306062   5.6967226  77.5217373  61.9505532  15.1854048
  77.5106014  61.5558331  14.3134552  77.6838012  61.2171605  15.7787819
  70.4448838  64.1457349   8.0548954  71.2370129  63.8048173   7.6395253
  70.6845488  64.2552324   8.9751107  78.4783964  66.3177125   0.5279198
  77.8271944  66.9031205   0.1413212  79.2728327  66.8483320   0.5874236
  72.4039591  63.4066262   0.9266333  73.1770467  62.8595249   0.7879208
  72.7564990  64.2710511   1.1380794  74.2424634  64.7342644  14.1333232
  73.9514500  65.6388275  14.0179898  74.8781618  64.7759172  14.8477301
  75.1680841  62.1119493  10.7234591  75.7644413  61.8875515  10.0091554
  75.2255812  61.3704238  11.3260039  74.7405869  59.5658928  -1.4415218
  74.9931390  59.0440449  -2.2031755  73.8030428  59.4025073  -1.3388534
  79.7849152  58.5694706   6.3659526  80.5712241  58.1514130   6.0149943
  80.0487856  59.4740799   6.5341174  79.9559229  64.0067557   1.0648182
  79.3205062  64.0802183   1.7769087  79.6256636  64.5961156   0.3867262
  85.1857579  58.5069940   7.2692504  85.9182751  57.9369156   7.5030334
  84.4296935  58.1191540   7.7099010  74.4602158  61.4687034   0.7609157
  74.3438416  60.7931937   1.4290242  74.5704418  60.9819408  -0.0558690
  76.8033699  60.9297181   4.4655847  76.4391906  60.4027802   5.1768768
  77.6600815  60.5395650   4.2922332  82.7083000  52.2191514  11.7287113
  82.3766324  53.0886925  11.5048328  82.1128613  51.9027798  12.4081143
  76.4439186  55.9587081  -0.5382805  76.6113588  56.8267317  -0.1712334
  76.2536355  56.1214362  -1.4621516  79.2014519  64.4204060  11.1283026
  78.9015242  65.3229098  11.0198833  78.8565579  64.1536243  11.9804178
  72.6527001  60.8717857   7.1619730  71.7277497  60.7394071   7.3697422
  72.9011414  61.6512076   7.6589672  82.6011663  56.9386600   8.8080463
  81.6928540  56.8702008   8.5139224  82.5499259  57.4158545   9.6362288
  76.4228407  58.4144738   0.4463862  76.3028032  58.8601789   1.2849342
  75.7280995  58.7630056  -0.1122600  70.0135812  60.5151130   7.9963519
  70.1428193  60.7685609   8.9102931  69.3333263  61.1078838   7.6768174
  74.1835299  71.1848380   4.0953993  74.1059329  72.1356205   4.1742474
  73.5796943  70.8394253   4.7528920  76.6752529  58.3576245  16.7515360
  75.8985863  58.9170166  16.7418225  77.3143092  58.8433028  17.2730230
  84.4673309  55.1403038  10.5858337  83.8247690  55.4335571   9.9398131
  83.9628238  55.0255959  11.3911533  82.1213473  58.8866211   1.2744196
  83.0331329  59.1193598   1.0991894  81.6123120  59.4703256   0.7119275
  74.9298901  61.1661699  16.3133327  75.6713585  61.7046743  16.0368151
  74.2235886  61.7927988  16.4704879  80.4054241  63.3090839  14.9105489
  80.8137597  62.8673250  14.1660121  79.6831502  62.7343467  15.1639682
  76.7585311  58.2463446  12.2839046  77.6046506  58.6702860  12.4273695
  76.6983948  57.5897070  12.9777609  80.7283055  63.8692030   8.6657777
  80.0991918  64.0337744   7.9633845  80.3408717  64.2833639   9.4368742
  84.6072287  64.8046468   6.0202141  83.9223325  65.1845369   5.4699175
  84.6916137  65.4141794   6.7534089  79.9084756  55.9067814  13.9420219
  79.6645688  56.6609875  13.4054495  80.1844687  56.2853162  14.7767466
  81.8623219  62.4506427  12.6197485  82.0740114  63.0938187  11.9431866
  81.8152967  61.6168743  12.1519415  79.4649448  55.0624247   9.5234057
  78.6033927  55.3605501   9.8150794  79.4911882  55.2794646   8.5915090
  76.2811017  63.6066438   5.9307863  76.7449363  63.8854141   5.1412485
  76.0167815  62.7049883   5.7480953  73.1735098  63.1537920   8.8687626
  73.7436455  63.5825188   8.2305110  73.7643210  62.8720504   9.5671812
  75.2179903  59.7289590   2.7397428  75.9203947  60.1810634   3.2071354
  74.8860532  59.0873409   3.3677321  73.6660265  58.3201347  17.1148637
  73.0358925  59.0017628  17.3484034  73.5596353  58.2084429  16.1701775
  68.9605237  57.9873143   8.0414561  68.1704291  58.2430672   7.5654672
  69.4516485  58.8021481   8.1466602  82.9769047  65.3278382  10.7919842
  83.7986490  64.9258569  10.5102524  82.9731450  65.2246616  11.7435958
  70.9119983  58.3517722   4.9998038  70.1151146  58.4636417   5.5181534
  70.6845575  58.6904374   4.1338929  76.7425650  64.8762425  12.9480553
  76.8070083  65.3382833  13.7838724  76.0336574  64.2459790  13.0762862
  67.2442940  58.2403633  10.4729552  67.4950979  59.1250643  10.7387128
  67.7802489  58.0608235   9.7004644  91.0675040  61.6717131   7.1404814
  90.3138748  61.1024529   6.9848818  91.2022581  61.6379795   8.0875448
  76.4573668  66.5430533   2.8159533  76.3219343  67.3882069   3.2444381
  76.9983480  66.7449811   2.0525467  72.9441007  52.6222113  19.4773888
  72.5507953  52.0688311  20.1521532  73.7607148  52.9332691  19.8680406
  69.9103065  64.0605971   3.3887458  70.4227586  64.8549221   3.5393023
  70.5625778  63.3632261   3.3221059  71.7197950  67.1771727   5.4710211
  71.8964578  68.0989692   5.2831195  72.5154783  66.8630147   5.9004591
  75.8608968  54.0379992  17.0694145  76.6018682  54.6387145  16.9898607
  76.0926891  53.2957630  16.5112187  71.0050306  59.2236359  15.3472374
  70.8903822  58.3221616  15.6479473  70.1494824  59.4700056  14.9957191
  78.0842144  67.1654099  16.9459875  77.6405998  66.3790478  16.6280780
  78.7459358  67.3533250  16.2803766  72.8429265  68.6949901  11.4720554
  73.3936691  68.5666964  10.6997547  72.0040741  68.9944790  11.1215446
  80.1823382  67.4456899  14.9741276  80.1641858  68.2665780  14.4821545
  81.1043302  67.3210975  15.1991417  76.6396436  64.9601029  15.8164785
  77.1724773  64.1989317  15.5864093  76.1110518  64.6674681  16.5588939
  79.8066131  50.0661095  11.3458426  79.4630401  50.9562737  11.2697537
  80.1745094  49.8762753  10.4828011  67.8751982  62.3894625   4.1647029
  68.7127204  62.7991634   3.9480736  68.0530250  61.4494067   4.1347222
  79.7716414  60.0569706  -0.1469138  79.2563038  60.8274311   0.0919249
  79.4993723  59.3834842   0.4763923  77.3563525  54.9019407   4.9116100
  76.5005122  54.5126257   4.7321739  77.7690477  54.9811368   4.0515885
  78.8862672  52.4365750   9.3107660  78.3827467  52.3995885   8.4975465
  79.1793279  53.3458493   9.3704316  75.1305558  52.5204480   8.3173841
  75.9958554  52.3247288   7.9579731  75.1983067  52.2914832   9.2443198
  84.7450688  62.8102061   1.7884035  83.9680131  62.4713220   1.3439197
  85.4242169  62.8154684   1.1139000  79.5602717  57.9296798   1.6790643
  79.2552853  58.2442947   2.5300786  80.5133159  58.0078218   1.7217976
  78.0049149  64.0887021   3.3283597  77.4770511  63.3539781   3.0156834
  77.5036652  64.8661698   3.0823565  82.9841995  62.2836042   8.4450643
  82.3265670  62.9735303   8.5330772  83.7882394  62.6732474   8.7884629
  72.7367877  54.7506688   5.6890208  73.3111629  54.5281869   4.9563401
  73.3238859  54.8195382   6.4418810  81.7947454  60.6380415   6.4954585
  82.3079336  61.2710406   6.9976294  82.4448678  60.0381610   6.1297945
  73.0637464  56.7811149  -0.2913907  72.2274776  57.1185835   0.0295368
  72.9242234  56.6460128  -1.2286770  75.0390544  51.6247937   4.4165278
  74.3854957  51.3096954   3.7921892  74.9971019  51.0023677   5.1425101
  76.1501749  61.9067232  -3.6681430  75.2428811  61.6756485  -3.4690281
  76.6472781  61.1104851  -3.4807449  78.2728285  58.1129870   8.7412925
  77.3550846  58.3344817   8.5834613  78.6888428  58.1876181   7.8824633
  79.0563333  59.5121286   3.8715606  79.8035152  60.0242683   3.5622728
  79.3254922  59.1905339   4.7319999  77.3289983  62.0079827   0.8542560
  76.4201202  61.7238859   0.9515030  77.3585067  62.4278905  -0.0054133
  82.5609250  65.6186416   4.6233727  82.1071577  64.7777326   4.6798918
  81.9303217  66.2547814   4.9608508  81.5042170  56.5478402   5.8534395
  80.7664927  56.0355788   6.1844637  81.7568943  56.1078784   5.0417672
  81.0042189  67.4562913   5.5583546  81.2965164  68.0167970   4.8395911
  81.5140810  67.7491474   6.3136705  81.6053797  49.3254654   6.4476164
  81.9112674  48.4652017   6.1602079  82.3306402  49.9172274   6.2475158
  67.8978153  59.7285341   4.8357762  67.7002553  59.1354701   4.1108829
  67.3424817  59.4237551   5.5533701  75.8774877  59.6208447   6.9552355
  75.9323487  58.6682284   6.8794832  75.0666079  59.7767886   7.4393654
  77.0266071  63.5488570  -1.8069362  76.5885501  62.8324429  -2.2663724
  77.7676511  63.7764685  -2.3684270  73.8167237  58.2385507   4.7142734
  73.0035102  58.5379677   5.1207926  74.3126231  57.8441196   5.4317216
  75.9675815  68.2343264   6.6476999  75.9251993  68.4604110   5.7185531
  76.8838513  68.0006638   6.7962800  79.4141448  58.7027331  13.5457628
  79.7690836  58.9298804  14.4052094  80.0613580  59.0345708  12.9234883
  85.1439185  61.8245767   4.2506957  85.0057084  62.0147363   3.3228146
  84.7875404  62.5865150   4.7075008  73.3081312  55.8103862  10.3303969
  73.9480691  55.6692621   9.6326932  72.4758842  55.5238376   9.9542571
  85.1708565  63.8922294   9.2618228  85.6045072  63.7997583  10.1101282
  85.8840146  63.8679795   8.6238244  74.0841615  65.1106293   6.4438961
  74.8782214  64.6156613   6.2421536  73.3733308  64.5824156   6.0806667
  78.9036460  67.4924388  10.7951329  78.9573482  68.0615325  11.5629045
  78.0351241  67.6626273  10.4305366  70.3924379  59.2549375   2.5198714
  69.4621967  59.1933830   2.7368676  70.4881851  58.7325327   1.7235355
  70.3109928  55.7804187   5.1076956  70.5716745  56.6949521   4.9986116
  71.1327100  55.3128630   5.2573569  71.7834853  57.1941945  12.2775780
  72.4557907  56.9859307  11.6288429  70.9564640  56.9964031  11.8381013
  86.0324115  63.9345995  11.7951114  86.2260005  64.8391805  12.0410389
  85.9324733  63.4753414  12.6289699  77.6860425  53.8203885  14.2941441
  77.0388340  54.5193835  14.2005918  78.4561441  54.2540029  14.6617689
  81.0939223  64.0852738  17.3691994  80.9424730  63.8563289  16.4522078
  81.0843903  65.0423339  17.3823339  77.8624560  61.6584650  12.3538261
  78.7916620  61.8095810  12.1807228  77.4415590  61.7468671  11.4986907
  76.6612891  65.6835315  10.1236799  76.5223977  65.3154099  10.9962737
  75.8727488  66.1982954   9.9520756  77.2561043  70.7844411   1.4662335
  77.4312799  70.3132454   2.2807958  76.5693831  71.4110177   1.6943596
  78.2118107  65.0616917   7.5125636  77.8767939  65.0217687   8.4083286
  77.7122052  64.3961633   7.0396047  72.1862351  60.4684548  13.0378217
  72.0482148  59.7364786  13.6389757  73.0967274  60.3793448  12.7562405
  81.1477298  62.4072952  -2.2137304  80.5306469  61.6819780  -2.3104251
  80.6793787  63.1682312  -2.5570230  74.8144651  60.1804507  12.5261897
  75.5244270  59.5397699  12.4848516  74.7713959  60.4317402  13.4488078
  82.8031430  67.1171860  15.4468476  82.7443976  66.4331080  14.7799059
  83.2050948  67.8590850  14.9949102  73.5273585  57.1669725  14.3457537
  72.9910942  56.7160463  14.9979133  72.9390294  57.3015634  13.6028001
  71.8222129  73.9333774   8.2402195  72.0618727  74.5652298   8.9181214
  70.9791325  73.5821814   8.5267554  72.9375844  56.6258376  -3.0916000
  72.0605310  56.5047177  -3.4553753  73.4133597  55.8344454  -3.3437111
  82.8048837  65.0811444  13.6782456  81.9175616  64.7437366  13.8008855
  83.3747388  64.3494475  13.9151221  64.4577984  61.4135536   7.0025507
  65.1449024  61.0997266   6.4146523  64.3026113  62.3176901   6.7292759
  69.2612706  56.3025732  11.4310531  69.1770895  55.6951402  10.6960941
  68.4395413  56.7934751  11.4320027  76.3349991  69.7412896  10.6443699
  76.2620162  70.5467868  11.1563004  75.8927384  69.9404862   9.8191721
  76.1239770  68.9784666   4.1546521  75.3407292  69.5206347   4.2484745
  76.8232515  69.4958646   4.5540762  79.4336420  54.7879296   6.7980726
  79.9305120  54.0349258   6.4781796  78.6623402  54.8243613   6.2323935
  87.2866178  60.4919661   8.4399018  87.2756054  61.3744377   8.0692951
  86.4183557  60.1391212   8.2453555  78.7948674  69.6399730  12.8001858
  79.5076646  70.2747195  12.7277759  78.3038703  69.7363596  11.9841860
  80.5166201  63.5450983   4.3719150  79.5822480  63.6652446   4.2023854
  80.6942869  62.6423450   4.1079159  76.0171389  56.9296679   6.5252411
  75.6469177  56.3767719   7.2133316  76.5130481  56.3254812   5.9727411
  83.9038752  59.3868302   4.9069184  84.3699205  60.2196294   4.8329486
  84.3546253  58.9213284   5.6114442  73.8460588  67.3894174  13.6207429
  74.5470047  68.0230657  13.7736823  73.3755703  67.7308906  12.8603068
  81.9714983  65.7312124   1.9055336  82.2474827  65.6168718   2.8149210
  81.1019482  65.3329609   1.8667509  81.8755415  51.7548889   8.9460085
  80.9618495  51.9853116   9.1142292  82.3048517  51.8387334   9.7974117
  81.6461874  59.9438781  11.4459979  80.9933324  60.1914689  10.7912432
  82.0242253  59.1302920  11.1122456  78.6069047  69.9798475   5.5488149
  78.7891442  69.1620131   6.0115902  79.4302033  70.1966167   5.1113039
  78.9411213  68.9066660   2.8103198  79.4698979  68.3959114   2.1973360
  79.2039433  68.5909190   3.6748731  77.6949447  60.6858592  17.9326016
  77.0190084  60.5852722  18.6028391  78.5177080  60.5297806  18.3962013
  69.4428306  66.9230529  10.5538531  70.0281742  66.1774217  10.6866436
  69.2453144  67.2334486  11.4375195  72.2966961  69.9581776   5.5700974
  71.6277336  70.4427904   5.0865014  72.1579831  70.2050997   6.4844352
  64.0345960  59.4936129   9.2742975  64.0730060  58.9599720  10.0680093
  63.5286253  58.9671335   8.6553952  76.4372229  71.9925520  12.1683632
  76.9890537  72.1557141  12.9332717  76.7778423  72.5829958  11.4963657
  71.4136723  54.3400670  12.7705517  71.4778049  55.2015501  12.3582915
  71.3503843  53.7274671  12.0377875  70.8888995  56.4123802  16.4178551
  71.5161034  56.0300880  17.0316075  70.0316914  56.1938004  16.7834244
  81.2883104  66.8186777  18.0232287  81.8323008  67.4316736  17.5287241
  80.7069949  67.3766356  18.5399300  67.6654538  58.2200231   2.3496906
  67.9607979  57.3110910   2.2963960  66.7642574  58.1987971   2.0277908
  79.5740617  69.9407495   9.1547314  79.4491756  69.1397235   8.6458260
  80.2319708  70.4353689   8.6661284  71.1948785  56.2956228   8.3324455
  70.4735371  56.9092196   8.1931928  71.9842041  56.8313993   8.2541100
  81.6375525  67.7416516  10.7826864  80.6905861  67.6221867  10.7105191
  81.9858298  66.8539014  10.8653126  73.9975098  53.6310654  14.6065106
  74.5209500  53.8772951  15.3691416  73.7787432  54.4630689  14.1868244
  69.3942380  55.9014329   2.4736231  69.0655086  55.0211708   2.2911337
  69.7481750  55.8461998   3.3612620  78.6421958  67.5369232   6.9831217
  78.4946921  66.6085939   7.1638787  79.4675452  67.5589322   6.4988292
  72.5084203  56.1887299   2.8411709  72.8480275  56.7173220   2.1190317
  72.9556323  56.5267705   3.6170275  82.2456080  68.3597790   8.0696089
  83.1702628  68.1540652   7.9320540  82.0771384  68.1114192   8.9785431
  75.2027644  54.5724350  12.2914777  74.8624464  53.7732163  12.6935457
  74.4966650  54.8726060  11.7191610  75.8544115  51.6573662  10.7442100
  76.6770185  51.1834140  10.6220990  76.0982179  52.4364146  11.2440786
  74.4952350  54.6861920   1.0405002  75.2160712  55.0643173   0.5368718
  73.8717654  55.4050797   1.1439979  78.6383473  55.3907069   1.9763334
  78.8547087  56.2731707   1.6752162  78.1577540  54.9993283   1.2468976
  73.3782694  58.3492783   8.5534078  73.2327275  58.6633086   9.4458360
  72.9007898  58.9677683   8.0004977  75.2379077  55.3395331   8.6014968
  75.2240646  54.4436424   8.2647266  75.9551505  55.3465994   9.2353254
  77.0905208  55.7732671  10.6468095  76.8322986  56.6949741  10.6452426
  76.5590248  55.3763105  11.3368560  82.0351396  68.8783458   3.4258181
  82.2088274  68.3129880   2.6732033  82.5280288  69.6784353   3.2437671
  67.8528356  60.8898127  11.4921740  67.3081824  61.6657935  11.6242014
  68.7307706  61.2368931  11.3340861  74.6415973  54.2209711   3.8702538
  74.7631884  53.2926357   4.0693426  74.3518015  54.2348397   2.9580854
  77.5107163  51.9064621   7.0069258  77.5328860  51.9703954   6.0521238
  77.9275222  51.0669130   7.2009764  87.8890788  61.6419881   5.0448481
  88.3321934  60.8927206   4.6467604  87.0117298  61.6330017   4.6622213
  83.0226569  68.1950222   0.5255079  83.7177474  68.8156915   0.7442394
  83.3649719  67.3445574   0.8007457  68.6394378  60.0168023  14.3851896
  67.8976114  60.1650659  14.9716527  68.3187122  60.2776289  13.5218646
  84.9217992  65.6449928   2.0542410  85.4469316  65.9837201   1.3291730
  84.8340345  64.7096943   1.8705544  76.5838041  69.5584002  14.1832286
  76.8925167  69.3133148  15.0554986  77.3813523  69.7630640  13.6951157
  76.6058653  71.7121911   6.4137663  76.1663643  71.2198290   7.1070520
  77.3566770  71.1694879   6.1729738  69.0850992  67.9033452   6.4162291
  69.9109012  67.6037224   6.0360935  68.7345044  67.1341074   6.8652080
  74.0532525  67.2559920   8.4859965  73.4312534  66.5930625   8.1862193
  74.7237392  67.2821052   7.8033612  67.2859597  65.8219778   7.3751225
  66.4491505  65.3941953   7.1935226  67.2583242  66.0152222   8.3122016
  74.1257052  55.7341708  18.0792471  74.1745208  56.6103831  17.6970240
  74.6679567  55.1919101  17.5064114  84.6111898  66.2782832  17.3593608
  83.8207442  66.2606970  16.8198107  84.3745253  66.8171125  18.1142644
  84.7309773  63.1275298  14.6726336  84.7807778  62.9625305  15.6141859
  84.6223697  62.2602557  14.2824217  73.6146032  65.8063844   1.9618425
  73.7634152  66.4899308   1.3085098  74.4212475  65.7868934   2.4767881
  82.0213536  59.1106226  15.9885643  82.9223398  58.9712691  15.6969641
  82.0961510  59.2760681  16.9283820  76.3556341  56.4873081  14.8338829
  75.4859650  56.7806647  14.5621418  76.5915821  57.0713526  15.5546093
  86.2327970  65.5472239  14.9168358  85.9412778  65.9102220  15.7531819
  85.6200101  64.8339248  14.7381690  87.4323652  63.1125119   7.4370928
  88.2670544  63.5514923   7.6008488  87.5682781  62.6363772   6.6179174
  84.4815158  60.6704854  13.3848416  84.9569280  60.8632500  12.5767267
  83.5580724  60.7264040  13.1391800  71.3698665  61.8329021   2.9679494
  71.1244707  60.9291351   3.1659704  71.5394579  61.8346172   2.0258972
  79.0595375  52.7052698  12.3504250  79.5777319  53.4413725  12.0250738
  78.7050508  53.0116691  13.1851009  70.6394312  57.5657379   0.4665656
  69.9463557  57.6401734  -0.1894308  70.3946064  56.8017722   0.9887173
  79.3107969  49.1252980   7.8705146  79.5909723  48.4576169   8.4965573
  80.0958576  49.3182076   7.3579810  77.1141437  68.3011974  -0.5669827
  76.5415404  68.9202161  -1.0199355  77.6874231  68.8511336  -0.0329905
  83.1816827  57.5470614  11.6176721  84.1334250  57.6468712  11.6388946
  83.0120278  56.7548883  12.1274806  81.2031207  54.6326197  11.8036122
  80.6081139  54.9131210  11.1082611  80.9180903  55.1220098  12.5752863
  80.3338697  68.5849124   0.5638755  81.2669370  68.5194686   0.7671630
  80.2461910  69.4205391   0.1053288  85.6604905  60.7676734  10.7319021
  85.6281225  59.8292735  10.9178705  86.2705529  60.8460771   9.9984846
  77.4988236  59.6372787  -3.2253775  78.4447341  59.5078995  -3.1565357
  77.1202481  58.8987449  -2.7484347  85.8099394  57.5587777  10.7777304
  85.2938442  56.7746234  10.5907233  86.6939342  57.2306494  10.9423824
  83.4710120  51.3028793   6.7373117  83.2734942  50.9943881   7.6216449
  84.0809826  52.0290432   6.8671047  91.4781455  61.8292741   9.8725058
  92.2084843  61.5678029  10.4332761  90.8688400  61.0921463   9.9127126
  89.5596752  59.9700603  10.4699509  88.8329916  59.8356568   9.8616001
  89.1444039  60.2777432  11.2756227  77.3826928  63.6890533  18.2346882
  78.3029938  63.8669132  18.4286929  77.3476511  62.7446578  18.0826581
  75.6831153  57.5622763  -3.2898890  74.7762608  57.2655876  -3.2136176
  75.9607134  57.2652581  -4.1564603  66.6009093  58.8829127   7.1600157
  66.2811878  58.0294435   6.8674531  66.0542522  59.0977705   7.9158124
  70.3789001  61.5991568  10.8769663  70.5975011  62.5308675  10.8957697
  70.7914775  61.2399542  11.6624467  77.2993219  52.1059653   2.8645352
  76.4893947  51.7606738   3.2400598  77.9877636  51.7967197   3.4532963
  79.2283767  51.1837700   4.4869648  79.7814806  51.6033153   5.1459671
  79.4653853  50.2573448   4.5292604  75.2516866  57.1724773  20.2672412
  75.1513593  58.1219130  20.1984503  75.0338408  56.8443012  19.3948482
  74.4529938  54.4209698  -3.1486910  75.3149102  54.7464597  -2.8891093
  74.6380282  53.6341194  -3.6613845  66.4697353  62.5032038   9.1293278
  65.7760825  62.0885991   8.6163233  67.2170344  62.5452575   8.5326697
  82.6062574  53.2938225   3.9948313  82.0261243  53.9523029   3.6126365
  82.3398507  52.4715569   3.5835730  81.0566141  52.6943283   6.1969633
  81.5565919  52.8059817   5.3883952  81.7001748  52.3904335   6.8370441
  75.1148136  60.6021912  19.0837474  74.6315218  61.4022272  19.2901363
  75.2009075  60.6129857  18.1304918  68.3834096  62.4350292   7.0059293
  68.3604784  62.5337979   6.0541176  68.6934732  63.2815443   7.3276459
  71.0421474  64.4926447  11.1205908  71.9964727  64.4610389  11.0535839
  70.8433997  64.0317071  11.9356134  71.6320856  63.0627563  13.6876705
  72.4513745  63.5571642  13.7111543  71.9057664  62.1459531  13.6594273
  81.3887452  55.4538315   3.0504661  80.5013307  55.7387966   2.8324856
  81.8041441  55.2932079   2.2031938  84.7401988  55.4784836   6.7659000
  85.5162378  55.9681289   7.0383617  84.0150122  55.9042890   7.2230870
  87.1774547  56.1912455   7.8232941  87.7719038  55.9508191   7.1126249
  87.2501131  55.4719586   8.4506477  69.3971703  70.0346066   8.1376106
  69.2626171  69.2746467   7.5714104  68.9803765  70.7586966   7.6704894
  81.3628476  60.9692851   3.2654951  81.3063677  61.4261403   2.4262583
  81.9156818  60.2083536   3.0877794  85.1733282  56.7582583   4.0905071
  84.9170216  56.3579219   4.9213278  84.5486150  57.4726377   3.9655210
  89.4845620  59.4978656   6.5976362  88.9245178  59.5671846   7.3707924
  88.8789123  59.3219641   5.8775858  72.5540829  70.9315383   8.3494548
  72.4373213  71.8760816   8.2473238  71.7333275  70.6288945   8.7380347
  82.4417363  65.6565519  -0.8048859  83.2762967  65.2246718  -0.9871384
  82.2801706  65.4847533   0.1228035  82.0963255  62.1597632   0.5607480
  82.0412059  61.9941904  -0.3804076  81.4709311  62.8673665   0.7169670
  66.8855770  57.3965697  14.3868902  67.5314634  56.8864651  14.8756128
  66.6772921  58.1334378  14.9612328  79.4109162  64.4646544  19.8861043
  80.2800322  64.6387197  19.5247678  78.9315914  65.2840961  19.7636772
  75.4059381  51.6605741   0.1392799  75.3938051  52.6047581   0.2961069
  76.2982803  51.4775887  -0.1547740  73.5795343  71.5843645  11.5650477
  74.4822589  71.6167256  11.8816972  73.3532713  70.6544096  11.5796812
  75.3348945  70.3374632   8.2260555  74.3844576  70.3376493   8.1124928
  75.6381431  69.5907366   7.7096590  79.2211500  48.2548518   4.3938735
  78.4543896  47.7007005   4.5395418  79.6322205  48.3270387   5.2552887
  71.2253261  54.5433314  18.4843917  72.0884723  54.1870119  18.6947241
  70.6518672  54.2047209  19.1719321  91.0701638  76.1735170   9.2906318
  91.7080048  76.0541918   8.5869658  90.9522481  77.1216014   9.3494270
  87.8791344  76.1262598   9.2267842  87.5409856  76.0103663   8.3388377
  88.7481113  75.7253763   9.2068848  88.3611127  77.2797450  15.1854048
  88.3499768  76.8850248  14.3134552  88.5231767  76.5463523  15.7787819
  81.2842592  79.4749266   8.0548954  82.0763884  79.1340091   7.6395253
  81.5239242  79.5844241   8.9751107  85.0818389  80.0634562  14.1333232
  84.7908255  80.9680193  14.0179898  85.7175373  80.1051089  14.8477301
  86.0074595  77.4411410  10.7234591  86.6038168  77.2167433  10.0091554
  86.0649567  76.6996156  11.3260039  93.5476754  67.5483431  11.7287113
  93.2160079  68.4178842  11.5048328  92.9522367  67.2319715  12.4081143
  90.0408274  79.7495977  11.1283026  89.7408997  80.6521016  11.0198833
  89.6959333  79.4828161  11.9804178  83.4920755  76.2009774   7.1619730
  82.5671252  76.0685988   7.3697422  83.7405168  76.9803993   7.6589672
  93.4405417  72.2678518   8.8080463  92.5322295  72.1993926   8.5139224
  93.3893013  72.7450462   9.6362288  80.8529566  75.8443048   7.9963519
  80.9821947  76.0977527   8.9102931  80.1727017  76.4370756   7.6768174
  87.5146283  73.6868163  16.7515360  86.7379617  74.2462083  16.7418225
  88.1536846  74.1724946  17.2730230  95.3067064  70.4694956  10.5858337
  94.6641444  70.7627489   9.9398131  94.8021992  70.3547876  11.3911533
  85.7692656  76.4953616  16.3133327  86.5107340  77.0338660  16.0368151
  85.0629641  77.1219905  16.4704879  91.2447995  78.6382757  14.9105489
  91.6531351  78.1965167  14.1660121  90.5225257  78.0635384  15.1639682
  87.5979065  73.5755364  12.2839046  88.4440260  73.9994777  12.4273695
  87.5377703  72.9188988  12.9777609  90.7478511  71.2359732  13.9420219
  90.5039442  71.9901793  13.4054495  91.0238441  71.6145080  14.7767466
  92.7016973  77.7798344  12.6197485  92.9133869  78.4230104  11.9431866
  92.6546722  76.9460661  12.1519415  90.3043202  70.3916165   9.5234057
  89.4427681  70.6897419   9.8150794  90.3305637  70.6086564   8.5915090
  84.0128853  78.4829837   8.8687626  84.5830210  78.9117106   8.2305110
  84.6036965  78.2012422   9.5671812  84.5054019  73.6493265  17.1148637
  83.8752680  74.3309546  17.3484034  84.3990107  73.5376346  16.1701775
  79.7998992  73.3165061   8.0414561  79.0098046  73.5722589   7.5654672
  80.2910239  74.1313399   8.1466602  81.7513737  73.6809640   4.9998038
  80.9544900  73.7928334   5.5181534  81.5239329  74.0196292   4.1338929
  87.5819405  80.2054343  12.9480553  87.6463837  80.6674750  13.7838724
  86.8730329  79.5751708  13.0762862  78.0836695  73.5695551  10.4729552
  78.3344733  74.4542561  10.7387128  78.6196243  73.3900153   9.7004644
  83.7834762  67.9514031  19.4773888  83.3901708  67.3980229  20.1521532
  84.6000902  68.2624609  19.8680406  86.7002723  69.3671910  17.0694145
  87.4412436  69.9679063  16.9898607  86.9320646  68.6249547  16.5112187
  81.8444061  74.5528277  15.3472374  81.7297576  73.6513534  15.6479473
  80.9888579  74.7991974  14.9957191  88.9235899  82.4946017  16.9459875
  88.4799753  81.7082396  16.6280780  89.5853112  82.6825168  16.2803766
  83.6823020  84.0241819  11.4720554  84.2330445  83.8958882  10.6997547
  82.8434496  84.3236708  11.1215446  91.0217137  82.7748817  14.9741276
  91.0035612  83.5957698  14.4821545  91.9437057  82.6502892  15.1991417
  87.4790191  80.2892947  15.8164785  88.0118528  79.5281235  15.5864093
  86.9504272  79.9966598  16.5588939  90.6459886  65.3953013  11.3458426
  90.3024155  66.2854654  11.2697537  91.0138849  65.2054670  10.4828011
  88.1957280  70.2311324   4.9116100  87.3398876  69.8418175   4.7321739
  88.6084231  70.3103285   4.0515885  89.7256426  67.7657668   9.3107660
  89.2221222  67.7287803   8.4975465  90.0187033  68.6750410   9.3704316
  85.9699312  67.8496397   8.3173841  86.8352309  67.6539206   7.9579731
  86.0376821  67.6206749   9.2443198  83.5761631  70.0798605   5.6890208
  84.1505383  69.8573787   4.9563401  84.1632614  70.1487300   6.4418810
  85.8784299  66.9539854   4.4165278  85.2248711  66.6388871   3.7921892
  85.8364773  66.3315595   5.1425101  89.1122039  73.4421788   8.7412925
  88.1944601  73.6636735   8.5834613  89.5282183  73.5168098   7.8824633
  92.4447552  64.6546572   6.4476164  92.7506428  63.7943935   6.1602079
  93.1700156  65.2464192   6.2475158  78.7371908  75.0577258   4.8357762
  78.5396307  74.4646619   4.1108829  78.1818572  74.7529469   5.5533701
  86.7168631  74.9500365   6.9552355  86.7717241  73.9974201   6.8794832
  85.9059833  75.1059804   7.4393654  84.6560991  73.5677425   4.7142734
  83.8428857  73.8671595   5.1207926  85.1519985  73.1733113   5.4317216
  90.2535203  74.0319249  13.5457628  90.6084591  74.2590722  14.4052094
  90.9007334  74.3637626  12.9234883  84.1475066  71.1395780  10.3303969
  84.7874445  70.9984539   9.6326932  83.3152597  70.8530293   9.9542571
  81.1503682  71.1096105   5.1076956  81.4110500  72.0241438   4.9986116
  81.9720855  70.6420548   5.2573569  82.6228608  72.5233862  12.2775780
  83.2951661  72.3151224  11.6288429  81.7958394  72.3255948  11.8381013
  88.5254180  69.1495803  14.2941441  87.8782095  69.8485753  14.2005918
  89.2955195  69.5831947  14.6617689  91.9332978  79.4144655  17.3691994
  91.7818484  79.1855207  16.4522078  91.9237657  80.3715257  17.3823339
  88.7018314  76.9876568  12.3538261  89.6310374  77.1387728  12.1807228
  88.2809344  77.0760589  11.4986907  87.5006646  81.0127232  10.1236799
  87.3617732  80.6446017  10.9962737  86.7121242  81.5274872   9.9520756
  83.0256105  75.7976465  13.0378217  82.8875903  75.0656704  13.6389757
  83.9361028  75.7085365  12.7562405  85.6538406  75.5096425  12.5261897
  86.3638024  74.8689617  12.4848516  85.6107714  75.7609319  13.4488078
  93.6425184  82.4463778  15.4468476  93.5837731  81.7622998  14.7799059
  94.0444703  83.1882768  14.9949102  84.3667340  72.4961642  14.3457537
  83.8304697  72.0452381  14.9979133  83.7784048  72.6307551  13.6028001
  93.6442592  80.4103362  13.6782456  92.7569370  80.0729284  13.8008855
  94.2141143  79.6786393  13.9151221  75.2971739  76.7427454   7.0025507
  75.9842779  76.4289184   6.4146523  75.1419867  77.6468818   6.7292759
  80.1006461  71.6317650  11.4310531  80.0164650  71.0243320  10.6960941
  79.2789167  72.1226668  11.4320027  90.2730175  70.1171214   6.7980726
  90.7698874  69.3641176   6.4781796  89.5017156  70.1535530   6.2323935
  86.8565144  72.2588597   6.5252411  86.4862931  71.7059637   7.2133316
  87.3524236  71.6546730   5.9727411  84.6854342  82.7186092  13.6207429
  85.3863802  83.3522575  13.7736823  84.2149457  83.0600823  12.8603068
  92.7149170  67.0840807   8.9460085  91.8012249  67.3145034   9.1142292
  93.1442271  67.1679251   9.7974117  92.4855628  75.2730699  11.4459979
  91.8327078  75.5206607  10.7912432  92.8636008  74.4594837  11.1122456
  88.5343201  76.0150510  17.9326016  87.8583838  75.9144639  18.6028391
  89.3570835  75.8589724  18.3962013  80.2822060  82.2522447  10.5538531
  80.8675497  81.5066135  10.6866436  80.0846899  82.5626403  11.4375195
  74.8739715  74.8228047   9.2742975  74.9123814  74.2891638  10.0680093
  74.3680008  74.2963252   8.6553952  82.2530477  69.6692587  12.7705517
  82.3171804  70.5307418  12.3582915  82.1897597  69.0566589  12.0377875
  81.7282750  71.7415720  16.4178551  82.3554789  71.3592797  17.0316075
  80.8710669  71.5229922  16.7834244  92.1276858  82.1478695  18.0232287
  92.6716762  82.7608653  17.5287241  91.5463703  82.7058274  18.5399300
  78.5048292  73.5492149   2.3496906  78.8001734  72.6402827   2.2963960
  77.6036328  73.5279889   2.0277908  82.0342539  71.6248146   8.3324455
  81.3129125  72.2384113   8.1931928  82.8235795  72.1605910   8.2541100
  84.8368853  68.9602572  14.6065106  85.3603255  69.2064869  15.3691416
  84.6181186  69.7922607  14.1868244  80.2336134  71.2306247   2.4736231
  79.9048840  70.3503626   2.2911337  80.5875505  71.1753915   3.3612620
  86.0421398  69.9016267  12.2914777  85.7018218  69.1024080  12.6935457
  85.3360404  70.2017978  11.7191610  86.6937870  66.9865580  10.7442100
  87.5163939  66.5126058  10.6220990  86.9375933  67.7656063  11.2440786
  84.2176449  73.6784700   8.5534078  84.0721029  73.9925003   9.4458360
  83.7401652  74.2969601   8.0004977  86.0772831  70.6687248   8.6014968
  86.0634400  69.7728342   8.2647266  86.7945260  70.6757912   9.2353254
  87.9298962  71.1024588  10.6468095  87.6716740  72.0241659  10.6452426
  87.3984003  70.7055023  11.3368560  78.6922111  76.2190045  11.4921740
  78.1475579  76.9949853  11.6242014  79.5701461  76.5660849  11.3340861
  85.4809727  69.5501629   3.8702538  85.6025639  68.6218275   4.0693426
  85.1911770  69.5640315   2.9580854  88.3500918  67.2356539   7.0069258
  88.3722615  67.2995872   6.0521238  88.7668977  66.3961048   7.2009764
  79.4788133  75.3459941  14.3851896  78.7369869  75.4942576  14.9716527
  79.1580877  75.6068207  13.5218646  87.4231795  84.8875919  14.1832286
  87.7318922  84.6425066  15.0554986  88.2207277  85.0922558  13.6951157
  78.1253351  81.1511696   7.3751225  77.2885260  80.7233870   7.1935226
  78.0976997  81.3444139   8.3122016  84.9650807  71.0633626  18.0792471
  85.0138962  71.9395749  17.6970240  85.5073321  70.5211019  17.5064114
  95.4505653  81.6074749  17.3593608  94.6601196  81.5898888  16.8198107
  95.2139007  82.1463043  18.1142644  95.5703528  78.4567216  14.6726336
  95.6201533  78.2917223  15.6141859  95.4617451  77.5894475  14.2824217
  92.8607290  74.4398144  15.9885643  93.7617153  74.3004608  15.6969641
  92.9355265  74.6052598  16.9283820  87.1950095  71.8164998  14.8338829
  86.3253405  72.1098564  14.5621418  87.4309576  72.4005443  15.5546093
  97.0721725  80.8764157  14.9168358  96.7806533  81.2394138  15.7531819
  96.4593856  80.1631165  14.7381690  95.3208913  75.9996772  13.3848416
  95.7963034  76.1924418  12.5767267  94.3974478  76.0555958  13.1391800
  89.8989129  68.0344615  12.3504250  90.4171073  68.7705642  12.0250738
  89.5444262  68.3408609  13.1851009  90.1501723  64.4544898   7.8705146
  90.4303477  63.7868087   8.4965573  90.9352330  64.6473993   7.3579810
  94.0210582  72.8762532  11.6176721  94.9728005  72.9760629  11.6388946
  93.8514032  72.0840800  12.1274806  92.0424961  69.9618115  11.8036122
  91.4474893  70.2423128  11.1082611  91.7574658  70.4512016  12.5752863
  96.6493148  72.8879695  10.7777304  96.1332197  72.1038152  10.5907233
  97.5333097  72.5598412  10.9423824  94.3103875  66.6320710   6.7373117
  94.1128696  66.3235799   7.6216449  94.9203581  67.3582349   6.8671047
  88.2220683  79.0182451  18.2346882  89.1423692  79.1961050  18.4286929
  88.1870266  78.0738496  18.0826581  77.4402848  74.2121044   7.1600157
  77.1205632  73.3586352   6.8674531  76.8936276  74.4269622   7.9158124
  81.2182755  76.9283485  10.8769663  81.4368765  77.8600593  10.8957697
  81.6308529  76.5691460  11.6624467  88.1386973  67.4351571   2.8645352
  87.3287702  67.0898656   3.2400598  88.8271390  67.1259114   3.4532963
  90.0677522  66.5129617   4.4869648  90.6208560  66.9325071   5.1459671
  90.3047608  65.5865365   4.5292604  86.0910621  72.5016691  20.2672412
  85.9907348  73.4511048  20.1984503  85.8732163  72.1734930  19.3948482
  77.3091108  77.8323956   9.1293278  76.6154579  77.4177909   8.6163233
  78.0564099  77.8744492   8.5326697  91.8959895  68.0235200   6.1969633
  92.3959673  68.1351735   5.3883952  92.5395503  67.7196253   6.8370441
  85.9541891  75.9313830  19.0837474  85.4708973  76.7314190  19.2901363
  86.0402830  75.9421775  18.1304918  79.2227850  77.7642210   7.0059293
  79.1998539  77.8629897   6.0541176  79.5328487  78.6107360   7.3276459
  81.8815228  79.8218365  11.1205908  82.8358482  79.7902307  11.0535839
  81.6827752  79.3608988  11.9356134  82.4714610  78.3919481  13.6876705
  83.2907499  78.8863559  13.7111543  82.7451418  77.4751449  13.6594273
  77.7249525  72.7257614  14.3868902  78.3708388  72.2156568  14.8756128
  77.5166676  73.4626296  14.9612328  90.2502917  79.7938462  19.8861043
  91.1194077  79.9679114  19.5247678  89.7709668  80.6132879  19.7636772
  84.4189097  86.9135563  11.5650477  85.3216344  86.9459173  11.8816972
  84.1926467  85.9836014  11.5796812  90.0605255  63.5840436   4.3938735
  89.2937650  63.0298922   4.5395418  90.4715960  63.6562304   5.2552887
  82.0647016  69.8725232  18.4843917  82.9278477  69.5162036  18.6947241
  81.4912426  69.5339126  19.1719321  94.6228516  83.2805948  19.4773888
  94.2295462  82.7272147  20.1521532  95.4394657  83.5916527  19.8680406
  97.5396477  84.6963827  17.0694145  98.2806191  85.2970980  16.9898607
  97.7714400  83.9541465  16.5112187  92.5676504  87.0707638  16.4178551
  93.1948543  86.6884715  17.0316075  91.7104423  86.8521840  16.7834244
  95.8044561  86.3925544  18.0792471  95.8532717  87.2687666  17.6970240
  96.3467076  85.8502937  17.5064114  96.9304375  87.8308609  20.2672412
  96.8301102  88.7802966  20.1984503  96.7125917  87.5026848  19.3948482
  88.5643279  88.0549532  14.3868902  89.2102143  87.5448486  14.8756128
  88.3560430  88.7918214  14.9612328  92.9040770  85.2017149  18.4843917
  93.7672232  84.8453954  18.6947241  92.3306181  84.8631044  19.1719321
  71.9637677  28.7942065   2.1713783  71.9050223  28.1101285   1.5044366
  72.3657195  29.5361055   1.7194409  70.4489351  28.4956982   4.7477593
  70.9929255  29.1086941   4.2532548  69.8676195  29.0536561   5.2644606
  73.7718145  27.9553036   4.0838914  72.9813689  27.9377175   3.5443414
  73.5351499  28.4941330   4.8387951  75.3934217  27.2242444   1.6413665
  75.1019025  27.5872425   2.4777125  74.7806348  26.5109453   1.4626997
  68.5715409  26.1416749   6.6106350  69.4406569  26.3157401   6.2492985
  68.0922161  26.9611166   6.4882079  80.2307885  37.8505375  -3.9848376
  80.8686295  37.7312122  -4.6885036  80.1128728  38.7986219  -3.9260424
  77.0397591  37.8032803  -4.0486851  76.7016103  37.6873868  -4.9366316
  77.9087359  37.4023968  -4.0685845  77.5217374  38.9567655   1.9099354
  77.5106015  38.5620453   1.0379858  77.6838014  38.2233728   2.5033126
  70.4448839  41.1519471  -5.2205740  71.2370131  40.8110296  -5.6359440
  70.6845489  41.2614446  -4.3003586  74.2424635  41.7404767   0.8578538
  73.9514501  42.6450398   0.7425205  74.8781620  41.7821294   1.5722608
  75.1680842  39.1181615  -2.5520102  75.7644414  38.8937638  -3.2663139
  75.2255814  38.3766361  -1.9494654  82.7083001  29.2253636  -1.5467581
  82.3766326  30.0949047  -1.7706366  82.1128614  28.9089920  -0.8673550
  79.2014520  41.4266182  -2.1471668  78.9015243  42.3291221  -2.2555861
  78.8565580  41.1598365  -1.2950515  82.6011664  33.9448722  -4.4674231
  81.6928542  33.8764131  -4.7615470  82.5499260  34.4220667  -3.6392405
  74.1835300  48.1910503  -9.1800700  74.1059330  49.1418328  -9.1012220
  73.5796944  47.8456375  -8.5225774  76.6752530  35.3638368   3.4760667
  75.8985864  35.9232288   3.4663531  77.3143093  35.8495151   3.9975537
  74.9298902  38.1723821   3.0378634  75.6713587  38.7108865   2.7613457
  74.2235888  38.7990110   3.1950186  80.4054242  40.3152962   1.6350795
  80.8137598  39.8735372   0.8905428  79.6831503  39.7405589   1.8884988
  76.7585312  35.2525569  -0.9915648  77.6046507  35.6764982  -0.8480999
  76.6983950  34.5959193  -0.2977085  80.7283057  40.8754153  -4.6096916
  80.0991919  41.0399867  -5.3120848  80.3408719  41.2895762  -3.8385952
  84.6072288  41.8108590  -7.2552552  83.9223327  42.1907492  -7.8055519
  84.6916138  42.4203917  -6.5220604  79.9084757  32.9129937   0.6665526
  79.6645689  33.6671998   0.1299802  80.1844688  33.2915285   1.5012773
  81.8623220  39.4568549  -0.6557209  82.0740115  40.1000309  -1.3322828
  81.8152968  38.6230866  -1.1235279  73.1735100  40.1600042  -4.4067068
  73.7436457  40.5887311  -5.0449583  73.7643211  39.8782627  -3.7082882
  73.6660266  35.3263470   3.8393944  73.0358927  36.0079750   4.0729341
  73.5596354  35.2146551   2.8947082  82.9769048  42.3340505  -2.4834851
  83.7986492  41.9320692  -2.7652170  82.9731451  42.2308739  -1.5318735
  76.7425651  41.8824548  -0.3274141  76.8070084  42.3444955   0.5084031
  76.0336575  41.2521913  -0.1991831  72.9441009  29.6284235   6.2019195
  72.5507954  29.0750434   6.8766839  73.7607149  29.9394814   6.5925712
  71.7197951  44.1833850  -7.8044482  71.8964580  45.1051815  -7.9923498
  72.5154785  43.8692269  -7.3750102  75.8608970  31.0442115   3.7939451
  76.6018683  31.6449268   3.7143914  76.0926893  30.3019752   3.2357494
  71.0050308  36.2298482   2.0717681  70.8903823  35.3283739   2.3724780
  70.1494826  36.4762179   1.7202498  78.0842146  44.1716222   3.6705182
  77.6406000  43.3852601   3.3526086  78.7459359  44.3595373   3.0049072
  72.8429267  45.7012024  -1.8034140  73.3936692  45.5729087  -2.5757146
  72.0040743  46.0006913  -2.1539247  80.1823384  44.4519022   1.6986583
  80.1641859  45.2727903   1.2066852  81.1043304  44.3273097   1.9236724
  76.6396438  41.9663152   2.5410091  77.1724775  41.2051440   2.3109399
  76.1110519  41.6736803   3.2834246  82.9841996  39.2898164  -4.8304050
  82.3265671  39.9797426  -4.7423922  83.7882396  39.6794596  -4.4870064
  78.2728286  35.1191993  -4.5341768  77.3550847  35.3406940  -4.6920080
  78.6888430  35.1938303  -5.3930061  82.5609251  42.6248539  -8.6520966
  82.1071579  41.7839448  -8.5955776  81.9303218  43.2609937  -8.3146186
  81.0042191  44.4625035  -7.7171148  81.2965165  45.0230092  -8.4358782
  81.5140811  44.7553596  -6.9617989  75.9675816  45.2405386  -6.6277695
  75.9251995  45.4666233  -7.5569163  76.8838515  45.0068761  -6.4791894
  79.4141450  35.7089454   0.2702935  79.7690837  35.9360927   1.1297400
  80.0613581  36.0407831  -0.3519810  85.1708566  40.8984417  -4.0136465
  85.6045073  40.8059706  -3.1653411  85.8840147  40.8741917  -4.6516449
  78.9036461  44.4986511  -2.4803364  78.9573483  45.0677447  -1.7125648
  78.0351243  44.6688396  -2.8449327  71.7834855  34.2004067  -0.9978913
  72.4557908  33.9921429  -1.6466264  70.9564641  34.0026153  -1.4373681
  86.0324116  40.9408117  -1.4803580  86.2260006  41.8453928  -1.2344305
  85.9324734  40.4815537  -0.6464994  77.6860427  30.8266008   1.0186748
  77.0388342  31.5255958   0.9251224  78.4561442  31.2602152   1.3862996
  81.0939224  41.0914860   4.0937301  80.9424731  40.8625412   3.1767385
  81.0843904  42.0485462   4.1068646  77.8624561  38.6646773  -0.9216432
  78.7916621  38.8157933  -1.0947465  77.4415591  38.7530794  -1.7767786
  76.6612893  42.6897437  -3.1517895  76.5223978  42.3216222  -2.2791957
  75.8727489  43.2045077  -3.3233937  77.2561045  47.7906534 -11.8092358
  77.4312800  47.3194577 -10.9946736  76.5693833  48.4172300 -11.5811098
  78.2118108  42.0679040  -5.7629057  77.8767940  42.0279810  -4.8671407
  77.7122053  41.4023756  -6.2358647  72.1862352  37.4746670  -0.2376476
  72.0482150  36.7426909   0.3635063  73.0967275  37.3855570  -0.5192288
  74.8144652  37.1866629  -0.7492796  75.5244271  36.5459822  -0.7906178
  74.7713961  37.4379524   0.1733385  82.8031431  44.1233983   2.1713783
  82.7443977  43.4393203   1.5044366  83.2050950  44.8652973   1.7194409
  73.5273586  34.1731847   1.0702843  72.9910943  33.7222586   1.7224440
  72.9390295  34.3077756   0.3273308  71.8222130  50.9395897  -5.0352498
  72.0618728  51.5714421  -4.3573480  70.9791326  50.5883937  -4.7487139
  82.8048838  42.0873567   0.4027763  81.9175617  41.7499489   0.5254162
  83.3747389  41.3556598   0.6396528  76.3349992  46.7475019  -2.6310994
  76.2620163  47.5529991  -2.1191690  75.8927385  46.9466985  -3.4562973
  76.1239771  45.9846789  -9.1208173  75.3407293  46.5268469  -9.0269948
  76.8232517  46.5020769  -8.7213931  78.7948675  46.6461853  -0.4752835
  79.5076648  47.2809318  -0.5476934  78.3038704  46.7425719  -1.2912834
  73.8460589  44.3956297   0.3452735  74.5470048  45.0292780   0.4982130
  73.3755704  44.7371028  -0.4151625  81.6461875  36.9500904  -1.8294714
  80.9933325  37.1976811  -2.4842262  82.0242255  36.1365042  -2.1632237
  78.6069049  46.9860597  -7.7266544  78.7891443  46.1682253  -7.2638792
  79.4302035  47.2028289  -8.1641654  78.9411214  45.9128782 -10.4651496
  79.4698981  45.4021237 -11.0781333  79.2039434  45.5971313  -9.6005963
  77.6949448  37.6920715   4.6571323  77.0190085  37.5914844   5.3273698
  78.5177082  37.5359929   5.1207320  69.4428307  43.9292652  -2.7216162
  70.0281744  43.1836340  -2.5888258  69.2453145  44.2396608  -1.8379498
  72.2966962  46.9643899  -7.7053720  71.6277337  47.4490027  -8.1889680
  72.1579832  47.2113119  -6.7910341  76.4372231  48.9987643  -1.1071061
  76.9890539  49.1619264  -0.3421976  76.7778424  49.5892080  -1.7791036
  70.8888996  33.4185925   3.1423858  71.5161035  33.0363002   3.7561382
  70.0316915  33.2000127   3.5079550  81.2883105  43.8248900   4.7477593
  81.8323009  44.4378858   4.2532548  80.7069950  44.3828478   5.2644606
  79.5740618  46.9469618  -4.1207379  79.4491757  46.1459358  -4.6296434
  80.2319709  47.4415811  -4.6093409  81.6375526  44.7478638  -2.4927829
  80.6905862  44.6283989  -2.5649502  81.9858299  43.8601136  -2.4101568
  73.9975100  30.6372777   1.3310413  74.5209502  30.8835074   2.0936722
  73.7787433  31.4692812   0.9113550  78.6421960  44.5431354  -6.2923477
  78.4946922  43.6148062  -6.1115907  79.4675453  44.5651445  -6.7766402
  82.2456082  45.3659913  -5.2058604  83.1702629  45.1602774  -5.3434153
  82.0771385  45.1176314  -4.2969263  75.2027645  31.5786472  -0.9839917
  74.8624465  30.7794285  -0.5819237  74.4966651  31.8788183  -1.5563083
  77.0905209  32.7794793  -2.6286598  76.8322987  33.7011864  -2.6302268
  76.5590249  32.3825228  -1.9386134  82.0351398  45.8845581  -9.8496513
  82.2088275  45.3192003 -10.6022660  82.5280289  46.6846475 -10.0317023
  67.8528358  37.8960250  -1.7832954  67.3081826  38.6720058  -1.6512679
  68.7307707  38.2431054  -1.9413832  68.6394379  37.0230146   1.1097203
  67.8976115  37.1712781   1.6961834  68.3187124  37.2838411   0.2463953
  76.5838042  46.5646124   0.9077593  76.8925168  46.3195271   1.7800293
  77.3813524  46.7692763   0.4196463  76.6058654  48.7184034  -6.8617030
  76.1663644  48.2260412  -6.1684174  77.3566771  48.1757001  -7.1024955
  69.0850993  44.9095575  -6.8592402  69.9109013  44.6099346  -7.2393759
  68.7345045  44.1403197  -6.4102614  74.0532526  44.2622043  -4.7894729
  73.4312536  43.5992748  -5.0892501  74.7237393  44.2883175  -5.4721081
  74.1257054  32.7403831   4.8037777  74.1745209  33.6165954   4.4215547
  74.6679568  32.1981224   4.2309421  84.6111899  43.2844954   4.0838914
  83.8207443  43.2669093   3.5443414  84.3745254  43.8233248   4.8387951
  84.7309774  40.1337420   1.3971643  84.7807779  39.9687428   2.3387166
  84.6223698  39.2664680   1.0069524  82.0213537  36.1168349   2.7130950
  82.9223400  35.9774813   2.4214947  82.0961511  36.2822803   3.6529127
  76.3556342  33.4935203   1.5584136  75.4859652  33.7868769   1.2866725
  76.5915823  34.0775648   2.2791400  86.2327971  42.5534362   1.6413665
  85.9412780  42.9164343   2.4777125  85.6200103  41.8401370   1.4626997
  84.4815160  37.6766977   0.1093722  84.9569281  37.8694623  -0.6987426
  83.5580725  37.7326162  -0.1362894  79.0595376  29.7114820  -0.9250444
  79.5777320  30.4475847  -1.2503955  78.7050509  30.0178813  -0.0903684
  83.1816829  34.5532737  -1.6577972  84.1334251  34.6530834  -1.6365748
  83.0120279  33.7611005  -1.1479888  81.2031208  31.6388320  -1.4718571
  80.6081140  31.9193333  -2.1672082  80.9180905  32.1282221  -0.7001830
  85.6604906  37.7738856  -2.5435672  85.6281226  36.8354857  -2.3575988
  86.2705530  37.8522893  -3.2769847  77.3826930  40.6952656   4.9592189
  78.3029939  40.8731255   5.1532235  77.3476513  39.7508701   4.8071888
  70.3789002  38.6053690  -2.3985030  70.5975012  39.5370798  -2.3796996
  70.7914776  38.2461665  -1.6130226  75.2516868  34.1786896   6.9917719
  75.1513594  35.1281253   6.9229810  75.0338410  33.8505135   6.1193789
  75.1148138  37.6084035   5.8082781  74.6315219  38.4084395   6.0146670
  75.2009077  37.6191980   4.8550225  71.0421475  41.4988569  -2.1548786
  71.9964729  41.4672512  -2.2218854  70.8433999  41.0379193  -1.3398560
  71.6320857  40.0689686   0.4122012  72.4513746  40.5633764   0.4356849
  71.9057665  39.1521654   0.3839579  69.3971704  47.0408189  -5.1378588
  69.2626172  46.2808590  -5.7040590  68.9803766  47.7649089  -5.6049799
  72.5540830  47.9377506  -4.9260145  72.4373214  48.8822938  -5.0281455
  71.7333276  47.6351068  -4.5374346  66.8855771  34.4027819   1.1114209
  67.5314635  33.8926773   1.6001434  66.6772923  35.1396501   1.6857634
  79.4109164  41.4708667   6.6106350  80.2800323  41.6449319   6.2492985
  78.9315915  42.2903084   6.4882079  73.5795344  48.5905768  -1.7104217
  74.4822591  48.6229378  -1.3937722  73.3532714  47.6606219  -1.6957881
  75.3348946  47.3436754  -5.0494138  74.3844577  47.3438616  -5.1629766
  75.6381432  46.5969489  -5.5658104  71.2253262  31.5495436   5.2089223
  72.0884724  31.1932241   5.4192548  70.6518673  31.2109331   5.8964628
  91.0701639  53.1797293  -3.9848376  91.7080049  53.0604040  -4.6885036
  90.9522482  54.1278137  -3.9260424  87.8791346  53.1324721  -4.0486851
  87.5409857  53.0165786  -4.9366316  88.7481114  52.7315886  -4.0685845
  88.3611129  54.2859573   1.9099354  88.3499769  53.8912371   1.0379858
  88.5231768  53.5525645   2.5033126  81.2842593  56.4811389  -5.2205740
  82.0763885  56.1402214  -5.6359440  81.5239243  56.5906364  -4.3003586
  85.0818390  57.0696684   0.8578538  84.7908256  57.9742315   0.7425205
  85.7175374  57.1113212   1.5722608  86.0074597  54.4473533  -2.5520102
  86.6038169  54.2229555  -3.2663139  86.0649568  53.7058278  -1.9494654
  93.5476755  44.5545554  -1.5467581  93.2160080  45.4240965  -1.7706366
  92.9522369  44.2381838  -0.8673550  90.0408275  56.7558100  -2.1471668
  89.7408998  57.6583139  -2.2555861  89.6959334  56.4890283  -1.2950515
  83.4920756  53.2071897  -6.1134963  82.5671253  53.0748111  -5.9057272
  83.7405170  53.9866116  -5.6165021  93.4405419  49.2740640  -4.4674231
  92.5322296  49.2056049  -4.7615470  93.3893014  49.7512585  -3.6392405
  80.8529567  52.8505170  -5.2791174  80.9821949  53.1039649  -4.3651763
  80.1727019  53.4432878  -5.5986519  87.5146284  50.6930286   3.4760667
  86.7379619  51.2524206   3.4663531  88.1536848  51.1787069   3.9975537
  85.7692657  53.5015739   3.0378634  86.5107341  54.0400783   2.7613457
  85.0629642  54.1282028   3.1950186  91.2447996  55.6444880   1.6350795
  91.6531352  55.2027290   0.8905428  90.5225258  55.0697507   1.8884988
  87.5979066  50.5817486  -0.9915648  88.4440262  51.0056900  -0.8480999
  87.5377704  49.9251111  -0.2977085  90.7478512  48.2421855   0.6665526
  90.5039444  48.9963915   0.1299802  91.0238442  48.6207202   1.5012773
  92.7016975  54.7860467  -0.6557209  92.9133870  55.4292227  -1.3322828
  92.6546723  53.9522784  -1.1235279  90.3043204  47.3978288  -3.7520636
  89.4427683  47.6959541  -3.4603899  90.3305638  47.6148687  -4.6839604
  84.0128854  55.4891960  -4.4067068  84.5830211  55.9179228  -5.0449583
  84.6036966  55.2074545  -3.7082882  84.5054021  50.6555387   3.8393944
  83.8752681  51.3371668   4.0729341  84.3990108  50.5438469   2.8947082
  79.7998993  50.3227183  -5.2340132  79.0098047  50.5784712  -5.7100021
  80.2910240  51.1375521  -5.1288092  81.7513738  50.6871763  -8.2756655
  80.9544902  50.7990457  -7.7573160  81.5239331  51.0258415  -9.1415765
  87.5819406  57.2116466  -0.3274141  87.6463838  57.6736873   0.5084031
  86.8730330  56.5813831  -0.1991831  78.0836696  50.5757674  -2.8025141
  78.3344734  51.4604684  -2.5367565  78.6196244  50.3962275  -3.5750049
  83.7834763  44.9576153   6.2019195  83.3901709  44.4042352   6.8766839
  84.6000904  45.2686732   6.5925712  86.7002724  46.3734032   3.7939451
  87.4412438  46.9741185   3.7143914  86.9320647  45.6311670   3.2357494
  81.8444062  51.5590399   2.0717681  81.7297577  50.6575657   2.3724780
  80.9888580  51.8054096   1.7202498  88.9235900  59.5008140   3.6705182
  88.4799754  58.7144518   3.3526086  89.5853114  59.6887290   3.0049072
  83.6823021  61.0303941  -1.8034140  84.2330446  60.9021005  -2.5757146
  82.8434497  61.3298830  -2.1539247  91.0217138  59.7810940   1.6986583
  91.0035613  60.6019821   1.2066852  91.9437058  59.6565015   1.9236724
  87.4790192  57.2955069   2.5410091  88.0118529  56.5343357   2.3109399
  86.9504273  57.0028721   3.2834246  89.7256428  44.7719790  -3.9647034
  89.2221223  44.7349925  -4.7779228  90.0187034  45.6812533  -3.9050377
  85.9699313  44.8558520  -4.9580852  86.8352310  44.6601329  -5.3174963
  86.0376822  44.6268872  -4.0311495  83.5761633  47.0860728  -7.5864485
  84.1505384  46.8635909  -8.3191292  84.1632615  47.1549422  -6.8335884
  89.1122041  50.4483910  -4.5341768  88.1944602  50.6698857  -4.6920080
  89.5282184  50.5230221  -5.3930061  78.7371909  52.0639381  -8.4396931
  78.5396309  51.4708742  -9.1645865  78.1818573  51.7591591  -7.7220993
  86.7168633  51.9562487  -6.3202338  86.7717242  51.0036324  -6.3959862
  85.9059835  52.1121926  -5.8361040  84.6560992  50.5739547  -8.5611959
  83.8428858  50.8733718  -8.1546767  85.1519987  50.1795236  -7.8437477
  90.2535204  51.0381372   0.2702935  90.6084592  51.2652845   1.1297400
  90.9007335  51.3699748  -0.3519810  84.1475067  48.1457903  -2.9450724
  84.7874447  48.0046662  -3.6427761  83.3152598  47.8592416  -3.3212122
  81.1503684  48.1158228  -8.1677738  81.4110501  49.0303561  -8.2768577
  81.9720856  47.6482670  -8.0181125  82.6228609  49.5295985  -0.9978913
  83.2951662  49.3213347  -1.6466264  81.7958396  49.3318071  -1.4373681
  88.5254181  46.1557926   1.0186748  87.8782096  46.8547875   0.9251224
  89.2955196  46.5894070   1.3862996  91.9332979  56.4206778   4.0937301
  91.7818485  56.1917330   3.1767385  91.9237658  57.3777379   4.1068646
  88.7018315  53.9938691  -0.9216432  89.6310375  54.1449850  -1.0947465
  88.2809345  54.0822711  -1.7767786  87.5006647  58.0189355  -3.1517895
  87.3617733  57.6508139  -2.2791957  86.7121243  58.5336994  -3.3233937
  83.0256106  52.8038588  -0.2376476  82.8875904  52.0718827   0.3635063
  83.9361030  52.7147488  -0.5192288  85.6538407  52.5158547  -0.7492796
  86.3638025  51.8751739  -0.7906178  85.6107715  52.7671442   0.1733385
  93.6425186  59.4525900   2.1713783  93.5837732  58.7685121   1.5044366
  94.0444704  60.1944890   1.7194409  84.3667341  49.5023765   1.0702843
  83.8304698  49.0514503   1.7224440  83.7784049  49.6369674   0.3273308
  93.6442593  57.4165484   0.4027763  92.7569372  57.0791406   0.5254162
  94.2141144  56.6848516   0.6396528  75.2971740  53.7489576  -6.2729186
  75.9842780  53.4351306  -6.8608171  75.1419869  54.6530941  -6.5461935
  80.1006462  48.6379773  -1.8444162  80.0164651  48.0305442  -2.5793752
  79.2789169  49.1288791  -1.8434666  86.8565145  49.2650719  -6.7502283
  86.4862932  48.7121760  -6.0621377  87.3524237  48.6608853  -7.3027283
  84.6854343  59.7248214   0.3452735  85.3863803  60.3584697   0.4982130
  84.2149458  60.0662946  -0.4151625  92.4855629  52.2792822  -1.8294714
  91.8327080  52.5268729  -2.4842262  92.8636009  51.4656960  -2.1632237
  88.5343202  53.0212633   4.6571323  87.8583839  52.9206762   5.3273698
  89.3570836  52.8651846   5.1207320  80.2822061  59.2584569  -2.7216162
  80.8675498  58.5128257  -2.5888258  80.0846900  59.5688526  -1.8379498
  74.8739716  51.8290170  -4.0011719  74.9123816  51.2953760  -3.2074601
  74.3680009  51.3025375  -4.6200742  82.2530478  46.6754710  -0.5049177
  82.3171805  47.5369541  -0.9171779  82.1897599  46.0628712  -1.2376818
  81.7282751  48.7477843   3.1423858  82.3554790  48.3654920   3.7561382
  80.8710670  48.5292044   3.5079550  92.1276860  59.1540818   4.7477593
  92.6716763  59.7670776   4.2532548  91.5463704  59.7120396   5.2644606
  78.5048294  50.5554272 -10.9257787  78.8001735  49.6464950 -10.9790734
  77.6036329  50.5342011 -11.2476785  82.0342541  48.6310268  -4.9430239
  81.3129126  49.2446236  -5.0822766  82.8235796  49.1668033  -5.0213593
  84.8368854  45.9664695   1.3310413  85.3603256  46.2126991   2.0936722
  84.6181187  46.7984730   0.9113550  80.2336135  48.2368369 -10.8018462
  79.9048841  47.3565748 -10.9843356  80.5875506  48.1816038  -9.9142073
  86.0421399  46.9078390  -0.9839917  85.7018220  46.1086203  -0.5819237
  85.3360406  47.2080101  -1.5563083  86.6937871  43.9927702  -2.5312594
  87.5163940  43.5188180  -2.6533703  86.9375935  44.7718186  -2.0313907
  84.2176450  50.6846823  -4.7220615  84.0721031  50.9987126  -3.8296333
  83.7401653  51.3031723  -5.2749716  86.0772833  47.6749371  -4.6739725
  86.0634401  46.7790464  -5.0107427  86.7945261  47.6820035  -4.0401439
  87.9298963  48.1086711  -2.6286598  87.6716741  49.0303782  -2.6302268
  87.3984004  47.7117146  -1.9386134  78.6922112  53.2252167  -1.7832954
  78.1475580  54.0011975  -1.6512679  79.5701462  53.5722972  -1.9413832
  79.4788134  52.3522064   1.1097203  78.7369870  52.5004699   1.6961834
  79.1580878  52.6130329   0.2463953  87.4231797  61.8938042   0.9077593
  87.7318923  61.6487189   1.7800293  88.2207279  62.0984680   0.4196463
  78.1253353  58.1573819  -5.9003469  77.2885261  57.7295993  -6.0819467
  78.0976998  58.3506262  -4.9632677  84.9650808  48.0695749   4.8037777
  85.0138964  48.9457871   4.4215547  85.5073322  47.5273142   4.2309421
  95.4505654  58.6136872   4.0838914  94.6601198  58.5961011   3.5443414
  95.2139008  59.1525165   4.8387951  95.5703529  55.4629338   1.3971643
  95.6201534  55.2979346   2.3387166  95.4617452  54.5956597   1.0069524
  92.8607291  51.4460266   2.7130950  93.7617154  51.3066731   2.4214947
  92.9355266  51.6114721   3.6529127  87.1950097  48.8227121   1.5584136
  86.3253406  49.1160687   1.2866725  87.4309577  49.4067566   2.2791400
  97.0721726  57.8826280   1.6413665  96.7806534  58.2456260   2.4777125
  96.4593857  57.1693288   1.4626997  95.3208914  53.0058894   0.1093722
  95.7963036  53.1986541  -0.6987426  94.3974479  53.0618080  -0.1362894
  89.8989130  45.0406738  -0.9250444  90.4171074  45.7767765  -1.2503955
  89.5444263  45.3470731  -0.0903684  94.0210583  49.8824654  -1.6577972
  94.9728006  49.9822752  -1.6365748  93.8514033  49.0902923  -1.1479888
  92.0424962  46.9680238  -1.4718571  91.4474895  47.2485250  -2.1672082
  91.7574659  47.4574139  -0.7001830  88.2220684  56.0244573   4.9592189
  89.1423694  56.2023172   5.1532235  88.1870267  55.0800619   4.8071888
  77.4402849  51.2183167  -6.1154537  77.1205634  50.3648475  -6.4080163
  76.8936277  51.4331745  -5.3596569  81.2182757  53.9345608  -2.3985030
  81.4368767  54.8662716  -2.3796996  81.6308531  53.5753582  -1.6130226
  86.0910622  49.5078814   6.9917719  85.9907349  50.4573171   6.9229810
  85.8732164  49.1797053   6.1193789  77.3091109  54.8386078  -4.1461415
  76.6154581  54.4240031  -4.6591461  78.0564100  54.8806615  -4.7427996
  85.9541892  52.9375952   5.8082781  85.4708974  53.7376313   6.0146670
  86.0402831  52.9483897   4.8550225  79.2227852  54.7704332  -6.2695400
  79.1998540  54.8692019  -7.2213517  79.5328488  55.6169483  -5.9478234
  81.8815230  56.8280487  -2.1548786  82.8358483  56.7964429  -2.2218854
  81.6827753  56.3671111  -1.3398560  82.4714612  55.3981603   0.4122012
  83.2907501  55.8925682   0.4356849  82.7451419  54.4813571   0.3839579
  77.7249526  49.7319737   1.1114209  78.3708390  49.2218691   1.6001434
  77.5166677  50.4688419   1.6857634  90.2502918  56.8000585   6.6106350
  91.1194078  56.9741237   6.2492985  89.7709670  57.6195001   6.4882079
  84.4189098  63.9197686  -1.7104217  85.3216345  63.9521296  -1.3937722
  84.1926468  62.9898136  -1.6957881  82.0647017  46.8787354   5.2089223
  82.9278479  46.5224159   5.4192548  81.4912428  46.5401249   5.8964628
  94.6228518  60.2868071   6.2019195  94.2295463  59.7334269   6.8766839
  95.4394658  60.5978649   6.5925712  97.5396479  61.7025950   3.7939451
  98.2806192  62.3033103   3.7143914  97.7714402  60.9603588   3.2357494
  92.5676505  64.0769760   3.1423858  93.1948544  63.6946838   3.7561382
  91.7104424  63.8583962   3.5079550  95.8044563  63.3987666   4.8037777
  95.8532718  64.2749789   4.4215547  96.3467077  62.8565059   4.2309421
  96.9304377  64.8370731   6.9917719  96.8301103  65.7865088   6.9229810
  96.7125919  64.5088970   6.1193789  88.5643280  65.0611655   1.1114209
  89.2102144  64.5510609   1.6001434  88.3560432  65.7980336   1.6857634
  92.9040771  62.2079272   5.2089223  93.7672233  61.8516077   5.4192548
  92.3306182  61.8693167   5.8964628   4.3524998  99.9946929  73.5178277
   3.5988706  99.4254327  73.3622282   4.4872539  99.9609594  74.4648912
   0.7173610 101.4354918  73.8144392   1.5520502 101.8744722  73.9781952
   0.8532739 100.9593571  72.9952638   4.7631413 100.1522539  76.2498522
   5.4934801  99.8907827  76.8106225   4.1538358  99.4151261  76.2900590
   2.8446710  98.2930402  76.8472973   2.1179873  98.1586367  76.2389464
   2.4293997  98.6007230  77.6529691   0.4624505  94.5142254  74.2006404
   1.0568996  94.2737990  73.4899713   0.5351088  93.7949385  74.8279941
   2.7695577  97.8208455  72.9749826   2.2095135  97.8901644  73.7481388
   2.1639081  97.6449440  72.2549322   3.9309844 103.7182811  77.7231890
   3.5874113 104.6084453  77.6471001   4.2988806 103.5284469  76.8601475
   5.7297509 102.9776370  72.8249628   6.0356386 102.1173734  72.5375543
   6.4550114 103.5693991  72.6248622   3.4351681 102.7774696  74.2478610
   3.7153435 102.1097886  74.8739037   4.2202288 102.9703792  73.7353274
   7.5953833 104.9550509  73.1146581   7.3978654 104.6465597  73.9989913
   8.2053538 105.6812148  73.2444511   3.3455212 101.9070234  70.7712199
   2.5787608 101.3528721  70.9168881   3.7565917 101.9792103  71.6326351
   4.3524999  77.0009052  60.2423584   3.5988707  76.4316450  60.0867588
   4.4872540  76.9671716  61.1894219   0.7173611  78.4417040  60.5389698
   1.5520503  78.8806844  60.7027259   0.8532740  77.9655694  59.7197944
   4.7631414  77.1584662  62.9743828   5.4934802  76.8969950  63.5351532
   4.1538359  76.4213384  63.0145896   2.8446711  75.2992524  63.5718279
   2.1179875  75.1648489  62.9634771   2.4293998  75.6069353  64.3774998
   0.4624506  71.5204377  60.9251711   1.0568997  71.2800113  60.2145019
   0.5351090  70.8011507  61.5525247   2.7695579  74.8270578  59.6995132
   2.2095137  74.8963767  60.4726694   2.1639082  74.6511562  58.9794629
   4.3551597  91.5027091  62.3925088   4.9930007  91.3833839  61.6888428
   4.2372440  92.4507935  62.4513040   1.1641303  91.4554520  62.3286613
   0.8259815  91.3395584  61.4407148   2.0331072  91.0545685  62.3087619
   1.6461086  92.6089371  68.2872818   1.6349727  92.2142170  67.4153322
   1.8081726  91.8755444  68.8806590   2.6027678  96.9760964  53.6297969
   1.9515658  97.5615044  53.2431982   3.3972041  97.5067159  53.6893006
   3.9092866  89.2278545  59.4678296   4.6955955  88.8097968  59.1168713
   4.1731570  90.1324637  59.6359944   4.0802943  94.6651396  54.1666953
   3.4448776  94.7386022  54.8787857   3.7500349  95.2544994  53.4886032
   9.3101293  89.1653778  60.3711275  10.0426465  88.5952995  60.6049104
   8.5540649  88.7775379  60.8117780   0.9277413  91.5881020  57.5674617
   0.5635620  91.0611641  58.2787538   1.7844528  91.1979489  57.3941102
   6.8326713  82.8775353  64.8305883   6.5010038  83.7470764  64.6067098
   6.2372327  82.5611637  65.5099914   3.3258233  95.0787899  64.2301796
   3.0258956  95.9812937  64.1217603   2.9809292  94.8120082  65.0822949
   6.7255376  87.5970439  61.9099233   5.8172254  87.5285847  61.6157994
   6.6742972  88.0742384  62.7381059   8.5917023  85.7986877  63.6877107
   7.9491403  86.0919410  63.0416902   8.0871951  85.6839798  64.4930304
   6.2457187  89.5450050  54.3762966   7.1575043  89.7777437  54.2010664
   5.7366834  90.1287095  53.8138045   4.5297954  93.9674678  68.0124259
   4.9381310  93.5257089  67.2678891   3.8075216  93.3927306  68.2658452
   0.8829024  88.9047285  65.3857816   1.7290219  89.3286699  65.5292465
   0.8227662  88.2480909  66.0796379   4.8526769  94.5275869  61.7676548
   4.2235631  94.6921583  61.0652616   4.4652431  94.9417478  62.5387512
   8.7316001  95.4630307  59.1220912   8.0467039  95.8429208  58.5717945
   8.8159850  96.0725633  59.8552859   4.0328470  86.5651653  67.0438990
   3.7889401  87.3193714  66.5073265   4.3088400  86.9437001  67.8786237
   5.9866932  93.1090266  65.7216255   6.1983828  93.7522026  65.0450636
   5.9396681  92.2752582  65.2538185   3.5893161  85.7208086  62.6252827
   2.7277640  86.0189340  62.9169565   3.6155596  85.9378485  61.6933860
   7.1012760  95.9862221  63.8938612   7.9230204  95.5842408  63.6121294
   7.0975163  95.8830455  64.8454728  15.1918753  92.3300970  60.2423584
  14.4382462  91.7608368  60.0867588  15.3266295  92.2963634  61.1894219
   0.5817381  97.2014372  55.9178303   0.4463056  98.0465908  56.3463151
   1.1227194  97.4033650  55.1544237   2.2085858  97.8237938  70.0478645
   1.7649712  97.0374317  69.7299550   2.8703071  98.0117089  69.3822536
   4.3067096  98.1040738  68.0760047   4.2885571  98.9249619  67.5840316
   5.2287016  97.9794814  68.3010188   3.9309845  80.7244934  64.4477197
   3.5874114  81.6146575  64.3716307   4.2988808  80.5346591  63.5846782
   3.8960128  90.7153545  52.9549632   3.3806751  91.4858150  53.1938019
   3.6237436  90.0418681  53.5782693   1.4807239  85.5603246  58.0134870
   0.6248835  85.1710096  57.8340509   1.8934190  85.6395206  57.1534656
   3.0106385  83.0949589  62.4126430   2.5071181  83.0579724  61.5994235
   3.3036992  84.0042332  62.4723087   8.8694402  93.4685900  54.8902805
   8.0923845  93.1297059  54.4457967   9.5485883  93.4738523  54.2157770
   3.6846431  88.5880637  54.7809413   3.3796566  88.9026786  55.6319556
   4.6376873  88.6662057  54.8236746   2.1292863  94.7470860  56.4302367
   1.6014224  94.0123620  56.1175604   1.6280365  95.5245537  56.1842335
   7.1085709  92.9419881  61.5469413   6.4509383  93.6319142  61.6349542
   7.9126108  93.3316313  61.8903400   5.9191168  91.2964253  59.5973355
   6.4323049  91.9294245  60.0995065   6.5692391  90.6965449  59.2316715
   3.1813542 101.2748578  52.3534026   2.5075241 101.5780275  52.9618984
   3.5679364 102.0777658  52.0039483   2.3971998  88.7713709  61.8431696
   1.4794560  88.9928656  61.6853384   2.8132142  88.8460020  60.9843403
   3.1807046  90.1705125  56.9734376   3.9278865  90.6826522  56.6641498
   3.4498636  89.8489177  57.8338769   1.4533696  92.6663665  53.9561330
   0.5444916  92.3822698  54.0533800   1.4828780  93.0862744  53.0964637
   6.6852964  96.2770255  57.7252498   6.2315291  95.4361165  57.7817688
   6.0546930  96.9131653  58.0627278   5.6285883  87.2062241  58.9553165
   4.8908640  86.6939627  59.2863408   5.8812657  86.7662623  58.1436442
   5.1285903  98.1146752  58.6602316   5.4208877  98.6751809  57.9414682
   5.6384524  98.4075313  59.4155475   5.7297511  79.9838493  59.5494934
   6.0356387  79.1235856  59.2620850   6.4550115  80.5756113  59.3493928
   1.1509784  94.2072409  51.2949409   0.7129214  93.4908268  50.8355046
   1.8920225  94.4348524  50.7334500   3.5385162  89.3611170  66.6476398
   3.8934550  89.5882643  67.5070864   4.1857293  89.6929547  66.0253654
   9.2682899  92.4829606  57.3525727   9.1300798  92.6731202  56.4246917
   8.9119118  93.2448989  57.8093778   9.2952279  94.5506133  62.3636999
   9.7288785  94.4581422  63.2120053  10.0083859  94.5263634  61.7257015
   3.0280173  98.1508227  63.8970099   3.0817196  98.7199164  64.6647815
   2.1594955  98.3210112  63.5324137  10.1567828  94.5929834  64.8969884
  10.3503718  95.4975644  65.1429159  10.0568446  94.1337253  65.7308469
   1.8104139  84.4787724  67.3960212   1.1632054  85.1777674  67.3024688
   2.5805154  84.9123868  67.7636460   5.2182937  94.7436577  70.4710765
   5.0668443  94.5147128  69.5540849   5.2087616  95.7007178  70.4842110
   1.9868273  92.3168489  65.4557031   2.9160333  92.4679649  65.2825999
   1.5659303  92.4052510  64.6005678   1.3804757 101.4428250  54.5681105
   1.5556513 100.9716293  55.3826728   0.6937545 102.0694016  54.7962366
   2.3361820  95.7200756  60.6144407   2.0011653  95.6801526  61.5102057
   1.8365766  95.0545472  60.1414817   5.2721012  93.0656791  50.8881466
   4.6550182  92.3403619  50.7914519   4.8037500  93.8266151  50.5448541
   6.9275143  97.7755699  68.5487247   6.8687690  97.0914919  67.8817830
   7.3294662  98.5174689  68.0967873   6.9292551  95.7395283  66.7801226
   6.0419329  95.4021205  66.9027625   7.4991102  95.0078314  67.0169992
   3.5580134  85.4463135  59.8999497   4.0548833  84.6933097  59.5800567
   2.7867115  85.4827452  59.3342706  11.4109891  91.1503500  61.5417788
  11.3999767  92.0328216  61.1711721  10.5427271  90.7975051  61.3472325
   2.9192388 100.2983569  65.9020628   3.6320360 100.9331034  65.8296530
   2.4282416 100.3947435  65.0860630   4.6409914  94.2034822  57.4737920
   3.7066193  94.3236285  57.3042624   4.8186583  93.3007289  57.2097930
   8.0282466  90.0452141  58.0087954   8.4942918  90.8780133  57.9348257
   8.4789966  89.5797123  58.7133213   6.0958697  96.3895963  55.0074106
   6.3718541  96.2752557  55.9167980   5.2263196  95.9913448  54.9686279
   5.9999129  82.4132728  62.0478855   5.0862208  82.6436955  62.2161062
   6.4292230  82.4971172  62.8992888   5.7705587  90.6022620  64.5478749
   5.1177037  90.8498528  63.8931202   6.1485967  89.7886759  64.2141227
   2.7312761 100.6382314  58.6506920   2.9135155  99.8203969  59.1134672
   3.5545747 100.8550006  58.2131810   3.0654926  99.5650499  55.9121968
   3.5942693  99.0542953  55.2992130   3.3283146  99.2493029  56.7767501
   1.8193160  91.3442431  71.0344787   1.1433797  91.2436561  71.7047162
   2.6420794  91.1881645  71.4980784   0.5615943 102.6509359  65.2702402
   1.1134251 102.8140980  66.0351488   0.9022136 103.2413797  64.5982427
   5.4126817  97.4770616  71.1251057   5.9566721  98.0900575  70.6306012
   4.8313662  98.0350195  71.6418070   3.6984330 100.5991334  62.2566085
   3.5735470  99.7981074  61.7477030   4.3563421 101.0937528  61.7680055
   5.7619239  98.4000354  63.8845635   4.8149574  98.2805706  63.8123961
   6.1102012  97.5122852  63.9671896   2.7665672  98.1953071  60.0849987
   2.6190634  97.2669778  60.2657557   3.5919165  98.2173161  59.6007062
   6.3699794  99.0181629  61.1714860   7.2946341  98.8124491  61.0339311
   6.2015097  98.7698031  62.0804201   2.7627186  86.0490908  55.0782104
   2.9790801  86.9315546  54.7770932   2.2821253  85.6577122  54.3487746
   1.2148921  86.4316510  63.7486866   0.9566699  87.3533580  63.7471196
   0.6833962  86.0346944  64.4387330   6.1595110  99.5367297  56.5276951
   6.3331988  98.9713719  55.7750804   6.6524001 100.3368192  56.3456441
   1.6350877  82.5648460  60.1088028   1.6572574  82.6287793  59.1540008
   2.0518936  81.7252969  60.3028534  12.0134501  92.3003720  58.1467251
  12.4565647  91.5511045  57.7486374  11.1361011  92.2913856  57.7640983
   7.1470282  98.8534061  53.6273849   7.8421187  99.4740754  53.8461164
   7.4893433  98.0029412  53.9026227   9.0461706  96.3033767  55.1561180
   9.5713030  96.6421040  54.4310500   8.9584058  95.3680782  54.9724315
   0.7081754 100.2167840  67.2851057   1.0168881  99.9716987  68.1573756
   1.5057236 100.4214479  66.7969927   8.7355612  96.9366670  70.4612378
   7.9451155  96.9190809  69.9216878   8.4988966  97.4754964  71.2161415
   8.8553487  93.7859137  67.7745107   8.9051492  93.6209144  68.7160629
   8.7467410  92.9186396  67.3842987   6.1457249  89.7690065  69.0904413
   7.0467112  89.6296530  68.7988411   6.2205224  89.9344520  70.0302591
  10.3571684  96.2056078  68.0187128  10.0656492  96.5686059  68.8550589
   9.7443815  95.4923087  67.8400460  11.5567366  93.7708958  60.5389698
  12.3914257  94.2098762  60.7027259  11.6926495  93.2947611  59.7197944
   8.6058872  91.3288693  66.4867186   9.0812993  91.5216339  65.6786038
   7.6824437  91.3847879  66.2410570   3.1839088  83.3636537  65.4523020
   3.7021032  84.0997563  65.1269509   2.8294221  83.6700530  66.2869779
   3.4351682  79.7836819  60.9723917   3.7153436  79.1160008  61.5984343
   4.2202289  79.9765915  60.4598581   1.2385151  98.9595813  52.5348943
   0.6659118  99.5786000  52.0819415   1.8117945  99.5095175  53.0688865
   7.3060541  88.2054453  64.7195492   8.2577964  88.3052551  64.7407716
   7.1363991  87.4132722  65.2293576   5.3274920  85.2910036  64.9054893
   4.7324852  85.5715049  64.2101381   5.0424617  85.7803937  65.6771634
   4.4582411  99.2432963  53.6657525   5.3913084  99.1778525  53.8690401
   4.3705624 100.0789230  53.2072058   7.0870427  98.5598833  50.6261473
   7.0084059  98.2258697  51.5197231   7.9080094  99.0520601  50.6252945
   9.7848619  91.4260573  63.8337791   9.7524939  90.4876573  64.0197475
  10.3949242  91.5044609  63.1003616   1.6231949  90.2956626  49.8764996
   2.5691054  90.1662834  49.9453414   1.2446194  89.5571288  50.3534424
   9.9343107  88.2171616  63.8796075   9.4182156  87.4330073  63.6926004
  10.8183056  87.8890333  64.0442594   7.5953834  81.9612632  59.8391887
   7.3978655  81.6527720  60.7235219   8.2053540  82.6874271  59.9689817
  15.6025168  92.4876580  62.9743828  16.3328557  92.2261868  63.5351532
  14.9932114  91.7505301  63.0145896  13.6840466  90.6284442  63.5718279
  12.9573629  90.4940407  62.9634771  13.2687752  90.9361271  64.3774998
   1.5070642  94.3474372  71.3365653   2.4273651  94.5252971  71.5305699
   1.4720225  93.4030417  71.1845352   1.4236932  82.7643492  55.9664122
   0.6137661  82.4190577  56.3419368   2.1121349  82.4551036  56.5551734
   3.3527481  81.8421539  57.5888419   3.9058519  82.2616992  58.2478442
   3.5897567  80.9157287  57.6311375   6.7306288  83.9522064  57.0967083
   6.1504957  84.6106868  56.7145135   6.4642220  83.1299408  56.6854500
   5.1809854  83.3527121  59.2988403   5.6809632  83.4643656  58.4902722
   5.8245462  83.0488174  59.9389212   5.5131166  86.1122154  56.1523431
   4.6257021  86.3971805  55.9343626   5.9285155  85.9515918  55.3050708
   8.8645702  86.1368675  59.8677770   9.6406092  86.6265128  60.1402387
   8.1393836  86.5626729  60.3249640  11.3018260  86.8496294  60.9251711
  11.8962751  86.6092030  60.2145019  11.3744844  86.1303425  61.5525247
   4.6574379  95.8766829  50.2471451   5.3610229  96.0816831  50.8629107
   3.9337028  96.4443591  50.5120535   5.4872189  91.6276690  56.3673721
   5.4307391  92.0845241  55.5281354   6.0400532  90.8667375  56.1896564
   9.2976995  87.4166422  57.1923841   9.0413930  87.0163058  58.0232049
   8.6729863  88.1310216  57.0673980  13.6089333  90.1562495  59.6995132
  13.0488891  90.2255685  60.4726694  13.0032837  89.9803480  58.9794629
   6.5661077  96.3149358  52.2969911   7.4006681  95.8830556  52.1147386
   6.4045420  96.1431372  53.2246806   6.2206969  92.8181471  53.6626251
   6.1655773  92.6525743  52.7214695   5.5953024  93.5257504  53.8188440
   3.5352876  95.1230383  72.9879813   4.4044036  95.2971035  72.6266448
   3.0559627  95.9424800  72.8655543   3.3455214  78.9132357  57.4957506
   2.5787609  78.3590844  57.6414188   3.7565919  78.9854226  58.3571657
  15.1945352 106.8319009  62.3925088  15.8323762 106.7125756  61.6888428
  15.0766195 107.7799853  62.4513040  12.0035058 106.7846437  62.3286613
  11.6653569 106.6687502  61.4407148  12.8724826 106.3837602  62.3087619
  12.4854841 107.9381289  68.2872818  12.4743482 107.5434087  67.4153322
  12.6475480 107.2047362  68.8806590   9.7043337 105.5534685  51.6603553
   9.9568858 105.0316206  50.8987016   8.7667896 105.3900830  51.7630236
  14.7486620 104.5570463  59.4678296  15.5349709 104.1389886  59.1168713
  15.0125324 105.4616555  59.6359944  20.1495047 104.4945696  60.3711275
  20.8820219 103.9244913  60.6049104  19.3934403 104.1067297  60.8117780
  11.7671167 106.9172938  57.5674617  11.4029374 106.3903559  58.2787538
  12.6238283 106.5271407  57.3941102  17.6720468  98.2067270  64.8305883
  17.3403792  99.0762681  64.6067098  17.0766081  97.8903554  65.5099914
  11.4076654 101.9462837  52.5635966  11.5751056 102.8143074  52.9306437
  11.2173823 102.1090119  51.6397255  17.5649131 102.9262356  61.9099233
  16.6566008 102.8577765  61.6157994  17.5136727 103.4034301  62.7381059
  11.3865875 104.4020495  53.5482632  11.2665500 104.8477546  54.3868113
  10.6918463 104.7505813  52.9896170  11.6389997 104.3452002  69.8534130
  10.8623331 104.9045922  69.8436995  12.2780560 104.8308785  70.3749001
  19.4310777 101.1278795  63.6877107  18.7885158 101.4211328  63.0416902
  18.9265706 101.0131715  64.4930304  17.0850941 104.8741968  54.3762966
  17.9968797 105.1069355  54.2010664  16.5760588 105.4579012  53.8138045
  11.7222779 104.2339203  65.3857816  12.5683974 104.6578616  65.5292465
  11.6621416 103.5772827  66.0796379  14.8722224 101.8943571  67.0438990
  14.6283156 102.6485632  66.5073265  15.1482155 102.2728919  67.8786237
  16.8260687 108.4382183  65.7216255  17.0377582 109.0813943  65.0450636
  16.7790435 107.6044500  65.2538185  14.4286916 101.0500004  62.6252827
  13.5671395 101.3481258  62.9169565  14.4549350 101.2670403  61.6933860
  10.1817371 105.7165347  55.8416198  10.8841415 106.1686391  56.3090124
   9.8498000 105.0749166  56.4696091   8.6297733 104.3077104  70.2167407
   7.9996393 104.9893384  70.4502804   8.5233821 104.1960185  69.2720546
   3.9242705 103.9748900  61.1433332   3.1341759 104.2306428  60.6673442
   4.4153953 104.7897237  61.2485372   5.8757451 104.3393479  58.1016808
   5.0788614 104.4512173  58.6200304   5.6483043 104.6780131  57.2357699
  26.0312508 107.6592887  60.2423584  25.2776216 107.0900285  60.0867588
  26.1660049 107.6255552  61.1894219   7.9078476  98.6097869  72.5792659
   7.5145421  98.0564068  73.2540303   8.7244616  98.9208448  72.9699176
  10.8246437 100.0255749  70.1712915  11.5656150 100.6262902  70.0917378
  11.0564359  99.2833386  69.6130958  14.7703599  96.0536851  64.4477197
  14.4267869  96.9438493  64.3716307  15.1382562  95.8638509  63.5846782
  14.7353882 106.0445463  52.9549632  14.2200506 106.8150067  53.1938019
  14.4631191 105.3710599  53.5782693  12.3200993 100.8895163  58.0134870
  11.4642590 100.5002014  57.8340509  12.7327945 100.9687124  57.1534656
  13.8500140  98.4241507  62.4126430  13.3464935  98.3871642  61.5994235
  14.1430747  99.3334249  62.4723087  10.0943026  98.5080236  61.4192612
  10.9596023  98.3123045  61.0598501  10.1620535  98.2790588  62.3461969
  19.7088156 108.7977817  54.8902805  18.9317599 108.4588977  54.4457967
  20.3879637 108.8030440  54.2157770  14.5240185 103.9172555  54.7809413
  14.2190321 104.2318704  55.6319556  15.4770627 103.9953975  54.8236746
  17.9479463 108.2711798  61.5469413  17.2903138 108.9611060  61.6349542
  18.7519862 108.6608230  61.8903400   7.7005345 100.7382444  58.7908979
   8.2749097 100.5157626  58.0582172   8.2876327 100.8071139  59.5437580
  16.7584922 106.6256171  59.5973355  17.2716804 107.2586163  60.0995065
  17.4086146 106.0257367  59.2316715   8.0274932 102.7686905  52.8104864
   7.1912244 103.1061592  53.1314139   7.8879702 102.6335885  51.8732001
  10.0028013  97.6123693  57.5184048   9.3492425  97.2972710  56.8940663
   9.9608487  96.9899434  58.2443871  13.2365753 104.1005627  61.8431696
  12.3188314 104.3220574  61.6853384  13.6525897 104.1751937  60.9843403
  14.0200801 105.4997042  56.9734376  14.7672620 106.0118440  56.6641498
  14.2892390 105.1781095  57.8338769  16.4679638 102.5354159  58.9553165
  15.7302395 102.0231545  59.2863408  16.7206411 102.0954540  58.1436442
  16.5691265  95.3130411  59.5494934  16.8750142  94.4527774  59.2620850
  17.2943870  95.9048031  59.3493928  10.8412345 105.6084204  60.0571126
  10.8960955 104.6558040  59.9813602  10.0303547 105.7643643  60.5412424
   8.7804705 104.2261263  57.8161504   7.9672570 104.5255434  58.2226697
   9.2763699 103.8316952  58.5335987  14.3778916 104.6903088  66.6476398
  14.7328304 104.9174561  67.5070864  15.0251048 105.0221465  66.0253654
  20.1076653 107.8121524  57.3525727  19.9694552 108.0023120  56.4246917
  19.7512872 108.5740907  57.8093778   8.2718780 101.7979619  63.4322739
   8.9118159 101.6568378  62.7345703   7.4396310 101.5114132  63.0561341
  20.1346033 109.8798051  62.3636999  20.5682540 109.7873340  63.2120053
  20.8477614 109.8555551  61.7257015   5.3561847 105.2425131  55.6217484
   4.4259435 105.1809587  55.8387447   5.4519319 104.7201084  54.8254126
   5.2747396 101.7679944  58.2095726   5.5354213 102.6825277  58.1004887
   6.0964568 101.3004387  58.3592339   6.7472321 103.1817701  65.3794551
   7.4195375 102.9735063  64.7307200   5.9202108 102.9839787  64.9399783
  20.9961583 109.9221751  64.8969884  21.1897473 110.8267562  65.1429159
  20.8962201 109.4629171  65.7308469  12.6497893  99.8079642  67.3960212
  12.0025808 100.5069592  67.3024688  13.4198909 100.2415786  67.7636460
  12.8262028 107.6460407  65.4557031  13.7554088 107.7971567  65.2825999
  12.4053058 107.7344428  64.6005678  16.1114766 108.3948708  50.8881466
  15.4943937 107.6695537  50.7914519  15.6431255 109.1558069  50.5448541
   9.7782119 106.1680263  65.6280667  10.4881738 105.5273456  65.5867286
   9.7351427 106.4193158  66.5506848   8.4911053 103.1545481  67.4476307
   7.9548410 102.7036220  68.0997903   7.9027762 103.2891390  66.7046771
   7.9013312 102.6134133  50.0102771   7.0242778 102.4922934  49.6465017
   8.3771065 101.8220211  49.7581659   4.2250174 102.2901489  64.5329301
   4.1408363 101.6827159  63.7979711   3.4032881 102.7810507  64.5338798
  14.3973888 100.7755053  59.8999497  14.8942588 100.0225015  59.5800567
  13.6260870 100.8119369  59.3342706  22.2503646 106.4795418  61.5417788
  22.2393522 107.3620134  61.1711721  21.3821025 106.1266969  61.3472325
  10.9808857 102.9172436  59.6271181  10.6106645 102.3643476  60.3152087
  11.4767949 102.3130569  59.0746181  18.8676220 105.3744059  58.0087954
  19.3336673 106.2072051  57.9348257  19.3183721 104.9089041  58.7133213
  16.8392883  97.7424646  62.0478855  15.9255963  97.9728873  62.2161062
  17.2685985  97.8263090  62.8992888  16.6099342 105.9314538  64.5478749
  15.9570792 106.1790445  63.8931202  16.9879721 105.1178676  64.2141227
  12.6586915 106.6734349  71.0344787  11.9827552 106.5728478  71.7047162
  13.4814548 106.5173563  71.4980784   6.3774191 100.3276426  65.8724287
   6.4415517 101.1891257  65.4601685   6.3141311  99.7150428  65.1396646
   5.8526463 102.3999559  69.5197321   6.4798502 102.0176636  70.1334846
   4.9954382 102.1813761  69.8853014   2.6292006 104.2075988  55.4515676
   2.9245447 103.2986666  55.3982730   1.7280042 104.1863727  55.1296679
   6.1586253 102.2831985  61.4343225   5.4372839 102.8967952  61.2950698
   6.9479509 102.8189749  61.3559871   8.9612567  99.6186411  67.7083877
   9.4846968  99.8648708  68.4710186   8.7424900 100.4506446  67.2887014
   4.3579848 101.8890086  55.5755001   4.0292554 101.0087465  55.3930107
   4.7119218 101.8337754  56.4631391   7.4721671 102.1763055  55.9430479
   7.8117743 102.7048977  55.2209087   7.9193791 102.5143462  56.7189046
  10.1665112 100.5600106  65.3933547   9.8261932  99.7607919  65.7954227
   9.4604118 100.8601817  64.8210380  10.8181583  97.6449419  63.8460870
  11.6407653  97.1709897  63.7239761  11.0619647  98.4239902  64.3459556
   9.4589818 100.6737677  54.1423772  10.1798180 101.0518930  53.6387489
   8.8355122 101.3926554  54.2458750  13.6020941 101.3782826  55.0782104
  13.8184555 102.2607464  54.7770932  13.1215008 100.9869039  54.3487746
   8.3420162 104.3368539  61.6552849   8.1964743 104.6508842  62.5477130
   7.8645366 104.9553440  61.1023747  10.2016545 101.3271087  61.7033738
  10.1878114 100.4312181  61.3666036  10.9188973 101.3341751  62.3372024
  12.0542676 101.7608427  63.7486866  11.7960454 102.6825498  63.7471196
  11.5227716 101.3638862  64.4387330   9.6053441 100.2085467  56.9721308
   9.7269352  99.2802114  57.1712196   9.3155483 100.2224153  56.0599624
  12.4744631  97.8940378  60.1088028  12.4966328  97.9579711  59.1540008
  12.8912690  97.0544887  60.3028534  22.8528256 107.6295637  58.1467251
  23.2959402 106.8802963  57.7486374  21.9754766 107.6205774  57.7640983
   9.0894520 101.7217465  71.1811241   9.1382676 102.5979588  70.7989011
   9.6317035 101.1794858  70.6082884  19.6947241 109.1151054  67.7745107
  19.7445246 108.9501062  68.7160629  19.5861165 108.2478313  67.3842987
  16.9851004 105.0981982  69.0904413  17.8860866 104.9588447  68.7988411
  17.0598978 105.2636437  70.0302591  11.3193809 102.4748837  67.9357600
  10.4497118 102.7682403  67.6640188  11.5553289 103.0589282  68.6564863
  22.3961120 109.1000876  60.5389698  23.2308012 109.5390680  60.7027259
  22.5320249 108.6239529  59.7197944  19.4452626 106.6580611  66.4867186
  19.9206748 106.8508257  65.6786038  18.5218192 106.7139796  66.2410570
  14.0232843  98.6928454  65.4523020  14.5414787  99.4289481  65.1269509
  13.6687976  98.9992447  66.2869779   5.6031780 103.5533135  53.5684426
   4.9101025 103.6277490  52.9124462   5.3583532 102.7893479  54.0905943
  14.2745437  95.1128737  60.9723917  14.5547191  94.4451926  61.5984343
  15.0596044  95.3057832  60.4598581  18.1454295 103.5346371  64.7195492
  19.0971718 103.6344468  64.7407716  17.9757746 102.7424639  65.2293576
  16.1668675 100.6201954  64.9054893  15.5718607 100.9006967  64.2101381
  15.8818371 101.1095855  65.6771634  20.6242373 106.7552490  63.8337791
  20.5918693 105.8168491  64.0197475  21.2342997 106.8336527  63.1003616
  12.4625704 105.6248543  49.8764996  13.4084809 105.4954751  49.9453414
  12.0839949 104.8863205  50.3534424  20.7736862 103.5463534  63.8796075
  20.2575910 102.7621990  63.6926004  21.6576810 103.2182250  64.0442594
  18.4347588  97.2904549  59.8391887  18.2372410  96.9819638  60.7235219
  19.0447294  98.0166188  59.9689817  26.4418923 107.8168497  62.9743828
  27.1722311 107.5553785  63.5351532  25.8325868 107.0797219  63.0145896
  24.5234220 105.9576360  63.5718279  23.7967384 105.8232325  62.9634771
  24.1081507 106.2653188  64.3774998  10.6468621 103.5498520  49.8119881
   9.7400076 103.2531632  49.8882594  10.9244602 103.2528338  48.9454167
  12.2630687  98.0935409  55.9664122  11.4531415  97.7482494  56.3419368
  12.9515104  97.7842953  56.5551734  14.1921235  97.1713456  57.5888419
  14.7452274  97.5908910  58.2478442  14.4291321  96.2449204  57.6311375
  10.2154334 103.1600530  73.3691183  10.1151061 104.1094887  73.3003274
   9.9975876 102.8318769  72.4967253   9.4167406 100.4085455  49.9531860
  10.2786570 100.7340353  50.2127677   9.6017750  99.6216951  49.4404926
  17.5700042  99.2813981  57.0967083  16.9898711  99.9398785  56.7145135
  17.3035975  98.4591326  56.6854500  16.0203609  98.6819039  59.2988403
  16.5203387  98.7935574  58.4902722  16.6639216  98.3780092  59.9389212
  16.3524920 101.4414072  56.1523431  15.4650775 101.7263722  55.9343626
  16.7678909 101.2807835  55.3050708  19.7039456 101.4660593  59.8677770
  20.4799846 101.9557045  60.1402387  18.9787591 101.8918647  60.3249640
  22.1412015 102.1788212  60.9251711  22.7356506 101.9383948  60.2145019
  22.2138599 101.4595343  61.5525247  16.3265944 106.9568608  56.3673721
  16.2701145 107.4137159  55.5281354  16.8794286 106.1959292  56.1896564
  20.1370750 102.7458340  57.1923841  19.8807684 102.3454975  58.0232049
  19.5123618 103.4602134  57.0673980  24.4483088 105.4854413  59.6995132
  23.8882646 105.5547602  60.4726694  23.8426591 105.3095397  58.9794629
  17.0600723 108.1473389  53.6626251  17.0049527 107.9817660  52.7214695
  16.4346779 108.8549422  53.8188440   1.8493238 103.3841453  67.4887673
   2.4952102 102.8740407  67.9774898   1.6410389 104.1210135  68.0631098
  10.3696849  97.6481498  53.2411569  10.3575519  98.5923338  53.3979840
  11.2620271  97.4651643  52.9471030  14.1848968  94.2424275  57.4957506
  13.4181364  93.6882761  57.6414188  14.5959673  94.3146143  58.3571657
   6.1890729 100.5309070  71.5862687   7.0522191 100.1745875  71.7966012
   5.6156140 100.1922965  72.2738091  25.6097354 111.3828769  64.4477197
  25.2661623 112.2730411  64.3716307  25.9776317 111.1930427  63.5846782
  27.4085020 110.6422328  59.5494934  27.7143896 109.7819692  59.2620850
  28.1337624 111.2339949  59.3493928  25.1139191 110.4420654  60.9723917
  25.3940945 109.7743843  61.5984343  25.8989798 110.6349750  60.4598581
  29.2741343 112.6196467  59.8391887  29.0766164 112.3111555  60.7235219
  29.8841049 113.3458106  59.9689817  25.0242723 109.5716192  57.4957506
  24.2575118 109.0174679  57.6414188  25.4353428 109.6438061  58.3571657
   4.3525000  54.0071175  46.9668891   3.5988709  53.4378573  46.8112895
   4.4872541  53.9733839  47.9139525   0.7173613  55.4479163  47.2635005
   1.5520504  55.8868967  47.4272565   0.8532741  54.9717816  46.4443251
   4.7631415  54.1646784  49.6989135   5.4934804  53.9032073  50.2596838
   4.1538361  53.4275506  49.7391203   2.8446712  52.3054647  50.2963586
   2.1179876  52.1710612  49.6880078   2.4293999  52.6131476  51.1020304
   0.4624507  48.5266499  47.6497018   1.0568998  48.2862235  46.9390326
   0.5351091  47.8073630  48.2770554   2.7695580  51.8332700  46.4240439
   2.2095138  51.9025889  47.1972001   2.1639083  51.6573685  45.7039935
   4.3551598  68.5089214  49.1170395   4.9930008  68.3895961  48.4133735
   4.2372441  69.4570058  49.1758347   1.1641305  68.4616642  49.0531919
   0.8259816  68.3457707  48.1652454   2.0331073  68.0607807  49.0332925
   1.6461088  69.6151494  55.0118125   1.6349728  69.2204292  54.1398629
   1.8081727  68.8817566  55.6051896   2.6027679  73.9823086  40.3543275
   1.9515659  74.5677167  39.9677289   3.3972042  74.5129281  40.4138313
   3.9092867  66.2340668  46.1923603   4.6955956  65.8160091  45.8414020
   4.1731571  67.1386760  46.3605251   4.0802944  71.6713518  40.8912259
   3.4448777  71.7448145  41.6033164   3.7500351  72.2607117  40.2131339
   9.3101294  66.1715901  47.0956581  10.0426466  65.6015118  47.3294411
   8.5540650  65.7837502  47.5363087   0.9277414  68.5943143  44.2919924
   0.5635621  68.0673764  45.0032845   1.7844530  68.2041612  44.1186409
   6.8326714  59.8837475  51.5551190   6.5010039  60.7532886  51.3312405
   6.2372328  59.5673759  52.2345220   3.3258234  72.0850021  50.9547103
   3.0258957  72.9875060  50.8462910   2.9809293  71.8182204  51.8068255
   6.7255378  64.6032561  48.6344540   5.8172255  64.5347970  48.3403301
   6.6742974  65.0804506  49.4626365   8.5917024  62.8049000  50.4122414
   7.9491404  63.0981533  49.7662208   8.0871953  62.6901920  51.2175610
   6.2457188  66.5512173  41.1008273   7.1575044  66.7839560  40.9255971
   5.7366835  67.1349217  40.5383352   4.5297955  70.9736801  54.7369566
   4.9381311  70.5319211  53.9924198   3.8075217  70.3989428  54.9903759
   0.8829026  65.9109408  52.1103123   1.7290221  66.3348821  52.2537772
   0.8227663  65.2543032  52.8041686   4.8526770  71.5337991  48.4921854
   4.2235633  71.6983706  47.7897922   4.4652432  71.9479601  49.2632819
   8.7316002  72.4692429  45.8466218   8.0467040  72.8491331  45.2963252
   8.8159851  73.0787756  46.5798166   4.0328471  63.5713776  53.7684296
   3.7889403  64.3255836  53.2318572   4.3088401  63.9499124  54.6031543
   5.9866934  70.1152388  52.4461562   6.1983829  70.7584148  51.7695943
   5.9396682  69.2814705  51.9783492   3.5893163  62.7270209  49.3498134
   2.7277642  63.0251463  49.6414871   3.6155597  62.9440608  48.4179167
   7.1012762  72.9924344  50.6183919   7.9230205  72.5904531  50.3366601
   7.0975164  72.8892578  51.5700035  15.1918755  69.3363092  46.9668891
  14.4382463  68.7670490  46.8112895  15.3266296  69.3025757  47.9139525
   0.5817383  74.2076494  42.6423610   0.4463057  75.0528030  43.0708458
   1.1227195  74.4095772  41.8789544   2.2085859  74.8300061  56.7723952
   1.7649713  74.0436440  56.4544857   2.8703073  75.0179212  56.1067843
   4.3067097  75.1102861  54.8005353   4.2885572  75.9311742  54.3085622
   5.2287017  74.9856936  55.0255494   3.9309846  57.7307056  51.1722503
   3.5874116  58.6208698  51.0961614   4.2988809  57.5408714  50.3092088
   3.8960129  67.7215667  39.6794939   3.3806752  68.4920272  39.9183326
   3.6237437  67.0480804  40.3028000   1.4807240  62.5665368  44.7380177
   0.6248836  62.1772219  44.5585816   1.8934192  62.6457329  43.8779962
   3.0106387  60.1011712  49.1371737   2.5071182  60.0641847  48.3239542
   3.3036993  61.0104454  49.1968393   8.8694403  70.4748022  41.6148112
   8.0923846  70.1359182  41.1703274   9.5485884  70.4800645  40.9403077
   3.6846432  65.5942760  41.5054720   3.3796568  65.9088909  42.3564863
   4.6376874  65.6724179  41.5482053   2.1292864  71.7532983  43.1547674
   1.6014226  71.0185742  42.8420911   1.6280367  72.5307659  42.9087642
   7.1085710  69.9482003  48.2714720   6.4509384  70.6381265  48.3594849
   7.9126109  70.3378435  48.6148706   5.9191169  68.3026376  46.3218662
   6.4323051  68.9356368  46.8240371   6.5692393  67.7027572  45.9562022
   3.1813543  78.2810700  39.0779333   2.5075242  78.5842397  39.6864291
   3.5679365  79.0839781  38.7284790   2.3972000  65.7775832  48.5677002
   1.4794561  65.9990779  48.4098690   2.8132143  65.8522142  47.7088710
   3.1807047  67.1767247  43.6979683   3.9278866  67.6888645  43.3886805
   3.4498637  66.8551300  44.5584076   1.4533698  69.6725788  40.6806637
   0.5444917  69.3884821  40.7779107   1.4828781  70.0924867  39.8209944
   6.6852965  73.2832378  44.4497804   6.2315292  72.4423287  44.5062995
   6.0546932  73.9193776  44.7872585   5.6285885  64.2124364  45.6798472
   4.8908641  63.7001750  46.0108714   5.8812658  63.7724745  44.8681749
   5.1285904  75.1208874  45.3847623   5.4208879  75.6813931  44.6659988
   5.6384525  75.4137435  46.1400782   5.7297512  56.9900616  46.2740241
   6.0356389  56.1297979  45.9866156   6.4550117  57.5818236  46.0739235
   1.1509785  71.2134532  38.0194715   0.7129215  70.4970391  37.5600353
   1.8920226  71.4410647  37.4579807   3.5385163  66.3673293  53.3721705
   3.8934551  66.5944766  54.2316171   4.1857294  66.6991670  52.7498960
   9.2682900  69.4891729  44.0771034   9.1300799  69.6793325  43.1492223
   8.9119119  70.2511112  44.5339085   9.2952280  71.5568256  49.0882305
   9.7288786  71.4643545  49.9365359  10.0083860  71.5325756  48.4502321
   3.0280175  75.1570350  50.6215406   3.0817197  75.7261286  51.3893122
   2.1594956  75.3272235  50.2569443  10.1567829  71.5991956  51.6215191
  10.3503719  72.5037767  51.8674466  10.0568447  71.1399375  52.4553776
   1.8104140  61.4849847  54.1205518   1.1632055  62.1839797  54.0269995
   2.5805155  61.9185991  54.4881766   5.2182938  71.7498699  57.1956071
   5.0668444  71.5209251  56.2786155   5.2087617  72.7069301  57.2087416
   1.9868274  69.3230612  52.1802338   2.9160334  69.4741771  52.0071305
   1.5659304  69.4114633  51.3250984   1.3804758  78.4490373  41.2926412
   1.5556514  77.9778416  42.1072035   0.6937546  79.0756139  41.5207673
   2.3361821  72.7262879  47.3389713   2.0011654  72.6863649  48.2347363
   1.8365767  72.0607595  46.8660124   5.2721013  70.0718913  37.6126773
   4.6550184  69.3465742  37.5159826   4.8037501  70.8328274  37.2693847
   6.9275145  74.7817822  55.2732553   6.8687691  74.0977042  54.6063136
   7.3294663  75.5236812  54.8213179   6.9292552  72.7457406  53.5046533
   6.0419331  72.4083327  53.6272932   7.4991103  72.0140437  53.7415298
   3.5580135  62.4525257  46.6244803   4.0548835  61.6995220  46.3045873
   2.7867117  62.4889574  46.0588012  11.4109892  68.1565623  48.2663095
  11.3999769  69.0390338  47.8957028  10.5427272  67.8037174  48.0717632
   2.9192389  77.3045692  52.6265935   3.6320361  77.9393157  52.5541836
   2.4282417  77.4009558  51.8105937   4.6409916  71.2096945  44.1983227
   3.7066194  71.3298407  44.0287931   4.8186584  70.3069411  43.9343236
   8.0282467  67.0514264  44.7333261   8.4942919  67.8842256  44.6593563
   8.4789968  66.5859246  45.4378519   6.0958698  73.3958085  41.7319413
   6.3718542  73.2814680  42.6413287   5.2263197  72.9975570  41.6931586
   5.9999130  59.4194851  48.7724162   5.0862210  59.6499078  48.9406369
   6.4292231  59.5033295  49.6238194   5.7705588  67.6084743  51.2724056
   5.1177039  67.8560650  50.6176509   6.1485968  66.7948881  50.9386533
   2.7312762  77.6444436  45.3752226   2.9135157  76.8266092  45.8379979
   3.5545748  77.8612128  44.9377116   3.0654928  76.5712621  42.6367275
   3.5942694  76.0605076  42.0237437   3.3283147  76.2555151  43.5012808
   1.8193161  68.3504554  57.7590093   1.1433798  68.2498683  58.4292468
   2.6420795  68.1943768  58.2226090   0.5615944  79.6571481  51.9947709
   1.1134252  79.8203103  52.7596794   0.9022138  80.2475919  51.3227734
   5.4126819  74.4832739  57.8496364   5.9566723  75.0962697  57.3551318
   4.8313663  75.0412317  58.3663377   3.6984332  77.6053457  48.9811391
   3.5735471  76.8043197  48.4722337   4.3563423  78.0999650  48.4925361
   5.7619240  75.4062477  50.6090941   4.8149575  75.2867828  50.5369268
   6.1102013  74.5184975  50.6917203   2.7665673  75.2015193  46.8095294
   2.6190636  74.2731901  46.9902864   3.5919167  75.2235284  46.3252369
   6.3699795  76.0243752  47.8960166   7.2946343  75.8186613  47.7584617
   6.2015098  75.7760153  48.8049508   2.7627188  63.0553031  41.8027411
   2.9790802  63.9377669  41.5016239   2.2821255  62.6639244  41.0733053
   1.2148922  63.4378632  50.4732172   0.9566700  64.3595703  50.4716503
   0.6833963  63.0409067  51.1632637   6.1595111  76.5429419  43.2522258
   6.3331989  75.9775842  42.4996110   6.6524002  77.3430314  43.0701748
   1.6350878  59.5710583  46.8333335   1.6572575  59.6349916  45.8785315
   2.0518937  58.7315091  47.0273841  12.0134502  69.3065842  44.8712558
  12.4565648  68.5573168  44.4731681  11.1361013  69.2975979  44.4886290
   7.1470284  75.8596184  40.3519156   7.8421188  76.4802877  40.5706471
   7.4893434  75.0091535  40.6271534   9.0461707  73.3095889  41.8806487
   9.5713031  73.6483162  41.1555807   8.9584059  72.3742905  41.6969621
   0.7081756  77.2229963  54.0096363   1.0168882  76.9779110  54.8819063
   1.5057238  77.4276601  53.5215234   8.7355613  73.9428793  57.1857685
   7.9451157  73.9252932  56.6462184   8.4988968  74.4817087  57.9406721
   8.8553488  70.7921259  54.4990413   8.9051493  70.6271267  55.4405936
   8.7467411  69.9248518  54.1088294   6.1457250  66.7752187  55.8149720
   7.0467113  66.6358652  55.5233718   6.2205225  66.9406642  56.7547897
  10.3571685  73.2118201  54.7432435  10.0656493  73.5748181  55.5795896
   9.7443816  72.4985209  54.5645767  11.5567367  70.7771081  47.2635005
  12.3914259  71.2160885  47.4272565  11.6926496  70.3009734  46.4443251
   8.6058873  68.3350816  53.2112493   9.0812995  68.5278462  52.4031344
   7.6824438  68.3910001  52.9655877   3.1839090  60.3698659  52.1768327
   3.7021033  61.1059686  51.8514815   2.8294222  60.6762652  53.0115086
   3.4351684  56.7898942  47.6969223   3.7153437  56.1222131  48.3229650
   4.2202291  56.9828037  47.1843887   1.2385152  75.9657936  39.2594250
   0.6659119  76.5848123  38.8064722   1.8117946  76.5157297  39.7934172
   7.3060542  65.2116576  51.4440798   8.2577965  65.3114673  51.4653023
   7.1363992  64.4194844  51.9538883   5.3274922  62.2972159  51.6300199
   4.7324854  62.5777172  50.9346688   5.0424618  62.7866060  52.4016940
   4.4582412  76.2495086  40.3902832   5.3913085  76.1840647  40.5935707
   4.3705625  77.0851353  39.9317365   7.0870429  75.5660956  37.3506780
   7.0084060  75.2320820  38.2442537   7.9080095  76.0582724  37.3498252
   9.7848620  68.4322695  50.5583098   9.7524940  67.4938696  50.7442782
  10.3949243  68.5106732  49.8248923   1.6231951  67.3018748  36.6010302
   2.5691055  67.1724956  36.6698720   1.2446196  66.5633410  37.0779730
   9.9343108  65.2233739  50.6041381   9.4182157  64.4392195  50.4171310
  10.8183057  64.8952455  50.7687901   7.5953835  58.9674754  46.5637194
   7.3978656  58.6589842  47.4480526   8.2053541  59.6936393  46.6935124
  15.6025170  69.4938702  49.6989135  16.3328558  69.2323990  50.2596838
  14.9932115  68.7567424  49.7391203  13.6840467  67.6346565  50.2963586
  12.9573630  67.5002530  49.6880078  13.2687754  67.9423393  51.1020304
   1.5070643  71.3536494  58.0610959   2.4273653  71.5315093  58.2551006
   1.4720226  70.4092540  57.9090658   1.4236934  59.7705614  42.6909429
   0.6137662  59.4252699  43.0664675   2.1121351  59.4613158  43.2797040
   3.3527482  58.8483661  44.3133725   3.9058520  59.2679115  44.9723748
   3.5897568  57.9219409  44.3556681   6.7306289  60.9584186  43.8212390
   6.1504958  61.6168990  43.4390442   6.4642222  60.1361531  43.4099807
   5.1809855  60.3589244  46.0233710   5.6809634  60.4705779  45.2148029
   5.8245463  60.0550297  46.6634518   5.5131167  63.1184277  42.8768738
   4.6257022  63.4033927  42.6588933   5.9285156  62.9578040  42.0296015
   8.8645703  63.1430798  46.5923077   9.6406093  63.6327250  46.8647694
   8.1393837  63.5688852  47.0494947  11.3018262  63.8558417  47.6497018
  11.8962753  63.6154153  46.9390326  11.3744845  63.1365548  48.2770554
   4.6574380  72.8828951  36.9716758   5.3610231  73.0878954  37.5874413
   3.9337029  73.4505713  37.2365841   5.4872191  68.6338813  43.0919028
   5.4307392  69.0907364  42.2526660   6.0400533  67.8729497  42.9141871
   9.2976997  64.4228545  43.9169148   9.0413931  64.0225180  44.7477355
   8.6729865  65.1372338  43.7919287  13.6089334  67.1624618  46.4240439
  13.0488892  67.2317807  47.1972001  13.0032838  66.9865602  45.7039935
   6.5661078  73.3211481  39.0215218   7.4006682  72.8892679  38.8392693
   6.4045421  73.1493494  39.9492112   6.2206970  69.8243594  40.3871557
   6.1655774  69.6587865  39.4460001   5.5953025  70.5319627  40.5433747
   3.5352877  72.1292506  59.7125120   4.4044037  72.3033158  59.3511755
   3.0559629  72.9486923  59.5900849   3.3455215  55.9194480  44.2202812
   2.5787611  55.3652966  44.3659495   3.7565920  55.9916348  45.0816964
  15.1945353  83.8381132  49.1170395  15.8323763  83.7187879  48.4133735
  15.0766196  84.7861976  49.1758347  12.0035059  83.7908560  49.0531919
  11.6653571  83.6749625  48.1652454  12.8724827  83.3899725  49.0332925
   7.8621875  85.6444036  45.0428810   7.2986740  85.5533973  44.2745098
   7.7474270  84.8243941  45.5231303  12.4854842  84.9443412  55.0118125
  12.4743483  84.5496210  54.1398629  12.6475482  84.2109484  55.6051896
   5.4086307  87.1395228  47.8813031   6.2007599  86.7986052  47.4659330
   5.6482957  87.2490203  48.8015184  13.4421434  89.3115004  40.3543275
  12.7909413  89.8969084  39.9677289  14.2365796  89.8421199  40.4138313
   7.3677061  86.4004141  40.7530410   8.1407937  85.8533128  40.6143285
   7.7202460  87.2648390  40.9644871   9.2062103  87.7280523  53.9597309
   8.9151969  88.6326154  53.8443975   9.8419088  87.7697051  54.6741378
  10.1318310  85.1057372  50.5498668  10.7281882  84.8813394  49.8355631
  10.1893282  84.3642117  51.1524116   9.7043339  82.5596807  38.3848859
   9.9568859  82.0378328  37.6232322   8.7667898  82.3962953  38.4875543
  14.7486621  81.5632586  46.1923603  15.5349711  81.1452009  45.8414020
  15.0125326  82.4678678  46.3605251  14.9196699  87.0005436  40.8912259
  14.2842532  87.0740062  41.6033164  14.5894105  87.5899035  40.2131339
  20.1495049  81.5007819  47.0956581  20.8820220  80.9307036  47.3294411
  19.3934404  81.1129419  47.5363087   9.4239627  84.4624913  40.5873234
   9.3075885  83.7869817  41.2554319   9.5341887  83.9757287  39.7705387
  11.7671168  83.9235060  44.2919924  11.4029375  83.3965681  45.0032845
  12.6238284  83.5333529  44.1186409  17.6720469  75.2129393  51.5551190
  17.3403794  76.0824804  51.3312405  17.0766082  74.8965677  52.2345220
  11.4076655  78.9524960  39.2881272  11.5751058  79.8205196  39.6551743
  11.2173824  79.1152242  38.3642561  14.1651988  87.4141939  50.9547103
  13.8652712  88.3166978  50.8462910  13.8203048  87.1474122  51.8068255
   7.6164470  83.8655736  46.9883807   6.6914966  83.7331950  47.1961499
   7.8648883  84.6449955  47.4853749  17.5649132  79.9324479  48.6344540
  16.6566010  79.8639887  48.3403301  17.5136728  80.4096424  49.4626365
  11.3865876  81.4082617  40.2727939  11.2665501  81.8539668  41.1113419
  10.6918465  81.7567935  39.7141477   4.9773281  83.5089009  47.8227596
   5.1065662  83.7623488  48.7367008   4.2970732  84.1016717  47.5032251
   9.1472768  94.1786259  43.9218070   9.0696798  95.1294084  44.0006551
   8.5434412  93.8332132  44.5792997  11.6389998  81.3514125  56.5779437
  10.8623332  81.9108045  56.5682302  12.2780561  81.8370908  57.0994307
  19.4310779  78.1340917  50.4122414  18.7885159  78.4273451  49.7662208
  18.9265707  78.0193838  51.2175610  17.0850942  81.8804091  41.1008273
  17.9968798  82.1131477  40.9255971  16.5760589  82.4641135  40.5383352
   9.8936370  84.1599578  56.1397404  10.6351055  84.6984622  55.8632228
   9.1873356  84.7865867  56.2968956  15.3691710  86.3028718  54.7369566
  15.7775066  85.8611129  53.9924198  14.6468971  85.7281346  54.9903759
  11.7222780  81.2401325  52.1103123  12.5683975  81.6640739  52.2537772
  11.6621418  80.5834950  52.8041686  15.6920525  86.8629909  48.4921854
  15.0629387  87.0275623  47.7897922  15.3046187  87.2771519  49.2632819
  19.5709756  87.7984347  45.8466218  18.8860795  88.1783248  45.2963252
  19.6553606  88.4079674  46.5798166  14.8722225  78.9005694  53.7684296
  14.6283157  79.6547754  53.2318572  15.1482156  79.2791041  54.6031543
  16.8260688  85.4444306  52.4461562  17.0377583  86.0876066  51.7695943
  16.7790436  84.6106623  51.9783492  14.4286917  78.0562127  49.3498134
  13.5671396  78.3543380  49.6414871  14.4549352  78.2732526  48.4179167
  11.2448486  86.6004317  45.7571940  11.7086832  86.8792020  44.9676562
  10.9805285  85.6987762  45.5745030   8.1372568  86.1475799  48.6951703
   8.7073925  86.5763067  48.0569187   8.7280679  85.8658383  49.3935889
  10.1817373  82.7227470  42.5661505  10.8841416  83.1748513  43.0335431
   9.8498001  82.0811288  43.1941398   8.6297734  81.3139226  56.9412714
   7.9996395  81.9955507  57.1748111   8.5233822  81.2022308  55.9965852
   3.9242706  80.9811022  47.8678638   3.1341760  81.2368551  47.3918749
   4.4153954  81.7959360  47.9730679  17.9406516  88.3216261  50.6183919
  18.7623960  87.9196449  50.3366601  17.9368919  88.2184496  51.5700035
   5.8757452  81.3455601  44.8262115   5.0788615  81.4574296  45.3445611
   5.6483044  81.6842254  43.9603006  11.7063119  87.8700305  52.7744630
  11.7707552  88.3320712  53.6102801  10.9974043  87.2397670  52.9026939
   2.2080409  81.2341513  50.2993629   2.4588448  82.1188523  50.5651205
   2.7439958  81.0546114  49.5268721  26.0312509  84.6655010  46.9668891
  25.2776217  84.0962408  46.8112895  26.1660050  84.6317674  47.9139525
  11.4211137  89.5368412  42.6423610  11.2856812  90.3819948  43.0708458
  11.9620950  89.7387690  41.8789544   7.9078477  75.6159992  59.3037965
   7.5145422  75.0626191  59.9785609   8.7244617  75.9270570  59.6944483
   4.8740535  87.0543850  43.2151535   5.3865055  87.8487100  43.3657100
   5.5263247  86.3570141  43.1485136   6.6835419  90.1709606  45.2974288
   6.8602048  91.0927571  45.1095272   7.4792253  89.8568026  45.7268668
  10.8246438  77.0317871  56.8958222  11.5656151  77.6325024  56.8162684
  11.0564361  76.2895509  56.3376264   5.9687776  82.2174238  55.1736451
   5.8541291  81.3159496  55.4743550   5.1132294  82.4637935  54.8221268
  13.0479614  90.1591979  56.7723952  12.6043468  89.3728357  56.4544857
  13.7096827  90.3471129  56.1067843   7.8066735  91.6887780  51.2984631
   8.3574160  91.5604844  50.5261624   6.9678211  91.9882669  50.9479523
  15.1460852  90.4394779  54.8005353  15.1279327  91.2603660  54.3085622
  16.0680772  90.3148854  55.0255494  11.6033906  87.9538908  55.6428862
  12.1362243  87.1927196  55.4128170  11.0747987  87.6612560  56.3853016
  14.7703601  73.0598974  51.1722503  14.4267870  73.9500616  51.0961614
  15.1382563  72.8700632  50.3092088   2.8389451  85.3832505  43.9911106
   3.6764673  85.7929513  43.7744813   3.0167719  84.4431947  43.9611299
  14.7353883  83.0507585  39.6794939  14.2200507  83.8212190  39.9183326
  14.4631192  82.3772721  40.3028000  12.3200994  77.8957286  44.7380177
  11.4642591  77.5064136  44.5585816  12.7327946  77.9749247  43.8779962
  13.8500141  75.4303629  49.1371737  13.3464937  75.3933764  48.3239542
  14.1430748  76.3396372  49.1968393  10.0943027  75.5142359  48.1437918
  10.9596024  75.3185168  47.7843808  10.1620536  75.2852711  49.0707275
  19.7088158  85.8039940  41.6148112  18.9317600  85.4651099  41.1703274
  20.3879639  85.8092563  40.9403077  14.5240187  80.9234677  41.5054720
  14.2190322  81.2380826  42.3564863  15.4770629  81.0016097  41.5482053
  12.9686618  87.0824901  43.1547674  12.4407980  86.3477660  42.8420911
  12.4674121  87.8599577  42.9087642  17.9479464  85.2773921  48.2714720
  17.2903139  85.9673182  48.3594849  18.7519864  85.6670353  48.6148706
   7.7005346  77.7444567  45.5154285   8.2749098  77.5219748  44.7827478
   8.2876329  77.8133261  46.2682887  16.7584923  83.6318294  46.3218662
  17.2716805  84.2648286  46.8240371  17.4086147  83.0319489  45.9562022
   8.0274933  79.7749028  39.5350170   7.1912245  80.1123714  39.8559445
   7.8879703  79.6398008  38.5977307  10.0028014  74.6185816  44.2429355
   9.3492426  74.3034833  43.6185969   9.9608488  73.9961556  44.9689178
  11.1139219  84.9005111  36.1582647  10.2066280  84.6694364  36.3573796
  11.6110251  84.1042730  36.3456628  14.0207298  93.6102618  39.0779333
  13.3468996  93.9134315  39.6864291  14.4073119  94.4131698  38.7284790
  13.2365754  81.1067749  48.5677002  12.3188316  81.3282696  48.4098690
  13.6525898  81.1814060  47.7088710  14.0200802  82.5059165  43.6979683
  14.7672621  83.0180562  43.3886805  14.2892391  82.1843218  44.5584076
  12.2927452  85.0017706  40.6806637  11.3838671  84.7176739  40.7779107
  12.3222536  85.4216784  39.8209944  17.5246719  88.6124295  44.4497804
  17.0709047  87.7715205  44.5062995  16.8940686  89.2485694  44.7872585
  16.4679639  79.5416281  45.6798472  15.7302396  79.0293667  46.0108714
  16.7206413  79.1016663  44.8681749  15.9679659  90.4500792  45.3847623
  16.2602633  91.0105849  44.6659988  16.4778279  90.7429353  46.1400782
  16.5691266  72.3192533  46.2740241  16.8750143  71.4589897  45.9866156
  17.2943871  72.9110153  46.0739235   2.8615622  82.7223220  44.6621839
   2.6640022  82.1292581  43.9372906   2.3062286  82.4175430  45.3797778
  10.8412346  82.6146326  46.7816432  10.8960956  81.6620163  46.7058909
  10.0303548  82.7705765  47.2657731  11.9903540  86.5426449  38.0194715
  11.5522970  85.8262308  37.5600353  12.7313981  86.7702564  37.4579807
   8.7804706  81.2323386  44.5406811   7.9672572  81.5317557  44.9472003
   9.2763700  80.8379075  45.2581293  10.9313284  91.2281143  46.4741076
  10.8889463  91.4541989  45.5449608  11.8475983  90.9944518  46.6226877
  14.3778918  81.6965211  53.3721705  14.7328305  81.9236684  54.2316171
  15.0251049  82.0283587  52.7498960  20.1076655  84.8183646  44.0771034
  19.9694553  85.0085242  43.1492223  19.7512873  85.5803029  44.5339085
   8.2718781  78.8041742  50.1568046   8.9118160  78.6630501  49.4591009
   7.4396311  78.5176255  49.7806648  20.1346034  86.8860173  49.0882305
  20.5682541  86.7935463  49.9365359  20.8477615  86.8617674  48.4502321
   9.0479085  88.1044172  46.2703038   9.8419683  87.6094492  46.0685613
   8.3370777  87.5762035  45.9070744  13.8673929  90.4862268  50.6215406
  13.9210951  91.0553204  51.3893122  12.9988711  90.6564153  50.2569443
   5.3561848  82.2487254  42.3462791   4.4259436  82.1871709  42.5632753
   5.4519320  81.7263206  41.5499432   5.2747397  78.7742067  44.9341033
   5.5354215  79.6887400  44.8250193   6.0964570  78.3066509  45.0837646
   6.7472323  80.1879824  52.1039857   7.4195376  79.9797186  51.4552506
   5.9202109  79.9901910  51.6645090  20.9961584  86.9283874  51.6215191
  21.1897474  87.8329685  51.8674466  20.8962202  86.4691293  52.4553776
  12.6497895  76.8141765  54.1205518  12.0025810  77.5131714  54.0269995
  13.4198910  77.2477909  54.4881766  16.0576692  87.0790617  57.1956071
  15.9062199  86.8501169  56.2786155  16.0481372  88.0361218  57.2087416
  12.8262029  84.6522530  52.1802338  13.7554089  84.8033689  52.0071305
  12.4053059  84.7406550  51.3250984  11.6250361  88.6773194  49.9500876
  11.4861446  88.3091978  50.8226814  10.8364957  89.1920833  49.7784833
  12.2198513  93.7782290  41.2926412  12.3950268  93.3070334  42.1072035
  11.5331301  94.4048057  41.5207673  13.1755576  88.0554797  47.3389713
  12.8405408  88.0155567  48.2347363  12.6759522  87.3899513  46.8660124
   7.1499820  83.4622427  52.8642294   7.0119618  82.7302666  53.4653834
   8.0604743  83.3731327  52.5826482  16.1114767  85.4010831  37.6126773
  15.4943938  84.6757659  37.5159826  15.6431256  86.1620191  37.2693847
   9.7782120  83.1742386  52.3525974  10.4881739  82.5335578  52.3112593
   9.7351429  83.4255281  53.2752155  17.7668899  90.1109739  55.2732553
  17.7081445  89.4268960  54.6063136  18.1688418  90.8528729  54.8213179
   8.4911054  80.1607604  54.1721614   7.9548411  79.7098342  54.8243210
   7.9027763  80.2953513  53.4292078   6.7859598  96.9271653  48.0666272
   7.0256196  97.5590177  48.7445291   5.9428794  96.5759693  48.3531631
   7.9013313  79.6196255  36.7348077   7.0242780  79.4985056  36.3710324
   8.3771066  78.8282334  36.4826966  17.7686306  88.0749323  53.5046533
  16.8813085  87.7375245  53.6272932  18.3384857  87.3432355  53.7415298
   4.2250176  79.2963612  51.2574608   4.1408364  78.6889281  50.5225018
   3.4032882  79.7872630  51.2584104  11.2987460  92.7350776  50.4707776
  11.2257631  93.5405747  50.9827081  10.8564853  92.9342741  49.6455798
  11.0877239  91.9722546  43.9810598  10.3044761  92.5144226  44.0748822
  11.7869985  92.4896525  44.3804839  14.3973890  77.7817175  46.6244803
  14.8942589  77.0287137  46.3045873  13.6260871  77.8181492  46.0588012
  22.2503647  83.4857541  48.2663095  22.2393523  84.3682256  47.8957028
  21.3821026  83.1329092  48.0717632  13.7586143  92.6337610  52.6265935
  14.4714116  93.2685075  52.5541836  13.2676172  92.7301476  51.8105937
  15.4803670  86.5388862  44.1983227  14.5459949  86.6590325  44.0287931
  15.6580339  85.6361329  43.9343236  10.9808858  79.9234558  46.3516488
  10.6106646  79.3705599  47.0397393  11.4767951  79.3192692  45.7991488
  18.8676222  82.3806182  44.7333261  19.3336674  83.2134173  44.6593563
  19.3183722  81.9151163  45.4378519   8.8098057  90.3832053  53.4471506
   9.5107516  91.0168536  53.6000900   8.3393172  90.7246785  52.6867145
  16.9352453  88.7250003  41.7319413  17.2112297  88.6106598  42.6413287
  16.0656951  88.3267488  41.6931586  16.8392884  74.7486769  48.7724162
  15.9255964  74.9790995  48.9406369  17.2685986  74.8325213  49.6238194
  16.6099343  82.9376661  51.2724056  15.9570793  83.1852568  50.6176509
  16.9879723  82.1240799  50.9386533  13.5706517  92.9736354  45.3752226
  13.7528911  92.1558010  45.8379979  14.3939503  93.1904046  44.9377116
  13.9048682  91.9004539  42.6367275  14.4336449  91.3896993  42.0237437
  14.1676902  91.5847069  43.5012808  12.6586916  83.6796472  57.7590093
  11.9827553  83.5790601  58.4292468  13.4814550  83.5235685  58.2226090
   4.4065775  89.9168408  50.3802608   4.9919212  89.1712096  50.5130513
   4.2090613  90.2272365  51.2639272   7.2604430  92.9519656  45.3965051
   6.5914805  93.4365783  44.9129091   7.1217300  93.1988876  46.3108429
  11.4009699  94.9863399  51.9947709  11.9528007  95.1495021  52.7596794
  11.7415892  95.5767837  51.3227734   6.3774192  77.3338549  52.5969594
   6.4415518  78.1953380  52.1846992   6.3141312  76.7212551  51.8641952
   5.8526464  79.4061681  56.2442628   6.4798503  79.0238759  56.8580152
   4.9954383  79.1875883  56.6098321  16.2520573  89.8124657  57.8496364
  16.7960477  90.4254615  57.3551318  15.6707418  90.3704235  58.3663377
   2.6292007  81.2138111  42.1760983   2.9245448  80.3048789  42.1228037
   1.7280043  81.1925850  41.8541985  14.5378086  92.9345375  48.9811391
  14.4129225  92.1335114  48.4722337  15.1957177  93.4291568  48.4925361
   6.1586254  79.2894107  48.1588532   5.4372840  79.9030075  48.0196005
   6.9479510  79.8251872  48.0805177  16.6012994  90.7354395  50.6090941
  15.6543330  90.6159746  50.5369268  16.9495768  89.8476893  50.6917203
   8.9612568  76.6248534  54.4329183   9.4846970  76.8710830  55.1955493
   8.7424901  77.4568568  54.0132321   4.3579849  78.8952208  42.3000308
   4.0292555  78.0149587  42.1175414   4.7119220  78.8399877  43.1876697
  13.6059428  90.5307111  46.8095294  13.4584390  89.6023818  46.9902864
  14.4312921  90.5527202  46.3252369   7.4721672  79.1825178  42.6675786
   7.8117744  79.7111099  41.9454394   7.9193792  79.5205584  43.4434352
  17.2093550  91.3535670  47.8960166  18.1340097  91.1478531  47.7584617
  17.0408853  91.1052071  48.8049508  10.1665113  77.5662229  52.1178854
   9.8261933  76.7670042  52.5199534   9.4604119  77.8663940  51.5455687
  10.8181585  74.6511541  50.5706177  11.6407654  74.1772019  50.4485067
  11.0619648  75.4302025  51.0704863   9.4589819  77.6799800  40.8669079
  10.1798182  78.0581052  40.3632795   8.8355123  78.3988676  40.9704056
  13.6020942  78.3844949  41.8027411  13.8184556  79.2669586  41.5016239
  13.1215009  77.9931162  41.0733053   8.3420163  81.3430662  48.3798155
   8.1964744  81.6570965  49.2722437   7.8645367  81.9615562  47.8269054
  10.2016546  78.3333210  48.4279045  10.1878115  77.4374303  48.0911343
  10.9188974  78.3403874  49.0617331  12.0542677  78.7670550  50.4732172
  11.7960455  79.6887621  50.4716503  11.5227717  78.3700985  51.1632637
  16.9988866  91.8721337  43.2522258  17.1725743  91.3067760  42.4996110
  17.4917757  92.6722232  43.0701748   2.8165826  83.8836006  51.3185817
   2.2719294  84.6595814  51.4506091   3.6945175  84.2306811  51.1604938
   9.6053442  77.2147590  43.6966615   9.7269353  76.2864236  43.8957503
   9.3155485  77.2286276  42.7844931  12.4744633  74.9002501  46.8333335
  12.4966329  74.9641834  45.8785315  12.8912692  74.0607009  47.0273841
  22.8528257  84.6357760  44.8712558  23.2959403  83.8865085  44.4731681
  21.9754767  84.6267896  44.4886290  17.9864038  91.1888102  40.3519156
  18.6814943  91.8094794  40.5706471  18.3287188  90.3383453  40.6271534
   3.6031847  83.0105902  54.2115973   2.8613583  83.1588538  54.7980604
   3.2824592  83.2714168  53.3482723  19.8855461  88.6387807  41.8806487
  20.4106785  88.9775080  41.1555807  19.7977814  87.7034822  41.6969621
  11.5475510  92.5521881  54.0096363  11.8562637  92.3071027  54.8819063
  12.3450992  92.7568519  53.5215234  11.5696122  94.7059790  46.2401740
  11.1301112  94.2136169  46.9334597  12.3204239  94.1632758  45.9993815
   4.0488461  90.8971331  46.2426368   4.8746481  90.5975103  45.8625012
   3.6982513  90.1278954  46.6916157   9.0169994  90.2497799  48.3124042
   8.3950004  89.5868504  48.0126270   9.6874861  90.2758931  47.6297689
   2.2497066  88.8157658  47.2015302   1.4128974  88.3879832  47.0199303
   2.2220712  89.0090101  48.1386093   9.0894522  78.7279587  57.9056548
   9.1382677  79.6041710  57.5234317   9.6317036  78.1856980  57.3328191
  19.5749367  89.2720711  57.1857685  18.7844911  89.2544850  56.6462184
  19.3382722  89.8109004  57.9406721  19.6947242  86.1213177  54.4990413
  19.7445247  85.9563185  55.4405936  19.5861166  85.2540436  54.1088294
   8.5783501  88.8001723  41.7882502   8.7271622  89.4837187  41.1349175
   9.3849945  88.7806813  42.3031958  16.9851005  82.1044105  55.8149720
  17.8860868  81.9650570  55.5233718  17.0598979  82.2698560  56.7547897
  11.3193810  79.4810960  54.6602906  10.4497120  79.7744526  54.3885495
  11.5553291  80.0651405  55.3810170  21.1965439  88.5410119  54.7432435
  20.9050248  88.9040099  55.5795896  20.5837571  87.8277127  54.5645767
  22.3961122  86.1062998  47.2635005  23.2308013  86.5452802  47.4272565
  22.5320250  85.6301652  46.4443251  19.4452628  83.6642733  53.2112493
  19.9206749  83.8570380  52.4031344  18.5218193  83.7201919  52.9655877
   6.3336134  84.8266900  42.7943571   6.0882176  83.9229230  42.9923781
   6.5032049  84.8284051  41.8523049  14.0232844  75.6990577  52.1768327
  14.5414788  76.4351604  51.8514815  13.6687977  76.0054570  53.0115086
   5.6031782  80.5595258  40.2929733   4.9101027  80.6339613  39.6369769
   5.3583534  79.7955602  40.8151250  14.2745438  72.1190859  47.6969223
  14.5547192  71.4514048  48.3229650  15.0596045  72.3119955  47.1843887
  12.0778907  91.2949853  39.2594250  11.5052874  91.9140040  38.8064722
  12.6511700  91.8449215  39.7934172  18.1454297  80.5408493  51.4440798
  19.0971719  80.6406591  51.4653023  17.9757747  79.7486762  51.9538883
  16.1668676  77.6264077  51.6300199  15.5718608  77.9069089  50.9346688
  15.8818373  78.1157977  52.4016940  15.2976166  91.5787003  40.3902832
  16.2306840  91.5132565  40.5935707  15.2099379  92.4143270  39.9317365
  17.9264183  90.8952874  37.3506780  17.8477815  90.5612737  38.2442537
  18.7473850  91.3874642  37.3498252  20.6242374  83.7614613  50.5583098
  20.5918694  82.8230614  50.7442782  21.2342998  83.8398650  49.8248923
  12.4625705  82.6310666  36.6010302  13.4084810  82.5016874  36.6698720
  12.0839950  81.8925328  37.0779730  20.7736863  80.5525656  50.6041381
  20.2575911  79.7684113  50.4171310  21.6576811  80.2244373  50.7687901
  18.4347590  74.2966672  46.5637194  18.2372411  73.9881760  47.4480526
  19.0447295  75.0228311  46.6935124  26.4418924  84.8230620  49.6989135
  27.1722313  84.5615908  50.2596838  25.8325870  84.0859342  49.7391203
  24.5234221  82.9638482  50.2963586  23.7967385  82.8294447  49.6880078
  24.1081508  83.2715311  51.1020304  12.3464398  86.6828412  58.0610959
  13.2667407  86.8607011  58.2551006  12.3113981  85.7384457  57.9090658
  10.6468622  80.5560642  36.5365187   9.7400078  80.2593755  36.6127901
  10.9244603  80.2590460  35.6699474   1.5646563  81.8767006  46.9864234
   1.2449347  81.0232314  46.6938608   1.0179991  82.0915584  47.7422201
   5.3426470  84.5929447  50.7033740   5.5612480  85.5246555  50.7221774
   5.7552244  84.2337421  51.4888544  12.2630688  75.0997532  42.6909429
  11.4531416  74.7544617  43.0664675  12.9515105  74.7905076  43.2797040
  14.1921236  74.1775579  44.3133725  14.7452275  74.5971032  44.9723748
  14.4291323  73.2511327  44.3556681  10.2154336  80.1662653  60.0936489
  10.1151062  81.1157009  60.0248580   9.9975878  79.8380891  59.2212559
   9.4167407  77.4147578  36.6777167  10.2786571  77.7402476  36.9372984
   9.6017751  76.6279073  36.1650232   1.4334823  85.4969917  48.9557355
   0.7398294  85.0823870  48.4427310   2.1807814  85.5390454  48.3590774
  17.5700043  76.2876104  43.8212390  16.9898712  76.9460908  43.4390442
  17.3035976  75.4653449  43.4099807  16.0203610  75.6881162  46.0233710
  16.5203388  75.7997696  45.2148029  16.6639218  75.3842215  46.6634518
  10.0785606  83.5959791  58.9101551   9.5952687  84.3960151  59.1165440
  10.1646545  83.6067736  57.9568995   3.3471565  85.4288171  46.8323370
   3.3242253  85.5275858  45.8805253   3.6572202  86.2753322  47.1540536
   6.0058943  87.4864326  50.9469985   6.9602197  87.4548268  50.8799916
   5.8071467  87.0254950  51.7620211   6.5958325  86.0565442  53.5140782
   7.4151214  86.5509521  53.5375620   6.8695133  85.1397410  53.4858350
  16.3524921  78.4476194  42.8768738  15.4650776  78.7325845  42.6588933
  16.7678911  78.2869958  42.0296015  19.7039458  78.4722715  46.5923077
  20.4799848  78.9619168  46.8647694  18.9787592  78.8980770  47.0494947
  22.1412016  79.1850335  47.6497018  22.7356507  78.9446071  46.9390326
  22.2138600  78.4657465  48.2770554   4.3609172  93.0283946  47.9640183
   4.2263640  92.2684346  47.3978181   3.9441234  93.7524845  47.4968971
  15.4968135  88.2120869  36.9716758  16.2003985  88.4170872  37.5874413
  14.7730784  88.7797631  37.2365841  16.3265945  83.9630730  43.0919028
  16.2701147  84.4199282  42.2526660  16.8794288  83.2021415  42.9141871
  20.1370751  79.7520462  43.9169148  19.8807685  79.3517098  44.7477355
  19.5123619  80.4664256  43.7919287  24.4483089  82.4916535  46.4240439
  23.8882647  82.5609725  47.1972001  23.8426592  82.3157520  45.7039935
   7.5178298  93.9253263  48.1758625   7.4010682  94.8698695  48.0737315
   6.6970744  93.6226824  48.5644424  17.4054832  88.6503398  39.0215218
  18.2400436  88.2184597  38.8392693  17.2439175  88.4785412  39.9492112
  17.0600725  85.1535512  40.3871557  17.0049528  84.9879783  39.4460001
  16.4346780  85.8611544  40.5433747   1.8493239  80.3903576  54.2132979
   2.4952103  79.8802530  54.7020205   1.6410391  81.1272258  54.7876405
  14.3746632  87.4584423  59.7125120  15.2437791  87.6325076  59.3511755
  13.8953383  88.2778840  59.5900849  10.3696850  74.6543621  39.9656876
  10.3575520  75.5985461  40.1225146  11.2620272  74.4713766  39.6716337
   8.5432812  94.5781524  51.3914554   9.4460059  94.6105135  51.7081049
   8.3170182  93.6481975  51.4060889  10.2986414  93.3312511  48.0524632
   9.3482045  93.3314373  47.9389005  10.6018900  92.5845246  47.5360667
  14.1848969  71.2486397  44.2202812  13.4181365  70.6944884  44.3659495
  14.5959674  71.3208266  45.0816964   6.1890730  77.5371193  58.3107994
   7.0522192  77.1807998  58.5211318   5.6156141  77.1985088  58.9983398
  26.0339107  99.1673049  49.1170395  26.6717517  99.0479797  48.4133735
  25.9159950 100.1153893  49.1758347  22.8428814  99.1200478  49.0531919
  22.5047325  99.0041542  48.1652454  23.7118582  98.7191643  49.0332925
  18.7015629 100.9735954  45.0428810  18.1380495 100.8825891  44.2745098
  18.5868024 100.1535858  45.5231303  23.3248597 100.2735329  55.0118125
  23.3137237  99.8788127  54.1398629  23.4869236  99.5401402  55.6051896
  16.2480061 102.4687146  47.8813031  17.0401353 102.1277970  47.4659330
  16.4876711 102.5782121  48.8015184  24.2815188 104.6406922  40.3543275
  23.6303168 105.2261002  39.9677289  25.0759551 105.1713117  40.4138313
  18.2070815 101.7296059  40.7530410  18.9801691 101.1825046  40.6143285
  18.5596214 102.5940308  40.9644871  20.0455858 103.0572441  53.9597309
  19.7545724 103.9618072  53.8443975  20.6812842 103.0988969  54.6741378
  20.9712065 100.4349290  50.5498668  21.5675637 100.2105312  49.8355631
  21.0287036  99.6934035  51.1524116  20.5437093  97.8888725  38.3848859
  20.7962614  97.3670246  37.6232322  19.6061652  97.7254870  38.4875543
  25.5880376  96.8924503  46.1923603  26.3743465  96.4743926  45.8414020
  25.8519080  97.7970595  46.3605251  25.7590453 102.3297354  40.8912259
  25.1236286 102.4031980  41.6033164  25.4287860 102.9190952  40.2131339
  30.9888803  96.8299736  47.0956581  31.7213975  96.2598953  47.3294411
  30.2328159  96.4421337  47.5363087  20.2633382  99.7916831  40.5873234
  20.1469640  99.1161734  41.2554319  20.3735642  99.3049205  39.7705387
  22.6064923  99.2526978  44.2919924  22.2423130  98.7257599  45.0032845
  23.4632039  98.8625447  44.1186409  28.5114223  90.5421311  51.5551190
  28.1797548  91.4116722  51.3312405  27.9159837  90.2257595  52.2345220
  22.2470410  94.2816878  39.2881272  22.4144812  95.1497114  39.6551743
  22.0567579  94.4444159  38.3642561  25.0045743 102.7433857  50.9547103
  24.7046466 103.6458895  50.8462910  24.6596802 102.4766040  51.8068255
  18.4558224  99.1947653  46.9883807  17.5308721  99.0623867  47.1961499
  18.7042638  99.9741873  47.4853749  28.4042887  95.2616397  48.6344540
  27.4959764  95.1931805  48.3403301  28.3530483  95.7388342  49.4626365
  22.2259631  96.7374535  40.2727939  22.1059256  97.1831586  41.1113419
  21.5312219  97.0859853  39.7141477  15.8167035  98.8380927  47.8227596
  15.9459417  99.0915406  48.7367008  15.1364487  99.4308635  47.5032251
  19.9866523 109.5078177  43.9218070  19.9090552 110.4586002  44.0006551
  19.3828166 109.1624049  44.5792997  22.4783752  96.6806042  56.5779437
  21.7017087  97.2399962  56.5682302  23.1174316  97.1662825  57.0994307
  30.2704533  93.4632835  50.4122414  29.6278913  93.7565368  49.7662208
  29.7659462  93.3485755  51.2175610  27.9244697  97.2096008  41.1008273
  28.8362553  97.4423395  40.9255971  27.4154344  97.7933053  40.5383352
  20.7330125  99.4891496  56.1397404  21.4744809 100.0276540  55.8632228
  20.0267110 100.1157784  56.2968956  26.2085464 101.6320636  54.7369566
  26.6168820 101.1903047  53.9924198  25.4862726 101.0573264  54.9903759
  22.5616534  96.5693243  52.1103123  23.4077730  96.9932656  52.2537772
  22.5015172  95.9126867  52.8041686  26.5314279 102.1921827  48.4921854
  25.9023142 102.3567541  47.7897922  26.1439941 102.6063436  49.2632819
  30.4103511 103.1276265  45.8466218  29.7254549 103.5075166  45.2963252
  30.4947360 103.7371591  46.5798166  25.7115980  94.2297611  53.7684296
  25.4676912  94.9839672  53.2318572  25.9875910  94.6082959  54.6031543
  27.6654443 100.7736224  52.4461562  27.8771338 101.4167984  51.7695943
  27.6184191  99.9398540  51.9783492  25.2680672  93.3854044  49.3498134
  24.4065151  93.6835298  49.6414871  25.2943106  93.6024443  48.4179167
  22.0842241 101.9296235  45.7571940  22.5480586 102.2083938  44.9676562
  21.8199039 101.0279679  45.5745030  18.9766322 101.4767716  48.6951703
  19.5467679 101.9054985  48.0569187  19.5674434 101.1950301  49.3935889
  21.0211127  98.0519387  42.5661505  21.7235170  98.5040431  43.0335431
  20.6891756  97.4103206  43.1941398  19.4691489  96.6431144  56.9412714
  18.8390149  97.3247425  57.1748111  19.3627576  96.5314225  55.9965852
  14.7636461  96.3102940  47.8678638  13.9735515  96.5660468  47.3918749
  15.2547708  97.1251278  47.9730679  28.7800271 103.6508179  50.6183919
  29.6017714 103.2488366  50.3366601  28.7762673 103.5476413  51.5700035
  16.7151206  96.6747519  44.8262115  15.9182370  96.7866213  45.3445611
  16.4876799  97.0134171  43.9603006  22.5456874 103.1992222  52.7744630
  22.6101306 103.6612630  53.6102801  21.8367798 102.5689587  52.9026939
  13.0474164  96.5633430  50.2993629  13.2982202  97.4480440  50.5651205
  13.5833712  96.3838032  49.5268721  36.8706264  99.9946928  46.9668891
  36.1169972  99.4254326  46.8112895  37.0053805  99.9609592  47.9139525
  22.2604892 104.8660330  42.6423610  22.1250566 105.7111866  43.0708458
  22.8014704 105.0679607  41.8789544  18.7472231  90.9451910  59.3037965
  18.3539177  90.3918108  59.9785609  19.5638372  91.2562488  59.6944483
  15.7134289 102.3835768  43.2151535  16.2258810 103.1779018  43.3657100
  16.3657002 101.6862058  43.1485136  17.5229174 105.5001524  45.2974288
  17.6995802 106.4219489  45.1095272  18.3186007 105.1859943  45.7268668
  21.6640192  92.3609789  56.8958222  22.4049906  92.9616942  56.8162684
  21.8958115  91.6187427  56.3376264  16.8081530  97.5466156  55.1736451
  16.6935045  96.6451413  55.4743550  15.9526048  97.7929853  54.8221268
  23.8873368 105.4883896  56.7723952  23.4437222 104.7020275  56.4544857
  24.5490582 105.6763047  56.1067843  18.6460489 107.0179698  51.2984631
  19.1967914 106.8896761  50.5261624  17.8071965 107.3174587  50.9479523
  25.9854606 105.7686696  54.8005353  25.9673081 106.5895577  54.3085622
  26.9074526 105.6440772  55.0255494  22.4427660 103.2830826  55.6428862
  22.9755997 102.5219114  55.4128170  21.9141741 102.9904478  56.3853016
  25.6097355  88.3890892  51.1722503  25.2661625  89.2792533  51.0961614
  25.9776318  88.1992549  50.3092088  13.6783206 100.7124422  43.9911106
  14.5158428 101.1221431  43.7744813  13.8561474  99.7723864  43.9611299
  25.5747638  98.3799503  39.6794939  25.0594261  99.1504107  39.9183326
  25.3024946  97.7064639  40.3028000  23.1594749  93.2249204  44.7380177
  22.3036345  92.8356054  44.5585816  23.5721701  93.3041164  43.8779962
  24.6893896  90.7595547  49.1371737  24.1858691  90.7225682  48.3239542
  24.9824502  91.6688290  49.1968393  20.9336781  90.8434277  48.1437918
  21.7989778  90.6477085  47.7843808  21.0014290  90.6144628  49.0707275
  30.5481912 101.1331857  41.6148112  29.7711355 100.7943017  41.1703274
  31.2273393 101.1384481  40.9403077  25.3633941  96.2526595  41.5054720
  25.0584077  96.5672744  42.3564863  26.3164383  96.3308015  41.5482053
  23.8080373 102.4116818  43.1547674  23.2801735 101.6769578  42.8420911
  23.3067876 103.1891495  42.9087642  28.7873219 100.6065839  48.2714720
  28.1296893 101.2965100  48.3594849  29.5913618 100.9962271  48.6148706
  18.5399101  93.0736485  45.5154285  19.1142852  92.8511666  44.7827478
  19.1270083  93.1425179  46.2682887  27.5978678  98.9610211  46.3218662
  28.1110560  99.5940203  46.8240371  28.2479902  98.3611407  45.9562022
  18.8668688  95.1040946  39.5350170  18.0306000  95.4415632  39.8559445
  18.7273457  94.9689925  38.5977307  20.8421768  89.9477733  44.2429355
  20.1886181  89.6326751  43.6185969  20.8002242  89.3253474  44.9689178
  21.9532973 100.2297029  36.1582647  21.0460035  99.9986282  36.3573796
  22.4504005  99.4334648  36.3456628  24.8601052 108.9394536  39.0779333
  24.1862751 109.2426232  39.6864291  25.2466874 109.7423616  38.7284790
  24.0759509  96.4359667  48.5677002  23.1582070  96.6574614  48.4098690
  24.4919652  96.5105977  47.7088710  24.8594556  97.8351083  43.6979683
  25.6066375  98.3472480  43.3886805  25.1286146  97.5135135  44.5584076
  23.1321207 100.3309623  40.6806637  22.2232426 100.0468656  40.7779107
  23.1616290 100.7508702  39.8209944  28.3640474 103.9416213  44.4497804
  27.9102801 103.1007123  44.5062995  27.7334441 104.5777611  44.7872585
  27.3073394  94.8708199  45.6798472  26.5696150  94.3585585  46.0108714
  27.5600167  94.4308581  44.8681749  26.8073413 105.7792710  45.3847623
  27.0996388 106.3397767  44.6659988  27.3172034 106.0721271  46.1400782
  27.4085021  87.6484451  46.2740241  27.7143898  86.7881814  45.9866156
  28.1337626  88.2402071  46.0739235  13.7009377  98.0515138  44.6621839
  13.5033777  97.4584498  43.9372906  13.1456041  97.7467348  45.3797778
  21.6806101  97.9438244  46.7816432  21.7354710  96.9912080  46.7058909
  20.8697303  98.0997683  47.2657731  22.8297294 101.8718367  38.0194715
  22.3916724 101.1554226  37.5600353  23.5707735 102.0994482  37.4579807
  19.6198461  96.5615304  44.5406811  18.8066326  96.8609474  44.9472003
  20.1157455  96.1670992  45.2581293  21.7707038 106.5573061  46.4741076
  21.7283217 106.7833907  45.5449608  22.6869737 106.3236435  46.6226877
  25.2172672  97.0257128  53.3721705  25.5722060  97.2528601  54.2316171
  25.8644803  97.3575505  52.7498960  30.9470409 100.1475564  44.0771034
  30.8088308 100.3377160  43.1492223  30.5906628 100.9094947  44.5339085
  19.1112535  94.1333659  50.1568046  19.7511915  93.9922418  49.4591009
  18.2790066  93.8468173  49.7806648  30.9739789 102.2152091  49.0882305
  31.4076295 102.1227380  49.9365359  31.6871369 102.1909592  48.4502321
  19.8872839 103.4336090  46.2703038  20.6813438 102.9386410  46.0685613
  19.1764532 102.9053953  45.9070744  24.7067684 105.8154185  50.6215406
  24.7604706 106.3845122  51.3893122  23.8382465 105.9856070  50.2569443
  16.1955603  97.5779171  42.3462791  15.2653191  97.5163627  42.5632753
  16.2913075  97.0555124  41.5499432  16.1141152  94.1033984  44.9341033
  16.3747969  95.0179317  44.8250193  16.9358324  93.6358427  45.0837646
  17.5866077  95.5171741  52.1039857  18.2589130  95.3089104  51.4552506
  16.7595864  95.3193827  51.6645090  31.8355338 102.2575792  51.6215191
  32.0291228 103.1621602  51.8674466  31.7355956 101.7983211  52.4553776
  23.4891649  92.1433682  54.1205518  22.8419564  92.8423632  54.0269995
  24.2592664  92.5769826  54.4881766  26.8970447 102.4082534  57.1956071
  26.7455953 102.1793086  56.2786155  26.8875126 103.3653136  57.2087416
  23.6655783  99.9814447  52.1802338  24.5947843 100.1325607  52.0071305
  23.2446813 100.0698468  51.3250984  22.4644115 104.0065112  49.9500876
  22.3255201 103.6383896  50.8226814  21.6758711 104.5212751  49.7784833
  23.0592267 109.1074208  41.2926412  23.2344023 108.6362251  42.1072035
  22.3725055 109.7339974  41.5207673  24.0149330 103.3846714  47.3389713
  23.6799163 103.3447484  48.2347363  23.5153276 102.7191430  46.8660124
  17.9893574  98.7914344  52.8642294  17.8513372  98.0594583  53.4653834
  18.8998498  98.7023244  52.5826482  26.9508522 100.7302749  37.6126773
  26.3337693 100.0049577  37.5159826  26.4825010 101.4912109  37.2693847
  20.6175875  98.5034304  52.3525974  21.3275493  97.8627496  52.3112593
  20.5745183  98.7547199  53.2752155  28.6062654 105.4401657  55.2732553
  28.5475200 104.7560877  54.6063136  29.0082172 106.1820647  54.8213179
  19.3304809  95.4899522  54.1721614  18.7942166  95.0390260  54.8243210
  18.7421517  95.6245430  53.4292078  18.7407068  94.9488173  36.7348077
  17.8636534  94.8276974  36.3710324  19.2164821  94.1574251  36.4826966
  28.6080061 103.4041241  53.5046533  27.7206840 103.0667163  53.6272932
  29.1778612 102.6724272  53.7415298  10.2609208  99.7365333  46.8289584
  10.9480248  99.4227063  46.2410600  10.1057337 100.6406697  46.5556836
  15.0643930  94.6255529  51.2574608  14.9802119  94.0181199  50.5225018
  14.2426637  95.1164548  51.2584104  22.1381214 108.0642693  50.4707776
  22.0651386 108.8697665  50.9827081  21.6958607 108.2634659  49.6455798
  21.9270994 107.3014463  43.9810598  21.1438516 107.8436144  44.0748822
  22.6263739 107.8188443  44.3804839  25.2367644  93.1109093  46.6244803
  25.7336344  92.3579055  46.3045873  24.4654626  93.1473409  46.0588012
  33.0897401  98.8149458  48.2663095  33.0787278  99.6974174  47.8957028
  32.2214781  98.4621009  48.0717632  24.5979898 107.9629527  52.6265935
  25.3107870 108.5976992  52.5541836  24.1069926 108.0593393  51.8105937
  26.3197425 101.8680780  44.1983227  25.3853703 101.9882243  44.0287931
  26.4974093 100.9653247  43.9343236  21.8202613  95.2526476  46.3516488
  21.4500400  94.6997516  47.0397393  22.3161705  94.6484609  45.7991488
  29.7069976  97.7098099  44.7333261  30.1730428  98.5426091  44.6593563
  30.1577477  97.2443081  45.4378519  19.6491811 105.7123971  53.4471506
  20.3501271 106.3460454  53.6000900  19.1786926 106.0538702  52.6867145
  27.7746207 104.0541921  41.7319413  28.0506051 103.9398515  42.6413287
  26.9050706 103.6559405  41.6931586  27.6786639  90.0778686  48.7724162
  26.7649719  90.3082913  48.9406369  28.1079740  90.1617130  49.6238194
  27.4493097  98.2668578  51.2724056  26.7964548  98.5144486  50.6176509
  27.8273477  97.4532716  50.9386533  24.4100271 108.3028271  45.3752226
  24.5922666 107.4849927  45.8379979  25.2333257 108.5195964  44.9377116
  24.7442437 107.2296457  42.6367275  25.2730203 106.7188911  42.0237437
  25.0070656 106.9138987  43.5012808  23.4980670  99.0088389  57.7590093
  22.8221307  98.9082519  58.4292468  24.3208304  98.8527603  58.2226090
  15.2459529 105.2460326  50.3802608  15.8312966 104.5004014  50.5130513
  15.0484368 105.5564283  51.2639272  18.0998185 108.2811573  45.3965051
  17.4308560 108.7657701  44.9129091  17.9611054 108.5280794  46.3108429
   9.8377184  97.8165926  49.1007052   9.8761284  97.2829517  49.8944170
   9.3317477  97.2901132  48.4818029  22.2403453 110.3155317  51.9947709
  22.7921761 110.4786938  52.7596794  22.5809647 110.9059755  51.3227734
  17.2167946  92.6630467  52.5969594  17.2809273  93.5245297  52.1846992
  17.1535067  92.0504468  51.8641952  16.6920219  94.7353599  56.2442628
  17.3192258  94.3530676  56.8580152  15.8348138  94.5167801  56.6098321
  27.0914328 105.1416574  57.8496364  27.6354232 105.7546533  57.3551318
  26.5101172 105.6996153  58.3663377  13.4685762  96.5430028  42.1760983
  13.7639203  95.6340707  42.1228037  12.5673797  96.5217768  41.8541985
  25.3771840 108.2637292  48.9811391  25.2522980 107.4627032  48.4722337
  26.0350932 108.7583486  48.4925361  16.9980009  94.6186025  48.1588532
  16.2766594  95.2321993  48.0196005  17.7873264  95.1543790  48.0805177
  27.4406749 106.0646312  50.6090941  26.4937084 105.9451664  50.5369268
  27.7889522 105.1768810  50.6917203  19.8006322  91.9540451  54.4329183
  20.3240724  92.2002748  55.1955493  19.5818656  92.7860486  54.0132321
  15.1973603  94.2244126  42.3000308  14.8686309  93.3441505  42.1175414
  15.5512974  94.1691795  43.1876697  24.4453182 105.8599029  46.8095294
  24.2978145 104.9315736  46.9902864  25.2706676 105.8819119  46.3252369
  18.3115426  94.5117096  42.6675786  18.6511499  95.0403017  41.9454394
  18.7587547  94.8497502  43.4434352  28.0487304 106.6827587  47.8960166
  28.9733851 106.4770449  47.7584617  27.8802607 106.4343989  48.8049508
  21.0058867  92.8954146  52.1178854  20.6655688  92.0961959  52.5199534
  20.2997874  93.1955857  51.5455687  21.6575339  89.9803459  50.5706177
  22.4801408  89.5063937  50.4485067  21.9013403  90.7593943  51.0704863
  20.2983574  93.0091717  40.8669079  21.0191936  93.3872970  40.3632795
  19.6748878  93.7280594  40.9704056  24.4414696  93.7136866  41.8027411
  24.6578311  94.5961504  41.5016239  23.9608764  93.3223080  41.0733053
  19.1813918  96.6722579  48.3798155  19.0358499  96.9862883  49.2722437
  18.7039122  97.2907480  47.8269054  21.0410301  93.6625127  48.4279045
  21.0271870  92.7666221  48.0911343  21.7582729  93.6695791  49.0617331
  22.8936431  94.0962468  50.4732172  22.6354209  95.0179538  50.4716503
  22.3621472  93.6992902  51.1632637  27.8382620 107.2013255  43.2522258
  28.0119498 106.6359677  42.4996110  28.3311511 108.0014150  43.0701748
  13.6559580  99.2127924  51.3185817  13.1113048  99.9887732  51.4506091
  14.5338930  99.5598728  51.1604938  20.4447197  92.5439508  43.6966615
  20.5663108  91.6156154  43.8957503  20.1549239  92.5578194  42.7844931
  23.3138387  90.2294418  46.8333335  23.3360084  90.2933751  45.8785315
  23.7306446  89.3898927  47.0273841  33.6922011  99.9649678  44.8712558
  34.1353157  99.2157003  44.4731681  32.8148522  99.9559814  44.4886290
  28.8257793 106.5180019  40.3519156  29.5208697 107.1386712  40.5706471
  29.1680943 105.6675370  40.6271534  14.4425602  98.3397820  54.2115973
  13.7007338  98.4880456  54.7980604  14.1218346  98.6006086  53.3482723
  30.7249216 103.9679725  41.8806487  31.2500540 104.3066997  41.1555807
  30.6371568 103.0326740  41.6969621  22.3869265 107.8813798  54.0096363
  22.6956391 107.6362945  54.8819063  23.1844747 108.0860437  53.5215234
  22.4089877 110.0351708  46.2401740  21.9694867 109.5428087  46.9334597
  23.1597994 109.4924676  45.9993815  14.8882216 106.2263249  46.2426368
  15.7140235 105.9267021  45.8625012  14.5376268 105.4570871  46.6916157
  19.8563749 105.5789717  48.3124042  19.2343758 104.9160422  48.0126270
  20.5268616 105.6050849  47.6297689  13.0890821 104.1449575  47.2015302
  12.2522729 103.7171750  47.0199303  13.0614466 104.3382019  48.1386093
  19.9288276  94.0571505  57.9056548  19.9776432  94.9333628  57.5234317
  20.4710790  93.5148898  57.3328191  30.4143122 104.6012628  57.1857685
  29.6238666 104.5836767  56.6462184  30.1776476 105.1400922  57.9406721
  30.5340997 101.4505095  54.4990413  30.5839002 101.2855102  55.4405936
  30.4254920 100.5832354  54.1088294  19.4177256 104.1293640  41.7882502
  19.5665376 104.8129105  41.1349175  20.2243699 104.1098730  42.3031958
  27.8244759  97.4336023  55.8149720  28.7254622  97.2942488  55.5233718
  27.8992734  97.5990478  56.7547897  22.1587565  94.8102878  54.6602906
  21.2890874  95.1036444  54.3885495  22.3947045  95.3943323  55.3810170
  32.0359194 103.8702036  54.7432435  31.7444002 104.2332017  55.5795896
  31.4231325 103.1569045  54.5645767  33.2354876 101.4354916  47.2635005
  34.0701767 101.8744720  47.4272565  33.3714005 100.9593569  46.4443251
  30.2846382  98.9934651  53.2112493  30.7600504  99.1862297  52.4031344
  29.3611947  99.0493837  52.9655877  17.1729889 100.1558818  42.7943571
  16.9275931  99.2521148  42.9923781  17.3425803 100.1575969  41.8523049
  24.8626599  91.0282494  52.1768327  25.3808542  91.7643521  51.8514815
  24.5081731  91.3346488  53.0115086  16.4425536  95.8887176  40.2929733
  15.7494781  95.9631531  39.6369769  16.1977288  95.1247519  40.8151250
  25.1139193  87.4482777  47.6969223  25.3940946  86.7805966  48.3229650
  25.8989800  87.6411873  47.1843887  22.9172661 106.6241771  39.2594250
  22.3446628 107.2431958  38.8064722  23.4905455 107.1741133  39.7934172
  28.9848051  95.8700411  51.4440798  29.9365474  95.9698509  51.4653023
  28.8151501  95.0778680  51.9538883  27.0062430  92.9555994  51.6300199
  26.4112363  93.2361007  50.9346688  26.7212127  93.4449895  52.4016940
  26.1369921 106.9078921  40.3902832  27.0700594 106.8424483  40.5935707
  26.0493134 107.7435188  39.9317365  28.7657938 106.2244791  37.3506780
  28.6871569 105.8904655  38.2442537  29.5867604 106.7166559  37.3498252
  31.4636129  99.0906531  50.5583098  31.4312449  98.1522531  50.7442782
  32.0736752  99.1690567  49.8248923  23.3019460  97.9602584  36.6010302
  24.2478564  97.8308792  36.6698720  22.9233705  97.2217246  37.0779730
  31.6130617  95.8817574  50.6041381  31.0969666  95.0976031  50.4171310
  32.4970566  95.5536291  50.7687901  29.2741344  89.6258590  46.5637194
  29.0766165  89.3173678  47.4480526  29.8841050  90.3520229  46.6935124
  37.2812679 100.1522538  49.6989135  38.0116067  99.8907826  50.2596838
  36.6719624  99.4151259  49.7391203  35.3627976  98.2930400  50.2963586
  34.6361139  98.1586365  49.6880078  34.9475263  98.6007229  51.1020304
  23.1858152 102.0120330  58.0610959  24.1061162 102.1898929  58.2551006
  23.1507735 101.0676375  57.9090658  21.4862377  95.8852560  36.5365187
  20.5793832  95.5885673  36.6127901  21.7638358  95.5882378  35.6699474
  12.4040317  97.2058923  46.9864234  12.0843102  96.3524232  46.6938608
  11.8573745  97.4207502  47.7422201  16.1820225  99.9221364  50.7033740
  16.4006235 100.8538472  50.7221774  16.5945999  99.5629339  51.4888544
  23.1024443  90.4289450  42.6909429  22.2925171  90.0836535  43.0664675
  23.7908859  90.1196993  43.2797040  25.0314991  89.5067497  44.3133725
  25.5846029  89.9262950  44.9723748  25.2685077  88.5803245  44.3556681
  21.0548090  95.4954570  60.0936489  20.9544817  96.4448927  60.0248580
  20.8369632  95.1672809  59.2212559  20.2561161  92.7439495  36.6777167
  21.1180325  93.0694394  36.9372984  20.4411506  91.9570991  36.1650232
  12.2728577 100.8261835  48.9557355  11.5792049 100.4115788  48.4427310
  13.0201568 100.8682371  48.3590774  28.4093798  91.6168022  43.8212390
  27.8292467  92.2752826  43.4390442  28.1429731  90.7945366  43.4099807
  26.8597364  91.0173079  46.0233710  27.3597143  91.1289614  45.2148029
  27.5032972  90.7134132  46.6634518  20.9179360  98.9251709  58.9101551
  20.4346442  99.7252069  59.1165440  21.0040299  98.9359654  57.9568995
  14.1865320 100.7580089  46.8323370  14.1636008 100.8567776  45.8805253
  14.4965956 101.6045240  47.1540536  16.8452698 102.8156244  50.9469985
  17.7995951 102.7840186  50.8799916  16.6465221 102.3546867  51.7620211
  17.4352080 101.3857360  53.5140782  18.2544969 101.8801438  53.5375620
  17.7088887 100.4689328  53.4858350  27.1918676  93.7768112  42.8768738
  26.3044531  94.0617763  42.6588933  27.6072665  93.6161875  42.0296015
  30.5433212  93.8014633  46.5923077  31.3193602  94.2911086  46.8647694
  29.8181346  94.2272687  47.0494947  32.9805771  94.5142252  47.6497018
  33.5750262  94.2737988  46.9390326  33.0532354  93.7949383  48.2770554
  26.3361889 103.5412787  36.9716758  27.0397740 103.7462789  37.5874413
  25.6124538 104.1089549  37.2365841  27.1659700  99.2922648  43.0919028
  27.1094901  99.7491199  42.2526660  27.7188042  98.5313333  42.9141871
  30.9764506  95.0812380  43.9169148  30.7201440  94.6809016  44.7477355
  30.3517374  95.7956174  43.7919287  35.2876843  97.8208453  46.4240439
  34.7276401  97.8901642  47.1972001  34.6820347  97.6449438  45.7039935
  28.2448587 103.9795316  39.0215218  29.0794191 103.5476514  38.8392693
  28.0832930 103.8077330  39.9492112  27.8994479 100.4827429  40.3871557
  27.8443283 100.3171701  39.4460001  27.2740534 101.1903462  40.5433747
  12.6886994  95.7195494  54.2132979  13.3345858  95.2094448  54.7020205
  12.4804145  96.4564175  54.7876405  25.2140386 102.7876341  59.7125120
  26.0831546 102.9616993  59.3511755  24.7347138 103.6070758  59.5900849
  21.2090604  89.9835538  39.9656876  21.1969274  90.9277378  40.1225146
  22.1014026  89.8005684  39.6716337  19.3826566 109.9073442  51.3914554
  20.2853813 109.9397052  51.7081049  19.1563936 108.9773893  51.4060889
  21.1380168 108.6604429  48.0524632  20.1875799 108.6606290  47.9389005
  21.4412655 107.9137163  47.5360667  25.0242724  86.5778315  44.2202812
  24.2575120  86.0236802  44.3659495  25.4353429  86.6500184  45.0816964
  17.0284485  92.8663111  58.3107994  17.8915947  92.5099916  58.5211318
  16.4549896  92.5277006  58.9983398  36.8732862 114.4964967  49.1170395
  37.5111272 114.3771714  48.4133735  36.7553705 115.4445811  49.1758347
  33.6822568 114.4492395  49.0531919  33.3441080 114.3333460  48.1652454
  34.5512336 114.0483560  49.0332925  34.1642351 115.6027247  55.0118125
  34.1530992 115.2080045  54.1398629  34.3262991 114.8693320  55.6051896
  31.3830848 113.2180643  38.3848859  31.6356368 112.6962164  37.6232322
  30.4455407 113.0546788  38.4875543  36.4274130 112.2216421  46.1923603
  37.2137220 111.8035844  45.8414020  36.6912835 113.1262513  46.3605251
  41.8282558 112.1591654  47.0956581  42.5607729 111.5890871  47.3294411
  41.0721913 111.7713255  47.5363087  33.4458677 114.5818896  44.2919924
  33.0816884 114.0549517  45.0032845  34.3025793 114.1917365  44.1186409
  39.3507978 105.8713228  51.5551190  39.0191303 106.7408639  51.3312405
  38.7553591 105.5549512  52.2345220  33.0864164 109.6108795  39.2881272
  33.2538567 110.4789032  39.6551743  32.8961333 109.7736077  38.3642561
  39.2436641 110.5908314  48.6344540  38.3353519 110.5223723  48.3403301
  39.1924237 111.0680259  49.4626365  33.0653385 112.0666453  40.2727939
  32.9453010 112.5123504  41.1113419  32.3705973 112.4151770  39.7141477
  33.3177507 112.0097960  56.5779437  32.5410841 112.5691880  56.5682302
  33.9568070 112.4954743  57.0994307  41.1098288 108.7924753  50.4122414
  40.4672668 109.0857286  49.7662208  40.6053216 108.6777673  51.2175610
  38.7638451 112.5387926  41.1008273  39.6756307 112.7715313  40.9255971
  38.2548098 113.1224970  40.5383352  33.4010289 111.8985161  52.1103123
  34.2471484 112.3224574  52.2537772  33.3408927 111.2418785  52.8041686
  36.5509734 109.5589529  53.7684296  36.3070666 110.3131589  53.2318572
  36.8269665 109.9374877  54.6031543  38.5048197 116.1028141  52.4461562
  38.7165092 116.7459901  51.7695943  38.4577945 115.2690458  51.9783492
  36.1074426 108.7145962  49.3498134  35.2458905 109.0127216  49.6414871
  36.1336861 108.9316361  48.4179167  31.8604882 113.3811305  42.5661505
  32.5628925 113.8332349  43.0335431  31.5285510 112.7395124  43.1941398
  30.3085243 111.9723062  56.9412714  29.6783904 112.6539342  57.1748111
  30.2021331 111.8606143  55.9965852  25.6030215 111.6394858  47.8678638
  24.8129269 111.8952386  47.3918749  26.0941463 112.4543195  47.9730679
  27.5544961 112.0039437  44.8262115  26.7576124 112.1158131  45.3445611
  27.3270553 112.3426089  43.9603006  47.7100018 115.3238845  46.9668891
  46.9563726 114.7546243  46.8112895  47.8447559 115.2901510  47.9139525
  29.5865986 106.2743827  59.3037965  29.1932931 105.7210026  59.9785609
  30.4032126 106.5854406  59.6944483  32.5033947 107.6901706  56.8958222
  33.2443660 108.2908860  56.8162684  32.7351870 106.9479344  56.3376264
  36.4491110 103.7182809  51.1722503  36.1055379 104.6084451  51.0961614
  36.8170072 103.5284467  50.3092088  36.4141392 113.7091421  39.6794939
  35.8988016 114.4796025  39.9183326  36.1418701 113.0356557  40.3028000
  33.9988503 108.5541121  44.7380177  33.1430100 108.1647972  44.5585816
  34.4115455 108.6333082  43.8779962  35.5287650 106.0887465  49.1371737
  35.0252446 106.0517600  48.3239542  35.8218257 106.9980207  49.1968393
  31.7730536 106.1726194  48.1437918  32.6383533 105.9769003  47.7843808
  31.8408045 105.9436546  49.0707275  41.3875667 116.4623775  41.6148112
  40.6105109 116.1234935  41.1703274  42.0667148 116.4676398  40.9403077
  36.2027696 111.5818513  41.5054720  35.8977831 111.8964662  42.3564863
  37.1558138 111.6599932  41.5482053  39.6266973 115.9357756  48.2714720
  38.9690648 116.6257018  48.3594849  40.4307373 116.3254188  48.6148706
  29.3792855 108.4028402  45.5154285  29.9536607 108.1803584  44.7827478
  29.9663837 108.4717097  46.2682887  38.4372432 114.2902129  46.3218662
  38.9504314 114.9232121  46.8240371  39.0873656 113.6903325  45.9562022
  29.7062442 110.4332863  39.5350170  28.8699754 110.7707550  39.8559445
  29.5667212 110.2981843  38.5977307  31.6815523 105.2769651  44.2429355
  31.0279935 104.9618668  43.6185969  31.6395997 104.6545392  44.9689178
  34.9153263 111.7651585  48.5677002  33.9975824 111.9866532  48.4098690
  35.3313407 111.8397895  47.7088710  35.6988311 113.1643000  43.6979683
  36.4460130 113.6764398  43.3886805  35.9679900 112.8427053  44.5584076
  38.1467148 110.2000117  45.6798472  37.4089905 109.6877503  46.0108714
  38.3993922 109.7600498  44.8681749  38.2478775 102.9776369  46.2740241
  38.5537652 102.1173732  45.9866156  38.9731380 103.5693989  46.0739235
  32.5199855 113.2730162  46.7816432  32.5748465 112.3203998  46.7058909
  31.7091057 113.4289601  47.2657731  30.4592215 111.8907221  44.5406811
  29.6460081 112.1901392  44.9472003  30.9551209 111.4962910  45.2581293
  36.0566427 112.3549046  53.3721705  36.4115814 112.5820519  54.2316171
  36.7038558 112.6867423  52.7498960  41.7864164 115.4767482  44.0771034
  41.6482062 115.6669078  43.1492223  41.4300382 116.2386865  44.5339085
  29.9506290 109.4625577  50.1568046  30.5905669 109.3214336  49.4591009
  29.1183820 109.1760090  49.7806648  41.8133543 117.5444009  49.0882305
  42.2470050 117.4519298  49.9365359  42.5265124 117.5201509  48.4502321
  27.0349357 112.9071089  42.3462791  26.1046945 112.8455545  42.5632753
  27.1306829 112.3847042  41.5499432  26.9534906 109.4325902  44.9341033
  27.2141723 110.3471235  44.8250193  27.7752079 108.9650344  45.0837646
  28.4259832 110.8463659  52.1039857  29.0982885 110.6381021  51.4552506
  27.5989618 110.6485745  51.6645090  42.6749093 117.5867709  51.6215191
  42.8684983 118.4913520  51.8674466  42.5749711 117.1275129  52.4553776
  34.3285404 107.4725600  54.1205518  33.6813319 108.1715550  54.0269995
  35.0986419 107.9061744  54.4881766  34.5049538 115.3106365  52.1802338
  35.4341598 115.4617525  52.0071305  34.0840568 115.3990386  51.3250984
  37.7902276 116.0594666  37.6126773  37.1731447 115.3341495  37.5159826
  37.3218765 116.8204027  37.2693847  31.4569629 113.8326221  52.3525974
  32.1669248 113.1919414  52.3112593  31.4138938 114.0839116  53.2752155
  30.1698563 110.8191439  54.1721614  29.6335920 110.3682178  54.8243210
  29.5815272 110.9537348  53.4292078  29.5800822 110.2780091  36.7348077
  28.7030289 110.1568891  36.3710324  30.0558575 109.4866169  36.4826966
  25.9037685 109.9547447  51.2574608  25.8195873 109.3473117  50.5225018
  25.0820391 110.4456465  51.2584104  36.0761399 108.4401010  46.6244803
  36.5730098 107.6870973  46.3045873  35.3048380 108.4765327  46.0588012
  43.9291156 114.1441376  48.2663095  43.9181032 115.0266091  47.8957028
  43.0608535 113.7912927  48.0717632  32.6596367 110.5818393  46.3516488
  32.2894155 110.0289434  47.0397393  33.1555460 109.9776527  45.7991488
  40.5463731 113.0390017  44.7333261  41.0124183 113.8718009  44.6593563
  40.9971231 112.5734999  45.4378519  38.5180393 105.4070604  48.7724162
  37.6043473 105.6374831  48.9406369  38.9473495 105.4909048  49.6238194
  38.2886852 113.5960496  51.2724056  37.6358302 113.8436403  50.6176509
  38.6667232 112.7824634  50.9386533  34.3374425 114.3380307  57.7590093
  33.6615062 114.2374436  58.4292468  35.1602059 114.1819521  58.2226090
  28.0561701 107.9922384  52.5969594  28.1203027 108.8537215  52.1846992
  27.9928821 107.3796386  51.8641952  27.5313973 110.0645517  56.2442628
  28.1586012 109.6822594  56.8580152  26.6741892 109.8459719  56.6098321
  24.3079516 111.8721946  42.1760983  24.6032957 110.9632624  42.1228037
  23.4067552 111.8509685  41.8541985  27.8373763 109.9477942  48.1588532
  27.1160349 110.5613910  48.0196005  28.6267019 110.4835707  48.0805177
  30.6400077 107.2832369  54.4329183  31.1634479 107.5294666  55.1955493
  30.4212410 108.1152404  54.0132321  26.0367358 109.5536044  42.3000308
  25.7080064 108.6733422  42.1175414  26.3906728 109.4983712  43.1876697
  29.1509181 109.8409013  42.6675786  29.4905253 110.3694935  41.9454394
  29.5981301 110.1789419  43.4434352  31.8452622 108.2246064  52.1178854
  31.5049442 107.4253877  52.5199534  31.1391628 108.5247775  51.5455687
  32.4969094 105.3095377  50.5706177  33.3195163 104.8355855  50.4485067
  32.7407157 106.0885860  51.0704863  31.1377328 108.3383635  40.8669079
  31.8585691 108.7164888  40.3632795  30.5142632 109.0572512  40.9704056
  35.2808451 109.0428784  41.8027411  35.4972065 109.9253422  41.5016239
  34.8002518 108.6514997  41.0733053  30.0207672 112.0014497  48.3798155
  29.8752253 112.3154800  49.2722437  29.5432876 112.6199397  47.8269054
  31.8804055 108.9917045  48.4279045  31.8665624 108.0958138  48.0911343
  32.5976483 108.9987709  49.0617331  33.7330186 109.4254385  50.4732172
  33.4747964 110.3471456  50.4716503  33.2015226 109.0284820  51.1632637
  31.2840951 107.8731425  43.6966615  31.4056862 106.9448072  43.8957503
  30.9942994 107.8870111  42.7844931  34.1532142 105.5586336  46.8333335
  34.1753838 105.6225669  45.8785315  34.5700201 104.7190845  47.0273841
  44.5315766 115.2941595  44.8712558  44.9746912 114.5448921  44.4731681
  43.6542276 115.2851732  44.4886290  30.7682031 109.3863423  57.9056548
  30.8170186 110.2625546  57.5234317  31.3104545 108.8440816  57.3328191
  41.3734751 116.7797012  54.4990413  41.4232756 116.6147020  55.4405936
  41.2648675 115.9124271  54.1088294  38.6638514 112.7627940  55.8149720
  39.5648377 112.6234405  55.5233718  38.7386488 112.9282395  56.7547897
  32.9981319 110.1394795  54.6602906  32.1284629 110.4328361  54.3885495
  33.2340800 110.7235240  55.3810170  44.0748631 116.7646834  47.2635005
  44.9095522 117.2036638  47.4272565  44.2107759 116.2885487  46.4443251
  41.1240137 114.3226569  53.2112493  41.5994258 114.5154215  52.4031344
  40.2005702 114.3785754  52.9655877  35.7020353 106.3574412  52.1768327
  36.2202297 107.0935439  51.8514815  35.3475486 106.6638405  53.0115086
  27.2819291 111.2179093  40.2929733  26.5888536 111.2923448  39.6369769
  27.0371043 110.4539437  40.8151250  35.9532947 102.7774695  47.6969223
  36.2334701 102.1097884  48.3229650  36.7383554 102.9703790  47.1843887
  39.8241806 111.1992329  51.4440798  40.7759228 111.2990426  51.4653023
  39.6545256 110.4070597  51.9538883  37.8456185 108.2847912  51.6300199
  37.2506117 108.5652925  50.9346688  37.5605882 108.7741813  52.4016940
  42.3029883 114.4198448  50.5583098  42.2706203 113.4814449  50.7442782
  42.9130507 114.4982485  49.8248923  34.1413214 113.2894501  36.6010302
  35.0872319 113.1600709  36.6698720  33.7627459 112.5509163  37.0779730
  42.4524372 111.2109492  50.6041381  41.9363420 110.4267948  50.4171310
  43.3364320 110.8828208  50.7687901  40.1135099 104.9550507  46.5637194
  39.9159920 104.6465596  47.4480526  40.7234804 105.6812146  46.6935124
  48.1206433 115.4814455  49.6989135  48.8509822 115.2199743  50.2596838
  47.5113379 114.7443177  49.7391203  46.2021730 113.6222318  50.2963586
  45.4754894 113.4878283  49.6880078  45.7869017 113.9299146  51.1020304
  32.3256131 111.2144478  36.5365187  31.4187587 110.9177590  36.6127901
  32.6032112 110.9174296  35.6699474  33.9418197 105.7581367  42.6909429
  33.1318925 105.4128452  43.0664675  34.6302614 105.4488911  43.2797040
  35.8708745 104.8359414  44.3133725  36.4239784 105.2554868  44.9723748
  36.1078832 103.9095162  44.3556681  31.8941845 110.8246488  60.0936489
  31.7938571 111.7740845  60.0248580  31.6763387 110.4964727  59.2212559
  31.0954916 108.0731413  36.6777167  31.9574080 108.3986311  36.9372984
  31.2805260 107.2862909  36.1650232  39.2487552 106.9459939  43.8212390
  38.6686221 107.6044743  43.4390442  38.9823485 106.1237284  43.4099807
  37.6991119 106.3464997  46.0233710  38.1990897 106.4581532  45.2148029
  38.3426727 106.0426050  46.6634518  38.0312430 109.1060030  42.8768738
  37.1438285 109.3909680  42.6588933  38.4466420 108.9453793  42.0296015
  41.3826967 109.1306551  46.5923077  42.1587357 109.6203003  46.8647694
  40.6575101 109.5564605  47.0494947  43.8199525 109.8434170  47.6497018
  44.4144016 109.6029906  46.9390326  43.8926109 109.1241301  48.2770554
  38.0053454 114.6214566  43.0919028  37.9488656 115.0783117  42.2526660
  38.5581797 113.8605250  42.9141871  41.8158260 110.4104298  43.9169148
  41.5595194 110.0100933  44.7477355  41.1911128 111.1248092  43.7919287
  46.1270598 113.1500371  46.4240439  45.5670156 113.2193560  47.1972001
  45.5214101 112.9741355  45.7039935  38.7388234 115.8119347  40.3871557
  38.6837037 115.6463618  39.4460001  38.1134289 116.5195380  40.5433747
  23.5280748 111.0487411  54.2132979  24.1739612 110.5386365  54.7020205
  23.3197900 111.7856093  54.7876405  32.0484359 105.3127456  39.9656876
  32.0363029 106.2569296  40.1225146  32.9407781 105.1297601  39.6716337
  35.8636478 101.9070233  44.2202812  35.0968874 101.3528719  44.3659495
  36.2747183 101.9792101  45.0816964  27.8678239 108.1955028  58.3107994
  28.7309701 107.8391833  58.5211318  27.2943650 107.8568923  58.9983398
  47.2884864 119.0474727  51.1722503  46.9449134 119.9376369  51.0961614
  47.6563827 118.8576385  50.3092088  49.0872530 118.3068286  46.2740241
  49.3931407 117.4465650  45.9866156  49.8125135 118.8985906  46.0739235
  46.7926702 118.1066612  47.6969223  47.0728455 117.4389801  48.3229650
  47.5777309 118.2995708  47.1843887  50.9528853 120.2842425  46.5637194
  50.7553674 119.9757513  47.4480526  51.5628559 121.0104064  46.6935124
  46.7030233 117.2362150  44.2202812  45.9362629 116.6820637  44.3659495
  47.1140938 117.3084019  45.0816964   4.3525001  31.0133297  33.6914197
   3.5988710  30.4440695  33.5358202   4.4872543  30.9795962  34.6384832
   0.7173614  32.4541286  33.9880312   1.5520505  32.8931090  34.1517872
   0.8532743  31.9779939  33.1688558   4.7631416  31.1708907  36.4234442
   5.4934805  30.9094195  36.9842145   4.1538362  30.4337629  36.4636510
   2.8446714  29.3116770  37.0208893   2.1179877  29.1772735  36.4125384
   2.4294000  29.6193598  37.8265611   0.4624508  25.5328622  34.3742324
   1.0568999  25.2924358  33.6635633   0.5351092  24.8135752  35.0015861
   2.7695581  28.8394823  33.1485746   2.2095139  28.9088012  33.9217308
   2.1639085  28.6635807  32.4285242   4.3551600  45.5151337  35.8415701
   4.9930010  45.3958084  35.1379041   4.2372443  46.4632181  35.9003653
   1.1641306  45.4678765  35.7777226   0.8259818  45.3519829  34.8897761
   2.0331074  45.0669930  35.7578232   1.6461089  46.6213616  41.7363431
   1.6349730  46.2266415  40.8643935   1.8081728  45.8879689  42.3297203
   2.6027680  50.9885209  27.0788582   1.9515660  51.5739289  26.6922596
   3.3972043  51.5191404  27.1383619   3.9092868  43.2402790  32.9168909
   4.6955957  42.8222214  32.5659326   4.1731573  44.1448883  33.0850558
   4.0802946  48.6775641  27.6157566   3.4448779  48.7510267  28.3278471
   3.7500352  49.2669240  26.9376645   9.3101295  43.1778024  33.8201888
  10.0426467  42.6077240  34.0539717   8.5540651  42.7899624  34.2608393
   0.9277415  45.6005265  31.0165230   0.5635622  45.0735886  31.7278152
   1.7844531  45.2103734  30.8431716   6.8326716  36.8899598  38.2796496
   6.5010040  37.7595009  38.0557711   6.2372329  36.5735882  38.9590527
   3.3258235  49.0912144  37.6792409   3.0258958  49.9937183  37.5708216
   2.9809295  48.8244327  38.5313562   6.7255379  41.6094684  35.3589846
   5.8172256  41.5410092  35.0648607   6.6742975  42.0866629  36.1871672
   8.5917025  39.8111122  37.1367720   7.9491406  40.1043656  36.4907515
   8.0871954  39.6964043  37.9420917   6.2457189  43.5574296  27.8253580
   7.1575045  43.7901682  27.6501277   5.7366836  44.1411340  27.2628658
   4.5297957  47.9798923  41.4614872   4.9381313  47.5381334  40.7169505
   3.8075218  47.4051551  41.7149065   0.8829027  42.9171530  38.8348429
   1.7290222  43.3410944  38.9783078   0.8227664  42.2605154  39.5286992
   4.8526771  48.5400114  35.2167161   4.2235634  48.7045828  34.5143229
   4.4652433  48.9541724  35.9878125   8.7316003  49.4754552  32.5711525
   8.0467041  49.8553453  32.0208558   8.8159853  50.0849879  33.3043473
   4.0328472  40.5775899  40.4929603   3.7889404  41.3317959  39.9563879
   4.3088403  40.9561246  41.3276850   5.9866935  47.1214511  39.1706868
   6.1983830  47.7646271  38.4941249   5.9396683  46.2876827  38.7028798
   3.5893164  39.7332332  36.0743441   2.7277643  40.0313585  36.3660178
   3.6155598  39.9502730  35.1424473   7.1012763  49.9986466  37.3429226
   7.9230207  49.5966654  37.0611907   7.0975166  49.8954700  38.2945342
  15.1918756  46.3425215  33.6914197  14.4382464  45.7732613  33.5358202
  15.3266297  46.3087879  34.6384832   0.5817384  51.2138617  29.3668917
   0.4463059  52.0590153  29.7953764   1.1227196  51.4157895  28.6034850
   2.2085860  51.8362184  43.4969259   1.7649714  51.0498562  43.1790163
   2.8703074  52.0241334  42.8313149   4.3067098  52.1164984  41.5250660
   4.2885574  52.9373865  41.0330929   5.2287018  51.9919059  41.7500801
   3.9309847  34.7369179  37.8967810   3.5874117  35.6270821  37.8206921
   4.2988810  34.5470837  37.0337395   3.8960130  44.7277790  26.4040245
   3.3806754  45.4982395  26.6428633   3.6237439  44.0542926  27.0273307
   1.4807241  39.5727491  31.4625484   0.6248838  39.1834341  31.2831122
   1.8934193  39.6519452  30.6025269   3.0106388  37.1073834  35.8617043
   2.5071183  37.0703969  35.0484849   3.3036995  38.0166577  35.9213700
   8.8694404  47.4810145  28.3393419   8.0923847  47.1421304  27.8948581
   9.5485885  47.4862768  27.6648384   3.6846433  42.6004882  28.2300026
   3.3796569  42.9151031  29.0810170   4.6376876  42.6786302  28.2727359
   2.1292865  48.7595105  29.8792980   1.6014227  48.0247865  29.5666218
   1.6280368  49.5369782  29.6332949   7.1085711  46.9544126  34.9960027
   6.4509386  47.6443387  35.0840155   7.9126110  47.3440558  35.3394013
   5.9191170  45.3088499  33.0463968   6.4323052  45.9418491  33.5485678
   6.5692394  44.7089694  32.6807328   3.1813544  55.2872823  25.8024640
   2.5075243  55.5904520  26.4109597   3.5679366  56.0901903  25.4530097
   2.3972001  42.7837954  35.2922309   1.4794562  43.0052901  35.1343997
   2.8132145  42.8584265  34.4334016   3.1807049  44.1829370  30.4224989
   3.9278868  44.6950767  30.1132111   3.4498638  43.8613423  31.2829383
   1.4533699  46.6787911  27.4051943   0.5444918  46.3946943  27.5024413
   1.4828783  47.0986989  26.5455250   6.6852966  50.2894500  31.1743111
   6.2315293  49.4485410  31.2308301   6.0546933  50.9255898  31.5117891
   5.6285886  41.2186486  32.4043778   4.8908643  40.7063872  32.7354021
   5.8812659  40.7786868  31.5927055   5.1285905  52.1270997  32.1092929
   5.4208880  52.6876054  31.3905295   5.6384526  52.4199558  32.8646088
   5.7297513  33.9962738  32.9985548   6.0356390  33.1360102  32.7111463
   6.4550118  34.5880358  32.7984542   1.1509787  48.2196654  24.7440022
   0.7129217  47.5032513  24.2845659   1.8920228  48.4472769  24.1825113
   3.5385164  43.3735415  40.0967012   3.8934552  43.6006889  40.9561477
   4.1857296  43.7053792  39.4744267   9.2682901  46.4953851  30.8016341
   9.1300800  46.6855447  29.8737530   8.9119120  47.2573234  31.2584392
   9.2952281  48.5630378  35.8127612   9.7288788  48.4705667  36.6610666
  10.0083862  48.5387879  35.1747628   3.0280176  52.1632472  37.3460713
   3.0817198  52.7323409  38.1138429   2.1594957  52.3334357  36.9814750
  10.1567831  48.6054079  38.3460497  10.3503721  49.5099889  38.5919772
  10.0568449  48.1461498  39.1799083   1.8104141  38.4911970  40.8450825
   1.1632056  39.1901919  40.7515301   2.5805157  38.9248113  41.2127073
   5.2182939  48.7560822  43.9201378   5.0668446  48.5271373  43.0031462
   5.2087619  49.7131423  43.9332723   1.9868276  46.3292734  38.9047645
   2.9160336  46.4803894  38.7316612   1.5659306  46.4176755  38.0496291
   1.3804759  55.4552495  28.0171719   1.5556515  54.9840539  28.8317341
   0.6937547  56.0818262  28.2452979   2.3361823  49.7325002  34.0635020
   2.0011655  49.6925772  34.9592670   1.8365768  49.0669718  33.5905430
   5.2721014  47.0781036  24.3372080   4.6550185  46.3527864  24.2405132
   4.8037503  47.8390396  23.9939154   6.9275146  51.7879944  41.9977860
   6.8687692  51.1039164  41.3308443   7.3294664  52.5298934  41.5458486
   6.9292553  49.7519528  40.2291840   6.0419332  49.4145450  40.3518239
   7.4991104  49.0202559  40.4660605   3.5580136  39.4587380  33.3490110
   4.0548836  38.7057342  33.0291180   2.7867118  39.4951697  32.7833319
  11.4109894  45.1627746  34.9908401  11.3999770  46.0452461  34.6202334
  10.5427273  44.8099296  34.7962938   2.9192390  54.3107815  39.3511242
   3.6320362  54.9455279  39.2787143   2.4282419  54.4071681  38.5351243
   4.6409917  48.2159067  30.9228533   3.7066196  48.3360530  30.7533238
   4.8186585  47.3131534  30.6588543   8.0282468  44.0576387  31.4578567
   8.4942921  44.8904378  31.3838870   8.4789969  43.5921368  32.1623826
   6.0958699  50.4020208  28.4564719   6.3718543  50.2876802  29.3658593
   5.2263198  50.0037693  28.4176892   5.9999131  36.4256974  35.4969469
   5.0862211  36.6561200  35.6651676   6.4292233  36.5095418  36.3483501
   5.7705590  44.6146866  37.9969363   5.1177040  44.8622773  37.3421815
   6.1485969  43.8011004  37.6631840   2.7312763  54.6506559  32.0997533
   2.9135158  53.8328215  32.5625285   3.5545749  54.8674251  31.6622423
   3.0654929  53.5774744  29.3612581   3.5942695  53.0667198  28.7482744
   3.3283149  53.2617274  30.2258114   1.8193163  45.3566677  44.4835400
   1.1433800  45.2560806  45.1537775   2.6420797  45.2005890  44.9471397
   0.5615946  56.6633604  38.7193016   1.1134254  56.8265226  39.4842101
   0.9022139  57.2538042  38.0473041   5.4126820  51.4894862  44.5741670
   5.9566724  52.1024820  44.0796625   4.8313665  52.0474440  45.0908683
   3.6984333  54.6115580  35.7056698   3.5735472  53.8105319  35.1967643
   4.3563424  55.1061773  35.2170668   5.7619241  52.4124600  37.3336248
   4.8149577  52.2929951  37.2614575   6.1102014  51.5247098  37.4162509
   2.7665674  52.2077316  33.5340600   2.6190637  51.2794023  33.7148170
   3.5919168  52.2297407  33.0497675   6.3699796  53.0305875  34.6205473
   7.2946344  52.8248736  34.4829924   6.2015100  52.7822276  35.5294814
   2.7627189  40.0615154  28.5272717   2.9790803  40.9439791  28.2261546
   2.2821256  39.6701367  27.7978359   1.2148924  40.4440755  37.1977479
   0.9566702  41.3657826  37.1961809   0.6833964  40.0471189  37.8877943
   6.1595113  53.5491542  29.9767564   6.3331990  52.9837965  29.2241417
   6.6524004  54.3492437  29.7947054   1.6350879  36.5772705  33.5578642
   1.6572576  36.6412039  32.6030621   2.0518938  35.7377214  33.7519148
  12.0134504  46.3127965  31.5957864  12.4565650  45.5635290  31.1976987
  11.1361014  46.3038101  31.2131596   7.1470285  52.8658306  27.0764463
   7.8421190  53.4864999  27.2951777   7.4893435  52.0153658  27.3516841
   9.0461708  50.3158012  28.6051793   9.5713032  50.6545285  27.8801114
   8.9584061  49.3805027  28.4214928   0.7081757  54.2292086  40.7341670
   1.0168883  53.9841232  41.6064370   1.5057239  54.4338724  40.2460540
   8.7355614  50.9490916  43.9102991   7.9451158  50.9315054  43.3707491
   8.4988969  51.4879209  44.6652028   8.8553489  47.7983382  41.2235720
   8.9051494  47.6333389  42.1651243   8.7467413  46.9310641  40.8333601
   6.1457252  43.7814310  42.5395027   7.0467114  43.6420775  42.2479024
   6.2205226  43.9468765  43.4793204  10.3571686  50.2180323  41.4677742
  10.0656494  50.5810304  42.3041202   9.7443817  49.5047332  41.2891074
  11.5567368  47.7833203  33.9880312  12.3914260  48.2223007  34.1517872
  11.6926497  47.3071856  33.1688558   8.6058874  45.3412938  39.9357800
   9.0812996  45.5340584  39.1276651   7.6824440  45.3972124  39.6901183
   3.1839091  37.3760782  38.9013633   3.7021035  38.1121809  38.5760122
   2.8294224  37.6824775  39.7360393   3.4351685  33.7961064  34.4214530
   3.7153439  33.1284253  35.0474957   4.2202292  33.9890160  33.9089194
   1.2385153  52.9720058  25.9839556   0.6659121  53.5910245  25.5310028
   1.8117947  53.5219420  26.5179478   7.3060543  42.2178698  38.1686105
   8.2577966  42.3176796  38.1898329   7.1363994  41.4256967  38.6784189
   5.3274923  39.3034281  38.3545506   4.7324855  39.5839294  37.6591995
   5.0424619  39.7928182  39.1262247   4.4582413  53.2557208  27.1148139
   5.3913086  53.1902770  27.3181014   4.3705626  54.0913475  26.6562671
   7.0870430  52.5723079  24.0752086   7.0084061  52.2382942  24.9687844
   7.9080097  53.0644847  24.0743558   9.7848621  45.4384818  37.2828405
   9.7524941  44.5000819  37.4688089  10.3949245  45.5168855  36.5494230
   1.6231952  44.3080871  23.3255609   2.5691057  44.1787079  23.3944027
   1.2446197  43.5695533  23.8025037   9.9343110  42.2295861  37.3286688
   9.4182158  41.4454318  37.1416617  10.8183058  41.9014578  37.4933207
   7.5953836  35.9736877  33.2882501   7.3978658  35.6651965  34.1725833
   8.2053542  36.6998516  33.4180430  15.6025171  46.5000825  36.4234442
  16.3328559  46.2386113  36.9842145  14.9932116  45.7629547  36.4636510
  13.6840468  44.6408687  37.0208893  12.9573632  44.5064652  36.4125384
  13.2687755  44.9485516  37.8265611   1.5070644  48.3598617  44.7856266
   2.4273654  48.5377216  44.9796312   1.4720228  47.4154662  44.6335965
   1.4236935  36.7767737  29.4154735   0.6137663  36.4314822  29.7909981
   2.1121352  36.4675281  30.0042347   3.3527483  35.8545784  31.0379032
   3.9058522  36.2741237  31.6969055   3.5897569  34.9281532  31.0801988
   6.7306290  37.9646309  30.5457696   6.1504959  38.6231113  30.1635749
   6.4642223  37.1423654  30.1345114   5.1809857  37.3651367  32.7479017
   5.6809635  37.4767901  31.9393335   5.8245465  37.0612419  33.3879825
   5.5131168  40.1246399  29.6014044   4.6257023  40.4096050  29.3834239
   5.9285157  39.9640163  28.7541321   8.8645704  40.1492920  33.3168384
   9.6406094  40.6389373  33.5893001   8.1393839  40.5750975  33.7740253
  11.3018263  40.8620540  34.3742324  11.8962754  40.6216275  33.6635633
  11.3744847  40.1427670  35.0015861   4.6574382  49.8891074  23.6962064
   5.3610232  50.0941076  24.3119720   3.9337030  50.4567836  23.9611148
   5.4872192  45.6400935  29.8164335   5.4307393  46.0969487  28.9771967
   6.0400534  44.8791620  29.6387177   9.2976998  41.4290667  30.6414454
   9.0413932  41.0287303  31.4722662   8.6729866  42.1434461  30.5164593
  13.6089336  44.1686740  33.1485746  13.0488894  44.2379930  33.9217308
  13.0032839  43.9927725  32.4285242   6.5661079  50.3273603  25.7460525
   7.4006683  49.8954802  25.5637999   6.4045422  50.1555617  26.6737419
   6.2206971  46.8305717  27.1116864   6.1655775  46.6649988  26.1705308
   5.5953027  47.5381749  27.2679054   3.5352878  49.1354628  46.4370427
   4.4044038  49.3095281  46.0757062   3.0559630  49.9549045  46.3146156
   3.3455216  32.9256602  30.9448119   2.5787612  32.3715089  31.0904801
   3.7565921  32.9978471  31.8062271  15.1945354  60.8443254  35.8415701
  15.8323764  60.7250002  35.1379041  15.0766197  61.7924098  35.9003653
  12.0035060  60.7970682  35.7777226  11.6653572  60.6811747  34.8897761
  12.8724829  60.3961848  35.7578232   7.8621876  62.6506159  31.7674117
   7.2986741  62.5596096  30.9990405   7.7474271  61.8306063  32.2476609
  12.4854843  61.9505534  41.7363431  12.4743484  61.5558332  40.8643935
  12.6475483  61.2171607  42.3297203   5.4086308  64.1457350  34.6058337
   6.2007600  63.8048175  34.1904637   5.6482958  64.2552325  35.5260491
  13.4421435  66.3177127  27.0788582  12.7909415  66.9031207  26.6922596
  14.2365798  66.8483321  27.1383619   7.3677062  63.4066264  27.4775716
   8.1407938  62.8595251  27.3388592   7.7202461  64.2710513  27.6890178
   9.2062105  64.7342646  40.6842615   8.9151971  65.6388277  40.5689282
   9.8419089  64.7759174  41.3986685  10.1318311  62.1119494  37.2743975
  10.7281884  61.8875517  36.5600938  10.1893283  61.3704240  37.8769423
   9.7043340  59.5658930  25.1094166   9.9568861  59.0440451  24.3477629
   8.7667899  59.4025075  25.2120850  14.7486623  58.5694708  32.9168909
  15.5349712  58.1514131  32.5659326  15.0125327  59.4740800  33.0850558
  14.9196700  64.0067558  27.6157566  14.2842533  64.0802185  28.3278471
  14.5894106  64.5961157  26.9376645  20.1495050  58.5069941  33.8201888
  20.8820222  57.9369158  34.0539717  19.3934406  58.1191542  34.2608393
   9.4239629  61.4687036  27.3118541   9.3075887  60.7931939  27.9799625
   9.5341888  60.9819410  26.4950694  11.7671170  60.9297183  31.0165230
  11.4029377  60.4027804  31.7278152  12.6238285  60.5395652  30.8431716
  17.6720470  52.2191515  38.2796496  17.3403795  53.0886926  38.0557711
  17.0766084  51.9027799  38.9590527  11.4076657  55.9587083  26.0126579
  11.5751059  56.8267319  26.3797050  11.2173826  56.1214364  25.0887868
  14.1651990  64.4204061  37.6792409  13.8652713  65.3229100  37.5708216
  13.8203049  64.1536245  38.5313562   7.6164471  60.8717858  33.7129114
   6.6914968  60.7394072  33.9206805   7.8648884  61.6512078  34.2099056
  17.5649133  56.9386602  35.3589846  16.6566011  56.8702010  35.0648607
  17.5136729  57.4158547  36.1871672  11.3865877  58.4144740  26.9973246
  11.2665503  58.8601791  27.8358726  10.6918466  58.7630058  26.4386784
   4.9773282  60.5151132  34.5472903   5.1065663  60.7685611  35.4612314
   4.2970734  61.1078840  34.2277558   9.1472769  71.1848382  30.6463377
   9.0696799  72.1356207  30.7251857   8.5434413  70.8394254  31.3038303
  11.6389999  58.3576247  43.3024744  10.8623333  58.9170167  43.2927608
  12.2780562  58.8433030  43.8239614  19.4310780  55.1403040  37.1367720
  18.7885160  55.4335573  36.4907515  18.9265708  55.0255960  37.9420917
  17.0850944  58.8866213  27.8253580  17.9968800  59.1193600  27.6501277
  16.5760591  59.4703257  27.2628658   9.8936372  61.1661701  42.8642711
  10.6351056  61.7046745  42.5877534   9.1873357  61.7927989  43.0214263
  15.3691711  63.3090841  41.4614872  15.7775067  62.8673252  40.7169505
  14.6468973  62.7343469  41.7149065  11.7222781  58.2463448  38.8348429
  12.5683976  58.6702861  38.9783078  11.6621419  57.5897072  39.5286992
  15.6920526  63.8692032  35.2167161  15.0629388  64.0337746  34.5143229
  15.3046188  64.2833641  35.9878125  19.5709758  64.8046470  32.5711525
  18.8860796  65.1845371  32.0208558  19.6553607  65.4141796  33.3043473
  14.8722227  55.9067816  40.4929603  14.6283158  56.6609877  39.9563879
  15.1482157  56.2853164  41.3276850  16.8260689  62.4506429  39.1706868
  17.0377585  63.0938188  38.4941249  16.7790438  61.6168745  38.7028798
  14.4286918  55.0624249  36.0743441  13.5671397  55.3605503  36.3660178
  14.4549353  55.2794648  35.1424473  11.2448488  63.6066440  32.4817246
  11.7086833  63.8854143  31.6921869  10.9805286  62.7049884  32.2990337
   8.1372569  63.1537921  35.4197009   8.7073926  63.5825190  34.7814494
   8.7280681  62.8720506  36.1181195  10.1817374  59.7289592  29.2906811
  10.8841417  60.1810636  29.7580738   9.8498002  59.0873411  29.9186704
   8.6297735  58.3201349  43.6658021   7.9996396  59.0017630  43.8993418
   8.5233823  58.2084430  42.7211159   3.9242708  57.9873145  34.5923945
   3.1341762  58.2430673  34.1164056   4.4153955  58.8021483  34.6975985
  17.9406517  65.3278384  37.3429226  18.7623961  64.9258571  37.0611907
  17.9368920  65.2246618  38.2945342   5.8757453  58.3517724  31.5507422
   5.0788616  58.4636418  32.0690917   5.6483045  58.6904376  30.6848312
  11.7063121  64.8762427  39.4989936  11.7707553  65.3382835  40.3348108
  10.9974045  64.2459792  39.6272246   2.2080411  58.2403635  37.0238936
   2.4588449  59.1250645  37.2896512   2.7439959  58.0608237  36.2514028
  26.0312510  61.6717132  33.6914197  25.2776219  61.1024531  33.5358202
  26.1660052  61.6379797  34.6384832  11.4211138  66.5430535  29.3668917
  11.2856813  67.3882070  29.7953764  11.9620951  66.7449812  28.6034850
   7.9078478  52.6222115  46.0283272   7.5145424  52.0688313  46.7030916
   8.7244618  52.9332693  46.4189789   4.8740536  64.0605973  29.9396842
   5.3865056  64.8549223  30.0902406   5.5263249  63.3632263  29.8730443
   6.6835420  67.1771729  32.0219595   6.8602049  68.0989694  31.8340579
   7.4792254  66.8630148  32.4513975  10.8246439  54.0379994  43.6203528
  11.5656152  54.6387147  43.5407991  11.0564362  53.2957632  43.0621571
   5.9687777  59.2236361  41.8981758   5.8541292  58.3221618  42.1988857
   5.1132295  59.4700058  41.5466575  13.0479615  67.1654101  43.4969259
  12.6043469  66.3790480  43.1790163  13.7096828  67.3533252  42.8313149
   7.8066736  68.6949903  38.0229937   8.3574161  68.5666966  37.2506931
   6.9678212  68.9944792  37.6724830  15.1460853  67.4456901  41.5250660
  15.1279328  68.2665782  41.0330929  16.0680773  67.3210976  41.7500801
  11.6033907  64.9601031  42.3674168  12.1362244  64.1989319  42.1373476
  11.0747988  64.6674683  43.1098323  14.7703602  50.0661097  37.8967810
  14.4267871  50.9562738  37.8206921  15.1382565  49.8762754  37.0337395
   2.8389453  62.3894627  30.7156412   3.6764675  62.7991635  30.4990120
   3.0167720  61.4494069  30.6856606  14.7353885  60.0569708  26.4040245
  14.2200508  60.8274312  26.6428633  14.4631193  59.3834844  27.0273307
  12.3200996  54.9019409  31.4625484  11.4642592  54.5126259  31.2831122
  12.7327947  54.9811369  30.6025269  13.8500142  52.4365752  35.8617043
  13.3464938  52.3995887  35.0484849  14.1430749  53.3458495  35.9213700
  10.0943028  52.5204482  34.8683225  10.9596025  52.3247290  34.5089114
  10.1620537  52.2914833  35.7952582  19.7088159  62.8102062  28.3393419
  18.9317602  62.4713222  27.8948581  20.3879640  62.8154686  27.6648384
  14.5240188  57.9296800  28.2300026  14.2190323  58.2442949  29.0810170
  15.4770630  58.0078220  28.2727359  12.9686620  64.0887023  29.8792980
  12.4407981  63.3539783  29.5666218  12.4674122  64.8661700  29.6332949
  17.9479466  62.2836044  34.9960027  17.2903140  62.9735305  35.0840155
  18.7519865  62.6732476  35.3394013   7.7005347  54.7506689  32.2399592
   8.2749099  54.5281871  31.5072785   8.2876330  54.8195384  32.9928193
  16.7584925  60.6380416  33.0463968  17.2716806  61.2710408  33.5485678
  17.4086148  60.0381612  32.6807328   8.0274934  56.7811150  26.2595477
   7.1912247  57.1185837  26.5804752   7.8879704  56.6460130  25.3222614
  10.0028015  51.6247938  30.9674661   9.3492427  51.3096956  30.3431276
   9.9608489  51.0023679  31.6934484  11.1139220  61.9067233  22.8827953
  10.2066282  61.6756487  23.0819102  11.6110252  61.1104853  23.0701935
  14.0207299  70.6164741  25.8024640  13.3468998  70.9196437  26.4109597
  14.4073121  71.4193821  25.4530097  13.2365755  58.1129872  35.2922309
  12.3188317  58.3344819  35.1343997  13.6525899  58.1876182  34.4334016
  14.0200803  59.5121288  30.4224989  14.7672622  60.0242685  30.1132111
  14.2892393  59.1905340  31.2829383  12.2927453  62.0079828  27.4051943
  11.3838673  61.7238861  27.5024413  12.3222537  62.4278907  26.5455250
  17.5246721  65.6186418  31.1743111  17.0709048  64.7777328  31.2308301
  16.8940687  66.2547816  31.5117891  16.4679640  56.5478404  32.4043778
  15.7302397  56.0355790  32.7354021  16.7206414  56.1078785  31.5927055
  15.9679660  67.4562914  32.1092929  16.2602634  68.0167972  31.3905295
  16.4778281  67.7491475  32.8646088  16.5691268  49.3254656  32.9985548
  16.8750144  48.4652019  32.7111463  17.2943872  49.9172276  32.7984542
   2.8615624  59.7285342  31.3867146   2.6640024  59.1354703  30.6618212
   2.3062288  59.4237553  32.1043084  10.8412347  59.6208449  33.5061739
  10.8960957  58.6682285  33.4304215  10.0303549  59.7767888  33.9903037
  11.9903541  63.5488572  24.7440022  11.5522971  62.8324431  24.2845659
  12.7313982  63.7764687  24.1825113   8.7804707  58.2385509  31.2652118
   7.9672573  58.5379679  31.6717310   9.2763701  57.8441197  31.9826600
  10.9313285  68.2343266  33.1986382  10.8889464  68.4604112  32.2694914
  11.8475984  68.0006640  33.3472184  14.3778919  58.7027333  40.0967012
  14.7328307  58.9298806  40.9561477  15.0251050  59.0345710  39.4744267
  20.1076656  61.8245769  30.8016341  19.9694555  62.0147365  29.8737530
  19.7512875  62.5865152  31.2584392   8.2718782  55.8103864  36.8813353
   8.9118161  55.6692623  36.1836316   7.4396313  55.5238378  36.5051955
  20.1346036  63.8922296  35.8127612  20.5682542  63.7997585  36.6610666
  20.8477616  63.8679796  35.1747628   9.0479086  65.1106295  32.9948345
   9.8419684  64.6156615  32.7930920   8.3370778  64.5824158  32.6316051
  13.8673930  67.4924390  37.3460713  13.9210953  68.0615326  38.1138429
  12.9988712  67.6626275  36.9814750   5.3561849  59.2549376  29.0708098
   4.4259438  59.1933832  29.2878060   5.4519321  58.7325329  28.2744739
   5.2747398  55.7804189  31.6586339   5.5354216  56.6949522  31.5495500
   6.0964571  55.3128632  31.8082952   6.7472324  57.1941946  38.8285164
   7.4195377  56.9859308  38.1797813   5.9202110  56.9964032  38.3890396
  20.9961585  63.9345997  38.3460497  21.1897475  64.8391807  38.5919772
  20.8962203  63.4753416  39.1799083  12.6497896  53.8203887  40.8450825
  12.0025811  54.5193837  40.7515301  13.4198911  54.2540031  41.2127073
  16.0576694  64.0852739  43.9201378  15.9062200  63.8563291  43.0031462
  16.0481373  65.0423341  43.9332723  12.8262030  61.6584652  38.9047645
  13.7554090  61.8095812  38.7316612  12.4053060  61.7468673  38.0496291
  11.6250362  65.6835317  36.6746182  11.4861448  65.3154101  37.5472120
  10.8364958  66.1982956  36.5030140  12.2198514  70.7844413  28.0171719
  12.3950270  70.3132456  28.8317341  11.5331302  71.4110179  28.2452979
  13.1755577  65.0616919  34.0635020  12.8405410  65.0217689  34.9592670
  12.6759523  64.3961635  33.5905430   7.1499821  60.4684549  39.5887601
   7.0119619  59.7364788  40.1899140   8.0604745  60.3793449  39.3071789
  16.1114769  62.4072954  24.3372080  15.4943939  61.6819782  24.2405132
  15.6431257  63.1682314  23.9939154   9.7782122  60.1804509  39.0771281
  10.4881740  59.5397701  39.0357899   9.7351430  60.4317403  39.9997462
  17.7668900  67.1171862  41.9977860  17.7081447  66.4331082  41.3308443
  18.1688419  67.8590852  41.5458486   8.4911056  57.1669727  40.8966920
   7.9548413  56.7160465  41.5488517   7.9027764  57.3015635  40.1537385
   6.7859599  73.9333776  34.7911579   7.0256197  74.5652300  35.4690597
   5.9428796  73.5821816  35.0776938   7.9013315  56.6258378  23.4593384
   7.0242781  56.5047179  23.0955631   8.3771068  55.8344456  23.2072273
  17.7686308  65.0811446  40.2291840  16.8813086  64.7437368  40.3518239
  18.3384859  64.3494477  40.4660605   4.2250177  56.3025734  37.9819915
   4.1408366  55.6951404  37.2470325   3.4032883  56.7934753  37.9829411
  11.2987461  69.7412898  37.1953083  11.2257633  70.5467870  37.7072387
  10.8564854  69.9404864  36.3701104  11.0877241  68.9784668  30.7055904
  10.3044763  69.5206348  30.7994129  11.7869986  69.4958648  31.1050146
  14.3973891  54.7879298  33.3490110  14.8942590  54.0349260  33.0291180
  13.6260872  54.8243614  32.7833319  22.2503648  60.4919663  34.9908401
  22.2393524  61.3744379  34.6202334  21.3821028  60.1391214  34.7962938
  13.7586145  69.6399732  39.3511242  14.4714117  70.2747197  39.2787143
  13.2676173  69.7363598  38.5351243  15.4803671  63.5450985  30.9228533
  14.5459950  63.6652447  30.7533238  15.6580340  62.6423452  30.6588543
  10.9808860  56.9296681  33.0761794  10.6106647  56.3767721  33.7642700
  11.4767952  56.3254814  32.5236794  18.8676223  59.3868304  31.4578567
  19.3336675  60.2196296  31.3838870  19.3183723  58.9213286  32.1623826
   8.8098058  67.3894176  40.1716812   9.5107518  68.0230659  40.3246207
   8.3393173  67.7308907  39.4112452  16.9352454  65.7312126  28.4564719
  17.2112298  65.6168720  29.3658593  16.0656953  65.3329610  28.4176892
  16.8392886  51.7548891  35.4969469  15.9255965  51.9853118  35.6651676
  17.2685987  51.8387335  36.3483501  16.6099344  59.9438783  37.9969363
  15.9570794  60.1914691  37.3421815  16.9879724  59.1302921  37.6631840
  13.5706518  69.9798476  32.0997533  13.7528913  69.1620132  32.5625285
  14.3939504  70.1966169  31.6622423  13.9048683  68.9066662  29.3612581
  14.4336450  68.3959116  28.7482744  14.1676903  68.5909192  30.2258114
  12.6586917  60.6858594  44.4835400  11.9827554  60.5852724  45.1537775
  13.4814551  60.5297808  44.9471397   4.4065776  66.9230531  37.1047915
   4.9919213  66.1774219  37.2375819   4.2090615  67.2334488  37.9884579
   7.2604431  69.9581778  32.1210357   6.5914807  70.4427906  31.6374397
   7.1217301  70.2050999  33.0353736  11.4009700  71.9925522  38.7193016
  11.9528008  72.1557143  39.4842101  11.7415893  72.5829960  38.0473041
   6.3774193  54.3400672  39.3214900   6.4415520  55.2015502  38.9092298
   6.3141313  53.7274673  38.5887259   5.8526466  56.4123804  42.9687935
   6.4798505  56.0300881  43.5825459   4.9954385  56.1938006  43.3343627
  16.2520574  66.8186779  44.5741670  16.7960478  67.4316737  44.0796625
  15.6707419  67.3766358  45.0908683   2.6292009  58.2200233  28.9006290
   2.9245450  57.3110912  28.8473343   1.7280044  58.1987973  28.5787292
  14.5378087  69.9407497  35.7056698  14.4129227  69.1397237  35.1967643
  15.1957178  70.4353691  35.2170668   6.1586256  56.2956230  34.8833838
   5.4372841  56.9092197  34.7441311   6.9479511  56.8313995  34.8050484
  16.6012996  67.7416517  37.3336248  15.6543331  67.6221869  37.2614575
  16.9495769  66.8539015  37.4162509   8.9612569  53.6310656  41.1574490
   9.4846971  53.8772953  41.9200799   8.7424902  54.4630691  40.7377627
   4.3579850  55.9014331  29.0245615   4.0292556  55.0211710  28.8420721
   4.7119221  55.8462000  29.9122004  13.6059429  67.5369234  33.5340600
  13.4584391  66.6085941  33.7148170  14.4312922  67.5589324  33.0497675
   7.4721673  56.1887301  29.3921092   7.8117746  56.7173222  28.6699701
   7.9193794  56.5267707  30.1679659  17.2093551  68.3597792  34.6205473
  18.1340098  68.1540654  34.4829924  17.0408854  68.1114193  35.5294814
  10.1665114  54.5724351  38.8424160   9.8261934  53.7732164  39.2444840
   9.4604120  54.8726062  38.2700994  10.8181586  51.6573664  37.2951483
  11.6407655  51.1834142  37.1730374  11.0619649  52.4364148  37.7950170
   9.4589820  54.6861922  27.5914385  10.1798183  55.0643175  27.0878102
   8.8355125  55.4050799  27.6949363  13.6020943  55.3907071  28.5272717
  13.8184558  56.2731709  28.2261546  13.1215010  54.9993285  27.7978359
   8.3420165  58.3492784  35.1043462   8.1964745  58.6633087  35.9967744
   7.8645368  58.9677685  34.5514361  10.2016548  55.3395332  35.1524352
  10.1878116  54.4436426  34.8156650  10.9188976  55.3465996  35.7862638
  12.0542678  55.7732673  37.1977479  11.7960456  56.6949743  37.1961809
  11.5227719  55.3763107  37.8877943  16.9988867  68.8783460  29.9767564
  17.1725745  68.3129882  29.2241417  17.4917758  69.6784355  29.7947054
   2.8165827  60.8898129  38.0431123   2.2719295  61.6657937  38.1751398
   3.6945177  61.2368933  37.8850245   9.6053443  54.2209713  30.4211922
   9.7269355  53.2926359  30.6202809   9.3155486  54.2348399  29.5090237
  12.4744634  51.9064623  33.5578642  12.4966331  51.9703956  32.6030621
  12.8912693  51.0669132  33.7519148  22.8528258  61.6419883  31.5957864
  23.2959404  60.8927208  31.1976987  21.9754768  61.6330019  31.2131596
  17.9864039  68.1950224  27.0764463  18.6814944  68.8156917  27.2951777
  18.3287190  67.3445575  27.3516841   3.6031849  60.0168025  40.9361280
   2.8613585  60.1650660  41.5225911   3.2824593  60.2776291  40.0728030
  19.8855463  65.6449930  28.6051793  20.4106787  65.9837202  27.8801114
  19.7977815  64.7096945  28.4214928  11.5475511  69.5584003  40.7341670
  11.8562638  69.3133150  41.6064370  12.3450993  69.7630642  40.2460540
  11.5696123  71.7121913  32.9647047  11.1301114  71.2198292  33.6579903
  12.3204240  71.1694881  32.7239122   4.0488462  67.9033454  32.9671675
   4.8746482  67.6037226  32.5870318   3.6982514  67.1341076  33.4161463
   9.0169996  67.2559922  35.0369348   8.3950005  66.5930627  34.7371576
   9.6874862  67.2821054  34.3542996   2.2497067  65.8219780  33.9260608
   1.4128976  65.3941955  33.7444610   2.2220713  66.0152224  34.8631400
   9.0894523  55.7341710  44.6301854   9.1382678  56.6103833  44.2479624
   9.6317037  55.1919103  44.0573498  19.5749369  66.2782833  43.9102991
  18.7844912  66.2606972  43.3707491  19.3382723  66.8171127  44.6652028
  19.6947244  63.1275300  41.2235720  19.7445249  62.9625307  42.1651243
  19.5861167  62.2602559  40.8333601   8.5783502  65.8063845  28.5127809
   8.7271623  66.4899310  27.8594482   9.3849946  65.7868935  29.0277265
  16.9851006  59.1106228  42.5395027  17.8860869  58.9712693  42.2479024
  17.0598981  59.2760683  43.4793204  11.3193811  56.4873082  41.3848213
  10.4497121  56.7806648  41.1130802  11.5553292  57.0713527  42.1055477
  21.1965441  65.5472241  41.4677742  20.9050249  65.9102222  42.3041202
  20.5837572  64.8339249  41.2891074  22.3961123  63.1125121  33.9880312
  23.2308014  63.5514925  34.1517872  22.5320252  62.6363774  33.1688558
  19.4452629  60.6704856  39.9357800  19.9206750  60.8632502  39.1276651
  18.5218194  60.7264042  39.6901183   6.3336135  61.8329023  29.5188878
   6.0882177  60.9291353  29.7169088   6.5032050  61.8346173  28.5768356
  14.0232845  52.7052699  38.9013633  14.5414789  53.4413726  38.5760122
  13.6687978  53.0116693  39.7360393   5.6031783  57.5657381  27.0175039
   4.9101028  57.6401736  26.3615075   5.3583535  56.8017724  27.5396556
  14.2745439  49.1252982  34.4214530  14.5547193  48.4576171  35.0474957
  15.0596046  49.3182078  33.9089194  12.0778908  68.3011976  25.9839556
  11.5052875  68.9202163  25.5310028  12.6511702  68.8511337  26.5179478
  18.1454298  57.5470616  38.1686105  19.0971721  57.6468714  38.1898329
  17.9757748  56.7548884  38.6784189  16.1668677  54.6326199  38.3545506
  15.5718609  54.9131212  37.6591995  15.8818374  55.1220100  39.1262247
  15.2976168  68.5849126  27.1148139  16.2306841  68.5194688  27.3181014
  15.2099381  69.4205393  26.6562671  17.9264184  67.9014996  24.0752086
  17.8477816  67.5674860  24.9687844  18.7473851  68.3936764  24.0743558
  20.6242376  60.7676736  37.2828405  20.5918696  59.8292736  37.4688089
  21.2342999  60.8460772  36.5494230  12.4625706  59.6372789  23.3255609
  13.4084811  59.5078997  23.3944027  12.0839951  58.8987450  23.8025037
  20.7736864  57.5587779  37.3286688  20.2575913  56.7746236  37.1416617
  21.6576813  57.2306496  37.4933207  18.4347591  51.3028795  33.2882501
  18.2372412  50.9943883  34.1725833  19.0447297  52.0290433  33.4180430
  26.4418925  61.8292742  36.4234442  27.1722314  61.5678031  36.9842145
  25.8325871  61.0921464  36.4636510  24.5234223  59.9700605  37.0208893
  23.7967386  59.8356570  36.4125384  24.1081509  60.2777434  37.8265611
  12.3464399  63.6890535  44.7856266  13.2667408  63.8669134  44.9796312
  12.3113982  62.7446580  44.6335965  10.6468624  57.5622765  23.2610494
   9.7400079  57.2655878  23.3373208  10.9244605  57.2652583  22.3944780
   1.5646564  58.8829128  33.7109540   1.2449348  58.0294437  33.4183914
   1.0179992  59.0977707  34.4667508   5.3426472  61.5991569  37.4279047
   5.5612481  62.5308677  37.4467081   5.7552245  61.2399544  38.2133851
  12.2630689  52.1059655  29.4154735  11.4531418  51.7606740  29.7909981
  12.9515106  51.7967198  30.0042347  14.1921238  51.1837701  31.0379032
  14.7452276  51.6033155  31.6969055  14.4291324  50.2573450  31.0801988
  10.2154337  57.1724775  46.8181796  10.1151064  58.1219132  46.7493887
   9.9975879  56.8443014  45.9457866   9.4167408  54.4209700  23.4022473
  10.2786572  54.7464598  23.6618291   9.6017752  53.6341196  22.8895539
   1.4334824  62.5032040  35.6802662   0.7398295  62.0885993  35.1672616
   2.1807815  62.5452576  35.0836081  17.5700045  53.2938227  30.5457696
  16.9898714  53.9523031  30.1635749  17.3035977  52.4715571  30.1345114
  16.0203611  52.6943284  32.7479017  16.5203389  52.8059819  31.9393335
  16.6639219  52.3904337  33.3879825  10.0785607  60.6021914  45.6346858
   9.5952689  61.4022274  45.8410747  10.1646546  60.6129859  44.6814302
   3.3471567  62.4350294  33.5568677   3.3242255  62.5337981  32.6050560
   3.6572203  63.2815444  33.8785843   6.0058944  64.4926449  37.6715291
   6.9602198  64.4610391  37.6045223   5.8071468  64.0317072  38.4865517
   6.5958327  63.0627565  40.2386089   7.4151216  63.5571643  40.2620926
   6.8695134  62.1459533  40.2103656  16.3524923  55.4538317  29.6014044
  15.4650778  55.7387968  29.3834239  16.7678912  55.2932080  28.7541321
  19.7039459  55.4784838  33.3168384  20.4799849  55.9681290  33.5893001
  18.9787593  55.9042892  33.7740253  22.1412017  56.1912457  34.3742324
  22.7356508  55.9508193  33.6635633  22.2138601  55.4719588  35.0015861
   4.3609173  70.0346068  34.6885489   4.2263641  69.2746469  34.1223487
   3.9441235  70.7586968  34.2214278  15.4968136  65.2182992  23.6962064
  16.2003986  65.4232994  24.3119720  14.7730785  65.7859754  23.9611148
  16.3265946  60.9692853  29.8164335  16.2701148  61.4261404  28.9771967
  16.8794289  60.2083538  29.6387177  20.1370752  56.7582585  30.6414454
  19.8807687  56.3579220  31.4722662  19.5123620  57.4726379  30.5164593
  24.4483090  59.4978658  33.1485746  23.8882648  59.5671847  33.9217308
  23.8426594  59.3219643  32.4285242   7.5178299  70.9315385  34.9003932
   7.4010683  71.8760818  34.7982622   6.6970745  70.6288947  35.2889731
  17.4054834  65.6565521  25.7460525  18.2400438  65.2246719  25.5637999
  17.2439177  65.4847535  26.6737419  17.0600726  62.1597634  27.1116864
  17.0049530  61.9941906  26.1705308  16.4346781  62.8673667  27.2679054
   1.8493241  57.3965699  40.9378286   2.4952104  56.8864653  41.4265511
   1.6410392  58.1334380  41.5121711  14.3746633  64.4646546  46.4370427
  15.2437793  64.6387198  46.0757062  13.8953384  65.2840963  46.3146156
  10.3696851  51.6605743  26.6902182  10.3575521  52.6047583  26.8470453
  11.2620273  51.4775889  26.3961643   8.5432813  71.5843647  38.1159860
   9.4460060  71.6167257  38.4326355   8.3170183  70.6544098  38.1306196
  10.2986415  70.3374634  34.7769939   9.3482046  70.3376495  34.6634311
  10.6018901  69.5907368  34.2605973  14.1848971  48.2548520  30.9448119
  13.4181366  47.7007007  31.0904801  14.5959676  48.3270389  31.8062271
   6.1890732  54.5433316  45.0353300   7.0522193  54.1870120  45.2456625
   5.6156142  54.2047210  45.7228705  26.0339109  76.1735172  35.8415701
  26.6717519  76.0541919  35.1379041  25.9159952  77.1216016  35.9003653
  22.8428815  76.1262600  35.7777226  22.5047326  76.0103665  34.8897761
  23.7118583  75.7253765  35.7578232  18.7015631  77.9798077  31.7674117
  18.1380496  77.8888013  30.9990405  18.5868026  77.1597981  32.2476609
  23.3248598  77.2797452  41.7363431  23.3137239  76.8850250  40.8643935
  23.4869237  76.5463524  42.3297203  16.2480063  79.4749268  34.6058337
  17.0401355  79.1340093  34.1904637  16.4876713  79.5844243  35.5260491
  24.2815189  81.6469044  27.0788582  23.6303169  82.2323125  26.6922596
  25.0759552  82.1775239  27.1383619  18.2070817  78.7358181  27.4775716
  18.9801693  78.1887168  27.3388592  18.5596215  79.6002431  27.6890178
  20.0455859  80.0634564  40.6842615  19.7545725  80.9680194  40.5689282
  20.6812843  80.1051091  41.3986685  20.9712066  77.4411412  37.2743975
  21.5675638  77.2167435  36.5600938  21.0287037  76.6996158  37.8769423
  20.5437094  74.8950847  25.1094166  20.7962615  74.3732369  24.3477629
  19.6061653  74.7316993  25.2120850  25.5880377  73.8986626  32.9168909
  26.3743466  73.4806049  32.5659326  25.8519081  74.8032718  33.0850558
  25.7590455  79.3359476  27.6157566  25.1236288  79.4094103  28.3278471
  25.4287861  79.9253075  26.9376645  30.9888804  73.8361859  33.8201888
  31.7213976  73.2661076  34.0539717  30.2328160  73.4483459  34.2608393
  20.2633383  76.7978953  27.3118541  20.1469641  76.1223857  27.9799625
  20.3735643  76.3111327  26.4950694  22.6064924  76.2589101  31.0165230
  22.2423131  75.7319722  31.7278152  23.4632040  75.8687570  30.8431716
  28.5114225  67.5483433  38.2796496  28.1797549  68.4178844  38.0557711
  27.9159838  67.2319717  38.9590527  22.2470411  71.2879000  26.0126579
  22.4144813  72.1559237  26.3797050  22.0567580  71.4506282  25.0887868
  25.0045744  79.7495979  37.6792409  24.7046467  80.6521018  37.5708216
  24.6596804  79.4828162  38.5313562  18.4558226  76.2009776  33.7129114
  17.5308722  76.0685990  33.9206805  18.7042639  76.9803995  34.2099056
  28.4042888  72.2678519  35.3589846  27.4959765  72.1993928  35.0648607
  28.3530484  72.7450464  36.1871672  22.2259632  73.7436658  26.9973246
  22.1059257  74.1893708  27.8358726  21.5312220  74.0921975  26.4386784
  15.8167037  75.8443050  34.5472903  15.9459418  76.0977528  35.4612314
  15.1364488  76.4370758  34.2277558  19.9866524  86.5140299  30.6463377
  19.9090554  87.4648125  30.7251857  19.3828168  86.1686172  31.3038303
  22.4783754  73.6868165  43.3024744  21.7017088  74.2462085  43.2927608
  23.1174317  74.1724948  43.8239614  30.2704534  70.4694958  37.1367720
  29.6278915  70.7627491  36.4907515  29.7659463  70.3547878  37.9420917
  27.9244698  74.2158131  27.8253580  28.8362554  74.4485518  27.6501277
  27.4154345  74.7995175  27.2628658  20.7330126  76.4953618  42.8642711
  21.4744810  77.0338662  42.5877534  20.0267112  77.1219907  43.0214263
  26.2085466  78.6382759  41.4614872  26.6168822  78.1965169  40.7169505
  25.4862727  78.0635386  41.7149065  22.5616536  73.5755366  38.8348429
  23.4077731  73.9994779  38.9783078  22.5015173  72.9188990  39.5286992
  26.5314280  79.1983949  35.2167161  25.9023143  79.3629663  34.5143229
  26.1439942  79.6125559  35.9878125  30.4103512  80.1338387  32.5711525
  29.7254550  80.5137289  32.0208558  30.4947362  80.7433714  33.3043473
  25.7115981  71.2359734  40.4929603  25.4676913  71.9901794  39.9563879
  25.9875912  71.6145081  41.3276850  27.6654444  77.7798346  39.1706868
  27.8771339  78.4230106  38.4941249  27.6184192  76.9460663  38.7028798
  25.2680673  70.3916167  36.0743441  24.4065152  70.6897420  36.3660178
  25.2943107  70.6086566  35.1424473  22.0842242  78.9358357  32.4817246
  22.5480588  79.2146060  31.6921869  21.8199040  78.0341802  32.2990337
  18.9766323  78.4829839  35.4197009  19.5467680  78.9117107  34.7814494
  19.5674435  78.2012424  36.1181195  21.0211128  75.0581510  29.2906811
  21.7235172  75.5102553  29.7580738  20.6891757  74.4165329  29.9186704
  19.4691490  73.6493266  43.6658021  18.8390150  74.3309547  43.8993418
  19.3627578  73.5376348  42.7211159  14.7636462  73.3165062  34.5923945
  13.9735516  73.5722591  34.1164056  15.2547710  74.1313400  34.6975985
  28.7800272  80.6570302  37.3429226  29.6017716  80.2550489  37.0611907
  28.7762675  80.5538536  38.2945342  16.7151208  73.6809642  31.5507422
  15.9182371  73.7928336  32.0690917  16.4876800  74.0196294  30.6848312
  22.5456875  80.2054345  39.4989936  22.6101308  80.6674752  40.3348108
  21.8367799  79.5751710  39.6272246  13.0474165  73.5695553  37.0238936
  13.2982204  74.4542563  37.2896512  13.5833714  73.3900154  36.2514028
  36.8706265  77.0009050  33.6914197  36.1169973  76.4316448  33.5358202
  37.0053806  76.9671715  34.6384832  22.2604893  81.8722452  29.3668917
  22.1250568  82.7173988  29.7953764  22.8014705  82.0741730  28.6034850
  18.7472233  67.9514032  46.0283272  18.3539178  67.3980231  46.7030916
  19.5638373  68.2624611  46.4189789  15.7134290  79.3897890  29.9396842
  16.2258811  80.1841141  30.0902406  16.3657003  78.6924181  29.8730443
  17.5229175  82.5063647  32.0219595  17.6995803  83.4281611  31.8340579
  18.3186009  82.1922066  32.4513975  21.6640194  69.3671911  43.6203528
  22.4049907  69.9679065  43.5407991  21.8958116  68.6249549  43.0621571
  16.8081532  74.5528279  41.8981758  16.6935047  73.6513536  42.1988857
  15.9526049  74.7991975  41.5466575  23.8873369  82.4946019  43.4969259
  23.4437223  81.7082398  43.1790163  24.5490583  82.6825169  42.8313149
  18.6460490  84.0241821  38.0229937  19.1967916  83.8958884  37.2506931
  17.8071966  84.3236710  37.6724830  25.9854607  82.7748819  41.5250660
  25.9673083  83.5957700  41.0330929  26.9074527  82.6502894  41.7500801
  22.4427662  80.2892948  42.3674168  22.9755998  79.5281237  42.1373476
  21.9141743  79.9966600  43.1098323  25.6097356  65.3953014  37.8967810
  25.2661626  66.2854656  37.8206921  25.9776319  65.2054672  37.0337395
  13.6783207  77.7186545  30.7156412  14.5158429  78.1283553  30.4990120
  13.8561475  76.7785987  30.6856606  25.5747639  75.3861625  26.4040245
  25.0594263  76.1566230  26.6428633  25.3024948  74.7126762  27.0273307
  23.1594750  70.2311326  31.4625484  22.3036347  69.8418177  31.2831122
  23.5721702  70.3103287  30.6025269  24.6893897  67.7657669  35.8617043
  24.1858692  67.7287805  35.0484849  24.9824504  68.6750412  35.9213700
  20.9336783  67.8496399  34.8683225  21.7989780  67.6539208  34.5089114
  21.0014292  67.6206751  35.7952582  30.5481913  78.1393980  28.3393419
  29.7711356  77.8005140  27.8948581  31.2273394  78.1446603  27.6648384
  25.3633942  73.2588718  28.2300026  25.0584078  73.5734867  29.0810170
  26.3164384  73.3370137  28.2727359  23.8080374  79.4178941  29.8792980
  23.2801736  78.6831700  29.5666218  23.3067877  80.1953617  29.6332949
  28.7873220  77.6127961  34.9960027  28.1296895  78.3027223  35.0840155
  29.5913619  78.0024393  35.3394013  18.5399102  70.0798607  32.2399592
  19.1142854  69.8573789  31.5072785  19.1270084  70.1487302  32.9928193
  27.5978679  75.9672334  33.0463968  28.1110561  76.6002326  33.5485678
  28.2479903  75.3673530  32.6807328  18.8668689  72.1103068  26.2595477
  18.0306001  72.4477755  26.5804752  18.7273459  71.9752048  25.3222614
  20.8421770  66.9539856  30.9674661  20.1886182  66.6388873  30.3431276
  20.8002244  66.3315596  31.6934484  21.9532974  77.2359151  22.8827953
  21.0460036  77.0048405  23.0819102  22.4504006  76.4396770  23.0701935
  24.8601053  85.9456658  25.8024640  24.1862752  86.2488355  26.4109597
  25.2466875  86.7485739  25.4530097  24.0759510  73.4421790  35.2922309
  23.1582071  73.6636737  35.1343997  24.4919654  73.5168100  34.4334016
  24.8594558  74.8413205  30.4224989  25.6066377  75.3534602  30.1132111
  25.1286147  74.5197258  31.2829383  23.1321208  77.3371746  27.4051943
  22.2232427  77.0530779  27.5024413  23.1616292  77.7570825  26.5455250
  28.3640475  80.9478335  31.1743111  27.9102802  80.1069245  31.2308301
  27.7334442  81.5839734  31.5117891  27.3073395  71.8770322  32.4043778
  26.5696152  71.3647708  32.7354021  27.5600168  71.4370703  31.5927055
  26.8073414  82.7854832  32.1092929  27.0996389  83.3459889  31.3905295
  27.3172035  83.0783393  32.8646088  27.4085022  64.6546574  32.9985548
  27.7143899  63.7943937  32.7111463  28.1337627  65.2464194  32.7984542
  13.7009378  75.0577260  31.3867146  13.5033778  74.4646621  30.6618212
  13.1456042  74.7529470  32.1043084  21.6806102  74.9500367  33.5061739
  21.7354712  73.9974203  33.4304215  20.8697304  75.1059806  33.9903037
  22.8297296  78.8780490  24.7440022  22.3916726  78.1616349  24.2845659
  23.5707736  79.1056604  24.1825113  19.6198462  73.5677426  31.2652118
  18.8066327  73.8671597  31.6717310  20.1157456  73.1733115  31.9826600
  21.7707040  83.5635183  33.1986382  21.7283218  83.7896030  32.2694914
  22.6869739  83.3298558  33.3472184  25.2172673  74.0319251  40.0967012
  25.5722061  74.2590724  40.9561477  25.8644805  74.3637628  39.4744267
  30.9470410  77.1537687  30.8016341  30.8088309  77.3439283  29.8737530
  30.5906629  77.9157070  31.2584392  19.1112537  71.1395782  36.8813353
  19.7511916  70.9984541  36.1836316  18.2790067  70.8530295  36.5051955
  30.9739790  79.2214214  35.8127612  31.4076297  79.1289503  36.6610666
  31.6871371  79.1971714  35.1747628  19.8872840  80.4398212  32.9948345
  20.6813439  79.9448532  32.7930920  19.1764533  79.9116075  32.6316051
  24.7067685  82.8216308  37.3460713  24.7604707  83.3907244  38.1138429
  23.8382466  82.9918193  36.9814750  16.1955604  74.5841294  29.0708098
  15.2653192  74.5225749  29.2878060  16.2913076  74.0617247  28.2744739
  16.1141153  71.1096107  31.6586339  16.3747970  72.0241440  31.5495500
  16.9358325  70.6420549  31.8082952  17.5866078  72.5233864  38.8285164
  18.2589132  72.3151226  38.1797813  16.7595865  72.3255950  38.3890396
  31.8355340  79.2637914  38.3460497  32.0291230  80.1683725  38.5919772
  31.7355958  78.8045333  39.1799083  23.4891650  69.1495805  40.8450825
  22.8419565  69.8485755  40.7515301  24.2592666  69.5831949  41.2127073
  26.8970448  79.4144657  43.9201378  26.7455955  79.1855209  43.0031462
  26.8875128  80.3715259  43.9332723  23.6655785  76.9876570  38.9047645
  24.5947845  77.1387729  38.7316612  23.2446815  77.0760591  38.0496291
  22.4644116  81.0127234  36.6746182  22.3255202  80.6446019  37.5472120
  21.6758713  81.5274874  36.5030140  23.0592268  86.1136331  28.0171719
  23.2344024  85.6424374  28.8317341  22.3725056  86.7402097  28.2452979
  24.0149332  80.3908837  34.0635020  23.6799164  80.3509607  34.9592670
  23.5153277  79.7253553  33.5905430  17.9893576  75.7976467  39.5887601
  17.8513373  75.0656706  40.1899140  18.8998499  75.7085367  39.3071789
  26.9508523  77.7364871  24.3372080  26.3337694  77.0111699  24.2405132
  26.4825012  78.4974232  23.9939154  20.6175876  75.5096426  39.0771281
  21.3275495  74.8689618  39.0357899  20.5745184  75.7609321  39.9997462
  28.6062655  82.4463780  41.9977860  28.5475201  81.7623000  41.3308443
  29.0082173  83.1882770  41.5458486  19.3304810  72.4961644  40.8966920
  18.7942167  72.0452383  41.5488517  18.7421519  72.6307553  40.1537385
  17.6253354  89.2625693  34.7911579  17.8649952  89.8944218  35.4690597
  16.7822550  88.9113734  35.0776938  18.7407069  71.9550296  23.4593384
  17.8636535  71.8339096  23.0955631  19.2164822  71.1636374  23.2072273
  28.6080062  80.4103364  40.2291840  27.7206841  80.0729285  40.3518239
  29.1778613  79.6786395  40.4660605  10.2609209  76.7427455  33.5534891
  10.9480249  76.4289185  32.9655906  10.1057338  77.6468820  33.2802142
  15.0643931  71.6317652  37.9819915  14.9802120  71.0243321  37.2470325
  14.2426638  72.1226670  37.9829411  22.1381216  85.0704816  37.1953083
  22.0651387  85.8759787  37.7072387  21.6958609  85.2696782  36.3701104
  21.9270995  84.3076586  30.7055904  21.1438517  84.8498266  30.7994129
  22.6263740  84.8250566  31.1050146  25.2367645  70.1171215  33.3490110
  25.7336345  69.3641178  33.0291180  24.4654627  70.1535532  32.7833319
  33.0897403  75.8211581  34.9908401  33.0787279  76.7036296  34.6202334
  32.2214782  75.4683132  34.7962938  24.5979899  84.9691650  39.3511242
  25.3107871  85.6039115  39.2787143  24.1069928  85.0655516  38.5351243
  26.3197426  78.8742903  30.9228533  25.3853705  78.9944365  30.7533238
  26.4974094  77.9715369  30.6588543  21.8202614  72.2588598  33.0761794
  21.4500402  71.7059639  33.7642700  22.3161707  71.6546732  32.5236794
  29.7069977  74.7160222  31.4578567  30.1730430  75.5488214  31.3838870
  30.1577478  74.2505203  32.1623826  19.6491813  82.7186093  40.1716812
  20.3501272  83.3522576  40.3246207  19.1786928  83.0600825  39.4112452
  27.7746208  81.0604043  28.4564719  28.0506052  80.9460638  29.3658593
  26.9050707  80.6621528  28.4176892  27.6786640  67.0840809  35.4969469
  26.7649720  67.3145036  35.6651676  28.1079742  67.1679253  36.3483501
  27.4493099  75.2730701  37.9969363  26.7964549  75.5206608  37.3421815
  27.8273478  74.4594839  37.6631840  24.4100272  85.3090394  32.0997533
  24.5922667  84.4912050  32.5625285  25.2333258  85.5258086  31.6622423
  24.7442438  84.2358579  29.3612581  25.2730204  83.7251034  28.7482744
  25.0070658  83.9201109  30.2258114  23.4980672  76.0150512  44.4835400
  22.8221309  75.9144641  45.1537775  24.3208305  75.8589726  44.9471397
  15.2459531  82.2522448  37.1047915  15.8312967  81.5066136  37.2375819
  15.0484369  82.5626405  37.9884579  18.0998186  85.2873696  32.1210357
  17.4308561  85.7719823  31.6374397  17.9611056  85.5342916  33.0353736
   9.8377185  74.8228049  35.8252358   9.8761285  74.2891639  36.6189476
   9.3317478  74.2963254  35.2063335  22.2403454  87.3217439  38.7193016
  22.7921763  87.4849061  39.4842101  22.5809648  87.9121877  38.0473041
  17.2167948  69.6692589  39.3214900  17.2809274  70.5307420  38.9092298
  17.1535068  69.0566591  38.5887259  16.6920220  71.7415722  42.9687935
  17.3192259  71.3592799  43.5825459  15.8348139  71.5229924  43.3343627
  27.0914329  82.1478697  44.5741670  27.6354233  82.7608655  44.0796625
  26.5101174  82.7058275  45.0908683  13.4685763  73.5492151  28.9006290
  13.7639204  72.6402829  28.8473343  12.5673799  73.5279890  28.5787292
  25.3771842  85.2699415  35.7056698  25.2522981  84.4689155  35.1967643
  26.0350933  85.7645608  35.2170668  16.9980010  71.6248147  34.8833838
  16.2766596  72.2384115  34.7441311  17.7873266  72.1605912  34.8050484
  27.4406750  83.0708435  37.3336248  26.4937086  82.9513786  37.2614575
  27.7889523  82.1830933  37.4162509  19.8006324  68.9602574  41.1574490
  20.3240725  69.2064870  41.9200799  19.5818657  69.7922609  40.7377627
  15.1973605  71.2306248  29.0245615  14.8686311  70.3503627  28.8420721
  15.5512975  71.1753917  29.9122004  24.4453183  82.8661151  33.5340600
  24.2978146  81.9377859  33.7148170  25.2706677  82.8881242  33.0497675
  18.3115428  71.5179218  29.3921092  18.6511500  72.0465140  28.6699701
  18.7587548  71.8559624  30.1679659  28.0487305  83.6889710  34.6205473
  28.9733853  83.4832571  34.4829924  27.8802609  83.4406111  35.5294814
  21.0058869  69.9016269  38.8424160  20.6655689  69.1024082  39.2444840
  20.2997875  70.2017980  38.2700994  21.6575340  66.9865581  37.2951483
  22.4801410  66.5126060  37.1730374  21.9013404  67.7656065  37.7950170
  20.2983575  70.0153840  27.5914385  21.0191937  70.3935093  27.0878102
  19.6748879  70.7342717  27.6949363  24.4414698  70.7198989  28.5272717
  24.6578312  71.6023627  28.2261546  23.9608765  70.3285202  27.7978359
  19.1813919  73.6784702  35.1043462  19.0358500  73.9925005  35.9967744
  18.7039123  74.2969602  34.5514361  21.0410302  70.6687250  35.1524352
  21.0271871  69.7728343  34.8156650  21.7582730  70.6757914  35.7862638
  22.8936433  71.1024590  37.1977479  22.6354211  72.0241661  37.1961809
  22.3621473  70.7055025  37.8877943  27.8382622  84.2075377  29.9767564
  28.0119499  83.6421800  29.2241417  28.3311513  85.0076272  29.7947054
  13.6559581  76.2190046  38.0431123  13.1113049  76.9949854  38.1751398
  14.5338931  76.5660851  37.8850245  20.4447198  69.5501630  30.4211922
  20.5663109  68.6218277  30.6202809  20.1549240  69.5640316  29.5090237
  23.3138388  67.2356541  33.5578642  23.3360085  67.2995874  32.6030621
  23.7306447  66.3961049  33.7519148  33.6922013  76.9711800  31.5957864
  34.1353159  76.2219126  31.1976987  32.8148523  76.9621937  31.2131596
  28.8257794  83.5242142  27.0764463  29.5208699  84.1448834  27.2951777
  29.1680944  82.6737493  27.3516841  14.4425603  75.3459943  40.9361280
  13.7007339  75.4942578  41.5225911  14.1218347  75.6068208  40.0728030
  30.7249217  80.9741847  28.6051793  31.2500541  81.3129120  27.8801114
  30.6371570  80.0388863  28.4214928  22.3869266  84.8875921  40.7341670
  22.6956392  84.6425068  41.6064370  23.1844748  85.0922559  40.2460540
  22.4089878  87.0413831  32.9647047  21.9694868  86.5490209  33.6579903
  23.1597995  86.4986798  32.7239122  14.8882217  83.2325371  32.9671675
  15.7140237  82.9329143  32.5870318  14.5376269  82.4632994  33.4161463
  19.8563750  82.5851840  35.0369348  19.2343759  81.9222545  34.7371576
  20.5268617  82.6112972  34.3542996  13.0890822  81.1511698  33.9260608
  12.2522730  80.7233872  33.7444610  13.0614467  81.3444141  34.8631400
  19.9288277  71.0633628  44.6301854  19.9776433  71.9395751  44.2479624
  20.4710792  70.5211021  44.0573498  30.4143123  81.6074751  43.9102991
  29.6238667  81.5898890  43.3707491  30.1776478  82.1463045  44.6652028
  30.5340998  78.4567217  41.2235720  30.5839003  78.2917225  42.1651243
  30.4254922  77.5894476  40.8333601  19.4177257  81.1355763  28.5127809
  19.5665377  81.8191227  27.8594482  20.2243700  81.1160853  29.0277265
  27.8244761  74.4398145  42.5395027  28.7254623  74.3004610  42.2479024
  27.8992735  74.6052600  43.4793204  22.1587566  71.8165000  41.3848213
  21.2890875  72.1098566  41.1130802  22.3947046  72.4005445  42.1055477
  32.0359195  80.8764159  41.4677742  31.7444003  81.2394139  42.3041202
  31.4231326  80.1631167  41.2891074  33.2354877  78.4417039  33.9880312
  34.0701769  78.8806843  34.1517872  33.3714006  77.9655692  33.1688558
  30.2846383  75.9996773  39.9357800  30.7600505  76.1924420  39.1276651
  29.3611949  76.0555959  39.6901183  17.1729890  77.1620941  29.5188878
  16.9275932  76.2583271  29.7169088  17.3425804  77.1638091  28.5768356
  24.8626600  68.0344617  38.9013633  25.3808544  68.7705644  38.5760122
  24.5081733  68.3408610  39.7360393  16.4425537  72.8949298  27.0175039
  15.7494782  72.9693653  26.3615075  16.1977289  72.1309642  27.5396556
  25.1139194  64.4544900  34.4214530  25.3940948  63.7868089  35.0474957
  25.8989801  64.6473995  33.9089194  22.9172662  83.6303893  25.9839556
  22.3446630  84.2494081  25.5310028  23.4905456  84.1803255  26.5179478
  28.9848052  72.8762534  38.1686105  29.9365475  72.9760631  38.1898329
  28.8151503  72.0840802  38.6784189  27.0062432  69.9618117  38.3545506
  26.4112364  70.2423130  37.6591995  26.7212128  70.4512018  39.1262247
  26.1369922  83.9141044  27.1148139  27.0700595  83.8486605  27.3181014
  26.0493135  84.7497310  26.6562671  28.7657939  83.2306914  24.0752086
  28.6871570  82.8966778  24.9687844  29.5867606  83.7228682  24.0743558
  31.4636130  76.0968653  37.2828405  31.4312450  75.1584654  37.4688089
  32.0736754  76.1752690  36.5494230  23.3019461  74.9664706  23.3255609
  24.2478566  74.8370914  23.3944027  22.9233706  74.2279368  23.8025037
  31.6130619  72.8879697  37.3286688  31.0969667  72.1038153  37.1416617
  32.4970567  72.5598413  37.4933207  29.2741345  66.6320712  33.2882501
  29.0766167  66.3235800  34.1725833  29.8841051  67.3582351  33.4180430
  37.2812680  77.1584660  36.4234442  38.0116068  76.8969948  36.9842145
  36.6719625  76.4213382  36.4636510  35.3627977  75.2992523  37.0208893
  34.6361141  75.1648488  36.4125384  34.9475264  75.6069351  37.8265611
  23.1858153  79.0182452  44.7856266  24.1061163  79.1961051  44.9796312
  23.1507737  78.0738498  44.6335965  21.4862378  72.8914683  23.2610494
  20.5793833  72.5947795  23.3373208  21.7638359  72.5944501  22.3944780
  12.4040318  74.2121046  33.7109540  12.0843103  73.3586354  33.4183914
  11.8573747  74.4269624  34.4667508  16.1820226  76.9283487  37.4279047
  16.4006236  77.8600595  37.4467081  16.5946000  76.5691461  38.2133851
  23.1024444  67.4351572  29.4154735  22.2925172  67.0898657  29.7909981
  23.7908861  67.1259116  30.0042347  25.0314992  66.5129619  31.0379032
  25.5846031  66.9325073  31.6969055  25.2685078  65.5865367  31.0801988
  21.0548091  72.5016693  46.8181796  20.9544818  73.4511050  46.7493887
  20.8369633  72.1734932  45.9457866  20.2561163  69.7501618  23.4022473
  21.1180327  70.0756516  23.6618291  20.4411507  68.9633114  22.8895539
  12.2728578  77.8323958  35.6802662  11.5792050  77.4177910  35.1672616
  13.0201569  77.8744494  35.0836081  28.4093799  68.6230144  30.5457696
  27.8292468  69.2814948  30.1635749  28.1429732  67.8007489  30.1345114
  26.8597366  68.0235202  32.7479017  27.3597144  68.1351737  31.9393335
  27.5032973  67.7196255  33.3879825  20.9179361  75.9313832  45.6346858
  20.4346443  76.7314192  45.8410747  21.0040300  75.9421776  44.6814302
  14.1865321  77.7642211  33.5568677  14.1636009  77.8629899  32.6050560
  14.4965957  78.6107362  33.8785843  16.8452699  79.8218366  37.6715291
  17.7995952  79.7902309  37.6045223  16.6465222  79.3608990  38.4865517
  17.4352081  78.3919482  40.2386089  18.2544970  78.8863561  40.2620926
  17.7088889  77.4751451  40.2103656  27.1918677  70.7830235  29.6014044
  26.3044532  71.0679885  29.3834239  27.6072666  70.6223998  28.7541321
  30.5433213  70.8076756  33.3168384  31.3193603  71.2973208  33.5893001
  29.8181348  71.2334810  33.7740253  32.9805772  71.5204375  34.3742324
  33.5750263  71.2800111  33.6635633  33.0532356  70.8011505  35.0015861
  15.2002928  85.3637986  34.6885489  15.0657396  84.6038387  34.1223487
  14.7834990  86.0878886  34.2214278  26.3361891  80.5474909  23.6962064
  27.0397741  80.7524912  24.3119720  25.6124539  81.1151671  23.9611148
  27.1659701  76.2984771  29.8164335  27.1094902  76.7553322  28.9771967
  27.7188043  75.5375455  29.6387177  30.9764507  72.0874502  30.6414454
  30.7201441  71.6871138  31.4722662  30.3517375  72.8018296  30.5164593
  35.2876845  74.8270576  33.1485746  34.7276403  74.8963765  33.9217308
  34.6820348  74.6511560  32.4285242  18.3572054  86.2607303  34.9003932
  18.2404438  87.2052735  34.7982622  17.5364500  85.9580864  35.2889731
  28.2448588  80.9857439  25.7460525  29.0794192  80.5538637  25.5637999
  28.0832931  80.8139452  26.6737419  27.8994480  77.4889552  27.1116864
  27.8443284  77.3233823  26.1705308  27.2740536  78.1965585  27.2679054
  12.6886995  72.7257616  40.9378286  13.3345859  72.2156570  41.4265511
  12.4804146  73.4626298  41.5121711  25.2140387  79.7938464  46.4370427
  26.0831547  79.9679116  46.0757062  24.7347139  80.6132881  46.3146156
  21.2090606  66.9897661  26.6902182  21.1969276  67.9339501  26.8470453
  22.1014028  66.8067806  26.3961643  19.3826568  86.9135565  38.1159860
  20.2853814  86.9459175  38.4326355  19.1563938  85.9836016  38.1306196
  21.1380170  85.6666551  34.7769939  20.1875801  85.6668413  34.6634311
  21.4412656  84.9199286  34.2605973  25.0242725  63.5840438  30.9448119
  24.2575121  63.0298924  31.0904801  25.4353430  63.6562306  31.8062271
  17.0284486  69.8725233  45.0353300  17.8915948  69.5162038  45.2456625
  16.4549897  69.5339128  45.7228705  36.8732863  91.5027090  35.8415701
  37.5111273  91.3833837  35.1379041  36.7553706  92.4507934  35.9003653
  33.6822569  91.4554518  35.7777226  33.3441081  91.3395582  34.8897761
  34.5512338  91.0545683  35.7578232  29.5409385  93.3089994  31.7674117
  28.9774250  93.2179931  30.9990405  29.4261780  92.4889899  32.2476609
  34.1642352  92.6089369  41.7363431  34.1530993  92.2142168  40.8643935
  34.3262992  91.8755442  42.3297203  27.0873817  94.8041186  34.6058337
  27.8795109  94.4632010  34.1904637  27.3270467  94.9136161  35.5260491
  35.1208944  96.9760962  27.0788582  34.4696924  97.5615042  26.6922596
  35.9153307  97.5067157  27.1383619  29.0464571  94.0650099  27.4775716
  29.8195447  93.5179086  27.3388592  29.3989970  94.9294348  27.6890178
  30.8849614  95.3926481  40.6842615  30.5939480  96.2972112  40.5689282
  31.5206598  95.4343009  41.3986685  31.8105820  92.7703330  37.2743975
  32.4069393  92.5459352  36.5600938  31.8680792  92.0288075  37.8769423
  31.3830849  90.2242765  25.1094166  31.6356370  89.7024286  24.3477629
  30.4455408  90.0608911  25.2120850  36.4274132  89.2278544  32.9168909
  37.2137221  88.8097967  32.5659326  36.6912836  90.1324636  33.0850558
  36.5984209  94.6651394  27.6157566  35.9630042  94.7386020  28.3278471
  36.2681615  95.2544993  26.9376645  41.8282559  89.1653777  33.8201888
  42.5607731  88.5952994  34.0539717  41.0721914  88.7775377  34.2608393
  31.1027138  92.1270871  27.3118541  30.9863396  91.4515774  27.9799625
  31.2129397  91.6403245  26.4950694  33.4458679  91.5881018  31.0165230
  33.0816886  91.0611639  31.7278152  34.3025794  91.1979487  30.8431716
  39.3507979  82.8775351  38.2796496  39.0191304  83.7470762  38.0557711
  38.7553593  82.5611635  38.9590527  33.0864165  86.6170918  26.0126579
  33.2538568  87.4851154  26.3797050  32.8961335  86.7798200  25.0887868
  35.8439499  95.0787897  37.6792409  35.5440222  95.9812936  37.5708216
  35.4990558  94.8120080  38.5313562  29.2951980  91.5301694  33.7129114
  28.3702477  91.3977908  33.9206805  29.5436393  92.3095913  34.2099056
  39.2436642  87.5970437  35.3589846  38.3353520  87.5285845  35.0648607
  39.1924238  88.0742382  36.1871672  33.0653386  89.0728575  26.9973246
  32.9453012  89.5185626  27.8358726  32.3705975  89.4213893  26.4386784
  26.6560791  91.1734967  34.5472903  26.7853172  91.4269446  35.4612314
  25.9758242  91.7662675  34.2277558  30.8260278 101.8432217  30.6463377
  30.7484308 102.7940042  30.7251857  30.2221922 101.4978090  31.3038303
  33.3177508  89.0160083  43.3024744  32.5410842  89.5754003  43.2927608
  33.9568071  89.5016866  43.8239614  41.1098289  85.7986875  37.1367720
  40.4672669  86.0919409  36.4907515  40.6053217  85.6839796  37.9420917
  38.7638453  89.5450049  27.8253580  39.6756309  89.7777435  27.6501277
  38.2548100  90.1287093  27.2628658  31.5723881  91.8245536  42.8642711
  32.3138565  92.3630580  42.5877534  30.8660866  92.4511825  43.0214263
  37.0479220  93.9674676  41.4614872  37.4562576  93.5257087  40.7169505
  36.3256482  93.3927304  41.7149065  33.4010290  88.9047283  38.8348429
  34.2471485  89.3286697  38.9783078  33.3408928  88.2480907  39.5286992
  37.3708035  94.5275867  35.2167161  36.7416897  94.6921581  34.5143229
  36.9833697  94.9417477  35.9878125  41.2497267  95.4630305  32.5711525
  40.5648305  95.8429206  32.0208558  41.3341116  96.0725632  33.3043473
  36.5509736  86.5651652  40.4929603  36.3070667  87.3193712  39.9563879
  36.8269666  86.9436999  41.3276850  38.5048198  93.1090264  39.1706868
  38.7165094  93.7522024  38.4941249  38.4577947  92.2752580  38.7028798
  36.1074427  85.7208085  36.0743441  35.2458906  86.0189338  36.3660178
  36.1336862  85.9378483  35.1424473  32.9235997  94.2650275  32.4817246
  33.3874342  94.5437978  31.6921869  32.6592795  93.3633720  32.2990337
  29.8160078  93.8121757  35.4197009  30.3861435  94.2409025  34.7814494
  30.4068190  93.5304341  36.1181195  31.8604883  90.3873428  29.2906811
  32.5628926  90.8394471  29.7580738  31.5285511  89.7457246  29.9186704
  30.3085244  88.9785184  43.6658021  29.6783905  89.6601465  43.8993418
  30.2021332  88.8668266  42.7211159  25.6030217  88.6456980  34.5923945
  24.8129271  88.9014509  34.1164056  26.0941464  89.4605318  34.6975985
  39.6194026  95.9862219  37.3429226  40.4411470  95.5842407  37.0611907
  39.6156429  95.8830453  38.2945342  27.5544962  89.0101559  31.5507422
  26.7576125  89.1220254  32.0690917  27.3270554  89.3488212  30.6848312
  33.3850630  95.5346263  39.4989936  33.4495062  95.9966670  40.3348108
  32.6761554  94.9043628  39.6272246  23.8867920  88.8987471  37.0238936
  24.1375958  89.7834481  37.2896512  24.4227468  88.7192072  36.2514028
  47.7100019  92.3300968  33.6914197  46.9563728  91.7608366  33.5358202
  47.8447561  92.2963632  34.6384832  33.0998647  97.2014370  29.3668917
  32.9644322  98.0465906  29.7953764  33.6408460  97.4033648  28.6034850
  29.5865987  83.2805950  46.0283272  29.1932933  82.7272149  46.7030916
  30.4032127  83.5916528  46.4189789  26.5528045  94.7189808  29.9396842
  27.0652565  95.5133058  30.0902406  27.2050758  94.0216099  29.8730443
  28.3622929  97.8355564  32.0219595  28.5389558  98.7573529  31.8340579
  29.1579763  97.5213984  32.4513975  32.5033948  84.6963829  43.6203528
  33.2443661  85.2970982  43.5407991  32.7351871  83.9541467  43.0621571
  27.6475286  89.8820196  41.8981758  27.5328801  88.9805454  42.1988857
  26.7919804  90.1283893  41.5466575  34.7267124  97.8237937  43.4969259
  34.2830978  97.0374315  43.1790163  35.3884337  98.0117087  42.8313149
  29.4854245  99.3533738  38.0229937  30.0361670  99.2250802  37.2506931
  28.6465721  99.6528627  37.6724830  36.8248362  98.1040737  41.5250660
  36.8066837  98.9249618  41.0330929  37.7468282  97.9794812  41.7500801
  33.2821416  95.6184866  42.3674168  33.8149753  94.8573154  42.1373476
  32.7535497  95.3258518  43.1098323  36.4491111  80.7244932  37.8967810
  36.1055380  81.6146574  37.8206921  36.8170074  80.5346590  37.0337395
  24.5176962  93.0478462  30.7156412  25.3552184  93.4575471  30.4990120
  24.6955229  92.1077905  30.6856606  36.4141394  90.7153543  26.4040245
  35.8988017  91.4858148  26.6428633  36.1418702  90.0418679  27.0273307
  33.9988505  85.5603244  31.4625484  33.1430101  85.1710094  31.2831122
  34.4115456  85.6395205  30.6025269  35.5287651  83.0949587  35.8617043
  35.0252447  83.0579722  35.0484849  35.8218258  84.0042330  35.9213700
  31.7730537  83.1788317  34.8683225  32.6383534  82.9831126  34.5089114
  31.8408046  82.9498669  35.7952582  41.3875668  93.4685898  28.3393419
  40.6105111  93.1297057  27.8948581  42.0667149  93.4738521  27.6648384
  36.2027697  88.5880635  28.2300026  35.8977832  88.9026784  29.0810170
  37.1558139  88.6662055  28.2727359  34.6474129  94.7470859  29.8792980
  34.1195490  94.0123618  29.5666218  34.1461631  95.5245535  29.6332949
  39.6266975  92.9419879  34.9960027  38.9690649  93.6319140  35.0840155
  40.4307374  93.3316311  35.3394013  29.3792856  85.4090525  32.2399592
  29.9536608  85.1865706  31.5072785  29.9663839  85.4779219  32.9928193
  38.4372434  91.2964252  33.0463968  38.9504315  91.9294244  33.5485678
  39.0873657  90.6965447  32.6807328  29.7062443  87.4394986  26.2595477
  28.8699756  87.7769672  26.5804752  29.5667213  87.3043966  25.3222614
  31.6815524  82.2831774  30.9674661  31.0279936  81.9680791  30.3431276
  31.6395998  81.6607514  31.6934484  32.7926729  92.5651069  22.8827953
  31.8853791  92.3340322  23.0819102  33.2897761  91.7688688  23.0701935
  35.6994808 101.2748576  25.8024640  35.0256507 101.5780273  26.4109597
  36.0860630 102.0777656  25.4530097  34.9153264  88.7713707  35.2922309
  33.9975826  88.9928654  35.1343997  35.3313408  88.8460018  34.4334016
  35.6988312  90.1705123  30.4224989  36.4460131  90.6826520  30.1132111
  35.9679902  89.8489176  31.2829383  33.9714962  92.6663664  27.4051943
  33.0626182  92.3822696  27.5024413  34.0010046  93.0862742  26.5455250
  39.2034230  96.2770253  31.1743111  38.7496557  95.4361163  31.2308301
  38.5728196  96.9131652  31.5117891  38.1467149  87.2062239  32.4043778
  37.4089906  86.6939625  32.7354021  38.3993923  86.7662621  31.5927055
  37.6467169  98.1146750  32.1092929  37.9390143  98.6751807  31.3905295
  38.1565790  98.4075311  32.8646088  38.2478777  79.9838491  32.9985548
  38.5537653  79.1235855  32.7111463  38.9731381  80.5756111  32.7984542
  24.5403133  90.3869178  31.3867146  24.3427533  89.7938538  30.6618212
  23.9849797  90.0821388  32.1043084  32.5199856  90.2792284  33.5061739
  32.5748466  89.3266121  33.4304215  31.7091058  90.4351723  33.9903037
  33.6691050  94.2072407  24.7440022  33.2310480  93.4908266  24.2845659
  34.4101491  94.4348522  24.1825113  30.4592216  88.8969344  31.2652118
  29.6460082  89.1963515  31.6717310  30.9551210  88.5025033  31.9826600
  32.6100794  98.8927101  33.1986382  32.5676973  99.1187947  32.2694914
  33.5263493  98.6590476  33.3472184  36.0566428  89.3611168  40.0967012
  36.4115816  89.5882642  40.9561477  36.7038559  89.6929545  39.4744267
  41.7864165  92.4829604  30.8016341  41.6482063  92.6731200  29.8737530
  41.4300384  93.2448987  31.2584392  29.9506291  86.4687700  36.8813353
  30.5905670  86.3276459  36.1836316  29.1183822  86.1822213  36.5051955
  41.8133545  94.5506131  35.8127612  42.2470051  94.4581420  36.6610666
  42.5265125  94.5263632  35.1747628  30.7266595  95.7690130  32.9948345
  31.5207193  95.2740450  32.7930920  30.0158287  95.2407993  32.6316051
  35.5461439  98.1508225  37.3460713  35.5998462  98.7199162  38.1138429
  34.6776221  98.3210111  36.9814750  27.0349358  89.9133212  29.0708098
  26.1046947  89.8517667  29.2878060  27.1306830  89.3909164  28.2744739
  26.9534907  86.4388025  31.6586339  27.2141725  87.3533358  31.5495500
  27.7752080  85.9712467  31.8082952  28.4259833  87.8525782  38.8285164
  29.0982886  87.6443144  38.1797813  27.5989619  87.6547868  38.3890396
  42.6749094  94.5929832  38.3460497  42.8684984  95.4975643  38.5919772
  42.5749712  94.1337251  39.1799083  34.3285405  84.4787723  40.8450825
  33.6813320  85.1777672  40.7515301  35.0986420  84.9123867  41.2127073
  37.7364203  94.7436575  43.9201378  37.5849709  94.5147126  43.0031462
  37.7268882  95.7007176  43.9332723  34.5049539  92.3168488  38.9047645
  35.4341599  92.4679647  38.7316612  34.0840569  92.4052508  38.0496291
  33.3037871  96.3419152  36.6746182  33.1648957  95.9737936  37.5472120
  32.5152467  96.8566791  36.5030140  33.8986023 101.4428248  28.0171719
  34.0737779 100.9716292  28.8317341  33.2118811 102.0694015  28.2452979
  34.8543086  95.7200755  34.0635020  34.5192919  95.6801525  34.9592670
  34.3547032  95.0545471  33.5905430  28.8287330  91.1268385  39.5887601
  28.6907128  90.3948623  40.1899140  29.7392254  91.0377285  39.3071789
  37.7902278  93.0656789  24.3372080  37.1731448  92.3403617  24.2405132
  37.3218766  93.8266149  23.9939154  31.4569631  90.8388344  39.0771281
  32.1669249  90.1981536  39.0357899  31.4138939  91.0901239  39.9997462
  39.4456409  97.7755697  41.9977860  39.3868956  97.0914917  41.3308443
  39.8475928  98.5174687  41.5458486  30.1698565  87.8253562  40.8966920
  29.6335922  87.3744300  41.5488517  29.5815273  87.9599471  40.1537385
  28.4647108 104.5917611  34.7911579  28.7043706 105.2236135  35.4690597
  27.6216305 104.2405651  35.0776938  29.5800824  87.2842213  23.4593384
  28.7030290  87.1631014  23.0955631  30.0558577  86.4928292  23.2072273
  39.4473817  95.7395281  40.2291840  38.5600595  95.4021203  40.3518239
  40.0172368  95.0078312  40.4660605  21.1002964  92.0719373  33.5534891
  21.7874004  91.7581103  32.9655906  20.9451092  92.9760738  33.2802142
  25.9037686  86.9609570  37.9819915  25.8195875  86.3535239  37.2470325
  25.0820392  87.4518588  37.9829411  32.9774970 100.3996734  37.1953083
  32.9045142 101.2051705  37.7072387  32.5352363 100.5988699  36.3701104
  32.7664750  99.6368504  30.7055904  31.9832272 100.1790184  30.7994129
  33.4657495 100.1542483  31.1050146  36.0761400  85.4463133  33.3490110
  36.5730099  84.6933095  33.0291180  35.3048381  85.4827450  32.7833319
  43.9291157  91.1503499  34.9908401  43.9181033  92.0328214  34.6202334
  43.0608537  90.7975049  34.7962938  35.4373654 100.2983568  39.3511242
  36.1501626 100.9331032  39.2787143  34.9463682 100.3947434  38.5351243
  37.1591180  94.2034820  30.9228533  36.2247459  94.3236283  30.7533238
  37.3367849  93.3007287  30.6588543  32.6596369  87.5880516  33.0761794
  32.2894156  87.0351556  33.7642700  33.1555461  86.9838650  32.5236794
  40.5463732  90.0452140  31.4578567  41.0124184  90.8780131  31.3838870
  40.9971232  89.5797121  32.1623826  30.4885567  98.0478011  40.1716812
  31.1895027  98.6814494  40.3246207  30.0180682  98.3892743  39.4112452
  38.6139963  96.3895961  28.4564719  38.8899807  96.2752555  29.3658593
  37.7444462  95.9913446  28.4176892  38.5180395  82.4132727  35.4969469
  37.6043474  82.6436953  35.6651676  38.9473496  82.4971171  36.3483501
  38.2886853  90.6022619  37.9969363  37.6358303  90.8498526  37.3421815
  38.6667233  89.7886757  37.6631840  35.2494027 100.6382312  32.0997533
  35.4316421  99.8203968  32.5625285  36.0727013 100.8550004  31.6622423
  35.5836192  99.5650497  29.3612581  36.1123959  99.0542951  28.7482744
  35.8464412  99.2493027  30.2258114  34.3374426  91.3442430  44.4835400
  33.6615063  91.2436559  45.1537775  35.1602060  91.1881643  44.9471397
  26.0853285  97.5814366  37.1047915  26.6706722  96.8358054  37.2375819
  25.8878124  97.8918323  37.9884579  28.9391940 100.6165614  32.1210357
  28.2702316 101.1011741  31.6374397  28.8004810 100.8634834  33.0353736
  20.6770940  90.1519966  35.8252358  20.7155039  89.6183557  36.6189476
  20.1711233  89.6255172  35.2063335  33.0797209 102.6509357  38.7193016
  33.6315517 102.8140979  39.4842101  33.4203402 103.2413795  38.0473041
  28.0561702  84.9984507  39.3214900  28.1203029  85.8599338  38.9092298
  27.9928822  84.3858509  38.5887259  27.5313975  87.0707639  42.9687935
  28.1586014  86.6884717  43.5825459  26.6741894  86.8521841  43.3343627
  37.9308083  97.4770615  44.5741670  38.4747987  98.0900573  44.0796625
  37.3494928  98.0350193  45.0908683  24.3079517  88.8784069  28.9006290
  24.6032959  87.9694747  28.8473343  23.4067553  88.8571808  28.5787292
  36.2165596 100.5991333  35.7056698  36.0916736  99.7981072  35.1967643
  36.8744687 101.0937526  35.2170668  27.8373764  86.9540065  34.8833838
  27.1160350  87.5676033  34.7441311  28.6267020  87.4897830  34.8050484
  38.2800505  98.4000353  37.3336248  37.3330840  98.2805704  37.2614575
  38.6283278  97.5122851  37.4162509  30.6400078  84.2894492  41.1574490
  31.1634480  84.5356788  41.9200799  30.4212411  85.1214526  40.7377627
  26.0367359  86.5598166  29.0245615  25.7080065  85.6795545  28.8420721
  26.3906730  86.5045835  29.9122004  35.2846938  98.1953069  33.5340600
  35.1371900  97.2669776  33.7148170  36.1100431  98.2173160  33.0497675
  29.1509182  86.8471136  29.3921092  29.4905255  87.3757057  28.6699701
  29.5981303  87.1851542  30.1679659  38.8881060  99.0181628  34.6205473
  39.8127607  98.8124489  34.4829924  38.7196363  98.7698029  35.5294814
  31.8452623  85.2308187  38.8424160  31.5049443  84.4316000  39.2444840
  31.1391629  85.5309898  38.2700994  32.4969095  82.3157499  37.2951483
  33.3195164  81.8417977  37.1730374  32.7407158  83.0947983  37.7950170
  31.1377329  85.3445758  27.5914385  31.8585692  85.7227010  27.0878102
  30.5142633  86.0634634  27.6949363  35.2808452  86.0490907  28.5272717
  35.4972067  86.9315544  28.2261546  34.8002519  85.6577120  27.7978359
  30.0207674  89.0076620  35.1043462  29.8752254  89.3216923  35.9967744
  29.5432877  89.6261520  34.5514361  31.8804057  85.9979168  35.1524352
  31.8665625  85.1020261  34.8156650  32.5976485  86.0049831  35.7862638
  33.7330187  86.4316508  37.1977479  33.4747965  87.3533579  37.1961809
  33.2015228  86.0346942  37.8877943  38.6776376  99.5367295  29.9767564
  38.8513254  98.9713718  29.2241417  39.1705267 100.3368190  29.7947054
  24.4953336  91.5481964  38.0431123  23.9506804  92.3241772  38.1751398
  25.3732686  91.8952769  37.8850245  31.2840952  84.8793548  30.4211922
  31.4056864  83.9510194  30.6202809  30.9942995  84.8932234  29.5090237
  34.1532143  82.5648458  33.5578642  34.1753840  82.6287792  32.6030621
  34.5700202  81.7252967  33.7519148  44.5315767  92.3003718  31.5957864
  44.9746913  91.5511043  31.1976987  43.6542277  92.2913854  31.2131596
  39.6651548  98.8534059  27.0764463  40.3602453  99.4740752  27.2951777
  40.0074699  98.0029411  27.3516841  25.2819358  90.6751860  40.9361280
  24.5401094  90.8234496  41.5225911  24.9612102  90.9360126  40.0728030
  41.5642972  96.3033765  28.6051793  42.0894296  96.6421038  27.8801114
  41.4765324  95.3680780  28.4214928  33.2263020 100.2167839  40.7341670
  33.5350147  99.9716985  41.6064370  34.0238502 100.4214477  40.2460540
  33.2483632 102.3705748  32.9647047  32.8088623 101.8782127  33.6579903
  33.9991749 101.8278716  32.7239122  25.7275971  98.5617289  32.9671675
  26.5533991  98.2621061  32.5870318  25.3770023  97.7924912  33.4161463
  30.6957504  97.9143757  35.0369348  30.0737514  97.2514462  34.7371576
  31.3662371  97.9404889  34.3542996  23.9284576  96.4803616  33.9260608
  23.0916485  96.0525790  33.7444610  23.9008222  96.6736059  34.8631400
  30.7682032  86.3925545  44.6301854  30.8170187  87.2687668  44.2479624
  31.3104546  85.8502938  44.0573498  41.2536878  96.9366669  43.9102991
  40.4632421  96.9190807  43.3707491  41.0170232  97.4754962  44.6652028
  41.3734753  93.7859135  41.2235720  41.4232758  93.6209142  42.1651243
  41.2648676  92.9186394  40.8333601  30.2571011  96.4647681  28.5127809
  30.4059132  97.1483145  27.8594482  31.0637455  96.4452771  29.0277265
  38.6638515  89.7690063  42.5395027  39.5648378  89.6296528  42.2479024
  38.7386490  89.9344518  43.4793204  32.9981320  87.1456918  41.3848213
  32.1284630  87.4390484  41.1130802  33.2340801  87.7297363  42.1055477
  42.8752950  96.2056077  41.4677742  42.5837758  96.5686057  42.3041202
  42.2625081  95.4923085  41.2891074  44.0748632  93.7708956  33.9880312
  44.9095523  94.2098760  34.1517872  44.2107761  93.2947610  33.1688558
  41.1240138  91.3288691  39.9357800  41.5994259  91.5216337  39.1276651
  40.2005703  91.3847877  39.6901183  28.0123644  92.4912858  29.5188878
  27.7669686  91.5875188  29.7169088  28.1819559  92.4930009  28.5768356
  35.7020354  83.3636535  38.9013633  36.2202298  84.0997562  38.5760122
  35.3475487  83.6700528  39.7360393  27.2819292  88.2241216  27.0175039
  26.5888537  88.2985571  26.3615075  27.0371044  87.4601560  27.5396556
  35.9532948  79.7836817  34.4214530  36.2334702  79.1160006  35.0474957
  36.7383555  79.9765913  33.9089194  33.7566417  98.9595811  25.9839556
  33.1840384  99.5785998  25.5310028  34.3299211  99.5095173  26.5179478
  39.8241807  88.2054451  38.1686105  40.7759230  88.3052549  38.1898329
  39.6545257  87.4132720  38.6784189  37.8456186  85.2910034  38.3545506
  37.2506118  85.5715047  37.6591995  37.5605883  85.7803935  39.1262247
  36.9763677  99.2432961  27.1148139  37.9094350  99.1778523  27.3181014
  36.8886890 100.0789228  26.6562671  39.6051693  98.5598832  24.0752086
  39.5265325  98.2258695  24.9687844  40.4261360  99.0520600  24.0743558
  42.3029885  91.4260571  37.2828405  42.2706205  90.4876572  37.4688089
  42.9130508  91.5044608  36.5494230  34.1413215  90.2956624  23.3255609
  35.0872320  90.1662832  23.3944027  33.7627460  89.5571286  23.8025037
  42.4524373  88.2171614  37.3286688  41.9363422  87.4330071  37.1416617
  43.3364322  87.8890331  37.4933207  40.1135100  81.9612630  33.2882501
  39.9159921  81.6527718  34.1725833  40.7234806  82.6874269  33.4180430
  48.1206434  92.4876578  36.4234442  48.8509823  92.2261866  36.9842145
  47.5113380  91.7505300  36.4636510  46.2021732  90.6284440  37.0208893
  45.4754895  90.4940405  36.4125384  45.7869018  90.9361269  37.8265611
  34.0251908  94.3474370  44.7856266  34.9454917  94.5252969  44.9796312
  33.9901491  93.4030415  44.6335965  32.3256133  88.2206600  23.2610494
  31.4187588  87.9239713  23.3373208  32.6032114  87.9236418  22.3944780
  23.2434073  89.5412964  33.7109540  22.9236857  88.6878272  33.4183914
  22.6967501  89.7561542  34.4667508  27.0213981  92.2575405  37.4279047
  27.2399990  93.1892513  37.4467081  27.4339754  91.8983379  38.2133851
  33.9418198  82.7643490  29.4154735  33.1318927  82.4190575  29.7909981
  34.6302615  82.4551034  30.0042347  35.8708747  81.8421537  31.0379032
  36.4239785  82.2616990  31.6969055  36.1078833  80.9157285  31.0801988
  31.8941846  87.8308610  46.8181796  31.7938573  88.7802967  46.7493887
  31.6763388  87.5026849  45.9457866  31.0954917  85.0793536  23.4022473
  31.9574081  85.4048434  23.6618291  31.2805261  84.2925031  22.8895539
  23.1122333  93.1615875  35.6802662  22.4185804  92.7469828  35.1672616
  23.8595324  93.2036412  35.0836081  39.2487554  83.9522062  30.5457696
  38.6686223  84.6106866  30.1635749  38.9823486  83.1299407  30.1345114
  37.6991120  83.3527120  32.7479017  38.1990898  83.4643654  31.9393335
  38.3426728  83.0488173  33.3879825  31.7573116  91.2605749  45.6346858
  31.2740198  92.0606109  45.8410747  31.8434055  91.2713694  44.6814302
  25.0259075  93.0934129  33.5568677  25.0029764  93.1921816  32.6050560
  25.3359712  93.9399280  33.8785843  27.6846453  95.1510284  37.6715291
  28.6389707  95.1194226  37.6045223  27.4858977  94.6900908  38.4865517
  28.2745835  93.7211400  40.2386089  29.0938724  94.2155479  40.2620926
  28.5482643  92.8043368  40.2103656  38.0312432  86.1122152  29.6014044
  37.1438287  86.3971803  29.3834239  38.4466421  85.9515916  28.7541321
  41.3826968  86.1368673  33.3168384  42.1587358  86.6265126  33.5893001
  40.6575102  86.5626728  33.7740253  43.8199526  86.8496293  34.3742324
  44.4144017  86.6092029  33.6635633  43.8926110  86.1303423  35.0015861
  26.0396682 100.6929903  34.6885489  25.9051150  99.9330304  34.1223487
  25.6228744 101.4170803  34.2214278  37.1755645  95.8766827  23.6962064
  37.8791495  96.0816830  24.3119720  36.4518294  96.4443589  23.9611148
  38.0053455  91.6276688  29.8164335  37.9488657  92.0845240  28.9771967
  38.5581798  90.8667373  29.6387177  41.8158261  87.4166420  30.6414454
  41.5595196  87.0163056  31.4722662  41.1911129  88.1310214  30.5164593
  46.1270599  90.1562493  33.1485746  45.5670157  90.2255683  33.9217308
  45.5214103  89.9803478  32.4285242  29.1965808 101.5899221  34.9003932
  29.0798192 102.5344653  34.7982622  28.3758254 101.2872782  35.2889731
  39.0842343  96.3149356  25.7460525  39.9187947  95.8830555  25.5637999
  38.9226685  96.1431370  26.6737419  38.7388235  92.8181470  27.1116864
  38.6837039  92.6525741  26.1705308  38.1134290  93.5257502  27.2679054
  23.5280750  88.0549534  40.9378286  24.1739613  87.5448488  41.4265511
  23.3197901  88.7918216  41.5121711  36.0534142  95.1230381  46.4370427
  36.9225302  95.2971034  46.0757062  35.5740893  95.9424798  46.3146156
  32.0484360  82.3189579  26.6902182  32.0363030  83.2631418  26.8470453
  32.9407782  82.1359724  26.3961643  30.2220322 102.2427482  38.1159860
  31.1247569 102.2751093  38.4326355  29.9957692 101.3127933  38.1306196
  31.9773924 100.9958469  34.7769939  31.0269555 100.9960331  34.6634311
  32.2806410 100.2491204  34.2605973  35.8636480  78.9132355  30.9448119
  35.0968875  78.3590842  31.0904801  36.2747185  78.9854224  31.8062271
  27.8678241  85.2017151  45.0353300  28.7309702  84.8453956  45.2456625
  27.2943651  84.8631046  45.7228705  47.7126618 106.8319007  35.8415701
  48.3505028 106.7125755  35.1379041  47.5947461 107.7799851  35.9003653
  44.5216324 106.7846435  35.7777226  44.1834835 106.6687500  34.8897761
  45.3906092 106.3837601  35.7578232  40.3803140 108.6381912  31.7674117
  39.8168005 108.5471849  30.9990405  40.2655535 107.8181816  32.2476609
  45.0036107 107.9381287  41.7363431  44.9924748 107.5434085  40.8643935
  45.1656746 107.2047360  42.3297203  37.9267572 110.1333103  34.6058337
  38.7188863 109.7923928  34.1904637  38.1664222 110.2428079  35.5260491
  45.9602698 112.3052880  27.0788582  45.3090678 112.8906960  26.6922596
  46.7547061 112.8359074  27.1383619  39.8858326 109.3942017  27.4775716
  40.6589202 108.8471004  27.3388592  40.2383724 110.2586266  27.6890178
  41.7243368 110.7218399  40.6842615  41.4333234 111.6264030  40.5689282
  42.3600352 110.7634927  41.3986685  42.6499575 108.0995248  37.2743975
  43.2463147 107.8751270  36.5600938  42.7074546 107.3579993  37.8769423
  42.2224603 105.5534683  25.1094166  42.4750124 105.0316204  24.3477629
  41.2849162 105.3900828  25.2120850  47.2667886 104.5570461  32.9168909
  48.0530975 104.1389884  32.5659326  47.5306590 105.4616553  33.0850558
  47.4377964 109.9943312  27.6157566  46.8023796 110.0677938  28.3278471
  47.1075370 110.5836910  26.9376645  52.6676313 104.4945694  33.8201888
  53.4001485 103.9244911  34.0539717  51.9115669 104.1067295  34.2608393
  41.9420892 107.4562789  27.3118541  41.8257150 106.7807692  27.9799625
  42.0523152 106.9695163  26.4950694  44.2852433 106.9172936  31.0165230
  43.9210640 106.3903557  31.7278152  45.1419549 106.5271405  30.8431716
  50.1901734  98.2067268  38.2796496  49.8585058  99.0762679  38.0557711
  49.5947347  97.8903553  38.9590527  43.9257920 101.9462836  26.0126579
  44.0932322 102.8143072  26.3797050  43.7355089 102.1090117  25.0887868
  46.6833253 110.4079814  37.6792409  46.3833976 111.3104853  37.5708216
  46.3384313 110.1411998  38.5313562  40.1345735 106.8593611  33.7129114
  39.2096231 106.7269825  33.9206805  40.3830148 107.6387831  34.2099056
  50.0830397 102.9262355  35.3589846  49.1747274 102.8577763  35.0648607
  50.0317993 103.4034300  36.1871672  43.9047141 104.4020493  26.9973246
  43.7846766 104.8477544  27.8358726  43.2099729 104.7505811  26.4386784
  37.4954546 106.5026885  34.5472903  37.6246927 106.7561364  35.4612314
  36.8151997 107.0954593  34.2277558  41.6654033 117.1724135  30.6463377
  41.5878063 118.1231960  30.7251857  41.0615677 116.8270007  31.3038303
  44.1571263 104.3452000  43.3024744  43.3804597 104.9045920  43.2927608
  44.7961826 104.8308783  43.8239614  51.9492043 101.1278793  37.1367720
  51.3066424 101.4211326  36.4907515  51.4446972 101.0131713  37.9420917
  49.6032207 104.8741966  27.8253580  50.5150063 105.1069353  27.6501277
  49.0941854 105.4579010  27.2628658  42.4117635 107.1537454  42.8642711
  43.1532319 107.6922498  42.5877534  41.7054621 107.7803742  43.0214263
  47.8872975 109.2966594  41.4614872  48.2956331 108.8549005  40.7169505
  47.1650236 108.7219222  41.7149065  44.2404045 104.2339201  38.8348429
  45.0865240 104.6578614  38.9783078  44.1802682 103.5772825  39.5286992
  48.2101789 109.8567785  35.2167161  47.5810652 110.0213499  34.5143229
  47.8227451 110.2709394  35.9878125  52.0891021 110.7922223  32.5711525
  51.4042059 111.1721124  32.0208558  52.1734871 111.4017549  33.3043473
  47.3903490 101.8943569  40.4929603  47.1464422 102.6485630  39.9563879
  47.6663421 102.2728917  41.3276850  49.3441953 108.4382182  39.1706868
  49.5558848 109.0813941  38.4941249  49.2971701 107.6044498  38.7028798
  46.9468182 101.0500002  36.0743441  46.0852661 101.3481256  36.3660178
  46.9730616 101.2670401  35.1424473  43.7629751 109.5942193  32.4817246
  44.2268097 109.8729896  31.6921869  43.4986549 108.6925637  32.2990337
  40.6553832 109.1413674  35.4197009  41.2255189 109.5700943  34.7814494
  41.2461944 108.8596259  36.1181195  42.6998637 105.7165345  29.2906811
  43.4022681 106.1686389  29.7580738  42.3679266 105.0749164  29.9186704
  41.1478999 104.3077102  43.6658021  40.5177659 104.9893383  43.8993418
  41.0415087 104.1960183  42.7211159  36.4423971 103.9748898  34.5923945
  35.6523025 104.2306426  34.1164056  36.9335219 104.7897236  34.6975985
  50.4587781 111.3154137  37.3429226  51.2805225 110.9134324  37.0611907
  50.4550184 111.2122371  38.2945342  38.3938717 104.3393477  31.5507422
  37.5969880 104.4512171  32.0690917  38.1664309 104.6780129  30.6848312
  44.2244384 110.8638180  39.4989936  44.2888817 111.3258588  40.3348108
  43.5155308 110.2335545  39.6272246  34.7261674 104.2279388  37.0238936
  34.9769713 105.1126398  37.2896512  35.2621223 104.0483990  36.2514028
  58.5493774 107.6592885  33.6914197  57.7957482 107.0900284  33.5358202
  58.6841315 107.6255550  34.6384832  43.9392402 112.5306288  29.3668917
  43.8038077 113.3757824  29.7953764  44.4802214 112.7325565  28.6034850
  40.4259742  98.6097868  46.0283272  40.0326687  98.0564066  46.7030916
  41.2425882  98.9208446  46.4189789  37.3921799 110.0481726  29.9396842
  37.9046320 110.8424976  30.0902406  38.0444512 109.3508016  29.8730443
  39.2016684 113.1647482  32.0219595  39.3783312 114.0865447  31.8340579
  39.9973517 112.8505901  32.4513975  43.3427703 100.0255747  43.6203528
  44.0837416 100.6262900  43.5407991  43.5745625  99.2833385  43.0621571
  38.4869041 105.2112114  41.8981758  38.3722556 104.3097371  42.1988857
  37.6313558 105.4575811  41.5466575  45.5660878 113.1529854  43.4969259
  45.1224732 112.3666233  43.1790163  46.2278092 113.3409005  42.8313149
  40.3247999 114.6825656  38.0229937  40.8755425 114.5542719  37.2506931
  39.4859475 114.9820545  37.6724830  47.6642116 113.4332654  41.5250660
  47.6460592 114.2541535  41.0330929  48.5862036 113.3086729  41.7500801
  44.1215170 110.9476784  42.3674168  44.6543507 110.1865072  42.1373476
  43.5929252 110.6550436  43.1098323  47.2884865  96.0536850  37.8967810
  46.9449135  96.9438491  37.8206921  47.6563828  95.8638507  37.0337395
  35.3570716 108.3770380  30.7156412  36.1945938 108.7867388  30.4990120
  35.5348984 107.4369822  30.6856606  47.2535148 106.0445461  26.4040245
  46.7381772 106.8150065  26.6428633  46.9812457 105.3710597  27.0273307
  44.8382259 100.8895162  31.4625484  43.9823856 100.5002012  31.2831122
  45.2509211 100.9687122  30.6025269  46.3681406  98.4241505  35.8617043
  45.8646201  98.3871640  35.0484849  46.6612013  99.3334248  35.9213700
  42.6124292  98.5080235  34.8683225  43.4777288  98.3123043  34.5089114
  42.6801801  98.2790586  35.7952582  52.2269422 108.7977815  28.3393419
  51.4498865 108.4588975  27.8948581  52.9060903 108.8030439  27.6648384
  47.0421451 103.9172553  28.2300026  46.7371587 104.2318702  29.0810170
  47.9951893 103.9953973  28.2727359  45.4867883 110.0762776  29.8792980
  44.9589245 109.3415536  29.5666218  44.9855386 110.8537453  29.6332949
  50.4660729 108.2711797  34.9960027  49.8084404 108.9611058  35.0840155
  51.2701128 108.6608229  35.3394013  40.2186611 100.7382442  32.2399592
  40.7930363 100.5157624  31.5072785  40.8057593 100.8071137  32.9928193
  49.2766188 106.6256169  33.0463968  49.7898070 107.2586161  33.5485678
  49.9267412 106.0257365  32.6807328  40.5456198 102.7686904  26.2595477
  39.7093510 103.1061590  26.5804752  40.4060968 102.6335883  25.3222614
  42.5209279  97.6123691  30.9674661  41.8673691  97.2972709  30.3431276
  42.4789753  96.9899432  31.6934484  43.6320483 107.8942986  22.8827953
  42.7247545 107.6632240  23.0819102  44.1291515 107.0980606  23.0701935
  46.5388562 116.6040494  25.8024640  45.8650261 116.9072190  26.4109597
  46.9254384 117.4069574  25.4530097  45.7547019 104.1005625  35.2922309
  44.8369580 104.3220572  35.1343997  46.1707162 104.1751935  34.4334016
  46.5382067 105.4997041  30.4224989  47.2853886 106.0118438  30.1132111
  46.8073656 105.1781093  31.2829383  44.8108717 107.9955581  27.4051943
  43.9019936 107.7114614  27.5024413  44.8403801 108.4154660  26.5455250
  50.0427984 111.6062171  31.1743111  49.5890311 110.7653081  31.2308301
  49.4121951 112.2423569  31.5117891  48.9860904 102.5354157  32.4043778
  48.2483661 102.0231543  32.7354021  49.2387677 102.0954538  31.5927055
  48.4860923 113.4438668  32.1092929  48.7783898 114.0043725  31.3905295
  48.9959544 113.7367229  32.8646088  49.0872531  95.3130409  32.9985548
  49.3931408  94.4527772  32.7111463  49.8125136  95.9048029  32.7984542
  35.3796887 105.7161095  31.3867146  35.1821287 105.1230456  30.6618212
  34.8243551 105.4113306  32.1043084  43.3593611 105.6084202  33.5061739
  43.4142221 104.6558038  33.4304215  42.5484813 105.7643641  33.9903037
  44.5084805 109.5364325  24.7440022  44.0704235 108.8200184  24.2845659
  45.2495245 109.7640440  24.1825113  41.2985971 104.2261262  31.2652118
  40.4853836 104.5255432  31.6717310  41.7944965 103.8316950  31.9826600
  43.4494549 114.2219019  33.1986382  43.4070727 114.4479865  32.2694914
  44.3657248 113.9882393  33.3472184  46.8960182 104.6903086  40.0967012
  47.2509570 104.9174559  40.9561477  47.5432314 105.0221463  39.4744267
  52.6257919 107.8121522  30.8016341  52.4875818 108.0023118  29.8737530
  52.2694138 108.5740905  31.2584392  40.7900046 101.7979617  36.8813353
  41.4299425 101.6568376  36.1836316  39.9577576 101.5114131  36.5051955
  52.6527299 109.8798049  35.8127612  53.0863806 109.7873338  36.6610666
  53.3658880 109.8555550  35.1747628  41.5660349 111.0982048  32.9948345
  42.3600948 110.6032368  32.7930920  40.8552042 110.5699911  32.6316051
  46.3855194 113.4800143  37.3460713  46.4392216 114.0491079  38.1138429
  45.5169975 113.6502028  36.9814750  37.8743113 105.2425129  29.0708098
  36.9440701 105.1809585  29.2878060  37.9700585 104.7201082  28.2744739
  37.7928662 101.7679942  31.6586339  38.0535479 102.6825275  31.5495500
  38.6145834 101.3004385  31.8082952  39.2653587 103.1817699  38.8285164
  39.9376641 102.9735061  38.1797813  38.4383374 102.9839785  38.3890396
  53.5142849 109.9221750  38.3460497  53.7078739 110.8267560  38.5919772
  53.4143467 109.4629169  39.1799083  45.1679159  99.8079640  40.8450825
  44.5207074 100.5069590  40.7515301  45.9380175 100.2415784  41.2127073
  48.5757957 110.0728492  43.9201378  48.4243464 109.8439044  43.0031462
  48.5662637 111.0299094  43.9332723  45.3443294 107.6460405  38.9047645
  46.2735354 107.7971565  38.7316612  44.9234324 107.7344426  38.0496291
  44.1431625 111.6711070  36.6746182  44.0042711 111.3029854  37.5472120
  43.3546222 112.1858709  36.5030140  44.7379777 116.7720166  28.0171719
  44.9131533 116.3008209  28.8317341  44.0512565 117.3985932  28.2452979
  45.6936841 111.0492672  34.0635020  45.3586673 111.0093442  34.9592670
  45.1940786 110.3837388  33.5905430  39.6681085 106.4560302  39.5887601
  39.5300882 105.7240541  40.1899140  40.5786008 106.3669202  39.3071789
  48.6296032 108.3948707  24.3372080  48.0125203 107.6695535  24.2405132
  48.1612521 109.1558067  23.9939154  42.2963385 106.1680262  39.0771281
  43.0063004 105.5273454  39.0357899  42.2532693 106.4193157  39.9997462
  50.2850164 113.1047615  41.9977860  50.2262710 112.4206835  41.3308443
  50.6869682 113.8466605  41.5458486  41.0092319 103.1545480  40.8966920
  40.4729676 102.7036218  41.5488517  40.4209028 103.2891388  40.1537385
  40.4194578 102.6134131  23.4593384  39.5424044 102.4922932  23.0955631
  40.8952331 101.8220209  23.2072273  50.2867571 111.0687199  40.2291840
  49.3994350 110.7313121  40.3518239  50.8566122 110.3370230  40.4660605
  31.9396718 107.4011291  33.5534891  32.6267758 107.0873021  32.9655906
  31.7844847 108.3052655  33.2802142  36.7431440 102.2901487  37.9819915
  36.6589629 101.6827157  37.2470325  35.9214147 102.7810506  37.9829411
  43.8168725 115.7288651  37.1953083  43.7438896 116.5343623  37.7072387
  43.3746118 115.9280617  36.3701104  43.6058504 114.9660421  30.7055904
  42.8226026 115.5082101  30.7994129  44.3051249 115.4834401  31.1050146
  46.9155154 100.7755051  33.3490110  47.4123854 100.0225013  33.0291180
  46.1442136 100.8119367  32.7833319  54.7684912 106.4795416  34.9908401
  54.7574788 107.3620132  34.6202334  53.9002291 106.1266967  34.7962938
  46.2767408 115.6275485  39.3511242  46.9895380 116.2622950  39.2787143
  45.7857437 115.7239351  38.5351243  47.9984935 109.5326738  30.9228533
  47.0641214 109.6528200  30.7533238  48.1761603 108.6299205  30.6588543
  43.4990123 102.9172434  33.0761794  43.1287911 102.3643474  33.7642700
  43.9949215 102.3130567  32.5236794  51.3857486 105.3744057  31.4578567
  51.8517939 106.2072049  31.3838870  51.8364987 104.9089039  32.1623826
  41.3279322 113.3769929  40.1716812  42.0288781 114.0106412  40.3246207
  40.8574437 113.7184660  39.4112452  49.4533717 111.7187879  28.4564719
  49.7293561 111.6044473  29.3658593  48.5838216 111.3205363  28.4176892
  49.3574149  97.7424644  35.4969469  48.4437229  97.9728871  35.6651676
  49.7867251  97.8263088  36.3483501  49.1280608 105.9314536  37.9969363
  48.4752058 106.1790444  37.3421815  49.5060987 105.1178674  37.6631840
  46.0887781 115.9674229  32.0997533  46.2710176 115.1495885  32.5625285
  46.9120767 116.1841922  31.6622423  46.4229947 114.8942415  29.3612581
  46.9517713 114.3834869  28.7482744  46.6858167 114.5784945  30.2258114
  45.1768181 106.6734347  44.4835400  44.5008818 106.5728477  45.1537775
  45.9995814 106.5173561  44.9471397  36.9247040 112.9106284  37.1047915
  37.5100476 112.1649972  37.2375819  36.7271878 113.2210241  37.9884579
  39.7785695 115.9457531  32.1210357  39.1096070 116.4303659  31.6374397
  39.6398565 116.1926752  33.0353736  31.5164694 105.4811884  35.8252358
  31.5548794 104.9475475  36.6189476  31.0104987 104.9547090  35.2063335
  43.9190963 117.9801275  38.7193016  44.4709271 118.1432896  39.4842101
  44.2597157 118.5705713  38.0473041  38.8955457 100.3276425  39.3214900
  38.9596783 101.1891255  38.9092298  38.8322577  99.7150426  38.5887259
  38.3707729 102.3999557  42.9687935  38.9979768 102.0176634  43.5825459
  37.5135648 102.1813759  43.3343627  48.7701838 112.8062532  44.5741670
  49.3141742 113.4192491  44.0796625  48.1888683 113.3642111  45.0908683
  35.1473272 104.2075986  28.9006290  35.4426713 103.2986665  28.8473343
  34.2461308 104.1863726  28.5787292  47.0559351 115.9283250  35.7056698
  46.9310490 115.1272990  35.1967643  47.7138442 116.4229444  35.2170668
  38.6767519 102.2831983  34.8833838  37.9554105 102.8967950  34.7441311
  39.4660775 102.8189748  34.8050484  49.1194259 113.7292270  37.3336248
  48.1724595 113.6097622  37.2614575  49.4677032 112.8414768  37.4162509
  41.4793832  99.6186409  41.1574490  42.0028234  99.8648706  41.9200799
  41.2606166 100.4506444  40.7377627  36.8761114 101.8890084  29.0245615
  36.5473820 101.0087463  28.8420721  37.2300484 101.8337753  29.9122004
  46.1240692 113.5244987  33.5340600  45.9765655 112.5961694  33.7148170
  46.9494186 113.5465077  33.0497675  39.9902937 102.1763054  29.3921092
  40.3299009 102.7048975  28.6699701  40.4375057 102.5143460  30.1679659
  49.7274814 114.3473545  34.6205473  50.6521362 114.1416407  34.4829924
  49.5590118 114.0989946  35.5294814  42.6846378 100.5600104  38.8424160
  42.3443198  99.7607917  39.2444840  41.9785384 100.8601815  38.2700994
  43.3362849  97.6449417  37.2951483  44.1588919  97.1709895  37.1730374
  43.5800913  98.4239901  37.7950170  41.9771084 100.6737675  27.5914385
  42.6979446 101.0518928  27.0878102  41.3536388 101.3926552  27.6949363
  46.1202207 101.3782824  28.5272717  46.3365821 102.2607462  28.2261546
  45.6396274 100.9869038  27.7978359  40.8601428 104.3368537  35.1043462
  40.7146009 104.6508841  35.9967744  40.3826632 104.9553438  34.5514361
  42.7197811 101.3271085  35.1524352  42.7059380 100.4312179  34.8156650
  43.4370239 101.3341749  35.7862638  44.5723942 101.7608426  37.1977479
  44.3141720 102.6825496  37.1961809  44.0408982 101.3638860  37.8877943
  49.5170130 114.8659213  29.9767564  49.6907008 114.3005635  29.2241417
  50.0099022 115.6660108  29.7947054  35.3347090 106.8773882  38.0431123
  34.7900558 107.6533690  38.1751398  36.2126440 107.2244686  37.8850245
  42.1234707 100.2085466  30.4211922  42.2450618  99.2802112  30.6202809
  41.8336749 100.2224152  29.5090237  44.9925897  97.8940376  33.5578642
  45.0147594  97.9579709  32.6030621  45.4093956  97.0544885  33.7519148
  55.3709522 107.6295636  31.5957864  55.8140668 106.8802961  31.1976987
  54.4936032 107.6205772  31.2131596  50.5045303 114.1825977  27.0764463
  51.1996208 114.8032670  27.2951777  50.8468453 113.3321328  27.3516841
  36.1213112 106.0043778  40.9361280  35.3794848 106.1526413  41.5225911
  35.8005856 106.2652044  40.0728030  52.4036726 111.6325683  28.6051793
  52.9288050 111.9712955  27.8801114  52.3159079 110.6972698  28.4214928
  44.0656775 115.5459756  40.7341670  44.3743901 115.3008903  41.6064370
  44.8632257 115.7506395  40.2460540  44.0877387 117.6997666  32.9647047
  43.6482377 117.2074045  33.6579903  44.8385504 117.1570634  32.7239122
  36.5669726 113.8909207  32.9671675  37.3927746 113.5912979  32.5870318
  36.2163778 113.1216829  33.4161463  41.5351259 113.2435675  35.0369348
  40.9131268 112.5806380  34.7371576  42.2056126 113.2696807  34.3542996
  34.7678331 111.8095533  33.9260608  33.9310239 111.3817708  33.7444610
  34.7401976 112.0027977  34.8631400  41.6075786 101.7217463  44.6301854
  41.6563942 102.5979586  44.2479624  42.1498301 101.1794856  44.0573498
  52.0930632 112.2658586  43.9102991  51.3026176 112.2482725  43.3707491
  51.8563987 112.8046880  44.6652028  52.2128507 109.1151053  41.2235720
  52.2626512 108.9501060  42.1651243  52.1042431 108.2478312  40.8333601
  41.0964766 111.7939598  28.5127809  41.2452886 112.4775063  27.8594482
  41.9031209 111.7744688  29.0277265  49.5032270 105.0981981  42.5395027
  50.4042132 104.9588446  42.2479024  49.5780244 105.2636436  43.4793204
  43.8375075 102.4748835  41.3848213  42.9678384 102.7682402  41.1130802
  44.0734555 103.0589280  42.1055477  53.7146704 111.5347994  41.4677742
  53.4231512 111.8977975  42.3041202  53.1018835 110.8215002  41.2891074
  54.9142386 109.1000874  33.9880312  55.7489278 109.5390678  34.1517872
  55.0501515 108.6239527  33.1688558  51.9633892 106.6580609  39.9357800
  52.4388014 106.8508255  39.1276651  51.0399458 106.7139795  39.6901183
  38.8517399 107.8204776  29.5188878  38.6063441 106.9167106  29.7169088
  39.0213313 107.8221926  28.5768356  46.5414109  98.6928452  38.9013633
  47.0596053  99.4289479  38.5760122  46.1869242  98.9992446  39.7360393
  38.1213046 103.5533134  27.0175039  37.4282291 103.6277489  26.3615075
  37.8764798 102.7893477  27.5396556  46.7926703  95.1128735  34.4214530
  47.0728457  94.4451924  35.0474957  47.5777310  95.3057831  33.9089194
  44.5960171 114.2887729  25.9839556  44.0234139 114.9077916  25.5310028
  45.1692965 114.8387091  26.5179478  50.6635561 103.5346369  38.1686105
  51.6152984 103.6344467  38.1898329  50.4939012 102.7424637  38.6784189
  48.6849941 100.6201952  38.3545506  48.0899873 100.9006965  37.6591995
  48.3999637 101.1095853  39.1262247  47.8157431 114.5724879  27.1148139
  48.7488104 114.5070441  27.3181014  47.7280644 115.4081146  26.6562671
  50.4445448 113.8890749  24.0752086  50.3659079 113.5550613  24.9687844
  51.2655115 114.3812517  24.0743558  53.1423639 106.7552489  37.2828405
  53.1099959 105.8168489  37.4688089  53.7524263 106.8336525  36.5494230
  44.9806970 105.6248542  23.3255609  45.9266075 105.4954750  23.3944027
  44.6021215 104.8863203  23.8025037  53.2918128 103.5463532  37.3286688
  52.7757176 102.7621989  37.1416617  54.1758076 103.2182249  37.4933207
  50.9528854  97.2904548  33.2882501  50.7553676  96.9819636  34.1725833
  51.5628560  98.0166187  33.4180430  58.9600189 107.8168495  36.4234442
  59.6903577 107.5553784  36.9842145  58.3507134 107.0797217  36.4636510
  57.0415486 105.9576358  37.0208893  56.3148650 105.8232323  36.4125384
  56.6262773 106.2653187  37.8265611  44.8645662 109.6766288  44.7856266
  45.7848672 109.8544887  44.9796312  44.8295245 108.7322333  44.6335965
  43.1649887 103.5498518  23.2610494  42.2581342 103.2531631  23.3373208
  43.4425868 103.2528336  22.3944780  34.0827827 104.8704881  33.7109540
  33.7630612 104.0170190  33.4183914  33.5361256 105.0853460  34.4667508
  37.8607735 107.5867322  37.4279047  38.0793745 108.5184430  37.4467081
  38.2733509 107.2275297  38.2133851  44.7811953  98.0935408  29.4154735
  43.9712681  97.7482493  29.7909981  45.4696370  97.7842951  30.0042347
  46.7102501  97.1713455  31.0379032  47.2633540  97.5908908  31.6969055
  46.9472587  96.2449203  31.0801988  42.7335600 103.1600528  46.8181796
  42.6332327 104.1094885  46.7493887  42.5157142 102.8318767  45.9457866
  41.9348672 100.4085453  23.4022473  42.7967836 100.7340352  23.6618291
  42.1199016  99.6216949  22.8895539  33.9516087 108.4907793  35.6802662
  33.2579559 108.0761746  35.1672616  34.6989078 108.5328329  35.0836081
  50.0881308  99.2813980  30.5457696  49.5079977  99.9398784  30.1635749
  49.8217241  98.4591324  30.1345114  48.5384875  98.6819037  32.7479017
  49.0384653  98.7935572  31.9393335  49.1820482  98.3780090  33.3879825
  42.5966870 106.5897667  45.6346858  42.1133952 107.3898027  45.8410747
  42.6827809 106.6005612  44.6814302  35.8652830 108.4226047  33.5568677
  35.8423518 108.5213734  32.6050560  36.1753466 109.2691197  33.8785843
  38.5240208 110.4802202  37.6715291  39.4783461 110.4486144  37.6045223
  38.3252731 110.0192825  38.4865517  39.1139590 109.0503318  40.2386089
  39.9332479 109.5447396  40.2620926  39.3876398 108.1335286  40.2103656
  48.8706186 101.4414070  29.6014044  47.9832041 101.7263721  29.3834239
  49.2860175 101.2807833  28.7541321  52.2220722 101.4660591  33.3168384
  52.9981112 101.9557043  33.5893001  51.4968856 101.8918645  33.7740253
  54.6593281 102.1788210  34.3742324  55.2537772 101.9383946  33.6635633
  54.7319865 101.4595341  35.0015861  48.0149400 111.2058745  23.6962064
  48.7185250 111.4108747  24.3119720  47.2912048 111.7735507  23.9611148
  48.8447210 106.9568606  29.8164335  48.7882411 107.4137157  28.9771967
  49.3975552 106.1959291  29.6387177  52.6552016 102.7458338  30.6414454
  52.3988950 102.3454974  31.4722662  52.0304884 103.4602132  30.5164593
  56.9664354 105.4854411  33.1485746  56.4063912 105.5547600  33.9217308
  56.3607857 105.3095396  32.4285242  49.9236097 111.6441274  25.7460525
  50.7581701 111.2122472  25.5637999  49.7620440 111.4723288  26.6737419
  49.5781989 108.1473387  27.1116864  49.5230793 107.9817659  26.1705308
  48.9528045 108.8549420  27.2679054  34.3674504 103.3841452  40.9378286
  35.0133368 102.8740406  41.4265511  34.1591655 104.1210133  41.5121711
  46.8927896 110.4522299  46.4370427  47.7619056 110.6262951  46.0757062
  46.4134648 111.2716716  46.3146156  42.8878115  97.6481496  26.6902182
  42.8756785  98.5923336  26.8470453  43.7801537  97.4651642  26.3961643
  41.0614077 117.5719400  38.1159860  41.9641323 117.6043010  38.4326355
  40.8351447 116.6419851  38.1306196  42.8167679 116.3250387  34.7769939
  41.8663310 116.3252248  34.6634311  43.1200165 115.5783121  34.2605973
  46.7030234  94.2424273  30.9448119  45.9362630  93.6882760  31.0904801
  47.1140939  94.3146142  31.8062271  38.7071995 100.5309069  45.0353300
  39.5703457 100.1745874  45.2456625  38.1337406 100.1922963  45.7228705
  58.5520372 122.1610925  35.8415701  59.1898782 122.0417672  35.1379041
  58.4341215 123.1091769  35.9003653  55.3610078 122.1138353  35.7777226
  55.0228590 121.9979418  34.8897761  56.2299847 121.7129518  35.7578232
  55.8429861 123.2673205  41.7363431  55.8318502 122.8726003  40.8643935
  56.0050501 122.5339277  42.3297203  53.0618358 120.8826601  25.1094166
  53.3143879 120.3608122  24.3477629  52.1242917 120.7192746  25.2120850
  58.1061641 119.8862379  32.9168909  58.8924730 119.4681802  32.5659326
  58.3700345 120.7908471  33.0850558  63.5070068 119.8237612  33.8201888
  64.2395240 119.2536829  34.0539717  62.7509423 119.4359213  34.2608393
  55.1246187 122.2464854  31.0165230  54.7604395 121.7195475  31.7278152
  55.9813303 121.8563323  30.8431716  61.0295488 113.5359186  38.2796496
  60.6978813 114.4054597  38.0557711  60.4341102 113.2195470  38.9590527
  54.7651674 117.2754753  26.0126579  54.9326077 118.1434990  26.3797050
  54.5748844 117.4382035  25.0887868  60.9224151 118.2554272  35.3589846
  60.0141029 118.1869681  35.0648607  60.8711747 118.7326217  36.1871672
  54.7440895 119.7312411  26.9973246  54.6240521 120.1769462  27.8358726
  54.0493484 120.0797728  26.4386784  54.9965017 119.6743918  43.3024744
  54.2198351 120.2337838  43.2927608  55.6355580 120.1600701  43.8239614
  62.7885798 116.4570711  37.1367720  62.1460178 116.7503244  36.4907515
  62.2840726 116.3423631  37.9420917  60.4425962 120.2033884  27.8253580
  61.3543818 120.4361271  27.6501277  59.9335609 120.7870928  27.2628658
  55.0797799 119.5631119  38.8348429  55.9258994 119.9870532  38.9783078
  55.0196437 118.9064743  39.5286992  58.2297245 117.2235487  40.4929603
  57.9858176 117.9777547  39.9563879  58.5057175 117.6020835  41.3276850
  60.1835707 123.7674099  39.1706868  60.3952603 124.4105859  38.4941249
  60.1365456 122.9336416  38.7028798  57.7861936 116.3791920  36.0743441
  56.9246415 116.6773173  36.3660178  57.8124371 116.5962319  35.1424473
  53.5392392 121.0457263  29.2906811  54.2416435 121.4978307  29.7580738
  53.2073020 120.4041082  29.9186704  51.9872753 119.6369019  43.6658021
  51.3571414 120.3185300  43.8993418  51.8808841 119.5252101  42.7211159
  47.2817726 119.3040816  34.5923945  46.4916780 119.5598344  34.1164056
  47.7728973 120.1189153  34.6975985  49.2332471 119.6685395  31.5507422
  48.4363634 119.7804089  32.0690917  49.0058063 120.0072047  30.6848312
  69.3887528 122.9884803  33.6914197  68.6351237 122.4192201  33.5358202
  69.5235070 122.9547468  34.6384832  51.2653496 113.9389785  46.0283272
  50.8720442 113.3855984  46.7030916  52.0819636 114.2500364  46.4189789
  54.1821457 115.3547664  43.6203528  54.9231170 115.9554818  43.5407991
  54.4139380 114.6125302  43.0621571  58.1278620 111.3828767  37.8967810
  57.7842889 112.2730409  37.8206921  58.4957583 111.1930425  37.0337395
  58.0928903 121.3737378  26.4040245  57.5775526 122.1441983  26.6428633
  57.8206211 120.7002515  27.0273307  55.6776014 116.2187079  31.4625484
  54.8217610 115.8293930  31.2831122  56.0902965 116.2979040  30.6025269
  57.2075160 113.7533423  35.8617043  56.7039956 113.7163558  35.0484849
  57.5005767 114.6626165  35.9213700  53.4518046 113.8372152  34.8683225
  54.3171043 113.6414961  34.5089114  53.5195555 113.6082504  35.7952582
  63.0663177 124.1269733  28.3393419  62.2892620 123.7880893  27.8948581
  63.7454658 124.1322356  27.6648384  57.8815206 119.2464471  28.2300026
  57.5765341 119.5610620  29.0810170  58.8345648 119.3245890  28.2727359
  61.3054484 123.6003714  34.9960027  60.6478158 124.2902976  35.0840155
  62.1094883 123.9900146  35.3394013  51.0580365 116.0674360  32.2399592
  51.6324117 115.8449542  31.5072785  51.6451348 116.1363055  32.9928193
  60.1159942 121.9548087  33.0463968  60.6291824 122.5878079  33.5485678
  60.7661166 121.3549283  32.6807328  51.3849952 118.0978821  26.2595477
  50.5487265 118.4353508  26.5804752  51.2454722 117.9627801  25.3222614
  53.3603033 112.9415609  30.9674661  52.7067445 112.6264626  30.3431276
  53.3183507 112.3191350  31.6934484  56.5940773 119.4297543  35.2922309
  55.6763335 119.6512490  35.1343997  57.0100917 119.5043853  34.4334016
  57.3775821 120.8288958  30.4224989  58.1247640 121.3410355  30.1132111
  57.6467411 120.5073011  31.2829383  59.8254658 117.8646075  32.4043778
  59.0877415 117.3523461  32.7354021  60.0781432 117.4246456  31.5927055
  59.9266286 110.6422327  32.9985548  60.2325162 109.7819690  32.7111463
  60.6518890 111.2339947  32.7984542  54.1987365 120.9376120  33.5061739
  54.2535975 119.9849956  33.4304215  53.3878567 121.0935559  33.9903037
  52.1379725 119.5553179  31.2652118  51.3247591 119.8547350  31.6717310
  52.6338719 119.1608868  31.9826600  57.7353937 120.0195004  40.0967012
  58.0903325 120.2466477  40.9561477  58.3826068 120.3513381  39.4744267
  63.4651674 123.1413440  30.8016341  63.3269572 123.3315036  29.8737530
  63.1087893 123.9032823  31.2584392  51.6293800 117.1271535  36.8813353
  52.2693179 116.9860294  36.1836316  50.7971331 116.8406048  36.5051955
  63.4921053 125.2089967  35.8127612  63.9257560 125.1165256  36.6610666
  64.2052634 125.1847467  35.1747628  48.7136867 120.5717047  29.0708098
  47.7834455 120.5101503  29.2878060  48.8094339 120.0493000  28.2744739
  48.6322416 117.0971860  31.6586339  48.8929234 118.0117193  31.5495500
  49.4539589 116.6296302  31.8082952  50.1047342 118.5109617  38.8285164
  50.7770395 118.3026979  38.1797813  49.2777128 118.3131703  38.3890396
  64.3536603 125.2513667  38.3460497  64.5472493 126.1559478  38.5919772
  64.2537221 124.7921086  39.1799083  56.0072914 115.1371558  40.8450825
  55.3600829 115.8361508  40.7515301  56.7773929 115.5707702  41.2127073
  56.1837048 122.9752323  38.9047645  57.1129108 123.1263482  38.7316612
  55.7628078 123.0636344  38.0496291  59.4689787 123.7240624  24.3372080
  58.8518957 122.9987452  24.2405132  59.0006275 124.4849985  23.9939154
  53.1357140 121.4972179  39.0771281  53.8456758 120.8565372  39.0357899
  53.0926448 121.7485074  39.9997462  51.8486074 118.4837397  40.8966920
  51.3123431 118.0328136  41.5488517  51.2602782 118.6183306  40.1537385
  51.2588333 117.9426049  23.4593384  50.3817799 117.8214849  23.0955631
  51.7346086 117.1512127  23.2072273  47.5825195 117.6193405  37.9819915
  47.4983384 117.0119074  37.2470325  46.7607901 118.1102423  37.9829411
  57.7548909 116.1046968  33.3490110  58.2517608 115.3516931  33.0291180
  56.9835890 116.1411285  32.7833319  65.6078666 121.8087334  34.9908401
  65.5968542 122.6912049  34.6202334  64.7396046 121.4558885  34.7962938
  54.3383878 118.2464351  33.0761794  53.9681665 117.6935392  33.7642700
  54.8342970 117.6422485  32.5236794  62.2251241 120.7035975  31.4578567
  62.6911693 121.5363967  31.3838870  62.6758741 120.2380957  32.1623826
  60.1967904 113.0716562  35.4969469  59.2830983 113.3020789  35.6651676
  60.6261005 113.1555006  36.3483501  59.9674362 121.2606454  37.9969363
  59.3145812 121.5082361  37.3421815  60.3454742 120.4470592  37.6631840
  56.0161935 122.0026265  44.4835400  55.3402572 121.9020394  45.1537775
  56.8389569 121.8465479  44.9471397  49.7349211 115.6568342  39.3214900
  49.7990538 116.5183173  38.9092298  49.6716331 115.0442344  38.5887259
  49.2101484 117.7291475  42.9687935  49.8373523 117.3468552  43.5825459
  48.3529403 117.5105677  43.3343627  45.9867026 119.5367904  28.9006290
  46.2820468 118.6278582  28.8473343  45.0855062 119.5155643  28.5787292
  49.5161273 117.6123900  34.8833838  48.7947859 118.2259868  34.7441311
  50.3054529 118.1481665  34.8050484  52.3187587 114.9478327  41.1574490
  52.8421989 115.1940623  41.9200799  52.0999920 115.7798362  40.7377627
  47.7154868 117.2182002  29.0245615  47.3867574 116.3379380  28.8420721
  48.0694239 117.1629670  29.9122004  50.8296691 117.5054971  29.3921092
  51.1692764 118.0340893  28.6699701  51.2768812 117.8435377  30.1679659
  53.5240132 115.8892022  38.8424160  53.1836952 115.0899835  39.2444840
  52.8179138 116.1893733  38.2700994  54.1756604 112.9741334  37.2951483
  54.9982673 112.5001813  37.1730374  54.4194667 113.7531818  37.7950170
  52.8164838 116.0029593  27.5914385  53.5373201 116.3810846  27.0878102
  52.1930142 116.7218470  27.6949363  56.9595961 116.7074742  28.5272717
  57.1759576 117.5899380  28.2261546  56.4790028 116.3160955  27.7978359
  51.6995183 119.6660455  35.1043462  51.5539763 119.9800758  35.9967744
  51.2220386 120.2845355  34.5514361  53.5591565 116.6563003  35.1524352
  53.5453134 115.7604096  34.8156650  54.2763994 116.6633667  35.7862638
  55.4117696 117.0900343  37.1977479  55.1535474 118.0117414  37.1961809
  54.8802737 116.6930778  37.8877943  52.9628461 115.5377383  30.4211922
  53.0844373 114.6094030  30.6202809  52.6730504 115.5516069  29.5090237
  55.8319652 113.2232294  33.5578642  55.8541349 113.2871627  32.6030621
  56.2487711 112.3836802  33.7519148  66.2103276 122.9587553  31.5957864
  66.6534422 122.2094879  31.1976987  65.3329786 122.9497690  31.2131596
  52.4469541 117.0509381  44.6301854  52.4957696 117.9271504  44.2479624
  52.9892055 116.5086774  44.0573498  63.0522262 124.4442970  41.2235720
  63.1020267 124.2792978  42.1651243  62.9436185 123.5770229  40.8333601
  60.3426024 120.4273898  42.5395027  61.2435887 120.2880363  42.2479024
  60.4173999 120.5928353  43.4793204  54.6768829 117.8040753  41.3848213
  53.8072139 118.0974319  41.1130802  54.9128310 118.3881198  42.1055477
  65.7536141 124.4292792  33.9880312  66.5883032 124.8682596  34.1517872
  65.8895270 123.9531445  33.1688558  62.8027647 121.9872527  39.9357800
  63.2781768 122.1800173  39.1276651  61.8793212 122.0431712  39.6901183
  57.3807863 114.0220370  38.9013633  57.8989807 114.7581397  38.5760122
  57.0262996 114.3284363  39.7360393  48.9606801 118.8825051  27.0175039
  48.2676046 118.9569406  26.3615075  48.7158553 118.1185395  27.5396556
  57.6320457 110.4420653  34.4214530  57.9122211 109.7743842  35.0474957
  58.4171064 110.6349748  33.9089194  61.5029316 118.8638287  38.1686105
  62.4546739 118.9636384  38.1898329  61.3332766 118.0716555  38.6784189
  59.5243695 115.9493870  38.3545506  58.9293627 116.2298883  37.6591995
  59.2393392 116.4387771  39.1262247  63.9817394 122.0844406  37.2828405
  63.9493714 121.1460407  37.4688089  64.5918017 122.1628443  36.5494230
  55.8200724 120.9540459  23.3255609  56.7659829 120.8246667  23.3944027
  55.4414969 120.2155121  23.8025037  64.1311882 118.8755450  37.3286688
  63.6150931 118.0913906  37.1416617  65.0151831 118.5474166  37.4933207
  61.7922609 112.6196465  33.2882501  61.5947430 112.3111553  34.1725833
  62.4022315 113.3458104  33.4180430  69.7993943 123.1460413  36.4234442
  70.5297332 122.8845701  36.9842145  69.1900889 122.4089135  36.4636510
  67.8809241 121.2868276  37.0208893  67.1542404 121.1524241  36.4125384
  67.4656527 121.5945104  37.8265611  54.0043642 118.8790436  23.2610494
  53.0975097 118.5823548  23.3373208  54.2819623 118.5820254  22.3944780
  55.6205707 113.4227325  29.4154735  54.8106436 113.0774410  29.7909981
  56.3090124 113.1134869  30.0042347  57.5496256 112.5005372  31.0379032
  58.1027294 112.9200826  31.6969055  57.7866342 111.5741120  31.0801988
  53.5729355 118.4892446  46.8181796  53.4726082 119.4386803  46.7493887
  53.3550897 118.1610685  45.9457866  52.7742426 115.7377371  23.4022473
  53.6361590 116.0632269  23.6618291  52.9592770 114.9508867  22.8895539
  60.9275063 114.6105897  30.5457696  60.3473732 115.2690701  30.1635749
  60.6610995 113.7883242  30.1345114  59.3778629 114.0110955  32.7479017
  59.8778407 114.1227490  31.9393335  60.0214237 113.7072008  33.3879825
  59.7099941 116.7705988  29.6014044  58.8225796 117.0555638  29.3834239
  60.1253930 116.6099751  28.7541321  63.0614477 116.7952509  33.3168384
  63.8374867 117.2848961  33.5893001  62.3362611 117.2210563  33.7740253
  65.4987035 117.5080128  34.3742324  66.0931526 117.2675864  33.6635633
  65.5713619 116.7887258  35.0015861  59.6840964 122.2860524  29.8164335
  59.6276166 122.7429075  28.9771967  60.2369307 121.5251208  29.6387177
  63.4945770 118.0750256  30.6414454  63.2382705 117.6746891  31.4722662
  62.8698638 118.7894049  30.5164593  67.8058108 120.8146329  33.1485746
  67.2457666 120.8839518  33.9217308  67.2001612 120.6387313  32.4285242
  60.4175744 123.4765305  27.1116864  60.3624548 123.3109576  26.1705308
  59.7921799 124.1841338  27.2679054  45.2068259 118.7133369  40.9378286
  45.8527122 118.2032323  41.4265511  44.9985410 119.4502051  41.5121711
  53.7271869 112.9773414  26.6902182  53.7150539 113.9215254  26.8470453
  54.6195291 112.7943559  26.3961643  57.5423989 109.5716191  30.9448119
  56.7756384 109.0174677  31.0904801  57.9534694 109.6438059  31.8062271
  49.5465750 115.8600986  45.0353300  50.4097211 115.5037791  45.2456625
  48.9731160 115.5214881  45.7228705  68.9672374 126.7120685  37.8967810
  68.6236644 127.6022327  37.8206921  69.3351337 126.5222343  37.0337395
  70.7660040 125.9714244  32.9985548  71.0718917 125.1111608  32.7111463
  71.4912645 126.5631864  32.7984542  68.4714212 125.7712570  34.4214530
  68.7515966 125.1035759  35.0474957  69.2564819 125.9641666  33.9089194
  72.6316363 127.9488383  33.2882501  72.4341185 127.6403471  34.1725833
  73.2416069 128.6750022  33.4180430  68.3817743 124.9008108  30.9448119
  67.6150139 124.3466595  31.0904801  68.7928448 124.9729977  31.8062271
   6.9275147  28.7942067  28.7223167   6.8687693  28.1101287  28.0553750
   7.3294666  29.5361057  28.2703793   5.4126821  28.4956984  31.2986977
   5.9566725  29.1086942  30.8041932   4.8313666  29.0536563  31.8153990
   8.7355615  27.9553038  30.6348298   7.9451159  27.9377177  30.0952797
   8.4988970  28.4941332  31.3897335  10.3571687  27.2242446  28.1923048
  10.0656496  27.5872427  29.0286509   9.7443819  26.5109454  28.0136380
   3.5352880  26.1416751  33.1615733   4.4044039  26.3157403  32.8002368
   3.0559631  26.9611168  33.0391463  15.1945355  37.8505377  22.5661008
  15.8323765  37.7312124  21.8624348  15.0766198  38.7986221  22.6248960
  12.0035062  37.8032805  22.5022533  11.6653573  37.6873870  21.6143067
  12.8724830  37.4023970  22.4823539  12.4854845  38.9567657  28.4608738
  12.4743485  38.5620455  27.5889242  12.6475484  38.2233729  29.0542510
   5.4086309  41.1519473  21.3303644   6.2007601  40.8110298  20.9149943
   5.6482960  41.2614448  22.2505797   9.2062106  41.7404769  27.4087922
   8.9151972  42.6450399  27.2934588   9.8419090  41.7821296  28.1231992
  10.1318313  39.1181617  23.9989282  10.7281885  38.8937639  23.2846245
  10.1893284  38.3766363  24.6014730  20.1495051  35.5132064  20.5447194
  20.8820223  34.9431281  20.7785024  19.3934407  35.1253664  20.9853700
  17.6720471  29.2253638  25.0041803  17.3403796  30.0949049  24.7803018
  17.0766085  28.9089922  25.6835833  14.1651991  41.4266184  24.4037716
  13.8652714  42.3291223  24.2953523  13.8203050  41.1598367  25.2558869
  17.5649135  33.9448724  22.0835153  16.6566012  33.8764133  21.7893914
  17.5136731  34.4220669  22.9116979   9.1472771  48.1910504  17.3708683
   9.0696800  49.1418329  17.4497164   8.5434414  47.8456377  18.0283610
  11.6390001  35.3638370  30.0270050  10.8623335  35.9232290  30.0172915
  12.2780564  35.8495153  30.5484921  19.4310781  32.1465163  23.8613027
  18.7885161  32.4397696  23.2152822  18.9265710  32.0318083  24.6666224
   9.8936373  38.1723823  29.5888017  10.6351057  38.7108867  29.3122841
   9.1873358  38.7990112  29.7459569  15.3691712  40.3152964  28.1860179
  15.7775068  39.8735374  27.4414811  14.6468974  39.7405591  28.4394372
  11.7222783  35.2525570  25.5593736  12.5683978  35.6764984  25.7028385
  11.6621420  34.5959195  26.2532299  15.6920527  40.8754154  21.9412468
  15.0629390  41.0399868  21.2388536  15.3046189  41.2895764  22.7123432
  19.5709759  41.8108592  19.2956832  18.8860797  42.1907493  18.7453865
  19.6553608  42.4203919  20.0288779  14.8722228  32.9129939  27.2174909
  14.6283160  33.6671999  26.6809185  15.1482158  33.2915286  28.0522157
  16.8260691  39.4568551  25.8952175  17.0377586  40.1000311  25.2186556
  16.7790439  38.6230868  25.4274105   8.1372570  40.1600044  22.1442316
   8.7073927  40.5887312  21.5059801   8.7280682  39.8782629  22.8426502
   8.6297737  35.3263471  30.3903327   7.9996397  36.0079752  30.6238724
   8.5233824  35.2146553  29.4456466  17.9406519  42.3340507  24.0674532
  18.7623962  41.9320694  23.7857214  17.9368921  42.2308741  25.0190648
  11.7063122  41.8824550  26.2235243  11.7707555  42.3444957  27.0593415
  10.9974046  41.2521915  26.3517553  26.0312512  38.6779255  20.4159504
  25.2776220  38.1086653  20.2603508  26.1660053  38.6441920  21.3630139
   7.9078479  29.6284237  32.7528578   7.5145425  29.0750436  33.4276223
   8.7244620  29.9394816  33.1435096   6.6835422  44.1833852  18.7464901
   6.8602050  45.1051816  18.5585885   7.4792255  43.8692271  19.1759281
  10.8246440  31.0442116  30.3448835  11.5656154  31.6449269  30.2653297
  11.0564363  30.3019754  29.7866878   5.9687778  36.2298484  28.6227065
   5.8541293  35.3283741  28.9234164   5.1132296  36.4762180  28.2711881
  13.0479616  44.1716224  30.2214565  12.6043470  43.3852602  29.9035470
  13.7096830  44.3595374  29.5558456   7.8066737  45.7012025  24.7475244
   8.3574162  45.5729089  23.9752238   6.9678213  46.0006914  24.3970137
  15.1460854  44.4519024  28.2495967  15.1279329  45.2727905  27.7576236
  16.0680774  44.3273099  28.4746108  11.6033908  41.9663153  29.0919475
  12.1362245  41.2051441  28.8618783  11.0747989  41.6736805  29.8343629
  17.9479467  39.2898166  21.7205333  17.2903141  39.9797428  21.8085462
  18.7519866  39.6794598  22.0639320  16.7584926  37.6442539  19.7709275
  17.2716808  38.2772531  20.2730985  17.4086150  37.0443734  19.4052635
  13.2365757  35.1191994  22.0167616  12.3188318  35.3406941  21.8589304
  13.6525900  35.1938305  21.1579323  17.5246722  42.6248540  17.8988418
  17.0709049  41.7839450  17.9553608  16.8940689  43.2609939  18.2363198
  15.9679661  44.4625037  18.8338236  16.2602636  45.0230094  18.1150601
  16.4778282  44.7553598  19.5891395  10.9313286  45.2405388  19.9231689
  10.8889465  45.4666234  18.9940221  11.8475985  45.0068763  20.0717490
  14.3778920  35.7089456  26.8212318  14.7328308  35.9360929  27.6806784
  15.0251051  36.0407833  26.1989573  20.1076657  38.8307892  17.5261647
  19.9694556  39.0209488  16.5982836  19.7512876  39.5927274  17.9829698
  20.1346037  40.8984419  22.5372919  20.5682543  40.8059708  23.3855973
  20.8477617  40.8741919  21.8992935  13.8673932  44.4986513  24.0706019
  13.9210954  45.0677449  24.8383735  12.9988713  44.6688398  23.7060056
   6.7472325  34.2004069  25.5530471   7.4195378  33.9921431  24.9043120
   5.9202112  34.0026155  25.1135703  20.9961586  40.9408119  25.0705804
  21.1897476  41.8453930  25.3165079  20.8962204  40.4815538  25.9044389
  12.6497897  30.8266010  27.5696131  12.0025812  31.5255959  27.4760608
  13.4198912  31.2602154  27.9372380  16.0576695  41.0914862  30.6446685
  15.9062201  40.8625414  29.7276768  16.0481374  42.0485463  30.6578030
  12.8262031  38.6646775  25.6292951  13.7554091  38.8157934  25.4561919
  12.4053061  38.7530796  24.7741598  11.6250363  42.6897439  23.3991489
  11.4861449  42.3216224  24.2717427  10.8364959  43.2045079  23.2275447
  12.2198515  47.7906536  14.7417025  12.3950271  47.3194579  15.5562648
  11.5331303  48.4172302  14.9698286  13.1755578  42.0679042  20.7880327
  12.8405411  42.0279812  21.6837976  12.6759524  41.4023758  20.3150737
   7.1499822  37.4746672  26.3132908   7.0119620  36.7426911  26.9144447
   8.0604746  37.3855572  26.0317096   9.7782123  37.1866631  25.8016587
  10.4881742  36.5459823  25.7603206   9.7351431  37.4379526  26.7242768
  17.7668902  44.1233985  28.7223167  17.7081448  43.4393205  28.0553750
  18.1688420  44.8652975  28.2703793   8.4911057  34.1731849  27.6212227
   7.9548414  33.7222588  28.2733823   7.9027765  34.3077758  26.8782691
   6.7859600  50.9395898  21.5156886   7.0256199  51.5714423  22.1935904
   5.9428797  50.5883938  21.8022245  17.7686309  42.0873569  26.9537146
  16.8813088  41.7499490  27.0763545  18.3384860  41.3556600  27.1905912
  11.2987462  46.7475021  23.9198389  11.2257634  47.5529992  24.4317694
  10.8564855  46.9466987  23.0946411  11.0877242  45.9846791  17.4301211
  10.3044764  46.5268471  17.5239436  11.7869987  46.5020771  17.8295452
  22.2503649  37.4981786  21.7153708  22.2393526  38.3806501  21.3447641
  21.3821029  37.1453337  21.5208245  13.7586146  46.6461855  26.0756548
  14.4714118  47.2809320  26.0032450  13.2676174  46.7425721  25.2596550
   8.8098059  44.3956298  26.8962119   9.5107519  45.0292781  27.0491513
   8.3393174  44.7371030  26.1357758  16.6099345  36.9500906  24.7214669
  15.9570796  37.1976813  24.0667122  16.9879725  36.1365044  24.3877147
  13.5706519  46.9860599  18.8242840  13.7528914  46.1682255  19.2870592
  14.3939505  47.2028291  18.3867730  13.9048685  45.9128784  16.0857888
  14.4336451  45.4021239  15.4728050  14.1676904  45.5971314  16.9503421
  12.6586918  37.6920717  31.2080706  11.9827555  37.5914846  31.8783082
  13.4814552  37.5359931  31.6716704   4.4065777  43.9292653  23.8293222
   4.9919214  43.1836341  23.9621126   4.2090616  44.2396610  24.7129886
   7.2604433  46.9643901  18.8455664   6.5914808  47.4490028  18.3619704
   7.1217302  47.2113121  19.7599043  11.4009701  48.9987644  25.4438322
  11.9528009  49.1619266  26.2087408  11.7415895  49.5892082  24.7718347
   5.8526467  33.4185927  29.6933241   6.4798506  33.0363004  30.3070766
   4.9954386  33.2000129  30.0588934  16.2520576  43.8248902  31.2986977
  16.7960480  44.4378860  30.8041932  15.6707420  44.3828480  31.8153990
  14.5378089  46.9469620  22.4302005  14.4129228  46.1459360  21.9212950
  15.1957180  47.4415813  21.9415975  16.6012997  44.7478640  24.0581555
  15.6543332  44.6283991  23.9859881  16.9495770  43.8601138  24.1407816
   8.9612570  30.6372779  27.8819797   9.4846972  30.8835075  28.6446106
   8.7424904  31.4692814  27.4622934  13.6059430  44.5431356  20.2585907
  13.4584393  43.6148064  20.4393477  14.4312924  44.5651447  19.7742982
  17.2093552  45.3659915  21.3450780  18.1340100  45.1602776  21.2075231
  17.0408855  45.1176316  22.2540121  10.1665115  31.5786474  25.5669467
   9.8261936  30.7794287  25.9690147   9.4604122  31.8788185  24.9946300
  12.0542680  32.7794795  23.9222786  11.7960457  33.7011866  23.9207116
  11.5227720  32.3825230  24.6123250  16.9988868  45.8845582  16.7012871
  17.1725746  45.3192005  15.9486724  17.4917759  46.6846477  16.5192361
   2.8165828  37.8960251  24.7676430   2.2719296  38.6720059  24.8996704
   3.6945178  38.2431056  24.6095551  22.8528259  38.6482005  18.3203171
  23.2959405  37.8989330  17.9222294  21.9754770  38.6392142  17.9376903
  17.9864041  45.2012347  13.8009769  18.6814945  45.8219039  14.0197084
  18.3287191  44.3507698  14.0762147   3.6031850  37.0230148  27.6606587
   2.8613586  37.1712783  28.2471217   3.2824594  37.2838413  26.7973336
  19.8855464  42.6512052  15.3297100  20.4106788  42.9899325  14.6046420
  19.7977816  41.7159068  15.1460235  11.5475513  46.5646126  27.4586977
  11.8562639  46.3195273  28.3309676  12.3450995  46.7692764  26.9705847
  11.5696125  48.7184036  19.6892353  11.1301115  48.2260414  20.3825210
  12.3204242  48.1757003  19.4484429   4.0488464  44.9095576  19.6916981
   4.8746484  44.6099348  19.3115625   3.6982516  44.1403199  20.1406770
   9.0169997  44.2622045  21.7614655   8.3950006  43.5992750  21.4616883
   9.6874864  44.2883177  21.0788303   9.0894524  32.7403833  31.3547161
   9.1382680  33.6165955  30.9724931   9.6317038  32.1981226  30.7818804
  19.5749370  43.2844956  30.6348298  18.7844914  43.2669095  30.0952797
  19.3382725  43.8233250  31.3897335  19.6947245  40.1337422  27.9481027
  19.7445250  39.9687430  28.8896549  19.5861168  39.2664681  27.5578907
  16.9851007  36.1168350  29.2640333  17.8860870  35.9774815  28.9724331
  17.0598982  36.2822805  30.2038511  11.3193813  33.4935205  28.1093520
  10.4497122  33.7868771  27.8376108  11.5553293  34.0775650  28.8300783
  21.1965442  42.5534364  28.1923048  20.9050250  42.9164344  29.0286509
  20.5837573  41.8401372  28.0136380  22.3961124  40.1187244  20.7125618
  23.2308016  40.5577048  20.8763179  22.5320253  39.6425897  19.8933864
  19.4452630  37.6766978  26.6603106  19.9206752  37.8694625  25.8521958
  18.5218195  37.7326164  26.4146490  14.0232847  29.7114822  25.6258940
  14.5414790  30.4475849  25.3005429  13.6687979  30.0178815  26.4605699
  18.1454299  34.5532738  24.8931412  19.0971722  34.6530836  24.9143636
  17.9757749  33.7611007  25.4029496  16.1668679  31.6388322  25.0790813
  15.5718611  31.9193334  24.3837301  15.8818375  32.1282223  25.8507554
  20.6242377  37.7738858  24.0073711  20.5918697  36.8354859  24.1933395
  21.2343000  37.8522895  23.2739536  20.7736865  34.5649902  24.0531995
  20.2575914  33.7808358  23.8661923  21.6576814  34.2368618  24.2178514
  26.4418927  38.8354865  23.1479748  27.1722315  38.5740153  23.7087452
  25.8325872  38.0983587  23.1881816  24.5234224  36.9762728  23.7454199
  23.7967387  36.8418693  23.1370691  24.1081511  37.2839556  24.5510917
  12.3464400  40.6952657  31.5101572  13.2667410  40.8731256  31.7041619
  12.3113983  39.7508703  31.3581272   5.3426473  38.6053692  24.1524354
   5.5612483  39.5370800  24.1712387   5.7552247  38.2461666  24.9379157
  10.2154338  34.1786898  33.5427103  10.1151065  35.1281255  33.4739194
   9.9975880  33.8505137  32.6703173  10.0785608  37.6084037  32.3592164
   9.5952690  38.4084397  32.5656053  10.1646547  37.6191981  31.4059608
   6.0058946  41.4988571  24.3960598   6.9602199  41.4672514  24.3290530
   5.8071469  41.0379195  25.2110824   6.5958328  40.0689687  26.9631396
   7.4151217  40.5633766  26.9866233   6.8695135  39.1521655  26.9348963
  22.1412019  33.1974580  21.0987631  22.7356510  32.9570316  20.3880939
  22.2138602  32.4781710  21.7261167   4.3609174  47.0408191  21.4130796
   4.2263642  46.2808592  20.8468794   3.9441237  47.7649091  20.9459585
  24.4483091  36.5040781  19.8731052  23.8882649  36.5733970  20.6462614
  23.8426595  36.3281765  19.1530548   7.5178300  47.9377508  21.6249238
   7.4010684  48.8822940  21.5227929   6.6970747  47.6351069  22.0135038
   1.8493242  34.4027821  27.6623593   2.4952106  33.8926775  28.1510818
   1.6410393  35.1396503  28.2367018  14.3746634  41.4708669  33.1615733
  15.2437794  41.6449321  32.8002368  13.8953386  42.2903085  33.0391463
   8.5432814  48.5905770  24.8405167   9.4460061  48.6229380  25.1571662
   8.3170184  47.6606221  24.8551503  10.2986416  47.3436756  21.5015246
   9.3482047  47.3438618  21.3879618  10.6018903  46.5969491  20.9851280
   6.1890733  31.5495438  31.7598607   7.0522195  31.1932243  31.9701931
   5.6156144  31.2109333  32.4474011  26.0339110  53.1797295  22.5661008
  26.6717520  53.0604042  21.8624348  25.9159953  54.1278139  22.6248960
  22.8428816  53.1324723  22.5022533  22.5047328  53.0165787  21.6143067
  23.7118584  52.7315888  22.4823539  18.7015632  54.9860199  18.4919424
  18.1380497  54.8950136  17.7235711  18.5868027  54.1660104  18.9721916
  23.3248599  54.2859574  28.4608738  23.3137240  53.8912373  27.5889242
  23.4869239  53.5525647  29.0542510  16.2480064  56.4811391  21.3303644
  17.0401356  56.1402215  20.9149943  16.4876714  56.5906366  22.2505797
  24.2815191  58.6531167  13.8033888  23.6303170  59.2385247  13.4167902
  25.0759553  59.1837362  13.8628926  18.2070818  55.7420304  14.2021023
  18.9801694  55.1949291  14.0633899  18.5596217  56.6064553  14.4135484
  20.0455860  57.0696686  27.4087922  19.7545726  57.9742317  27.2934588
  20.6812845  57.1113214  28.1231992  20.9712067  54.4473535  23.9989282
  21.5675639  54.2229557  23.2846245  21.0287039  53.7058280  24.6014730
  20.5437096  51.9012970  11.8339473  20.7962616  51.3794491  11.0722936
  19.6061655  51.7379116  11.9366156  25.5880378  50.9048748  19.6414216
  26.3743468  50.4868172  19.2904633  25.8519083  51.8094841  19.8095864
  25.7590456  56.3421599  14.3402873  25.1236289  56.4156225  15.0523777
  25.4287862  56.9315198  13.6621952  30.9888806  50.8423982  20.5447194
  31.7213977  50.2723198  20.7785024  30.2328161  50.4545582  20.9853700
  20.2633384  53.8041076  14.0363848  20.1469642  53.1285979  14.7044932
  20.3735644  53.3173450  13.2196001  22.6064925  53.2651223  17.7410537
  22.2423133  52.7381844  18.4523458  23.4632041  52.8749692  17.5677022
  28.5114226  44.5545556  25.0041803  28.1797551  45.4240967  24.7803018
  27.9159839  44.2381840  25.6835833  22.2470412  48.2941123  12.7371885
  22.4144815  49.1621359  13.1042356  22.0567581  48.4568405  11.8133175
  25.0045745  56.7558102  24.4037716  24.7046469  57.6583141  24.2953523
  24.6596805  56.4890285  25.2558869  18.4558227  53.2071899  20.4374420
  17.5308723  53.0748113  20.6452112  18.7042640  53.9866118  20.9344363
  28.4042889  49.2740642  22.0835153  27.4959767  49.2056050  21.7893914
  28.3530485  49.7512587  22.9116979  22.2259633  50.7498780  13.7218552
  22.1059258  51.1955831  14.5604033  21.5312222  51.0984098  13.1632090
  15.8167038  52.8505172  21.2718209  15.9459419  53.1039651  22.1857621
  15.1364489  53.4432880  20.9522864  19.9866525  63.5202422  17.3708683
  19.9090555  64.4710247  17.4497164  19.3828169  63.1748295  18.0283610
  22.4783755  50.6930288  30.0270050  21.7017089  51.2524208  30.0172915
  23.1174318  51.1787070  30.5484921  30.2704536  47.4757080  23.8613027
  29.6278916  47.7689613  23.2152822  29.7659464  47.3610001  24.6666224
  27.9244699  51.2220254  14.5498886  28.8362555  51.4547640  14.3746584
  27.4154346  51.8057298  13.9873965  20.7330127  53.5015741  29.5888017
  21.4744812  54.0400785  29.3122841  20.0267113  54.1282030  29.7459569
  26.2085467  55.6444881  28.1860179  26.6168823  55.2027292  27.4414811
  25.4862728  55.0697509  28.4394372  22.5616537  50.5817488  25.5593736
  23.4077732  51.0056902  25.7028385  22.5015175  49.9251112  26.2532299
  26.5314282  56.2046072  21.9412468  25.9023144  56.3691786  21.2388536
  26.1439944  56.6187682  22.7123432  30.4103513  57.1400510  19.2956832
  29.7254552  57.5199411  18.7453865  30.4947363  57.7495836  20.0288779
  25.7115982  48.2421856  27.2174909  25.4676914  48.9963917  26.6809185
  25.9875913  48.6207204  28.0522157  27.6654445  54.7860469  25.8952175
  27.8771340  55.4292229  25.2186556  27.6184193  53.9522785  25.4274105
  25.2680674  47.3978289  22.7988747  24.4065153  47.6959543  23.0905485
  25.2943109  47.6148688  21.8669780  22.0842243  55.9420480  19.2062553
  22.5480589  56.2208183  18.4167175  21.8199042  55.0403925  19.0235644
  18.9766325  55.4891962  22.1442316  19.5467682  55.9179230  21.5059801
  19.5674436  55.2074546  22.8426502  21.0211130  52.0643632  16.0152118
  21.7235173  52.5164676  16.4826044  20.6891758  51.4227451  16.6432011
  19.4691491  50.6555389  30.3903327  18.8390152  51.3371670  30.6238724
  19.3627579  50.5438471  29.4456466  14.7636463  50.3227185  21.3169252
  13.9735517  50.5784714  20.8409362  15.2547711  51.1375523  21.4221292
  28.7800273  57.6632424  24.0674532  29.6017717  57.2612612  23.7857214
  28.7762676  57.5600658  25.0190648  16.7151209  50.6871764  18.2752728
  15.9182372  50.7990459  18.7936224  16.4876801  51.0258417  17.4093619
  22.5456876  57.2116468  26.2235243  22.6101309  57.6736875  27.0593415
  21.8367800  56.5813832  26.3517553  13.0474166  50.5757676  23.7484242
  13.2982205  51.4604685  24.0141818  13.5833715  50.3962277  22.9759334
  36.8706266  54.0071173  20.4159504  36.1169974  53.4378571  20.2603508
  37.0053807  53.9733837  21.3630139  22.2604894  58.8784575  16.0914223
  22.1250569  59.7236111  16.5199071  22.8014707  59.0803853  15.3280157
  18.7472234  44.9576155  32.7528578  18.3539179  44.4042353  33.4276223
  19.5638374  45.2686733  33.1435096  15.7134292  56.3960013  16.6642148
  16.2258812  57.1903263  16.8147713  16.3657004  55.6986304  16.5975750
  17.5229176  59.5125769  18.7464901  17.6995805  60.4343734  18.5585885
  18.3186010  59.1984189  19.1759281  21.6640195  46.3734034  30.3448835
  22.4049908  46.9741187  30.2653297  21.8958118  45.6311672  29.7866878
  16.8081533  51.5590401  28.6227065  16.6935048  50.6575658  28.9234164
  15.9526051  51.8054098  28.2711881  23.8873371  59.5008142  30.2214565
  23.4437225  58.7144520  29.9035470  24.5490584  59.6887292  29.5558456
  18.6460492  61.0303943  24.7475244  19.1967917  60.9021007  23.9752238
  17.8071968  61.3298832  24.3970137  25.9854609  59.7810941  28.2495967
  25.9673084  60.6019823  27.7576236  26.9074529  59.6565017  28.4746108
  22.4427663  57.2955071  29.0919475  22.9756000  56.5343359  28.8618783
  21.9141744  57.0028723  29.8343629  25.6097358  42.4015137  24.6213117
  25.2661627  43.2916779  24.5452227  25.9776320  42.2116795  23.7582702
  13.6783208  54.7248667  17.4401719  14.5158430  55.1345676  17.2235427
  13.8561476  53.7848110  17.4101913  25.5747640  52.3923748  13.1285552
  25.0594264  53.1628353  13.3673939  25.3024949  51.7188884  13.7518613
  23.1594751  47.2373449  18.1870790  22.3036348  46.8480299  18.0076429
  23.5721703  47.3165410  17.3270576  24.6893898  44.7719792  22.5862350
  24.1858694  44.7349927  21.7730155  24.9824505  45.6812535  22.6459007
  20.9336784  44.8558522  21.5928532  21.7989781  44.6601330  21.2334421
  21.0014293  44.6268874  22.5197888  30.5481915  55.1456103  15.0638725
  29.7711357  54.8067262  14.6193887  31.2273396  55.1508726  14.3893690
  25.3633944  50.2650840  14.9545333  25.0584079  50.5796989  15.8055476
  26.3164386  50.3432260  14.9972666  23.8080375  56.4241063  16.6038287
  23.2801737  55.6893823  16.2911524  23.3067878  57.2015740  16.3578255
  28.7873221  54.6190084  21.7205333  28.1296896  55.3089345  21.8085462
  29.5913621  55.0086516  22.0639320  18.5399103  47.0860730  18.9644898
  19.1142855  46.8635911  18.2318091  19.1270086  47.1549424  19.7173500
  27.5978680  52.9734457  19.7709275  28.1110562  53.6064448  20.2730985
  28.2479904  52.3735652  19.4052635  18.8668690  49.1165191  12.9840784
  18.0306002  49.4539877  13.3050058  18.7273460  48.9814171  12.0467921
  20.8421771  43.9601979  17.6919968  20.1886183  43.6450996  17.0676583
  20.8002245  43.3377719  18.4179791  21.9532976  54.2421274   9.6073260
  21.0460037  54.0110527   9.8064409  22.4504008  53.4458893   9.7947242
  24.8601055  62.9518781  12.5269946  24.1862753  63.2550478  13.1354904
  25.2466876  63.7547861  12.1775403  24.0759511  50.4483912  22.0167616
  23.1582073  50.6698859  21.8589304  24.4919655  50.5230223  21.1579323
  24.8594559  51.8475328  17.1470296  25.6066378  52.3596725  16.8377418
  25.1286148  51.5259381  18.0074689  23.1321209  54.3433869  14.1297250
  22.2232428  54.0592901  14.2269720  23.1616293  54.7632947  13.2700557
  28.3640476  57.9540458  17.8988418  27.9102804  57.1131368  17.9553608
  27.7334443  58.5901856  18.2363198  27.3073396  48.8832444  19.1289085
  26.5696153  48.3709830  19.4599328  27.5600170  48.4432826  18.3172362
  26.8073416  59.7916955  18.8338236  27.0996390  60.3522012  18.1150601
  27.3172036  60.0845516  19.5891395  27.4085023  41.6608696  19.7230854
  27.7143900  40.8006060  19.4356769  28.1337628  42.2526316  19.5229848
  13.7009379  52.0639383  18.1112452  13.5033779  51.4708743  17.3863519
  13.1456043  51.7591593  18.8288391  21.6806103  51.9562489  20.2307045
  21.7354713  51.0036326  20.1549522  20.8697305  52.1121928  20.7148344
  22.8297297  55.8842612  11.4685329  22.3916727  55.1678471  11.0090966
  23.5707738  56.1118727  10.9070420  19.6198463  50.5739549  17.9897424
  18.8066329  50.8733719  18.3962616  20.1157457  50.1795238  18.7071907
  21.7707041  60.5697306  19.9231689  21.7283220  60.7958152  18.9940221
  22.6869740  60.3360680  20.0717490  25.2172675  51.0381373  26.8212318
  25.5722062  51.2652847  27.6806784  25.8644806  51.3699750  26.1989573
  30.9470412  54.1599809  17.5261647  30.8088310  54.3501405  16.5982836
  30.5906630  54.9219192  17.9829698  19.1112538  48.1457904  23.6058659
  19.7511917  48.0046664  22.9081623  18.2790068  47.8592418  23.2297261
  30.9739791  56.2276336  22.5372919  31.4076298  56.1351625  23.3855973
  31.6871372  56.2033837  21.8992935  19.8872842  57.4460335  19.7193652
  20.6813440  56.9510655  19.5176227  19.1764534  56.9178198  19.3561357
  24.7067686  59.8278430  24.0706019  24.7604708  60.3969367  24.8383735
  23.8382468  59.9980315  23.7060056  16.1955605  51.5903417  15.7953404
  15.2653193  51.5287872  16.0123367  16.2913077  51.0679369  14.9990046
  16.1141154  48.1158229  18.3831646  16.3747972  49.0303563  18.2740807
  16.9358327  47.6482672  18.5328259  17.5866080  49.5295987  25.5530471
  18.2589133  49.3213349  24.9043120  16.7595866  49.3318073  25.1135703
  31.8355341  56.2700037  25.0705804  32.0291231  57.1745847  25.3165079
  31.7355959  55.8107456  25.9044389  23.4891652  46.1557928  27.5696131
  22.8419567  46.8547877  27.4760608  24.2592667  46.5894071  27.9372380
  26.8970450  56.4206780  30.6446685  26.7455956  56.1917331  29.7276768
  26.8875129  57.3777381  30.6578030  23.6655786  53.9938692  25.6292951
  24.5947846  54.1449852  25.4561919  23.2446816  54.0822713  24.7741598
  22.4644118  58.0189357  23.3991489  22.3255203  57.6508141  24.2717427
  21.6758714  58.5336996  23.2275447  23.0592270  63.1198453  14.7417025
  23.2344025  62.6486497  15.5562648  22.3725058  63.7464220  14.9698286
  24.0149333  57.3970960  20.7880327  23.6799165  57.3571730  21.6837976
  23.5153279  56.7315675  20.3150737  17.9893577  52.8038590  26.3132908
  17.8513375  52.0718828  26.9144447  18.8998500  52.7147490  26.0317096
  26.9508524  54.7426994  11.0617386  26.3337695  54.0173822  10.9650439
  26.4825013  55.5036354  10.7184461  20.6175877  52.5158549  25.8016587
  21.3275496  51.8751741  25.7603206  20.5745186  52.7671444  26.7242768
  28.6062656  59.4525902  28.7223167  28.5475202  58.7685122  28.0553750
  29.0082175  60.1944892  28.2703793  19.3304811  49.5023767  27.6212227
  18.7942168  49.0514505  28.2733823  18.7421520  49.6369676  26.8782691
  17.6253355  66.2687816  21.5156886  17.8649953  66.9006340  22.1935904
  16.7822551  65.9175856  21.8022245  28.6080063  57.4165486  26.9537146
  27.7206842  57.0791408  27.0763545  29.1778614  56.6848517  27.1905912
  10.2609211  53.7489578  20.2780198  10.9480250  53.4351308  19.6901213
  10.1057339  54.6530943  20.0047449  15.0643933  48.6379774  24.7065221
  14.9802121  48.0305444  23.9715631  14.2426639  49.1288793  24.7074718
  22.1381217  62.0766939  23.9198389  22.0651388  62.8821910  24.4317694
  21.6958610  62.2758904  23.0946411  21.9270996  61.3138709  17.4301211
  21.1438518  61.8560389  17.5239436  22.6263742  61.8312688  17.8295452
  25.2367647  47.1233338  20.0735416  25.7336346  46.3703300  19.7536487
  24.4654628  47.1597655  19.5078626  33.0897404  52.8273704  21.7153708
  33.0787280  53.7098419  21.3447641  32.2214783  52.4745254  21.5208245
  24.5979900  61.9753773  26.0756548  25.3107873  62.6101237  26.0032450
  24.1069929  62.0717639  25.2596550  26.3197427  55.8805025  17.6473840
  25.3853706  56.0006488  17.4778544  26.4974096  54.9777492  17.3833850
  21.8202615  49.2650721  19.8007101  21.4500403  48.7121761  20.4888007
  22.3161708  48.6608854  19.2482101  29.7069979  51.7222345  18.1823874
  30.1730431  52.5550336  18.1084177  30.1577479  51.2567326  18.8869132
  19.6491814  59.7248216  26.8962119  20.3501273  60.3584699  27.0491513
  19.1786929  60.0662948  26.1357758  27.7746210  58.0666166  15.1810026
  28.0506054  57.9522760  16.0903900  26.9050708  57.6683651  15.1422199
  27.6786641  44.0902932  22.2214775  26.7649721  44.3207158  22.3896982
  28.1079743  44.1741376  23.0728808  27.4493100  52.2792823  24.7214669
  26.7964550  52.5268731  24.0667122  27.8273480  51.4656962  24.3877147
  24.4100274  62.3152517  18.8242840  24.5922668  61.4974173  19.2870592
  25.2333260  62.5320209  18.3867730  24.7442439  61.2420702  16.0857888
  25.2730206  60.7313156  15.4728050  25.0070659  60.9263232  16.9503421
  23.4980673  53.0212635  31.2080706  22.8221310  52.9206764  31.8783082
  24.3208307  52.8651848  31.6716704  15.2459532  59.2584571  23.8293222
  15.8312969  58.5128259  23.9621126  15.0484370  59.5688528  24.7129886
  18.0998187  62.2935818  18.8455664  17.4308562  62.7781946  18.3619704
  17.9611057  62.5405039  19.7599043   9.8377187  51.8290171  22.5497665
   9.8761286  51.2953762  23.3434783   9.3317479  51.3025377  21.9308642
  22.2403456  64.3279562  25.4438322  22.7921764  64.4911183  26.2087408
  22.5809649  64.9184000  24.7718347  17.2167949  46.6754712  26.0460207
  17.2809275  47.5369543  25.6337605  17.1535069  46.0628713  25.3132566
  16.6920221  48.7477844  29.6933241  17.3192260  48.3654922  30.3070766
  15.8348140  48.5292046  30.0588934  27.0914330  59.1540819  31.2986977
  27.6354234  59.7670778  30.8041932  26.5101175  59.7120398  31.8153990
  13.4685764  50.5554273  15.6251596  13.7639205  49.6464952  15.5718650
  12.5673800  50.5342013  15.3032599  25.3771843  62.2761538  22.4302005
  25.2522982  61.4751277  21.9212950  26.0350934  62.7707731  21.9415975
  16.9980011  48.6310270  21.6079145  16.2766597  49.2446238  21.4686618
  17.7873267  49.1668035  21.5295791  27.4406751  60.0770558  24.0581555
  26.4937087  59.9575909  23.9859881  27.7889525  59.1893056  24.1407816
  19.8006325  45.9664697  27.8819797  20.3240727  46.2126993  28.6446106
  19.5818658  46.7984731  27.4622934  15.1973606  48.2368371  15.7490921
  14.8686312  47.3565750  15.5666027  15.5512977  48.1816040  16.6367311
  24.4453185  59.8723274  20.2585907  24.2978147  58.9439981  20.4393477
  25.2706678  59.8943365  19.7742982  18.3115429  48.5241341  16.1166399
  18.6511501  49.0527262  15.3945007  18.7587549  48.8621747  16.8924966
  28.0487307  60.6951833  21.3450780  28.9733854  60.4894694  21.2075231
  27.8802610  60.4468234  22.2540121  21.0058870  46.9078392  25.5669467
  20.6655690  46.1086205  25.9690147  20.2997876  47.2080102  24.9946300
  21.6575342  43.9927704  24.0196790  22.4801411  43.5188182  23.8975680
  21.9013405  44.7718188  24.5195476  20.2983576  47.0215962  14.3159692
  21.0191939  47.3997215  13.8123409  19.6748880  47.7404839  14.4194670
  24.4414699  47.7261111  15.2518024  24.6578313  48.6085749  14.9506852
  23.9608766  47.3347325  14.5223666  19.1813920  50.6846825  21.8288769
  19.0358501  50.9987128  22.7213050  18.7039124  51.3031725  21.2759667
  21.0410303  47.6749373  21.8769658  21.0271872  46.7790466  21.5401956
  21.7582731  47.6820036  22.5107944  22.8936434  48.1086713  23.9222786
  22.6354212  49.0303784  23.9207116  22.3621474  47.7117147  24.6123250
  27.8382623  61.2137500  16.7012871  28.0119500  60.6483922  15.9486724
  28.3311514  62.0138395  16.5192361  13.6559583  53.2252169  24.7676430
  13.1113051  54.0011977  24.8996704  14.5338932  53.5722974  24.6095551
  20.4447199  46.5563753  17.1457228  20.5663110  45.6280399  17.3448116
  20.1549242  46.5702439  16.2335544  23.3138390  44.2418663  20.2823948
  23.3360086  44.3057996  19.3275928  23.7306449  43.4023172  20.4764454
  33.6922014  53.9773923  18.3203171  34.1353160  53.2281248  17.9222294
  32.8148524  53.9684059  17.9376903  28.8257795  60.5304264  13.8009769
  29.5208700  61.1510957  14.0197084  29.1680945  59.6799616  14.0762147
  14.4425604  52.3522065  27.6606587  13.7007340  52.5004701  28.2471217
  14.1218349  52.6130331  26.7973336  30.7249218  57.9803970  15.3297100
  31.2500542  58.3191243  14.6046420  30.6371571  57.0450985  15.1460235
  22.3869267  61.8938044  27.4586977  22.6956394  61.6487190  28.3309676
  23.1844749  62.0984682  26.9705847  22.4089879  64.0475953  19.6892353
  21.9694869  63.5552332  20.3825210  23.1597996  63.5048921  19.4484429
  14.8882218  60.2387494  19.6916981  15.7140238  59.9391266  19.3115625
  14.5376270  59.4695116  20.1406770  19.8563751  59.5913962  21.7614655
  19.2343761  58.9284667  21.4616883  20.5268618  59.6175094  21.0788303
  13.0890823  58.1573821  20.6505915  12.2522731  57.7295995  20.4689916
  13.0614469  58.3506264  21.5876706  19.9288279  48.0695750  31.3547161
  19.9776434  48.9457873  30.9724931  20.4710793  47.5273143  30.7818804
  30.4143124  58.6136874  30.6348298  29.6238668  58.5961012  30.0952797
  30.1776479  59.1525167  31.3897335  30.5340999  55.4629340  27.9481027
  30.5839004  55.2979347  28.8896549  30.4254923  54.5956599  27.5578907
  19.4177258  58.1417886  15.2373116  19.5665379  58.8253350  14.5839788
  20.2243702  58.1222976  15.7522571  27.8244762  51.4460268  29.2640333
  28.7254625  51.3066733  28.9724331  27.8992736  51.6114723  30.2038511
  22.1587567  48.8227123  28.1093520  21.2890877  49.1160689  27.8376108
  22.3947048  49.4067568  28.8300783  32.0359196  57.8826281  28.1923048
  31.7444005  58.2456262  29.0286509  31.4231328  57.1693290  28.0136380
  33.2354879  55.4479161  20.7125618  34.0701770  55.8868965  20.8763179
  33.3714007  54.9717814  19.8933864  30.2846385  53.0058896  26.6603106
  30.7600506  53.1986542  25.8521958  29.3611950  53.0618082  26.4146490
  17.1729891  54.1683063  16.2434184  16.9275933  53.2645393  16.4414395
  17.3425806  54.1700214  15.3013662  24.8626601  45.0406740  25.6258940
  25.3808545  45.7767767  25.3005429  24.5081734  45.3470733  26.4605699
  16.4425539  49.9011421  13.7420346  15.7494784  49.9755776  13.0860382
  16.1977291  49.1371764  14.2641863  25.1139195  41.4607022  21.1459837
  25.3940949  40.7930211  21.7720263  25.8989802  41.6536118  20.6334500
  22.9172664  60.6366016  12.7084863  22.3446631  61.2556203  12.2555335
  23.4905457  61.1865378  13.2424785  28.9848054  49.8824656  24.8931412
  29.9365476  49.9822754  24.9143636  28.8151504  49.0902925  25.4029496
  27.0062433  46.9680239  25.0790813  26.4112365  47.2485252  24.3837301
  26.7212130  47.4574140  25.8507554  26.1369923  60.9203166  13.8393445
  27.0700597  60.8548728  14.0426321  26.0493136  61.7559433  13.3807978
  28.7657940  60.2369037  10.7997393  28.6871572  59.9028900  11.6933151
  29.5867607  60.7290804  10.7988865  31.4636131  53.1030776  24.0073711
  31.4312451  52.1646777  24.1933395  32.0736755  53.1814813  23.2739536
  23.3019462  51.9726829  10.0500915  24.2478567  51.8433037  10.1189333
  22.9233707  51.2341491  10.5270344  31.6130620  49.8941819  24.0531995
  31.0969668  49.1100276  23.8661923  32.4970568  49.5660536  24.2178514
  29.2741347  43.6382835  20.0127807  29.0766168  43.3297923  20.8971139
  29.8841052  44.3644474  20.1425737  37.2812681  54.1646783  23.1479748
  38.0116070  53.9032071  23.7087452  36.6719627  53.4275505  23.1881816
  35.3627978  52.3054645  23.7454199  34.6361142  52.1710610  23.1370691
  34.9475265  52.6131474  24.5510917  23.1858155  56.0244575  31.5101572
  24.1061164  56.2023174  31.7041619  23.1507738  55.0800620  31.3581272
  12.4040320  51.2183169  20.4354847  12.0843104  50.3648477  20.1429221
  11.8573748  51.4331747  21.1912814  16.1820227  53.9345610  24.1524354
  16.4006237  54.8662717  24.1712387  16.5946001  53.5753584  24.9379157
  23.1024445  44.4413695  16.1400042  22.2925173  44.0960780  16.5155288
  23.7908862  44.1321239  16.7287654  25.0314993  43.5191742  17.7624339
  25.5846032  43.9387195  18.4214362  25.2685080  42.5927490  17.8047295
  21.0548093  49.5078815  33.5427103  20.9544819  50.4573172  33.4739194
  20.8369635  49.1797054  32.6703173  12.2728580  54.8386080  22.4047969
  11.5792051  54.4240033  21.8917923  13.0201571  54.8806617  21.8081388
  28.4093800  45.6292267  17.2703003  27.8292469  46.2877071  16.8881055
  28.1429733  44.8069611  16.8590420  26.8597367  45.0297325  19.4724323
  27.3597145  45.1413859  18.6638642  27.5032975  44.7258377  20.1125132
  20.9179363  52.9375954  32.3592164  20.4346444  53.7376314  32.5656053
  21.0040302  52.9483899  31.4059608  14.1865322  54.7704334  20.2813984
  14.1636010  54.8692021  19.3295867  14.4965959  55.6169485  20.6031150
  16.8452700  56.8280489  24.3960598  17.7995954  56.7964431  24.3290530
  16.6465224  56.3671113  25.2110824  17.4352082  55.3981605  26.9631396
  18.2544971  55.8925684  26.9866233  17.7088890  54.4813573  26.9348963
  27.1918678  47.7892357  16.3259351  26.3044533  48.0742008  16.1079546
  27.6072668  47.6286121  15.4786628  30.5433215  47.8138878  20.0413690
  31.3193605  48.3035331  20.3138307  29.8181349  48.2396932  20.4985560
  32.9805773  48.5266497  21.0987631  33.5750264  48.2862233  20.3880939
  33.0532357  47.8073628  21.7261167  15.2002929  62.3700108  21.4130796
  15.0657397  61.6100509  20.8468794  14.7834991  63.0941008  20.9459585
  26.3361892  57.5537032  10.4207371  27.0397742  57.7587034  11.0365027
  25.6124541  58.1213794  10.6856455  27.1659702  53.3046893  16.5409641
  27.1094904  53.7615445  15.7017274  27.7188045  52.5437578  16.3632484
  30.9764508  49.0936625  17.3659761  30.7201442  48.6933261  18.1967968
  30.3517376  49.8080419  17.2409900  35.2876846  51.8332698  19.8731052
  34.7276404  51.9025888  20.6462614  34.6820349  51.6573683  19.1530548
  18.3572055  63.2669425  21.6249238  18.2404439  64.2114858  21.5227929
  17.5364501  62.9642987  22.0135038  28.2448589  57.9919561  12.4705831
  29.0794193  57.5600760  12.2883306  28.0832932  57.8201575  13.3982726
  27.8994482  54.4951674  13.8362170  27.8443285  54.3295946  12.8950615
  27.2740537  55.2027707  13.9924360  12.6886997  49.7319739  27.6623593
  13.3345860  49.2218693  28.1510818  12.4804148  50.4688420  28.2367018
  25.2140389  56.8000586  33.1615733  26.0831548  56.9741239  32.8002368
  24.7347140  57.6195003  33.0391463  21.2090607  43.9959783  13.4147489
  21.1969277  44.9401623  13.5715760  22.1014029  43.8129929  13.1206950
  19.3826569  63.9197687  24.8405167  20.2853816  63.9521298  25.1571662
  19.1563939  62.9898138  24.8551503  21.1380171  62.6728674  21.5015246
  20.1875802  62.6730535  21.3879618  21.4412657  61.9261408  20.9851280
  25.0242726  40.5902560  17.6693426  24.2575122  40.0361047  17.8150108
  25.4353431  40.6624429  18.5307577  17.0284488  46.8787356  31.7598607
  17.8915949  46.5224161  31.9701931  16.4549898  46.5401251  32.4474011
  36.8732864  68.5089212  22.5661008  37.5111274  68.3895960  21.8624348
  36.7553707  69.4570056  22.6248960  33.6822571  68.4616640  22.5022533
  33.3441082  68.3457705  21.6143067  34.5512339  68.0607805  22.4823539
  29.5409386  70.3152117  18.4919424  28.9774252  70.2242054  17.7235711
  29.4261781  69.4952021  18.9721916  34.1642354  69.6151492  28.4608738
  34.1530994  69.2204290  27.5889242  34.3262993  68.8817565  29.0542510
  27.0873818  71.8103308  21.3303644  27.8795110  71.4694133  20.9149943
  27.3270469  71.9198283  22.2505797  35.1208945  73.9823084  13.8033888
  34.4696925  74.5677165  13.4167902  35.9153308  74.5129279  13.8628926
  29.0464572  71.0712222  14.2021023  29.8195448  70.5241209  14.0633899
  29.3989971  71.9356471  14.4135484  30.8849615  72.3988604  27.4087922
  30.5939481  73.3034235  27.2934588  31.5206599  72.4405132  28.1231992
  31.8105822  69.7765452  23.9989282  32.4069394  69.5521475  23.2846245
  31.8680793  69.0350198  24.6014730  31.3830850  67.2304888  11.8339473
  31.6356371  66.7086409  11.0722936  30.4455409  67.0671033  11.9366156
  36.4274133  66.2340666  19.6414216  37.2137222  65.8160089  19.2904633
  36.6912837  67.1386758  19.8095864  36.5984210  71.6713516  14.3402873
  35.9630043  71.7448143  15.0523777  36.2681617  72.2607115  13.6621952
  41.8282560  66.1715899  20.5447194  42.5607732  65.6015116  20.7785024
  41.0721916  65.7837500  20.9853700  31.1027139  69.1332994  14.0363848
  30.9863397  68.4577897  14.7044932  31.2129399  68.6465368  13.2196001
  33.4458680  68.5943141  17.7410537  33.0816887  68.0673762  18.4523458
  34.3025796  68.2041610  17.5677022  39.3507980  59.8837473  25.0041803
  39.0191305  60.7532884  24.7803018  38.7553594  59.5673757  25.6835833
  33.0864167  63.6233040  12.7371885  33.2538569  64.4913277  13.1042356
  32.8961336  63.7860322  11.8133175  35.8439500  72.0850019  24.4037716
  35.5440223  72.9875058  24.2953523  35.4990559  71.8182203  25.2558869
  29.2951981  68.5363816  20.4374420  28.3702478  68.4040030  20.6452112
  29.5436395  69.3158035  20.9344363  39.2436644  64.6032560  22.0835153
  38.3353521  64.5347968  21.7893914  39.1924240  65.0804505  22.9116979
  33.0653388  66.0790698  13.7218552  32.9453013  66.5247749  14.5604033
  32.3705976  66.4276016  13.1632090  26.6560792  68.1797090  21.2718209
  26.7853174  68.4331569  22.1857621  25.9758244  68.7724798  20.9522864
  30.8260280  78.8494340  17.3708683  30.7484309  79.8002165  17.4497164
  30.2221923  78.5040212  18.0283610  33.3177509  66.0222205  30.0270050
  32.5410844  66.5816125  30.0172915  33.9568073  66.5078988  30.5484921
  41.1098290  62.8048998  23.8613027  40.4672670  63.0981531  23.2152822
  40.6053219  62.6901918  24.6666224  38.7638454  66.5512171  14.5498886
  39.6756310  66.7839558  14.3746584  38.2548101  67.1349215  13.9873965
  31.5723882  68.8307659  29.5888017  32.3138566  69.3692703  29.3122841
  30.8660867  69.4573947  29.7459569  37.0479221  70.9736799  28.1860179
  37.4562577  70.5319210  27.4414811  36.3256483  70.3989427  28.4394372
  33.4010291  65.9109406  25.5593736  34.2471487  66.3348819  25.7028385
  33.3408929  65.2543030  26.2532299  37.3708036  71.5337990  21.9412468
  36.7416899  71.6983704  21.2388536  36.9833698  71.9479599  22.7123432
  41.2497268  72.4692427  19.2956832  40.5648306  72.8491329  18.7453865
  41.3341117  73.0787754  20.0288779  36.5509737  63.5713774  27.2174909
  36.3070669  64.3255835  26.6809185  36.8269667  63.9499122  28.0522157
  38.5048200  70.1152387  25.8952175  38.7165095  70.7584146  25.2186556
  38.4577948  69.2814703  25.4274105  36.1074429  62.7270207  22.7988747
  35.2458908  63.0251461  23.0905485  36.1336863  62.9440606  21.8669780
  32.9235998  71.2712398  19.2062553  33.3874343  71.5500101  18.4167175
  32.6592796  70.3695842  19.0235644  29.8160079  70.8183879  22.1442316
  30.3861436  71.2471148  21.5059801  30.4068191  70.5366464  22.8426502
  31.8604884  67.3935550  16.0152118  32.5628927  67.8456594  16.4826044
  31.5285513  66.7519369  16.6432011  30.3085246  65.9847307  30.3903327
  29.6783906  66.6663588  30.6238724  30.2021333  65.8730388  29.4456466
  25.6030218  65.6519103  21.3169252  24.8129272  65.9076631  20.8409362
  26.0941465  66.4667441  21.4221292  39.6194028  72.9924342  24.0674532
  40.4411471  72.5904529  23.7857214  39.6156430  72.8892576  25.0190648
  27.5544963  66.0163682  18.2752728  26.7576127  66.1282376  18.7936224
  27.3270556  66.3550334  17.4093619  33.3850631  72.5408385  26.2235243
  33.4495064  73.0028792  27.0593415  32.6761555  71.9105750  26.3517553
  23.8867921  65.9049593  23.7484242  24.1375959  66.7896603  24.0141818
  24.4227469  65.7254195  22.9759334  47.7100021  69.3363090  20.4159504
  46.9563729  68.7670488  20.2603508  47.8447562  69.3025755  21.3630139
  33.0998649  74.2076493  16.0914223  32.9644323  75.0528028  16.5199071
  33.6408461  74.4095770  15.3280157  29.5865988  60.2868073  32.7528578
  29.1932934  59.7334271  33.4276223  30.4032129  60.5978651  33.1435096
  26.5528046  71.7251931  16.6642148  27.0652567  72.5195181  16.8147713
  27.2050759  71.0278221  16.5975750  28.3622931  74.8417687  18.7464901
  28.5389559  75.7635652  18.5585885  29.1579764  74.5276106  19.1759281
  32.5033949  61.7025952  30.3448835  33.2443663  62.3033105  30.2653297
  32.7351872  60.9603589  29.7866878  27.6475287  66.8882319  28.6227065
  27.5328802  65.9867576  28.9234164  26.7919805  67.1346016  28.2711881
  34.7267125  74.8300059  30.2214565  34.2830979  74.0436438  29.9035470
  35.3884339  75.0179210  29.5558456  29.4854246  76.3595861  24.7475244
  30.0361671  76.2312924  23.9752238  28.6465722  76.6590750  24.3970137
  36.8248363  75.1102859  28.2495967  36.8066838  75.9311740  27.7576236
  37.7468283  74.9856934  28.4746108  33.2821417  72.6246989  29.0919475
  33.8149754  71.8635277  28.8618783  32.7535498  72.3320640  29.8343629
  36.4491112  57.7307055  24.6213117  36.1055382  58.6208696  24.5452227
  36.8170075  57.5408712  23.7582702  24.5176963  70.0540585  17.4401719
  25.3552185  70.4637593  17.2235427  24.6955231  69.1140027  17.4101913
  36.4141395  67.7215666  13.1285552  35.8988018  68.4920270  13.3673939
  36.1418703  67.0480802  13.7518613  33.9988506  62.5665366  18.1870790
  33.1430102  62.1772217  18.0076429  34.4115458  62.6457327  17.3270576
  35.5287653  60.1011710  22.5862350  35.0252448  60.0641845  21.7730155
  35.8218259  61.0104452  22.6459007  31.7730538  60.1850439  21.5928532
  32.6383535  59.9893248  21.2334421  31.8408047  59.9560791  22.5197888
  41.3875669  70.4748020  15.0638725  40.6105112  70.1359180  14.6193887
  42.0667150  70.4800644  14.3893690  36.2027698  65.5942758  14.9545333
  35.8977834  65.9088907  15.8055476  37.1558140  65.6724178  14.9972666
  34.6474130  71.7532981  16.6038287  34.1195492  71.0185741  16.2911524
  34.1461633  72.5307657  16.3578255  39.6266976  69.9482002  21.7205333
  38.9690650  70.6381263  21.8085462  40.4307375  70.3378434  22.0639320
  29.3792858  62.4152647  18.9644898  29.9536609  62.1927829  18.2318091
  29.9663840  62.4841342  19.7173500  38.4372435  68.3026374  19.7709275
  38.9504317  68.9356366  20.2730985  39.0873659  67.7027570  19.4052635
  29.7062445  64.4457108  12.9840784  28.8699757  64.7831795  13.3050058
  29.5667214  64.3106088  12.0467921  31.6815525  59.2893896  17.6919968
  31.0279938  58.9742913  17.0676583  31.6395999  58.6669637  18.4179791
  32.7926730  69.5713191   9.6073260  31.8853792  69.3402445   9.8064409
  33.2897762  68.7750811   9.7947242  35.6994809  78.2810699  12.5269946
  35.0256508  78.5842395  13.1354904  36.0860631  79.0839779  12.1775403
  34.9153266  65.7775830  22.0167616  33.9975827  65.9990777  21.8589304
  35.3313409  65.8522140  21.1579323  35.6988313  67.1767246  17.1470296
  36.4460132  67.6888643  16.8377418  35.9679903  66.8551298  18.0074689
  33.9714964  69.6725786  14.1297250  33.0626183  69.3884819  14.2269720
  34.0010047  70.0924865  13.2700557  39.2034231  73.2832376  17.8988418
  38.7496558  72.4423286  17.9553608  38.5728198  73.9193774  18.2363198
  38.1467151  64.2124362  19.1289085  37.4089907  63.7001748  19.4599328
  38.3993924  63.7724743  18.3172362  37.6467170  75.1208872  18.8338236
  37.9390145  75.6813930  18.1150601  38.1565791  75.4137433  19.5891395
  38.2478778  56.9900614  19.7230854  38.5537655  56.1297977  19.4356769
  38.9731383  57.5818234  19.5229848  24.5403134  67.3931300  18.1112452
  24.3427534  66.8000661  17.3863519  23.9849798  67.0883511  18.8288391
  32.5199858  67.2854407  20.2307045  32.5748467  66.3328243  20.1549522
  31.7091060  67.4413846  20.7148344  33.6691051  71.2134530  11.4685329
  33.2310481  70.4970389  11.0090966  34.4101492  71.4410645  10.9070420
  30.4592218  65.9031467  17.9897424  29.6460083  66.2025637  18.3962616
  30.9551212  65.5087155  18.7071907  32.6100795  75.8989224  19.9231689
  32.5676974  76.1250070  18.9940221  33.5263494  75.6652598  20.0717490
  36.0566429  66.3673291  26.8212318  36.4115817  66.5944764  27.6806784
  36.7038560  66.6991668  26.1989573  41.7864166  69.4891727  17.5261647
  41.6482065  69.6793323  16.5982836  41.4300385  70.2511110  17.9829698
  29.9506292  63.4749822  23.6058659  30.5905672  63.3338581  22.9081623
  29.1183823  63.1884336  23.2297261  41.8133546  71.5568254  22.5372919
  42.2470052  71.4643543  23.3855973  42.5265126  71.5325754  21.8992935
  30.7266596  72.7752253  19.7193652  31.5207195  72.2802573  19.5176227
  30.0158289  72.2470116  19.3561357  35.5461441  75.1570348  24.0706019
  35.5998463  75.7261284  24.8383735  34.6776222  75.3272233  23.7060056
  27.0349360  66.9195334  15.7953404  26.1046948  66.8579790  16.0123367
  27.1306832  66.3971287  14.9990046  26.9534909  63.4450147  18.3831646
  27.2141726  64.3595480  18.2740807  27.7752081  62.9774590  18.5328259
  28.4259834  64.8587904  25.5530471  29.0982887  64.6505266  24.9043120
  27.5989621  64.6609990  25.1135703  42.6749095  71.5991955  25.0705804
  42.8684985  72.5037765  25.3165079  42.5749713  71.1399374  25.9044389
  34.3285406  61.4849845  27.5696131  33.6813321  62.1839795  27.4760608
  35.0986421  61.9185989  27.9372380  37.7364204  71.7498697  30.6446685
  37.5849710  71.5209249  29.7276768  37.7268883  72.7069299  30.6578030
  34.5049540  69.3230610  25.6292951  35.4341600  69.4741770  25.4561919
  34.0840570  69.4114631  24.7741598  33.3037872  73.3481275  23.3991489
  33.1648958  72.9800059  24.2717427  32.5152468  73.8628914  23.2275447
  33.8986024  78.4490371  14.7417025  34.0737780  77.9778414  15.5562648
  33.2118812  79.0756137  14.9698286  34.8543087  72.7262877  20.7880327
  34.5192920  72.6863647  21.6837976  34.3547033  72.0607593  20.3150737
  28.8287331  68.1330507  26.3132908  28.6907129  67.4010746  26.9144447
  29.7392255  68.0439407  26.0317096  37.7902279  70.0718912  11.0617386
  37.1731450  69.3465740  10.9650439  37.3218767  70.8328272  10.7184461
  31.4569632  67.8450467  25.8016587  32.1669250  67.2043659  25.7603206
  31.4138940  68.0963361  26.7242768  39.4456411  74.7817820  28.7223167
  39.3868957  74.0977040  28.0553750  39.8475929  75.5236810  28.2703793
  30.1698566  64.8315684  27.6212227  29.6335923  64.3806423  28.2733823
  29.5815274  64.9661593  26.8782691  28.4647109  81.5979734  21.5156886
  28.7043708  82.2298258  22.1935904  27.6216306  81.2467774  21.8022245
  29.5800825  64.2904336  10.1838691  28.7030291  64.1693137   9.8200937
  30.0558578  63.4990414   9.9317579  39.4473818  72.7457404  26.9537146
  38.5600597  72.4083326  27.0763545  40.0172369  72.0140435  27.1905912
  21.1002965  69.0781496  20.2780198  21.7874005  68.7643226  19.6901213
  20.9451094  69.9822860  20.0047449  25.9037687  63.9671692  24.7065221
  25.8195876  63.3597362  23.9715631  25.0820394  64.4580710  24.7074718
  32.9774971  77.4058856  23.9198389  32.9045143  78.2113828  24.4317694
  32.5352364  77.6050822  23.0946411  32.7664751  76.6430626  17.4301211
  31.9832273  77.1852306  17.5239436  33.4657496  77.1604606  17.8295452
  36.0761401  62.4525256  20.0735416  36.5730101  61.6995218  19.7536487
  35.3048383  62.4889572  19.5078626  43.9291158  68.1565621  21.7153708
  43.9181035  69.0390337  21.3447641  43.0608538  67.8037172  21.5208245
  35.4373655  77.3045690  26.0756548  36.1501627  77.9393155  26.0032450
  34.9463683  77.4009556  25.2596550  37.1591182  71.2096943  17.6473840
  36.2247460  71.3298405  17.4778544  37.3367850  70.3069410  17.3833850
  32.6596370  64.5942639  19.8007101  32.2894157  64.0413679  20.4888007
  33.1555462  63.9900772  19.2482101  40.5463733  67.0514262  18.1823874
  41.0124185  67.8842254  18.1084177  40.9971234  66.5859244  18.8869132
  30.4885568  75.0540134  26.8962119  31.1895028  75.6876617  27.0491513
  30.0180683  75.3954865  26.1357758  38.6139964  73.3958083  15.1810026
  38.8899808  73.2814678  16.0903900  37.7444463  72.9975568  15.1422199
  38.5180396  59.4194849  22.2214775  37.6043476  59.6499076  22.3896982
  38.9473497  59.5033293  23.0728808  38.2886854  67.6084741  24.7214669
  37.6358305  67.8560649  24.0667122  38.6667234  66.7948879  24.3877147
  35.2494028  77.6444434  18.8242840  35.4316423  76.8266090  19.2870592
  36.0727014  77.8612127  18.3867730  35.5836194  76.5712619  16.0857888
  36.1123960  76.0605074  15.4728050  35.8464413  76.2555150  16.9503421
  34.3374427  68.3504552  31.2080706  33.6615064  68.2498682  31.8783082
  35.1602061  68.1943766  31.6716704  26.0853286  74.5876489  23.8293222
  26.6706723  73.8420177  23.9621126  25.8878125  74.8980445  24.7129886
  28.9391942  77.6227736  18.8455664  28.2702317  78.1073864  18.3619704
  28.8004811  77.8696957  19.7599043  20.6770941  67.1582089  22.5497665
  20.7155041  66.6245680  23.3434783  20.1711234  66.6317294  21.9308642
  33.0797210  79.6571480  25.4438322  33.6315518  79.8203101  26.2087408
  33.4203404  80.2475917  24.7718347  28.0561703  62.0046629  26.0460207
  28.1203030  62.8661460  25.6337605  27.9928824  61.3920631  25.3132566
  27.5313976  64.0769762  29.6933241  28.1586015  63.6946839  30.3070766
  26.6741895  63.8583964  30.0588934  37.9308085  74.4832737  31.2986977
  38.4747989  75.0962695  30.8041932  37.3494929  75.0412316  31.8153990
  24.3079519  65.8846191  15.6251596  24.6032960  64.9756870  15.5718650
  23.4067554  65.8633931  15.3032599  36.2165598  77.6053455  22.4302005
  36.0916737  76.8043195  21.9212950  36.8744689  78.0999649  21.9415975
  27.8373766  63.9602188  21.6079145  27.1160351  64.5738155  21.4686618
  28.6267022  64.4959953  21.5295791  38.2800506  75.4062475  24.0581555
  37.3330841  75.2867826  23.9859881  38.6283279  74.5184973  24.1407816
  30.6400079  61.2956614  27.8819797  31.1634481  61.5418911  28.6446106
  30.4212413  62.1276649  27.4622934  26.0367360  63.5660289  15.7490921
  25.7080066  62.6857668  15.5666027  26.3906731  63.5107957  16.6367311
  35.2846939  75.2015191  20.2585907  35.1371902  74.2731899  20.4393477
  36.1100433  75.2235282  19.7742982  29.1509183  63.8533259  16.1166399
  29.4905256  64.3819180  15.3945007  29.5981304  64.1913665  16.8924966
  38.8881061  76.0243750  21.3450780  39.8127609  75.8186612  21.2075231
  38.7196364  75.7760151  22.2540121  31.8452624  62.2370309  25.5669467
  31.5049445  61.4378122  25.9690147  31.1391631  62.5372020  24.9946300
  32.4969096  59.3219622  24.0196790  33.3195165  58.8480100  23.8975680
  32.7407160  60.1010105  24.5195476  31.1377331  62.3507880  14.3159692
  31.8585693  62.7289133  13.8123409  30.5142635  63.0696757  14.4194670
  35.2808454  63.0553029  15.2518024  35.4972068  63.9377667  14.9506852
  34.8002521  62.6639243  14.5223666  30.0207675  66.0138742  21.8288769
  29.8752256  66.3279045  22.7213050  29.5432879  66.6323643  21.2759667
  31.8804058  63.0041290  21.8769658  31.8665627  62.1082384  21.5401956
  32.5976486  63.0111954  22.5107944  33.7330188  63.4378631  23.9222786
  33.4747966  64.3595701  23.9207116  33.2015229  63.0409065  24.6123250
  38.6776377  76.5429418  16.7012871  38.8513255  75.9775840  15.9486724
  39.1705268  77.3430313  16.5192361  24.4953337  68.5544087  24.7676430
  23.9506805  69.3303895  24.8996704  25.3732687  68.9014891  24.6095551
  31.2840954  61.8855671  17.1457228  31.4056865  60.9572317  17.3448116
  30.9942996  61.8994357  16.2335544  34.1532144  59.5710581  20.2823948
  34.1753841  59.6349914  19.3275928  34.5700203  58.7315090  20.4764454
  44.5315768  69.3065841  18.3203171  44.9746914  68.5573166  17.9222294
  43.6542279  69.2975977  17.9376903  39.6651550  75.8596182  13.8009769
  40.3602454  76.4802875  14.0197084  40.0074700  75.0091533  14.0762147
  25.2819359  67.6813983  27.6606587  24.5401095  67.8296618  28.2471217
  24.9612103  67.9422249  26.7973336  41.5642973  73.3095888  15.3297100
  42.0894297  73.6483160  14.6046420  41.4765325  72.3742903  15.1460235
  33.2263022  77.2229961  27.4586977  33.5350148  76.9779108  28.3309676
  34.0238504  77.4276600  26.9705847  33.2483634  79.3767871  19.6892353
  32.8088624  78.8844250  20.3825210  33.9991751  78.8340839  19.4484429
  25.7275973  75.5679412  19.6916981  26.5533992  75.2683184  19.3115625
  25.3770025  74.7987034  20.1406770  30.6957506  74.9205880  21.7614655
  30.0737515  74.2576585  21.4616883  31.3662373  74.9467012  21.0788303
  23.9284578  73.4865738  20.6505915  23.0916486  73.0587913  20.4689916
  23.9008223  73.6798182  21.5876706  30.7682033  63.3987668  31.3547161
  30.8170189  64.2749791  30.9724931  31.3104547  62.8565061  30.7818804
  41.2536879  73.9428791  30.6348298  40.4632423  73.9252930  30.0952797
  41.0170233  74.4817085  31.3897335  41.3734754  70.7921258  27.9481027
  41.4232759  70.6271265  28.8896549  41.2648677  69.9248517  27.5578907
  30.2571013  73.4709803  15.2373116  30.4059133  74.1545268  14.5839788
  31.0637456  73.4514893  15.7522571  38.6638516  66.7752186  29.2640333
  39.5648379  66.6358650  28.9724331  38.7386491  66.9406640  30.2038511
  32.9981322  64.1519040  28.1093520  32.1284631  64.4452606  27.8376108
  33.2340802  64.7359485  28.8300783  42.8752951  73.2118199  28.1923048
  42.5837759  73.5748180  29.0286509  42.2625082  72.4985207  28.0136380
  44.0748633  70.7771079  20.7125618  44.9095524  71.2160883  20.8763179
  44.2107762  70.3009732  19.8933864  41.1240139  68.3350814  26.6603106
  41.5994261  68.5278460  25.8521958  40.2005704  68.3910000  26.4146490
  28.0123646  69.4974981  16.2434184  27.7669688  68.5937311  16.4414395
  28.1819560  69.4992131  15.3013662  35.7020356  60.3698657  25.6258940
  36.2202299  61.1059684  25.3005429  35.3475488  60.6762651  26.4605699
  27.2819293  65.2303339  13.7420346  26.5888538  65.3047694  13.0860382
  27.0371045  64.4663682  14.2641863  35.9532950  56.7898940  21.1459837
  36.2334703  56.1222129  21.7720263  36.7383557  56.9828035  20.6334500
  33.7566418  75.9657934  12.7084863  33.1840385  76.5848121  12.2555335
  34.3299212  76.5157295  13.2424785  39.8241808  65.2116574  24.8931412
  40.7759231  65.3114672  24.9143636  39.6545258  64.4194842  25.4029496
  37.8456188  62.2972157  25.0790813  37.2506120  62.5777170  24.3837301
  37.5605884  62.7866058  25.8507554  36.9763678  76.2495084  13.8393445
  37.9094351  76.1840646  14.0426321  36.8886891  77.0851351  13.3807978
  39.6051695  75.5660954  10.7997393  39.5265326  75.2320818  11.6933151
  40.4261361  76.0582722  10.7988865  42.3029886  68.4322694  24.0073711
  42.2706206  67.4938694  24.1933395  42.9130509  68.5106730  23.2739536
  34.1413217  67.3018747  10.0500915  35.0872321  67.1724955  10.1189333
  33.7627462  66.5633408  10.5270344  42.4524374  65.2233737  24.0531995
  41.9363423  64.4392194  23.8661923  43.3364323  64.8952454  24.2178514
  40.1135101  58.9674753  20.0127807  39.9159922  58.6589841  20.8971139
  40.7234807  59.6936391  20.1425737  48.1206436  69.4938700  23.1479748
  48.8509824  69.2323989  23.7087452  47.5113381  68.7567422  23.1881816
  46.2021733  67.6346563  23.7454199  45.4754896  67.5002528  23.1370691
  45.7869020  67.9423392  24.5510917  34.0251909  71.3536493  31.5101572
  34.9454919  71.5315092  31.7041619  33.9901492  70.4092538  31.3581272
  32.3256134  65.2268723   9.9855801  31.4187589  64.9301836  10.0618514
  32.6032115  64.9298541   9.1190087  23.2434074  66.5475086  20.4354847
  22.9236859  65.6940394  20.1429221  22.6967502  66.7623664  21.1912814
  27.0213982  69.2637527  24.1524354  27.2399992  70.1954635  24.1712387
  27.4339756  68.9045502  24.9379157  33.9418200  59.7705613  16.1400042
  33.1318928  59.4252698  16.5155288  34.6302616  59.4613156  16.7287654
  35.8708748  58.8483659  17.7624339  36.4239786  59.2679113  18.4214362
  36.1078834  57.9219408  17.8047295  31.8941847  64.8370733  33.5427103
  31.7938574  65.7865090  33.4739194  31.6763389  64.5088972  32.6703173
  31.0954918  62.0855658  10.1267780  31.9574082  62.4110556  10.3863597
  31.2805263  61.2987154   9.6140846  23.1122334  70.1677998  22.4047969
  22.4185806  69.7531951  21.8917923  23.8595325  70.2098534  21.8081388
  39.2487555  60.9584185  17.2703003  38.6686224  61.6168989  16.8881055
  38.9823488  60.1361529  16.8590420  37.6991121  60.3589242  19.4724323
  38.1990900  60.4705777  18.6638642  38.3426729  60.0550295  20.1125132
  31.7573117  68.2667872  32.3592164  31.2740199  69.0668232  32.5656053
  31.8434056  68.2775817  31.4059608  25.0259077  70.0996252  20.2813984
  25.0029765  70.1983939  19.3295867  25.3359713  70.9461402  20.6031150
  27.6846455  72.1572407  24.3960598  28.6389708  72.1256349  24.3290530
  27.4858978  71.6963030  25.2110824  28.2745837  70.7273523  26.9631396
  29.0938726  71.2217601  26.9866233  28.5482644  69.8105491  26.9348963
  38.0312433  63.1184275  16.3259351  37.1438288  63.4033926  16.1079546
  38.4466422  62.9578038  15.4786628  41.3826969  63.1430796  20.0413690
  42.1587359  63.6327248  20.3138307  40.6575103  63.5688850  20.4985560
  43.8199528  63.8558415  21.0987631  44.4144019  63.6154151  20.3880939
  43.8926111  63.1365546  21.7261167  26.0396683  77.6992026  21.4130796
  25.9051151  76.9392427  20.8468794  25.6228746  78.4232926  20.9459585
  37.1755646  72.8828950  10.4207371  37.8791497  73.0878952  11.0365027
  36.4518295  73.4505712  10.6856455  38.0053457  68.6338811  16.5409641
  37.9488658  69.0907362  15.7017274  38.5581799  67.8729495  16.3632484
  41.8158263  64.4228543  17.3659761  41.5595197  64.0225178  18.1967968
  41.1911131  65.1372337  17.2409900  46.1270600  67.1624616  19.8731052
  45.5670158  67.2317805  20.6462614  45.5214104  66.9865601  19.1530548
  29.1965809  78.5961343  21.6249238  29.0798193  79.5406776  21.5227929
  28.3758256  78.2934905  22.0135038  39.0842344  73.3211479  12.4705831
  39.9187948  72.8892677  12.2883306  38.9226687  73.1493493  13.3982726
  38.7388236  69.8243592  13.8362170  38.6837040  69.6587864  12.8950615
  38.1134291  70.5319625  13.9924360  23.5280751  65.0611657  27.6623593
  24.1739615  64.5510610  28.1510818  23.3197902  65.7980338  28.2367018
  36.0534143  72.1292504  33.1615733  36.9225303  72.3033156  32.8002368
  35.5740895  72.9486921  33.0391463  32.0484361  59.3251701  13.4147489
  32.0363031  60.2693541  13.5715760  32.9407783  59.1421847  13.1206950
  30.2220323  79.2489605  24.8405167  31.1247570  79.2813215  25.1571662
  29.9957693  78.3190056  24.8551503  31.9773925  78.0020592  21.5015246
  31.0269556  78.0022453  21.3879618  32.2806412  77.2553326  20.9851280
  35.8636481  55.9194478  17.6693426  35.0968877  55.3652964  17.8150108
  36.2747186  55.9916347  18.5307577  27.8678242  62.2079274  31.7598607
  28.7309704  61.8516078  31.9701931  27.2943653  61.8693168  32.4474011
  47.7126619  83.8381130  22.5661008  48.3505029  83.7187877  21.8624348
  47.5947462  84.7861974  22.6248960  44.5216325  83.7908558  22.5022533
  44.1834837  83.6749623  21.6143067  45.3906093  83.3899723  22.4823539
  40.3803141  85.6444034  18.4919424  39.8168006  85.5533971  17.7235711
  40.2655536  84.8243939  18.9721916  45.0036108  84.9443410  28.4608738
  44.9924749  84.5496208  27.5889242  45.1656748  84.2109482  29.0542510
  37.9267573  87.1395226  21.3303644  38.7188865  86.7986051  20.9149943
  38.1664223  87.2490201  22.2505797  45.9602700  89.3115002  13.8033888
  45.3090679  89.8969083  13.4167902  46.7547062  89.8421197  13.8628926
  39.8858327  86.4004139  14.2021023  40.6589203  85.8533126  14.0633899
  40.2383726  87.2648389  14.4135484  41.7243369  87.7280522  27.4087922
  41.4333235  88.6326152  27.2934588  42.3600354  87.7697049  28.1231992
  42.6499576  85.1057370  23.9989282  43.2463148  84.8813392  23.2846245
  42.7074548  84.3642116  24.6014730  42.2224605  82.5596805  11.8339473
  42.4750125  82.0378327  11.0722936  41.2849164  82.3962951  11.9366156
  47.2667887  81.5632584  19.6414216  48.0530977  81.1452007  19.2904633
  47.5306592  82.4678676  19.8095864  47.4377965  87.0005434  14.3402873
  46.8023798  87.0740061  15.0523777  47.1075371  87.5899033  13.6621952
  52.6676315  81.5007817  20.5447194  53.4001486  80.9307034  20.7785024
  51.9115670  81.1129417  20.9853700  41.9420893  84.4624911  14.0363848
  41.8257151  83.7869815  14.7044932  42.0523153  83.9757285  13.2196001
  44.2852434  83.9235058  17.7410537  43.9210641  83.3965679  18.4523458
  45.1419550  83.5333528  17.5677022  50.1901735  75.2129391  25.0041803
  49.8585060  76.0824802  24.7803018  49.5947348  74.8965675  25.6835833
  43.9257921  78.9524958  12.7371885  44.0932324  79.8205195  13.1042356
  43.7355090  79.1152240  11.8133175  46.6833254  87.4141937  24.4037716
  46.3833978  88.3166976  24.2953523  46.3384314  87.1474120  25.2558869
  40.1345736  83.8655734  20.4374420  39.2096232  83.7331948  20.6452112
  40.3830149  84.6449953  20.9344363  50.0830398  79.9324477  22.0835153
  49.1747276  79.8639886  21.7893914  50.0317994  80.4096422  22.9116979
  43.9047142  81.4082616  13.7218552  43.7846767  81.8539666  14.5604033
  43.2099730  81.7567933  13.1632090  37.4954547  83.5089007  21.2718209
  37.6246928  83.7623486  22.1857621  36.8151998  84.1016715  20.9522864
  41.6654034  94.1786257  17.3708683  41.5878064  95.1294083  17.4497164
  41.0615678  93.8332130  18.0283610  44.1571264  81.3514123  30.0270050
  43.3804598  81.9108043  30.0172915  44.7961827  81.8370906  30.5484921
  51.9492045  78.1340916  23.8613027  51.3066425  78.4273449  23.2152822
  51.4446973  78.0193836  24.6666224  49.6032208  81.8804089  14.5498886
  50.5150064  82.1131476  14.3746584  49.0941855  82.4641133  13.9873965
  42.4117636  84.1599576  29.5888017  43.1532321  84.6984620  29.3122841
  41.7054622  84.7865865  29.7459569  47.8872976  86.3028717  28.1860179
  48.2956332  85.8611127  27.4414811  47.1650237  85.7281344  28.4394372
  44.2404046  81.2401323  25.5593736  45.0865241  81.6640737  25.7028385
  44.1802684  80.5834948  26.2532299  48.2101791  86.8629907  21.9412468
  47.5810653  87.0275621  21.2388536  47.8227453  87.2771517  22.7123432
  52.0891022  87.7984345  19.2956832  51.4042061  88.1783247  18.7453865
  52.1734872  88.4079672  20.0288779  47.3903491  78.9005692  27.2174909
  47.1464423  79.6547752  26.6809185  47.6663422  79.2791039  28.0522157
  49.3441954  85.4444304  25.8952175  49.5558849  86.0876064  25.2186556
  49.2971702  84.6106621  25.4274105  46.9468183  78.0562125  22.7988747
  46.0852662  78.3543378  23.0905485  46.9730618  78.2732524  21.8669780
  43.7629752  86.6004315  19.2062553  44.2268098  86.8792018  18.4167175
  43.4986551  85.6987760  19.0235644  40.6553834  86.1475797  22.1442316
  41.2255191  86.5763065  21.5059801  41.2461945  85.8658382  22.8426502
  42.6998639  82.7227468  16.0152118  43.4022682  83.1748511  16.4826044
  42.3679267  82.0811287  16.6432011  41.1479000  81.3139224  30.3903327
  40.5177661  81.9955505  30.6238724  41.0415088  81.2022306  29.4456466
  36.4423972  80.9811020  21.3169252  35.6523026  81.2368549  20.8409362
  36.9335220  81.7959358  21.4221292  50.4587782  88.3216260  24.0674532
  51.2805226  87.9196447  23.7857214  50.4550185  88.2184494  25.0190648
  38.3938718  81.3455600  18.2752728  37.5969881  81.4574294  18.7936224
  38.1664310  81.6842252  17.4093619  44.2244385  87.8700303  26.2235243
  44.2888818  88.3320710  27.0593415  43.5155309  87.2397668  26.3517553
  34.7261675  81.2341511  23.7484242  34.9769714  82.1188521  24.0141818
  35.2621224  81.0546112  22.9759334  58.5493775  84.6655008  20.4159504
  57.7957483  84.0962406  20.2603508  58.6841316  84.6317673  21.3630139
  43.9392403  89.5368410  16.0914223  43.8038078  90.3819946  16.5199071
  44.4802216  89.7387688  15.3280157  40.4259743  75.6159990  32.7528578
  40.0326688  75.0626189  33.4276223  41.2425883  75.9270569  33.1435096
  37.3921801  87.0543848  16.6642148  37.9046321  87.8487099  16.8147713
  38.0444513  86.3570139  16.5975750  39.2016685  90.1709605  18.7464901
  39.3783314  91.0927569  18.5585885  39.9973519  89.8568024  19.1759281
  43.3427704  77.0317869  30.3448835  44.0837417  77.6325022  30.2653297
  43.5745627  76.2895507  29.7866878  38.4869042  82.2174237  28.6227065
  38.3722557  81.3159494  28.9234164  37.6313560  82.4637933  28.2711881
  45.5660880  90.1591977  30.2214565  45.1224734  89.3728355  29.9035470
  46.2278093  90.3471127  29.5558456  40.3248001  91.6887778  24.7475244
  40.8755426  91.5604842  23.9752238  39.4859477  91.9882668  24.3970137
  47.6642118  90.4394777  28.2495967  47.6460593  91.2603658  27.7576236
  48.5862038  90.3148852  28.4746108  44.1215172  87.9538906  29.0919475
  44.6543509  87.1927194  28.8618783  43.5929253  87.6612558  29.8343629
  47.2884867  73.0598972  24.6213117  46.9449136  73.9500614  24.5452227
  47.6563829  72.8700630  23.7582702  35.3570717  85.3832503  17.4401719
  36.1945939  85.7929511  17.2235427  35.5348985  84.4431945  17.4101913
  47.2535149  83.0507583  13.1285552  46.7381773  83.8212188  13.3673939
  46.9812458  82.3772720  13.7518613  44.8382260  77.8957284  18.1870790
  43.9823857  77.5064135  18.0076429  45.2509212  77.9749245  17.3270576
  46.3681407  75.4303627  22.5862350  45.8646203  75.3933763  21.7730155
  46.6612014  76.3396370  22.6459007  42.6124293  75.5142357  21.5928532
  43.4777290  75.3185166  21.2334421  42.6801802  75.2852709  22.5197888
  52.2269424  85.8039938  15.0638725  51.4498866  85.4651098  14.6193887
  52.9060905  85.8092561  14.3893690  47.0421453  80.9234675  14.9545333
  46.7371588  81.2380825  15.8055476  47.9951895  81.0016095  14.9972666
  45.4867884  87.0824899  16.6038287  44.9589246  86.3477658  16.2911524
  44.9855387  87.8599575  16.3578255  50.4660730  85.2773919  21.7205333
  49.8084405  85.9673181  21.8085462  51.2701130  85.6670351  22.0639320
  40.2186612  77.7444565  18.9644898  40.7930364  77.5219747  18.2318091
  40.8057594  77.8133260  19.7173500  49.2766189  83.6318292  19.7709275
  49.7898071  84.2648284  20.2730985  49.9267413  83.0319487  19.4052635
  40.5456199  79.7749026  12.9840784  39.7093511  80.1123713  13.3050058
  40.4060969  79.6398006  12.0467921  42.5209280  74.6185814  17.6919968
  41.8673692  74.3034831  17.0676583  42.4789754  73.9961554  18.4179791
  43.6320485  84.9005109   9.6073260  42.7247546  84.6694363   9.8064409
  44.1291517  84.1042728   9.7947242  46.5388564  93.6102616  12.5269946
  45.8650262  93.9134313  13.1354904  46.9254385  94.4131697  12.1775403
  45.7547020  81.1067748  22.0167616  44.8369581  81.3282695  21.8589304
  46.1707164  81.1814058  21.1579323  46.5382068  82.5059163  17.1470296
  47.2853887  83.0180560  16.8377418  46.8073657  82.1843216  18.0074689
  44.8108718  85.0017704  14.1297250  43.9019937  84.7176737  14.2269720
  44.8403802  85.4216782  13.2700557  50.0427985  88.6124293  17.8988418
  49.5890313  87.7715203  17.9553608  49.4121952  89.2485692  18.2363198
  48.9860905  79.5416279  19.1289085  48.2483662  79.0293666  19.4599328
  49.2387679  79.1016661  18.3172362  48.4860925  90.4500790  18.8338236
  48.7783899  91.0105847  18.1150601  48.9959545  90.7429351  19.5891395
  49.0872532  72.3192531  19.7230854  49.3931409  71.4589895  19.4356769
  49.8125137  72.9110152  19.5229848  35.3796888  82.7223218  18.1112452
  35.1821288  82.1292579  17.3863519  34.8243552  82.4175428  18.8288391
  43.3593612  82.6146325  20.2307045  43.4142222  81.6620161  20.1549522
  42.5484814  82.7705764  20.7148344  44.5084806  86.5426448  11.4685329
  44.0704236  85.8262307  11.0090966  45.2495247  86.7702562  10.9070420
  41.2985972  81.2323384  17.9897424  40.4853838  81.5317555  18.3962616
  41.7944966  80.8379073  18.7071907  43.4494550  91.2281141  19.9231689
  43.4070729  91.4541988  18.9940221  44.3657249  90.9944516  20.0717490
  46.8960184  81.6965209  26.8212318  47.2509571  81.9236682  27.6806784
  47.5432315  82.0283586  26.1989573  52.6257921  84.8183645  17.5261647
  52.4875819  85.0085241  16.5982836  52.2694139  85.5803027  17.9829698
  40.7900047  78.8041740  23.6058659  41.4299426  78.6630499  22.9081623
  39.9577577  78.5176253  23.2297261  52.6527300  86.8860172  22.5372919
  53.0863807  86.7935461  23.3855973  53.3658881  86.8617672  21.8992935
  41.5660351  88.1044170  19.7193652  42.3600949  87.6094490  19.5176227
  40.8552043  87.5762033  19.3561357  46.3855195  90.4862266  24.0706019
  46.4392217  91.0553202  24.8383735  45.5169977  90.6564151  23.7060056
  37.8743114  82.2487252  15.7953404  36.9440702  82.1871707  16.0123367
  37.9700586  81.7263205  14.9990046  37.7928663  78.7742065  18.3831646
  38.0535480  79.6887398  18.2740807  38.6145836  78.3066507  18.5328259
  39.2653589  80.1879822  25.5530471  39.9376642  79.9797184  24.9043120
  38.4383375  79.9901908  25.1135703  53.5142850  86.9283872  25.0705804
  53.7078740  87.8329683  25.3165079  53.4143468  86.4691291  25.9044389
  45.1679161  76.8141763  27.5696131  44.5207076  77.5131713  27.4760608
  45.9380176  77.2477907  27.9372380  48.5757958  87.0790615  30.6446685
  48.4243465  86.8501167  29.7276768  48.5662638  88.0361216  30.6578030
  45.3443295  84.6522528  25.6292951  46.2735355  84.8033687  25.4561919
  44.9234325  84.7406549  24.7741598  44.1431627  88.6773192  23.3991489
  44.0042712  88.3091977  24.2717427  43.3546223  89.1920832  23.2275447
  44.7379779  93.7782289  14.7417025  44.9131534  93.3070332  15.5562648
  44.0512567  94.4048055  14.9698286  45.6936842  88.0554795  20.7880327
  45.3586674  88.0155565  21.6837976  45.1940788  87.3899511  20.3150737
  39.6681086  83.4622425  26.3132908  39.5300884  82.7302664  26.9144447
  40.5786009  83.3731325  26.0317096  48.6296033  85.4010829  11.0617386
  48.0125204  84.6757657  10.9650439  48.1612522  86.1620190  10.7184461
  42.2963386  83.1742384  25.8016587  43.0063005  82.5335576  25.7603206
  42.2532695  83.4255279  26.7242768  50.2850165  90.1109738  28.7223167
  50.2262711  89.4268958  28.0553750  50.6869684  90.8528728  28.2703793
  41.0092320  80.1607602  27.6212227  40.4729677  79.7098341  28.2733823
  40.4209029  80.2953511  26.8782691  39.3040864  96.9271651  21.5156886
  39.5437462  97.5590176  22.1935904  38.4610060  96.5759691  21.8022245
  40.4194579  79.6196254  10.1838691  39.5424046  79.4985054   9.8200937
  40.8952332  78.8282332   9.9317579  50.2867572  88.0749322  26.9537146
  49.3994351  87.7375243  27.0763545  50.8566123  87.3432353  27.1905912
  31.9396720  84.4073413  20.2780198  32.6267759  84.0935143  19.6901213
  31.7844848  85.3114778  20.0047449  36.7431442  79.2963610  24.7065221
  36.6589630  78.6889279  23.9715631  35.9214148  79.7872628  24.7074718
  43.8168726  92.7350774  23.9198389  43.7438897  93.5405745  24.4317694
  43.3746119  92.9342740  23.0946411  43.6058505  91.9722544  17.4301211
  42.8226027  92.5144224  17.5239436  44.3051251  92.4896524  17.8295452
  46.9155156  77.7817173  20.0735416  47.4123855  77.0287136  19.7536487
  46.1442137  77.8181490  19.5078626  54.7684913  83.4857539  21.7153708
  54.7574789  84.3682254  21.3447641  53.9002292  83.1329090  21.5208245
  46.2767409  92.6337608  26.0756548  46.9895382  93.2685073  26.0032450
  45.7857438  92.7301474  25.2596550  47.9984936  86.5388861  17.6473840
  47.0641215  86.6590323  17.4778544  48.1761605  85.6361327  17.3833850
  43.4990124  79.9234556  19.8007101  43.1287912  79.3705597  20.4888007
  43.9949217  79.3192690  19.2482101  51.3857488  82.3806180  18.1823874
  51.8517940  83.2134171  18.1084177  51.8364988  81.9151161  18.8869132
  41.3279323  90.3832051  26.8962119  42.0288782  91.0168534  27.0491513
  40.8574438  90.7246783  26.1357758  49.4533719  88.7250001  15.1810026
  49.7293563  88.6106596  16.0903900  48.5838217  88.3267486  15.1422199
  49.3574150  74.7486767  22.2214775  48.4437230  74.9790994  22.3896982
  49.7867252  74.8325211  23.0728808  49.1280609  82.9376659  24.7214669
  48.4752059  83.1852566  24.0667122  49.5060989  82.1240797  24.3877147
  46.0887783  92.9736352  18.8242840  46.2710177  92.1558008  19.2870592
  46.9120769  93.1904044  18.3867730  46.4229948  91.9004537  16.0857888
  46.9517715  91.3896992  15.4728050  46.6858168  91.5847067  16.9503421
  45.1768182  83.6796470  31.2080706  44.5008819  83.5790599  31.8783082
  45.9995816  83.5235684  31.6716704  36.9247041  89.9168406  23.8293222
  37.5100478  89.1712094  23.9621126  36.7271879  90.2272363  24.7129886
  39.7785696  92.9519654  18.8455664  39.1096071  93.4365781  18.3619704
  39.6398566  93.1988874  19.7599043  31.5164696  82.4874007  22.5497665
  31.5548795  81.9537597  23.3434783  31.0104988  81.9609212  21.9308642
  43.9190965  94.9863397  25.4438322  44.4709273  95.1495019  26.2087408
  44.2597158  95.5767835  24.7718347  38.8955458  77.3338547  26.0460207
  38.9596784  78.1953378  25.6337605  38.8322578  76.7212549  25.3132566
  38.3707730  79.4061680  29.6933241  38.9979769  79.0238757  30.3070766
  37.5135649  79.1875882  30.0588934  48.7701839  89.8124655  31.2986977
  49.3141743  90.4254613  30.8041932  48.1888684  90.3704233  31.8153990
  35.1473273  81.2138109  15.6251596  35.4426714  80.3048787  15.5718650
  34.2461309  81.1925848  15.3032599  47.0559352  92.9345373  22.4302005
  46.9310491  92.1335113  21.9212950  47.7138443  93.4291566  21.9415975
  38.6767520  79.2894105  21.6079145  37.9554106  79.9030073  21.4686618
  39.4660776  79.8251870  21.5295791  49.1194260  90.7354393  24.0581555
  48.1724596  90.6159744  23.9859881  49.4677033  89.8476891  24.1407816
  41.4793834  76.6248532  27.8819797  42.0028236  76.8710828  28.6446106
  41.2606167  77.4568567  27.4622934  36.8761115  78.8952206  15.7490921
  36.5473821  78.0149585  15.5666027  37.2300486  78.8399875  16.6367311
  46.1240694  90.5307109  20.2585907  45.9765656  89.6023817  20.4393477
  46.9494187  90.5527200  19.7742982  39.9902938  79.1825176  16.1166399
  40.3299010  79.7111097  15.3945007  40.4375058  79.5205582  16.8924966
  49.7274816  91.3535668  21.3450780  50.6521363  91.1478529  21.2075231
  49.5590119  91.1052069  22.2540121  42.6846379  77.5662227  25.5669467
  42.3443199  76.7670040  25.9690147  41.9785385  77.8663938  24.9946300
  43.3362851  74.6511539  24.0196790  44.1588920  74.1772018  23.8975680
  43.5800914  75.4302023  24.5195476  41.9771085  77.6799798  14.3159692
  42.6979448  78.0581051  13.8123409  41.3536389  78.3988675  14.4194670
  46.1202208  78.3844947  15.2518024  46.3365822  79.2669585  14.9506852
  45.6396275  77.9931160  14.5223666  40.8601429  81.3430660  21.8288769
  40.7146010  81.6570963  22.7213050  40.3826633  81.9615560  21.2759667
  42.7197812  78.3333208  21.8769658  42.7059381  77.4374301  21.5401956
  43.4370240  78.3403872  22.5107944  44.5723943  78.7670548  23.9222786
  44.3141721  79.6887619  23.9207116  44.0408983  78.3700983  24.6123250
  49.5170132  91.8721335  16.7012871  49.6907009  91.3067758  15.9486724
  50.0099023  92.6722230  16.5192361  35.3347092  83.8836004  24.7676430
  34.7900560  84.6595812  24.8996704  36.2126441  84.2306809  24.6095551
  42.1234708  77.2147588  17.1457228  42.2450619  76.2864234  17.3448116
  41.8336751  77.2286274  16.2335544  44.9925899  74.9002499  20.2823948
  45.0147595  74.9641832  19.3275928  45.4093958  74.0607007  20.4764454
  55.3709523  84.6357758  18.3203171  55.8140669  83.8865083  17.9222294
  54.4936033  84.6267895  17.9376903  50.5045304  91.1888100  13.8009769
  51.1996209  91.8094792  14.0197084  50.8468454  90.3383451  14.0762147
  36.1213113  83.0105901  27.6606587  35.3794849  83.1588536  28.2471217
  35.8005858  83.2714166  26.7973336  52.4036727  88.6387805  15.3297100
  52.9288051  88.9775078  14.6046420  52.3159080  87.7034821  15.1460235
  44.0656776  92.5521879  27.4586977  44.3743902  92.3071026  28.3309676
  44.8632258  92.7568517  26.9705847  44.0877388  94.7059789  19.6892353
  43.6482378  94.2136167  20.3825210  44.8385505  94.1632756  19.4484429
  36.5669727  90.8971329  19.6916981  37.3927747  90.5975101  19.3115625
  36.2163779  90.1278952  20.1406770  41.5351260  90.2497798  21.7614655
  40.9131270  89.5868503  21.4616883  42.2056127  90.2758930  21.0788303
  34.7678332  88.8157656  20.6505915  33.9310240  88.3879830  20.4689916
  34.7401978  89.0090099  21.5876706  41.6075788  78.7279586  31.3547161
  41.6563943  79.6041708  30.9724931  42.1498302  78.1856979  30.7818804
  52.0930633  89.2720709  30.6348298  51.3026177  89.2544848  30.0952797
  51.8563988  89.8109003  31.3897335  52.2128508  86.1213175  27.9481027
  52.2626513  85.9563183  28.8896549  52.1042432  85.2540434  27.5578907
  41.0964767  88.8001721  15.2373116  41.2452888  89.4837185  14.5839788
  41.9031211  88.7806811  15.7522571  49.5032271  82.1044103  29.2640333
  50.4042134  81.9650568  28.9724331  49.5780245  82.2698558  30.2038511
  43.8375076  79.4810958  28.1093520  42.9678386  79.7744524  27.8376108
  44.0734557  80.0651403  28.8300783  53.7146705  88.5410117  28.1923048
  53.4231514  88.9040097  29.0286509  53.1018837  87.8277125  28.0136380
  54.9142388  86.1062997  20.7125618  55.7489279  86.5452801  20.8763179
  55.0501516  85.6301650  19.8933864  51.9633894  83.6642731  26.6603106
  52.4388015  83.8570378  25.8521958  51.0399459  83.7201917  26.4146490
  38.8517400  84.8266899  16.2434184  38.6063442  83.9229229  16.4414395
  39.0213315  84.8284049  15.3013662  46.5414110  75.6990575  25.6258940
  47.0596054  76.4351602  25.3005429  46.1869243  76.0054568  26.4605699
  38.1213048  80.5595256  13.7420346  37.4282293  80.6339611  13.0860382
  37.8764800  79.7955600  14.2641863  46.7926704  72.1190858  21.1459837
  47.0728458  71.4514047  21.7720263  47.5777311  72.3119953  20.6334500
  44.5960173  91.2949851  12.7084863  44.0234140  91.9140039  12.2555335
  45.1692966  91.8449213  13.2424785  50.6635563  80.5408492  24.8931412
  51.6152985  80.6406589  24.9143636  50.4939013  79.7486760  25.4029496
  48.6849942  77.6264075  25.0790813  48.0899874  77.9069087  24.3837301
  48.3999639  78.1157976  25.8507554  47.8157432  91.5787002  13.8393445
  48.7488106  91.5132563  14.0426321  47.7280645  92.4143268  13.3807978
  50.4445449  90.8952872  10.7997393  50.3659081  90.5612736  11.6933151
  51.2655116  91.3874640  10.7988865  53.1423640  83.7614611  24.0073711
  53.1099960  82.8230612  24.1933395  53.7524264  83.8398648  23.2739536
  44.9806971  82.6310664  10.0500915  45.9266076  82.5016872  10.1189333
  44.6021216  81.8925326  10.5270344  53.2918129  80.5525655  24.0531995
  52.7757177  79.7684111  23.8661923  54.1758077  80.2244371  24.2178514
  50.9528856  74.2966670  20.0127807  50.7553677  73.9881758  20.8971139
  51.5628561  75.0228309  20.1425737  58.9600190  84.8230618  23.1479748
  59.6903579  84.5615906  23.7087452  58.3507136  84.0859340  23.1881816
  57.0415487  82.9638481  23.7454199  56.3148651  82.8294446  23.1370691
  56.6262774  83.2715309  24.5510917  44.8645664  86.6828410  31.5101572
  45.7848673  86.8607009  31.7041619  44.8295247  85.7384456  31.3581272
  43.1649888  80.5560641   9.9855801  42.2581344  80.2593753  10.0618514
  43.4425869  80.2590459   9.1190087  34.0827829  81.8767004  20.4354847
  33.7630613  81.0232312  20.1429221  33.5361257  82.0915582  21.1912814
  37.8607736  84.5929445  24.1524354  38.0793746  85.5246553  24.1712387
  38.2733510  84.2337419  24.9379157  44.7811954  75.0997530  16.1400042
  43.9712682  74.7544615  16.5155288  45.4696371  74.7905074  16.7287654
  46.7102502  74.1775577  17.7624339  47.2633541  74.5971031  18.4214362
  46.9472589  73.2511325  17.8047295  42.7335602  80.1662651  33.5427103
  42.6332328  81.1157008  33.4739194  42.5157144  79.8380890  32.6703173
  41.9348673  77.4147576  10.1267780  42.7967837  77.7402474  10.3863597
  42.1199017  76.6279072   9.6140846  33.9516089  85.4969915  22.4047969
  33.2579560  85.0823868  21.8917923  34.6989080  85.5390452  21.8081388
  50.0881309  76.2876102  17.2703003  49.5079978  76.9460906  16.8881055
  49.8217242  75.4653447  16.8590420  48.5384876  75.6881160  19.4724323
  49.0384654  75.7997694  18.6638642  49.1820484  75.3842213  20.1125132
  42.5966872  83.5959790  32.3592164  42.1133953  84.3960150  32.5656053
  42.6827811  83.6067734  31.4059608  35.8652831  85.4288169  20.2813984
  35.8423519  85.5275857  19.3295867  36.1753468  86.2753320  20.6031150
  38.5240209  87.4864324  24.3960598  39.4783463  87.4548267  24.3290530
  38.3252733  87.0254948  25.2110824  39.1139591  86.0565440  26.9631396
  39.9332480  86.5509519  26.9866233  39.3876399  85.1397408  26.9348963
  48.8706187  78.4476193  16.3259351  47.9832042  78.7325843  16.1079546
  49.2860177  78.2869956  15.4786628  52.2220724  78.4722714  20.0413690
  52.9981114  78.9619166  20.3138307  51.4968858  78.8980768  20.4985560
  54.6593282  79.1850333  21.0987631  55.2537773  78.9446069  20.3880939
  54.7319866  78.4657463  21.7261167  36.8790438  93.0283944  21.4130796
  36.7444906  92.2684345  20.8468794  36.4622500  93.7524844  20.9459585
  48.0149401  88.2120867  10.4207371  48.7185251  88.4170870  11.0365027
  47.2912050  88.7797629  10.6856455  48.8447211  83.9630729  16.5409641
  48.7882413  84.4199280  15.7017274  49.3975554  83.2021413  16.3632484
  52.6552017  79.7520460  17.3659761  52.3988951  79.3517096  18.1967968
  52.0304885  80.4664254  17.2409900  56.9664355  82.4916534  19.8731052
  56.4063913  82.5609723  20.6462614  56.3607858  82.3157518  19.1530548
  40.0359564  93.9253261  21.6249238  39.9191948  94.8698693  21.5227929
  39.2152010  93.6226822  22.0135038  49.9236098  88.6503397  12.4705831
  50.7581702  88.2184595  12.2883306  49.7620441  88.4785410  13.3982726
  49.5781991  85.1535510  13.8362170  49.5230794  84.9879781  12.8950615
  48.9528046  85.8611543  13.9924360  34.3674505  80.3903574  27.6623593
  35.0133369  79.8802528  28.1510818  34.1591657  81.1272256  28.2367018
  46.8927898  87.4584422  33.1615733  47.7619057  87.6325074  32.8002368
  46.4134649  88.2778839  33.0391463  42.8878116  74.6543619  13.4147489
  42.8756786  75.5985459  13.5715760  43.7801538  74.4713764  13.1206950
  41.0614078  94.5781523  24.8405167  41.9641325  94.6105133  25.1571662
  40.8351448  93.6481974  24.8551503  42.8167680  93.3312509  21.5015246
  41.8663311  93.3314371  21.3879618  43.1200166  92.5845244  20.9851280
  46.7030235  71.2486395  17.6693426  45.9362631  70.6944882  17.8150108
  47.1140940  71.3208264  18.5307577  38.7071996  77.5371191  31.7598607
  39.5703458  77.1807996  31.9701931  38.1337407  77.1985086  32.4474011
  58.5520373  99.1673048  22.5661008  59.1898783  99.0479795  21.8624348
  58.4341216 100.1153892  22.6248960  55.3610080  99.1200476  22.5022533
  55.0228591  99.0041540  21.6143067  56.2299848  98.7191641  22.4823539
  51.2196895 100.9735952  18.4919424  50.6561761 100.8825889  17.7235711
  51.1049290 100.1535857  18.9721916  55.8429863 100.2735327  28.4608738
  55.8318503  99.8788126  27.5889242  56.0050502  99.5401400  29.0542510
  48.7661327 102.4687144  21.3303644  49.5582619 102.1277968  20.9149943
  49.0057977 102.5782119  22.2505797  56.7996454 104.6406920  13.8033888
  56.1484434 105.2261000  13.4167902  57.5940817 105.1713115  13.8628926
  50.7252081 101.7296057  14.2021023  51.4982957 101.1825044  14.0633899
  51.0777480 102.5940306  14.4135484  52.5637124 103.0572439  27.4087922
  52.2726990 103.9618070  27.2934588  53.1994108 103.0988967  28.1231992
  53.4893331 100.4349288  23.9989282  54.0856903 100.2105310  23.2846245
  53.5468302  99.6934033  24.6014730  53.0618359  97.8888723  11.8339473
  53.3143880  97.3670244  11.0722936  52.1242918  97.7254869  11.9366156
  58.1061642  96.8924501  19.6414216  58.8924731  96.4743925  19.2904633
  58.3700346  97.7970594  19.8095864  58.2771719 102.3297352  14.3402873
  57.6417552 102.4031978  15.0523777  57.9469126 102.9190951  13.6621952
  63.5070069  96.8299735  20.5447194  64.2395241  96.2598951  20.7785024
  62.7509425  96.4421335  20.9853700  52.7814648  99.7916829  14.0363848
  52.6650906  99.1161732  14.7044932  52.8916908  99.3049203  13.2196001
  55.1246189  99.2526976  17.7410537  54.7604396  98.7257597  18.4523458
  55.9813305  98.8625445  17.5677022  61.0295489  90.5421309  25.0041803
  60.6978814  91.4116720  24.7803018  60.4341103  90.2257593  25.6835833
  54.7651676  94.2816876  12.7371885  54.9326078  95.1497112  13.1042356
  54.5748845  94.4444158  11.8133175  57.5227009 102.7433855  24.4037716
  57.2227732 103.6458894  24.2953523  57.1778068 102.4766038  25.2558869
  50.9739490  99.1947652  20.4374420  50.0489987  99.0623866  20.6452112
  51.2223904  99.9741871  20.9344363  60.9224153  95.2616395  22.0835153
  60.0141030  95.1931803  21.7893914  60.8711748  95.7388340  22.9116979
  54.7440897  96.7374533  13.7218552  54.6240522  97.1831584  14.5604033
  54.0493485  97.0859851  13.1632090  48.3348301  98.8380925  21.2718209
  48.4640683  99.0915404  22.1857621  47.6545753  99.4308633  20.9522864
  52.5047789 109.5078175  17.3708683  52.4271818 110.4586000  17.4497164
  51.9009432 109.1624048  18.0283610  54.9965018  96.6806041  30.0270050
  54.2198353  97.2399961  30.0172915  55.6355582  97.1662824  30.5484921
  62.7885799  93.4632833  23.8613027  62.1460179  93.7565367  23.2152822
  62.2840728  93.3485754  24.6666224  60.4425963  97.2096007  14.5498886
  61.3543819  97.4423393  14.3746584  59.9335610  97.7933051  13.9873965
  53.2511391  99.4891494  29.5888017  53.9926075 100.0276538  29.3122841
  52.5448376 100.1157783  29.7459569  58.7266730 101.6320634  28.1860179
  59.1350086 101.1903045  27.4414811  58.0043992 101.0573262  28.4394372
  55.0797800  96.5693241  25.5593736  55.9258996  96.9932655  25.7028385
  55.0196438  95.9126865  26.2532299  59.0495545 102.1921825  21.9412468
  58.4204408 102.3567539  21.2388536  58.6621207 102.6063435  22.7123432
  62.9284777 103.1276263  19.2956832  62.2435815 103.5075164  18.7453865
  63.0128626 103.7371589  20.0288779  58.2297246  94.2297609  27.2174909
  57.9858178  94.9839670  26.6809185  58.5057176  94.6082957  28.0522157
  60.1835709 100.7736222  25.8952175  60.3952604 101.4167982  25.2186556
  60.1365457  99.9398538  25.4274105  57.7861938  93.3854043  22.7988747
  56.9246417  93.6835296  23.0905485  57.8124372  93.6024441  21.8669780
  54.6023507 101.9296233  19.2062553  55.0661852 102.2083936  18.4167175
  54.3380305 101.0279678  19.0235644  51.4947588 101.4767715  22.1442316
  52.0648945 101.9054983  21.5059801  52.0855700 101.1950299  22.8426502
  53.5392393  98.0519385  16.0152118  54.2416436  98.5040429  16.4826044
  53.2073021  97.4103204  16.6432011  51.9872755  96.6431142  30.3903327
  51.3571415  97.3247423  30.6238724  51.8808842  96.5314224  29.4456466
  47.2817727  96.3102938  21.3169252  46.4916781  96.5660467  20.8409362
  47.7728974  97.1251276  21.4221292  61.2981537 103.6508177  24.0674532
  62.1198980 103.2488365  23.7857214  61.2943939 103.5476411  25.0190648
  49.2332472  96.6747517  18.2752728  48.4363636  96.7866212  18.7936224
  49.0058065  97.0134170  17.4093619  55.0638140 103.1992221  26.2235243
  55.1282572 103.6612628  27.0593415  54.3549064 102.5689585  26.3517553
  45.5655430  96.5633429  23.7484242  45.8163468  97.4480438  24.0141818
  46.1014978  96.3838030  22.9759334  69.3887530  99.9946926  20.4159504
  68.6351238  99.4254324  20.2603508  69.5235071  99.9609590  21.3630139
  54.7786158 104.8660328  16.0914223  54.6431832 105.7111864  16.5199071
  55.3195970 105.0679606  15.3280157  51.2653497  90.9451908  32.7528578
  50.8720443  90.3918106  33.4276223  52.0819638  91.2562486  33.1435096
  48.2315555 102.3835766  16.6642148  48.7440076 103.1779016  16.8147713
  48.8838268 101.6862057  16.5975750  50.0410440 105.5001522  18.7464901
  50.2177068 106.4219487  18.5585885  50.8367273 105.1859942  19.1759281
  54.1821458  92.3609787  30.3448835  54.9231172  92.9616940  30.2653297
  54.4139381  91.6187425  29.7866878  49.3262796  97.5466154  28.6227065
  49.2116311  96.6451412  28.9234164  48.4707314  97.7929851  28.2711881
  56.4054634 105.4883895  30.2214565  55.9618488 104.7020273  29.9035470
  57.0671848 105.6763045  29.5558456  51.1641755 107.0179696  24.7475244
  51.7149180 106.8896760  23.9752238  50.3253231 107.3174585  24.3970137
  58.5035872 105.7686695  28.2495967  58.4854347 106.5895576  27.7576236
  59.4255792 105.6440770  28.4746108  54.9608926 103.2830824  29.0919475
  55.4937263 102.5219112  28.8618783  54.4323007 102.9904476  29.8343629
  58.1278621  88.3890890  24.6213117  57.7842891  89.2792532  24.5452227
  58.4957584  88.1992548  23.7582702  46.1964472 100.7124420  17.4401719
  47.0339694 101.1221429  17.2235427  46.3742739  99.7723863  17.4101913
  58.0928904  98.3799501  13.1285552  57.5775527  99.1504106  13.3673939
  57.8206212  97.7064637  13.7518613  55.6776015  93.2249202  18.1870790
  54.8217611  92.8356052  18.0076429  56.0902967  93.3041163  17.3270576
  57.2075162  90.7595545  22.5862350  56.7039957  90.7225680  21.7730155
  57.5005768  91.6688288  22.6459007  53.4518047  90.8434275  21.5928532
  54.3171044  90.6477084  21.2334421  53.5195556  90.6144627  22.5197888
  63.0663178 101.1331856  15.0638725  62.2892621 100.7943015  14.6193887
  63.7454659 101.1384479  14.3893690  57.8815207  96.2526593  14.9545333
  57.5765343  96.5672742  15.8055476  58.8345649  96.3308013  14.9972666
  56.3261639 102.4116816  16.6038287  55.7983001 101.6769576  16.2911524
  55.8249142 103.1891493  16.3578255  61.3054485 100.6065837  21.7205333
  60.6478159 101.2965098  21.8085462  62.1094884 100.9962269  22.0639320
  51.0580367  93.0736483  18.9644898  51.6324118  92.8511664  18.2318091
  51.6451349  93.1425177  19.7173500  60.1159944  98.9610210  19.7709275
  60.6291825  99.5940201  20.2730985  60.7661168  98.3611405  19.4052635
  51.3849954  95.1040944  12.9840784  50.5487266  95.4415630  13.3050058
  51.2454723  94.9689924  12.0467921  53.3603034  89.9477732  17.6919968
  52.7067447  89.6326749  17.0676583  53.3183508  89.3253472  18.4179791
  54.4714239 100.2297027   9.6073260  53.5641301  99.9986280   9.8064409
  54.9685271  99.4334646   9.7947242  56.5940775  96.4359665  22.0167616
  55.6763336  96.6574612  21.8589304  57.0100918  96.5105976  21.1579323
  57.3775822  97.8351081  17.1470296  58.1247641  98.3472478  16.8377418
  57.6467412  97.5135134  18.0074689  55.6502473 100.3309622  14.1297250
  54.7413692 100.0468654  14.2269720  55.6797556 100.7508700  13.2700557
  60.8821740 103.9416211  17.8988418  60.4284067 103.1007121  17.9553608
  60.2515707 104.5777609  18.2363198  59.8254660  94.8708197  19.1289085
  59.0877416  94.3585583  19.4599328  60.0781433  94.4308579  18.3172362
  59.3254679 105.7792708  18.8338236  59.6177654 106.3397765  18.1150601
  59.8353300 106.0721269  19.5891395  59.9266287  87.6484449  19.7230854
  60.2325164  86.7881813  19.4356769  60.6518892  88.2402069  19.5229848
  46.2190643  98.0515136  18.1112452  46.0215043  97.4584496  17.3863519
  45.6637307  97.7467346  18.8288391  54.1987367  97.9438242  20.2307045
  54.2535976  96.9912079  20.1549522  53.3878569  98.0997681  20.7148344
  55.3478560 101.8718365  11.4685329  54.9097990 101.1554224  11.0090966
  56.0889001 102.0994480  10.9070420  52.1379727  96.5615302  17.9897424
  51.3247592  96.8609472  18.3962616  52.6338721  96.1670991  18.7071907
  54.2888304 106.5573059  19.9231689  54.2464483 106.7833905  18.9940221
  55.2051003 106.3236433  20.0717490  57.7353938  97.0257126  26.8212318
  58.0903326  97.2528600  27.6806784  58.3826069  97.3575503  26.1989573
  63.4651675 100.1475562  17.5261647  63.3269574 100.3377158  16.5982836
  63.1087894 100.9094945  17.9829698  51.6293801  94.1333657  23.6058659
  52.2693181  93.9922417  22.9081623  50.7971332  93.8468171  23.2297261
  63.4921055 102.2152089  22.5372919  63.9257561 102.1227378  23.3855973
  64.2052635 102.1909590  21.8992935  52.4054105 103.4336088  19.7193652
  53.1994704 102.9386408  19.5176227  51.6945798 102.9053951  19.3561357
  57.2248950 105.8154183  24.0706019  57.2785972 106.3845120  24.8383735
  56.3563731 105.9856068  23.7060056  48.7136869  97.5779170  15.7953404
  47.7834457  97.5163625  16.0123367  48.8094341  97.0555122  14.9990046
  48.6322418  94.1033982  18.3831646  48.8929235  95.0179316  18.2740807
  49.4539590  93.6358425  18.5328259  50.1047343  95.5171740  25.5530471
  50.7770396  95.3089102  24.9043120  49.2777130  95.3193826  25.1135703
  64.3536604 102.2575790  25.0705804  64.5472494 103.1621600  25.3165079
  64.2537222 101.7983209  25.9044389  56.0072915  92.1433681  27.5696131
  55.3600830  92.8423630  27.4760608  56.7773930  92.5769824  27.9372380
  59.4151713 102.4082533  30.6446685  59.2637219 102.1793084  29.7276768
  59.4056392 103.3653134  30.6578030  56.1837049  99.9814445  25.6292951
  57.1129109 100.1325605  25.4561919  55.7628079 100.0698466  24.7741598
  54.9825381 104.0065110  23.3991489  54.8436467 103.6383894  24.2717427
  54.1939977 104.5212749  23.2275447  55.5773533 109.1074206  14.7417025
  55.7525289 108.6362250  15.5562648  54.8906321 109.7339973  14.9698286
  56.5330596 103.3846713  20.7880327  56.1980429 103.3447483  21.6837976
  56.0334542 102.7191428  20.3150737  50.5074840  98.7914343  26.3132908
  50.3694638  98.0594581  26.9144447  51.4179764  98.7023243  26.0317096
  59.4689788 100.7302747  11.0617386  58.8518959 100.0049575  10.9650439
  59.0006276 101.4912107  10.7184461  53.1357141  98.5034302  25.8016587
  53.8456759  97.8627494  25.7603206  53.0926449  98.7547197  26.7242768
  61.1243920 105.4401655  28.7223167  61.0656466 104.7560875  28.0553750
  61.5263438 106.1820645  28.2703793  51.8486075  95.4899520  27.6212227
  51.3123432  95.0390258  28.2733823  51.2602783  95.6245429  26.8782691
  50.1434618 112.2563569  21.5156886  50.3831217 112.8882093  22.1935904
  49.3003815 111.9051609  21.8022245  51.2588334  94.9488171  10.1838691
  50.3817800  94.8276972   9.8200937  51.7346087  94.1574250   9.9317579
  61.1261327 103.4041239  26.9537146  60.2388106 103.0667161  27.0763545
  61.6959878 102.6724270  27.1905912  42.7790474  99.7365331  20.2780198
  43.4661514  99.4227061  19.6901213  42.6238603 100.6406696  20.0047449
  47.5825196  94.6255528  24.7065221  47.4983385  94.0181197  23.9715631
  46.7607903  95.1164546  24.7074718  54.6562480 108.0642692  23.9198389
  54.5832652 108.8697663  24.4317694  54.2139873 108.2634657  23.0946411
  54.4452260 107.3014462  17.4301211  53.6619782 107.8436142  17.5239436
  55.1445005 107.8188441  17.8295452  57.7548910  93.1109091  20.0735416
  58.2517610  92.3579053  19.7536487  56.9835892  93.1473408  19.5078626
  65.6078667  98.8149457  21.7153708  65.5968544  99.6974172  21.3447641
  64.7396047  98.4621007  21.5208245  57.1161164 107.9629526  26.0756548
  57.8289136 108.5976990  26.0032450  56.6251192 108.0593392  25.2596550
  58.8378691 101.8680778  17.6473840  57.9034969 101.9882241  17.4778544
  59.0155359 100.9653245  17.3833850  54.3383879  95.2526474  19.8007101
  53.9681666  94.6997514  20.4888007  54.8342971  94.6484608  19.2482101
  62.2251242  97.7098098  18.1823874  62.6911694  98.5426089  18.1084177
  62.6758743  97.2443079  18.8869132  52.1673077 105.7123969  26.8962119
  52.8682537 106.3460452  27.0491513  51.6968192 106.0538701  26.1357758
  60.2927473 104.0541919  15.1810026  60.5687317 103.9398513  16.0903900
  59.4231972 103.6559404  15.1422199  60.1967905  90.0778685  22.2214775
  59.2830985  90.3082911  22.3896982  60.6261006  90.1617129  23.0728808
  59.9674363  98.2668576  24.7214669  59.3145814  98.5144484  24.0667122
  60.3454743  97.4532715  24.3877147  56.9281537 108.3028270  18.8242840
  57.1103932 107.4849926  19.2870592  57.7514523 108.5195962  18.3867730
  57.2623703 107.2296455  16.0857888  57.7911469 106.7188909  15.4728050
  57.5251922 106.9138985  16.9503421  56.0161936  99.0088388  31.2080706
  55.3402573  98.9082517  31.8783082  56.8389570  98.8527601  31.6716704
  47.7640795 105.2460324  23.8293222  48.3494232 104.5004012  23.9621126
  47.5665634 105.5564281  24.7129886  50.6179451 108.2811571  18.8455664
  49.9489826 108.7657699  18.3619704  50.4792320 108.5280792  19.7599043
  42.3558450  97.8165924  22.5497665  42.3942550  97.2829515  23.3434783
  41.8498743  97.2901130  21.9308642  54.7584719 110.3155315  25.4438322
  55.3103027 110.4786937  26.2087408  55.0990913 110.9059753  24.7718347
  49.7349212  92.6630465  26.0460207  49.7990539  93.5245296  25.6337605
  49.6716333  92.0504466  25.3132566  49.2101485  94.7353597  29.6933241
  49.8373524  94.3530675  30.3070766  48.3529404  94.5167799  30.0588934
  59.6095594 105.1416573  31.2986977  60.1535498 105.7546531  30.8041932
  59.0282438 105.6996151  31.8153990  45.9867028  96.5430026  15.6251596
  46.2820469  95.6340705  15.5718650  45.0855063  96.5217766  15.3032599
  57.8953106 108.2637291  22.4302005  57.7704246 107.4627030  21.9212950
  58.5532198 108.7583484  21.9415975  49.5161275  94.6186023  21.6079145
  48.7947860  95.2321991  21.4686618  50.3054530  95.1543788  21.5295791
  59.9588015 106.0646311  24.0581555  59.0118350 105.9451662  23.9859881
  60.3070788 105.1768809  24.1407816  52.3187588  91.9540450  27.8819797
  52.8421990  92.2002746  28.6446106  52.0999922  92.7860484  27.4622934
  47.7154869  94.2244124  15.7490921  47.3867575  93.3441503  15.5666027
  48.0694240  94.1691793  16.6367311  56.9634448 105.8599027  20.2585907
  56.8159411 104.9315734  20.4393477  57.7887942 105.8819118  19.7742982
  50.8296692  94.5117094  16.1166399  51.1692765  95.0403015  15.3945007
  51.2768813  94.8497500  16.8924966  60.5668570 106.6827586  21.3450780
  61.4915117 106.4770447  21.2075231  60.3983873 106.4343987  22.2540121
  53.5240133  92.8954145  25.5669467  53.1836954  92.0961958  25.9690147
  52.8179140  93.1955855  24.9946300  54.1756605  89.9803457  24.0196790
  54.9982674  89.5063935  23.8975680  54.4194669  90.7593941  24.5195476
  52.8164840  93.0091716  14.3159692  53.5373202  93.3872968  13.8123409
  52.1930144  93.7280592  14.4194670  56.9595962  93.7136864  15.2518024
  57.1759577  94.5961502  14.9506852  56.4790030  93.3223078  14.5223666
  51.6995184  96.6722578  21.8288769  51.5539765  96.9862881  22.7213050
  51.2220387  97.2907478  21.2759667  53.5591567  93.6625126  21.8769658
  53.5453136  92.7666219  21.5401956  54.2763995  93.6695789  22.5107944
  55.4117697  94.0962466  23.9222786  55.1535475  95.0179537  23.9207116
  54.8802738  93.6992900  24.6123250  60.3563886 107.2013253  16.7012871
  60.5300764 106.6359675  15.9486724  60.8492777 108.0014148  16.5192361
  46.1740846  99.2127922  24.7676430  45.6294314  99.9887730  24.8996704
  47.0520196  99.5598727  24.6095551  52.9628463  92.5439506  17.1457228
  53.0844374  91.6156152  17.3448116  52.6730505  92.5578192  16.2335544
  55.8319653  90.2294416  20.2823948  55.8541350  90.2933749  19.3275928
  56.2487712  89.3898925  20.4764454  66.2103277  99.9649676  18.3203171
  66.6534423  99.2157001  17.9222294  65.3329788  99.9559812  17.9376903
  61.3439059 106.5180017  13.8009769  62.0389963 107.1386710  14.0197084
  61.6862209 105.6675369  14.0762147  46.9606868  98.3397818  27.6606587
  46.2188604  98.4880454  28.2471217  46.6399612  98.6006084  26.7973336
  63.2430482 103.9679723  15.3297100  63.7681806 104.3066996  14.6046420
  63.1552834 103.0326738  15.1460235  54.9050531 107.8813797  27.4586977
  55.2137657 107.6362943  28.3309676  55.7026013 108.0860435  26.9705847
  54.9271143 110.0351706  19.6892353  54.4876133 109.5428085  20.3825210
  55.6779260 109.4924674  19.4484429  47.4063482 106.2263247  19.6916981
  48.2321501 105.9267019  19.3115625  47.0557534 105.4570870  20.1406770
  52.3745015 105.5789715  21.7614655  51.7525024 104.9160420  21.4616883
  53.0449882 105.6050847  21.0788303  45.6072087 104.1449574  20.6505915
  44.7703995 103.7171748  20.4689916  45.5795732 104.3382017  21.5876706
  52.4469542  94.0571503  31.3547161  52.4957698  94.9333626  30.9724931
  52.9892056  93.5148896  30.7818804  62.9324388 104.6012627  30.6348298
  62.1419932 104.5836765  30.0952797  62.6957742 105.1400920  31.3897335
  63.0522263 101.4505093  27.9481027  63.1020268 101.2855100  28.8896549
  62.9436186 100.5832352  27.5578907  51.9358522 104.1293639  15.2373116
  52.0846642 104.8129103  14.5839788  52.7424965 104.1098729  15.7522571
  60.3426025  97.4336021  29.2640333  61.2435888  97.2942486  28.9724331
  60.4174000  97.5990476  30.2038511  54.6768831  94.8102876  28.1093520
  53.8072140  95.1036442  27.8376108  54.9128311  95.3943321  28.8300783
  64.5540460 103.8702034  28.1923048  64.2625268 104.2332015  29.0286509
  63.9412591 103.1569043  28.0136380  65.7536142 101.4354914  20.7125618
  66.5883033 101.8744718  20.8763179  65.8895271 100.9593567  19.8933864
  62.8027648  98.9934649  26.6603106  63.2781770  99.1862295  25.8521958
  61.8793213  99.0493835  26.4146490  49.6911155 100.1558816  16.2434184
  49.4457197  99.2521146  16.4414395  49.8607069 100.1575967  15.3013662
  57.3807865  91.0282493  25.6258940  57.8989808  91.7643520  25.3005429
  57.0262997  91.3346486  26.4605699  48.9606802  95.8887174  13.7420346
  48.2676047  95.9631529  13.0860382  48.7158554  95.1247518  14.2641863
  57.6320459  87.4482775  21.1459837  57.9122212  86.7805964  21.7720263
  58.4171066  87.6411871  20.6334500  55.4353927 106.6241769  12.7084863
  54.8627894 107.2431956  12.2555335  56.0086721 107.1741131  13.2424785
  61.5029317  95.8700409  24.8931412  62.4546740  95.9698507  24.9143636
  61.3332767  95.0778678  25.4029496  59.5243696  92.9555992  25.0790813
  58.9293629  93.2361005  24.3837301  59.2393393  93.4449893  25.8507554
  58.6551187 106.9078919  13.8393445  59.5881860 106.8424481  14.0426321
  58.5674400 107.7435186  13.3807978  63.9817395  99.0906529  24.0073711
  63.9493715  98.1522530  24.1933395  64.5918018  99.1690566  23.2739536
  55.8200726  97.9602582  10.0500915  56.7659830  97.8308790  10.1189333
  55.4414971  97.2217244  10.5270344  64.1311883  95.8817572  24.0531995
  63.6150932  95.0976029  23.8661923  65.0151832  95.5536289  24.2178514
  61.7922610  89.6258588  20.0127807  61.5947431  89.3173676  20.8971139
  62.4022316  90.3520227  20.1425737  69.7993945 100.1522536  23.1479748
  70.5297333  99.8907824  23.7087452  69.1900890  99.4151258  23.1881816
  67.8809242  98.2930398  23.7454199  67.1542405  98.1586363  23.1370691
  67.4656529  98.6007227  24.5510917  55.7039418 102.0120328  31.5101572
  56.6242428 102.1898927  31.7041619  55.6689001 101.0676373  31.3581272
  54.0043643  95.8852558   9.9855801  53.0975098  95.5885671  10.0618514
  54.2819624  95.5882376   9.1190087  44.9221583  97.2058922  20.4354847
  44.6024368  96.3524230  20.1429221  44.3755011  97.4207500  21.1912814
  48.7001491  99.9221363  24.1524354  48.9187501 100.8538470  24.1712387
  49.1127265  99.5629337  24.9379157  55.6205709  90.4289448  16.1400042
  54.8106437  90.0836533  16.5155288  56.3090125  90.1196992  16.7287654
  57.5496257  89.5067495  17.7624339  58.1027295  89.9262948  18.4214362
  57.7866343  88.5803243  17.8047295  53.5729356  95.4954568  33.5427103
  53.4726083  96.4448925  33.4739194  53.3550898  95.1672807  32.6703173
  52.7742427  92.7439493  10.1267780  53.6361591  93.0694392  10.3863597
  52.9592772  91.9570989   9.6140846  44.7909843 100.8261833  22.4047969
  44.0973315 100.4115786  21.8917923  45.5382834 100.8682370  21.8081388
  60.9275064  91.6168020  17.2703003  60.3473733  92.2752824  16.8881055
  60.6610997  90.7945365  16.8590420  59.3778630  91.0173078  19.4724323
  59.8778409  91.1289612  18.6638642  60.0214238  90.7134130  20.1125132
  53.4360626  98.9251707  32.3592164  52.9527708  99.7252067  32.5656053
  53.5221565  98.9359652  31.4059608  46.7046586 100.7580087  20.2813984
  46.6817274 100.8567774  19.3295867  47.0147222 101.6045238  20.6031150
  49.3633964 102.8156242  24.3960598  50.3177217 102.7840184  24.3290530
  49.1646487 102.3546866  25.2110824  49.9533346 101.3857358  26.9631396
  50.7726235 101.8801437  26.9866233  50.2270153 100.4689326  26.9348963
  59.7099942  93.7768110  16.3259351  58.8225797  94.0617761  16.1079546
  60.1253931  93.6161874  15.4786628  63.0614478  93.8014631  20.0413690
  63.8374868  94.2911084  20.3138307  62.3362612  94.2272685  20.4985560
  65.4987037  94.5142251  21.0987631  66.0931528  94.2737986  20.3880939
  65.5713620  93.7949381  21.7261167  47.7184192 108.3575861  21.4130796
  47.5838660 107.5976262  20.8468794  47.3016255 109.0816761  20.9459585
  59.6840966  99.2922646  16.5409641  59.6276167  99.7491198  15.7017274
  60.2369308  98.5313331  16.3632484  63.4945772  95.0812378  17.3659761
  63.2382706  94.6809014  18.1967968  62.8698640  95.7956172  17.2409900
  67.8058109  97.8208451  19.8731052  67.2457667  97.8901641  20.6462614
  67.2001613  97.6449436  19.1530548  50.8753318 109.2545178  21.6249238
  50.7585702 110.1990611  21.5227929  50.0545765 108.9518740  22.0135038
  60.7629853 103.9795314  12.4705831  61.5975457 103.5476513  12.2883306
  60.6014196 103.8077328  13.3982726  60.4175745 100.4827427  13.8362170
  60.3624549 100.3171699  12.8950615  59.7921800 101.1903460  13.9924360
  45.2068260  95.7195492  27.6623593  45.8527124  95.2094446  28.1510818
  44.9985411  96.4564174  28.2367018  57.7321652 102.7876339  33.1615733
  58.6012812 102.9616992  32.8002368  57.2528404 103.6070756  33.0391463
  53.7271870  89.9835536  13.4147489  53.7150540  90.9277376  13.5715760
  54.6195292  89.8005682  13.1206950  51.9007832 109.9073440  24.8405167
  52.8035079 109.9397051  25.1571662  51.6745202 108.9773891  24.8551503
  53.6561434 108.6604427  21.5015246  52.7057065 108.6606289  21.3879618
  53.9593921 107.9137161  20.9851280  57.5423990  86.5778313  17.6693426
  56.7756386  86.0236800  17.8150108  57.9534695  86.6500182  18.5307577
  49.5465751  92.8663109  31.7598607  50.4097213  92.5099914  31.9701931
  48.9731162  92.5277004  32.4474011  69.3914128 114.4964965  22.5661008
  70.0292538 114.3771713  21.8624348  69.2734971 115.4445809  22.6248960
  66.2003834 114.4492393  22.5022533  65.8622346 114.3333458  21.6143067
  67.0693602 114.0483558  22.4823539  66.6823617 115.6027245  28.4608738
  66.6712258 115.2080043  27.5889242  66.8444257 114.8693318  29.0542510
  59.6055082 117.7979061  21.3303644  60.3976374 117.4569886  20.9149943
  59.8451732 117.9074036  22.2505797  63.4030878 118.3864357  27.4087922
  63.1120744 119.2909988  27.2934588  64.0387863 118.4280885  28.1231992
  64.3287085 115.7641205  23.9989282  64.9250657 115.5397228  23.2846245
  64.3862057 115.0225951  24.6014730  71.8689244 105.8713226  25.0041803
  71.5372569 106.7408637  24.7803018  71.2734857 105.5549510  25.6835833
  68.3620763 118.0725772  24.4037716  68.0621486 118.9750811  24.2953523
  68.0171823 117.8057956  25.2558869  61.8133245 114.5239569  20.4374420
  60.8883741 114.3915783  20.6452112  62.0617658 115.3033789  20.9344363
  71.7617907 110.5908313  22.0835153  70.8534785 110.5223721  21.7893914
  71.7105503 111.0680258  22.9116979  59.1742056 114.1672843  21.2718209
  59.3034437 114.4207322  22.1857621  58.4939507 114.7600551  20.9522864
  65.8358773 112.0097958  30.0270050  65.0592107 112.5691878  30.0172915
  66.4749336 112.4954741  30.5484921  73.6279554 108.7924751  23.8613027
  72.9853934 109.0857284  23.2152822  73.1234482 108.6777671  24.6666224
  64.0905145 114.8183412  29.5888017  64.8319830 115.3568456  29.3122841
  63.3842131 115.4449700  29.7459569  69.5660485 116.9612552  28.1860179
  69.9743841 116.5194963  27.4414811  68.8437746 116.3865180  28.4394372
  65.9191555 111.8985159  25.5593736  66.7652750 112.3224572  25.7028385
  65.8590193 111.2418783  26.2532299  69.0691000 109.5589527  27.2174909
  68.8251932 110.3131588  26.6809185  69.3450931 109.9374875  28.0522157
  71.0229463 116.1028140  25.8952175  71.2346358 116.7459899  25.2186556
  70.9759211 115.2690456  25.4274105  68.6255692 108.7145960  22.7988747
  67.7640171 109.0127214  23.0905485  68.6518127 108.9316359  21.8669780
  62.3341343 116.8059632  22.1442316  62.9042700 117.2346901  21.5059801
  62.9249454 116.5242217  22.8426502  62.8266509 111.9723060  30.3903327
  62.1965170 112.6539341  30.6238724  62.7202597 111.8606141  29.4456466
  58.1211481 111.6394856  21.3169252  57.3310535 111.8952384  20.8409362
  58.6122729 112.4543194  21.4221292  60.0726227 112.0039435  18.2752728
  59.2757390 112.1158129  18.7936224  59.8451819 112.3426087  17.4093619
  65.9031894 118.5284138  26.2235243  65.9676327 118.9904545  27.0593415
  65.1942818 117.8981503  26.3517553  56.4049184 111.8925346  23.7484242
  56.6557223 112.7772356  24.0141818  56.9408733 111.7129948  22.9759334
  62.1047252 106.2743826  32.7528578  61.7114197 105.7210024  33.4276223
  62.9213392 106.5854404  33.1435096  65.0215213 107.6901705  30.3448835
  65.7624926 108.2908858  30.2653297  65.2533136 106.9479342  29.7866878
  60.1656551 112.8758072  28.6227065  60.0510066 111.9743329  28.9234164
  59.3101069 113.1221769  28.2711881  67.2448388 120.8175812  30.2214565
  66.8012243 120.0312191  29.9035470  67.9065602 121.0054963  29.5558456
  62.0035510 122.3471614  24.7475244  62.5542935 122.2188677  23.9752238
  61.1646986 122.6466503  24.3970137  69.3429627 121.0978612  28.2495967
  69.3248102 121.9187493  27.7576236  70.2649547 120.9732687  28.4746108
  65.8002681 118.6122742  29.0919475  66.3331018 117.8511030  28.8618783
  65.2716762 118.3196393  29.8343629  68.9672376 103.7182808  24.6213117
  68.6236645 104.6084449  24.5452227  69.3351338 103.5284465  23.7582702
  66.5169769 108.5541120  18.1870790  65.6611366 108.1647970  18.0076429
  66.9296721 108.6333080  17.3270576  68.0468916 106.0887463  22.5862350
  67.5433712 106.0517598  21.7730155  68.3399523 106.9980205  22.6459007
  64.2911802 106.1726193  21.5928532  65.1564799 105.9769001  21.2334421
  64.3589311 105.9436544  22.5197888  61.8974121 108.4028400  18.9644898
  62.4717873 108.1803582  18.2318091  62.4845103 108.4717095  19.7173500
  64.1996789 105.2769649  17.6919968  63.5461201 104.9618667  17.0676583
  64.1577263 104.6545390  18.4179791  67.4334529 111.7651583  22.0167616
  66.5157090 111.9866530  21.8589304  67.8494673 111.8397893  21.1579323
  70.7660041 102.9776367  19.7230854  71.0718918 102.1173730  19.4356769
  71.4912646 103.5693987  19.5229848  57.0584397 113.3807053  18.1112452
  56.8608797 112.7876414  17.3863519  56.5031061 113.0759264  18.8288391
  65.0381121 113.2730160  20.2307045  65.0929731 112.3203996  20.1549522
  64.2272323 113.4289599  20.7148344  62.9773481 111.8907220  17.9897424
  62.1641347 112.1901390  18.3962616  63.4732475 111.4962908  18.7071907
  68.5747693 112.3549044  26.8212318  68.9297080 112.5820517  27.6806784
  69.2219824 112.6867421  26.1989573  62.4687556 109.4625575  23.6058659
  63.1086935 109.3214334  22.9081623  61.6365086 109.1760089  23.2297261
  59.4716172 109.4325900  18.3831646  59.7322989 110.3471233  18.2740807
  60.2933345 108.9650343  18.5328259  60.9441098 110.8463657  25.5530471
  61.6164151 110.6381019  24.9043120  60.1170884 110.6485743  25.1135703
  66.8466670 107.4725598  27.5696131  66.1994585 108.1715548  27.4760608
  67.6167685 107.9061742  27.9372380  70.2545467 117.7374450  30.6446685
  70.1030974 117.5085002  29.7276768  70.2450147 118.6945052  30.6578030
  67.0230804 115.3106363  25.6292951  67.9522864 115.4617523  25.4561919
  66.6021834 115.3990384  24.7741598  65.8219136 119.3357028  23.3991489
  65.6830221 118.9675812  24.2717427  65.0333732 119.8504667  23.2275447
  61.3468595 114.1206260  26.3132908  61.2088393 113.3886499  26.9144447
  62.2573518 114.0315160  26.0317096  63.9750895 113.8326220  25.8016587
  64.6850514 113.1919412  25.7603206  63.9320204 114.0839114  26.7242768
  71.9637674 120.7693573  28.7223167  71.9050220 120.0852793  28.0553750
  72.3657192 121.5112563  28.2703793  62.6879829 110.8191437  27.6212227
  62.1517186 110.3682176  28.2733823  62.0996538 110.9537346  26.8782691
  71.9655081 118.7333157  26.9537146  71.0781860 118.3959079  27.0763545
  72.5353632 118.0016188  27.1905912  53.6184228 115.0657249  20.2780198
  54.3055268 114.7518979  19.6901213  53.4632357 115.9698613  20.0047449
  58.4218951 109.9547445  24.7065221  58.3377139 109.3473115  23.9715631
  57.6001657 110.4456463  24.7074718  68.5942665 108.4401009  20.0735416
  69.0911364 107.6870971  19.7536487  67.8229646 108.4765325  19.5078626
  65.1777633 110.5818392  19.8007101  64.8075421 110.0289432  20.4888007
  65.6736726 109.9776525  19.2482101  63.0066832 121.0415887  26.8962119
  63.7076291 121.6752370  27.0491513  62.5361947 121.3830618  26.1357758
  71.0361659 105.4070602  22.2214775  70.1224739 105.6374829  22.3896982
  71.4654761 105.4909046  23.0728808  70.8068118 113.5960494  24.7214669
  70.1539568 113.8436402  24.0667122  71.1848498 112.7824632  24.3877147
  66.8555691 114.3380305  31.2080706  66.1796328 114.2374435  31.8783082
  67.6783325 114.1819519  31.6716704  58.6034550 120.5752242  23.8293222
  59.1887987 119.8295930  23.9621126  58.4059388 120.8856198  24.7129886
  53.1952205 113.1457842  22.5497665  53.2336304 112.6121433  23.3434783
  52.6892497 112.6193047  21.9308642  60.5742967 107.9922382  26.0460207
  60.6384293 108.8537213  25.6337605  60.5110087 107.3796384  25.3132566
  60.0495239 110.0645515  29.6933241  60.6767278 109.6822592  30.3070766
  59.1923158 109.8459717  30.0588934  70.4489348 120.4708490  31.2986977
  70.9929252 121.0838448  30.8041932  69.8676193 121.0288069  31.8153990
  56.8260782 111.8721944  15.6251596  57.1214223 110.9632623  15.5718650
  55.9248818 111.8509684  15.3032599  60.3555029 109.9477941  21.6079145
  59.6341615 110.5613908  21.4686618  61.1448285 110.4835706  21.5295791
  63.1581343 107.2832367  27.8819797  63.6815745 107.5294664  28.6446106
  62.9393676 108.1152402  27.4622934  58.5548624 109.5536042  15.7490921
  58.2261330 108.6733421  15.5666027  58.9087994 109.4983710  16.6367311
  64.3633888 108.2246062  25.5669467  64.0230708 107.4253875  25.9690147
  63.6572894 108.5247773  24.9946300  65.0150360 105.3095375  24.0196790
  65.8376429 104.8355853  23.8975680  65.2588423 106.0885858  24.5195476
  62.5388938 112.0014495  21.8288769  62.3933519 112.3154798  22.7213050
  62.0614142 112.6199396  21.2759667  64.3985321 108.9917043  21.8769658
  64.3846890 108.0958137  21.5401956  65.1157749 108.9987707  22.5107944
  66.2511452 109.4254384  23.9222786  65.9929230 110.3471454  23.9207116
  65.7196492 109.0284818  24.6123250  57.0134601 114.5419840  24.7676430
  56.4688069 115.3179648  24.8996704  57.8913950 114.8890644  24.6095551
  63.8022217 107.8731424  17.1457228  63.9238128 106.9448070  17.3448116
  63.5124260 107.8870110  16.2335544  66.6713408 105.5586334  20.2823948
  66.6935104 105.6225667  19.3275928  67.0881467 104.7190843  20.4764454
  57.8000622 113.6689736  27.6606587  57.0582358 113.8172371  28.2471217
  57.4793367 113.9298002  26.7973336  65.7444285 123.2105714  27.4586977
  66.0531411 122.9654861  28.3309676  66.5419767 123.4152353  26.9705847
  56.4465841 119.4741491  20.6505915  55.6097749 119.0463666  20.4689916
  56.4189487 119.6673935  21.5876706  63.2863297 109.3863421  31.3547161
  63.3351452 110.2625544  30.9724931  63.8285811 108.8440814  30.7818804
  73.7718142 119.9304544  30.6348298  72.9813686 119.9128683  30.0952797
  73.5351497 120.4692838  31.3897335  73.8916017 116.7797011  27.9481027
  73.9414022 116.6147018  28.8896549  73.7829941 115.9124270  27.5578907
  71.1819780 112.7627939  29.2640333  72.0829643 112.6234404  28.9724331
  71.2567754 112.9282394  30.2038511  65.5162585 110.1394793  28.1093520
  64.6465895 110.4328359  27.8376108  65.7522066 110.7235238  28.8300783
  75.3934214 119.1993952  28.1923048  75.1019023 119.5623933  29.0286509
  74.7806346 118.4860960  28.0136380  73.6421403 114.3226567  26.6603106
  74.1175524 114.5154213  25.8521958  72.7186968 114.3785753  26.4146490
  68.2201619 106.3574410  25.6258940  68.7383563 107.0935437  25.3005429
  67.8656752 106.6638404  26.4605699  68.4714213 102.7774693  21.1459837
  68.7515967 102.1097882  21.7720263  69.2564820 102.9703788  20.6334500
  72.3423072 111.1992327  24.8931412  73.2940494 111.2990425  24.9143636
  72.1726522 110.4070595  25.4029496  70.3637451 108.2847910  25.0790813
  69.7687383 108.5652923  24.3837301  70.0787148 108.7741811  25.8507554
  74.9705638 111.2109490  24.0531995  74.4544686 110.4267947  23.8661923
  75.8545586 110.8828207  24.2178514  72.6316365 104.9550506  20.0127807
  72.4341186 104.6465594  20.8971139  73.2416070 105.6812144  20.1425737
  66.5433173 117.3412246  31.5101572  67.4636182 117.5190845  31.7041619
  66.5082756 116.3968291  31.3581272  55.7615338 112.5350839  20.4354847
  55.4418122 111.6816148  20.1429221  55.2148766 112.7499417  21.1912814
  59.5395245 115.2513280  24.1524354  59.7581255 116.1830388  24.1712387
  59.9521019 114.8921255  24.9379157  66.4599463 105.7581366  16.1400042
  65.6500191 105.4128451  16.5155288  67.1483880 105.4488909  16.7287654
  68.3890011 104.8359412  17.7624339  68.9421050 105.2554866  18.4214362
  68.6260098 103.9095161  17.8047295  64.4123111 110.8246486  33.5427103
  64.3119837 111.7740843  33.4739194  64.1944653 110.4964725  32.6703173
  55.6303598 116.1553751  22.4047969  54.9367069 115.7407704  21.8917923
  56.3776589 116.1974287  21.8081388  70.2172385 106.3464995  19.4724323
  70.7172163 106.4581530  18.6638642  70.8607993 106.0426048  20.1125132
  64.2754381 114.2543625  32.3592164  63.7921462 115.0543985  32.5656053
  64.3615320 114.2651570  31.4059608  57.5440340 116.0872005  20.2813984
  57.5211028 116.1859692  19.3295867  57.8540977 116.9337155  20.6031150
  60.2027718 118.1448160  24.3960598  61.1570972 118.1132102  24.3290530
  60.0040242 117.6838783  25.2110824  60.7927100 116.7149276  26.9631396
  61.6119989 117.2093354  26.9866233  61.0663908 115.7981244  26.9348963
  56.0462014 111.0487410  27.6623593  56.6920878 110.5386364  28.1510818
  55.8379166 111.7856091  28.2367018  68.5715407 118.1168257  33.1615733
  69.4406566 118.2908909  32.8002368  68.0922158 118.9362674  33.0391463
  62.7401587 125.2365358  24.8405167  63.6428834 125.2688968  25.1571662
  62.5138957 124.3065809  24.8551503  68.3817744 101.9070231  17.6693426
  67.6150140 101.3528718  17.8150108  68.7928449 101.9792100  18.5307577
  60.3859505 108.1955027  31.7598607  61.2490967 107.8391831  31.9701931
  59.8124916 107.8568921  32.4474011  72.9441006 121.6035743  32.7528578
  72.5507952 121.0501942  33.4276223  73.7607147 121.9146322  33.1435096
  75.8608967 123.0193622  30.3448835  76.6018681 123.6200775  30.2653297
  76.0926890 122.2771260  29.7866878  70.8888994 125.3937433  29.6933241
  71.5161033 125.0114510  30.3070766  70.0316913 125.1751635  30.0588934
  74.1257051 124.7155339  31.3547161  74.1745207 125.5917461  30.9724931
  74.6679565 124.1732732  30.7818804  75.2516865 126.1538404  33.5427103
  75.1513592 127.1032761  33.4739194  75.0338407 125.8256643  32.6703173
  66.8855769 126.3779327  27.6623593  67.5314633 125.8678281  28.1510818
  66.6772920 127.1148009  28.2367018  71.2253260 123.5246944  31.7598607
  72.0884722 123.1683749  31.9701931  70.6518671 123.1860839  32.4474011
  28.6062657  36.4588025  15.4468473  28.5475204  35.7747245  14.7799056
  29.0082176  37.2007015  14.9949099  27.0914331  36.1602942  18.0232283
  27.6354235  36.7732900  17.5287238  26.5101176  36.7182520  18.5399296
  30.4143126  35.6198996  17.3593605  29.6238669  35.6023135  16.8198104
  30.1776480  36.1587290  18.1142641  32.0359198  34.8888404  14.9168355
  31.7444006  35.2518385  15.7531816  31.4231329  34.1755412  14.7381687
  25.2140390  33.8062709  19.8861040  26.0831550  33.9803361  19.5247675
  24.7347141  34.6257126  19.7636769  36.8732866  45.5151335   9.2906315
  37.5111276  45.3958082   8.5869655  36.7553709  46.4632179   9.3494267
  33.6822572  45.4678763   9.2267839  33.3441083  45.3519828   8.3388374
  34.5512340  45.0669928   9.2068845  34.1642355  46.6213615  15.1854045
  34.1530996  46.2266413  14.3134548  34.3262994  45.8879687  15.7787816
  27.0873820  48.8165431   8.0548951  27.8795112  48.4756256   7.6395250
  27.3270470  48.9260406   8.9751104  30.8849616  49.4050726  14.1333229
  30.5939482  50.3096357  14.0179895  31.5206600  49.4467254  14.8477298
  31.8105823  46.7827575  10.7234588  32.4069395  46.5583597  10.0091551
  31.8680794  46.0412320  11.3260036  41.8282561  43.1778022   7.2692501
  42.5607733  42.6077239   7.5030331  41.0721917  42.7899622   7.7099007
  39.3507982  36.8899596  11.7287110  39.0191306  37.7595007  11.5048325
  38.7553595  36.5735880  12.4081140  35.8439501  49.0912142  11.1283022
  35.5440224  49.9937181  11.0198830  35.4990561  48.8244325  11.9804175
  39.2436645  41.6094682   8.8080460  38.3353522  41.5410091   8.5139221
  39.1924241  42.0866627   9.6362285  30.8260281  55.8556462   4.0953990
  30.7484311  56.8064287   4.1742471  30.2221925  55.5102335   4.7528916
  33.3177511  43.0284328  16.7515357  32.5410845  43.5878248  16.7418222
  33.9568074  43.5141111  17.2730227  41.1098291  39.8111121  10.5858334
  40.4672672  40.1043654   9.9398128  40.6053220  39.6964041  11.3911530
  31.5723883  45.8369781  16.3133324  32.3138567  46.3754825  16.0368148
  30.8660869  46.4636070  16.4704876  37.0479223  47.9798922  14.9105486
  37.4562579  47.5381332  14.1660118  36.3256484  47.4051549  15.1639678
  33.4010293  42.9171528  12.2839042  34.2471488  43.3410942  12.4273691
  33.3408930  42.2605153  12.9777606  37.3708037  48.5400112   8.6657774
  36.7416900  48.7045826   7.9633842  36.9833699  48.9541722   9.4368738
  41.2497269  49.4754550   6.0202138  40.5648307  49.8553451   5.4699171
  41.3341119  50.0849877   6.7534086  36.5509738  40.5775897  13.9420216
  36.3070670  41.3317957  13.4054492  36.8269669  40.9561244  14.7767463
  38.5048201  47.1214509  12.6197482  38.7165096  47.7646269  11.9431863
  38.4577949  46.2876826  12.1519412  29.8160080  47.8246002   8.8687623
  30.3861437  48.2533270   8.2305107  30.4068192  47.5428587   9.5671808
  30.3085247  42.9909429  17.1148634  29.6783907  43.6725710  17.3484031
  30.2021335  42.8792511  16.1701772  39.6194029  49.9986465  10.7919839
  40.4411473  49.5966652  10.5102521  39.6156432  49.8954699  11.7435955
  33.3850632  49.5470508  12.9480550  33.4495065  50.0090915  13.7838721
  32.6761556  48.9167873  13.0762859  47.7100022  46.3425213   7.1404811
  46.9563730  45.7732611   6.9848815  47.8447563  46.3087878   8.0875445
  29.5865990  37.2930195  19.4773885  29.1932935  36.7396394  20.1521529
  30.4032130  37.6040774  19.8680403  28.3622932  51.8479810   5.4710208
  28.5389560  52.7697774   5.2831192  29.1579766  51.5338229   5.9004588
  32.5033951  38.7088074  17.0694142  33.2443664  39.3095227  16.9898604
  32.7351873  37.9665712  16.5112184  27.6475289  43.8944442  15.3472371
  27.5328804  42.9929699  15.6479470  26.7919806  44.1408138  14.9957188
  34.7267126  51.8362182  16.9459872  34.2830980  51.0498560  16.6280776
  35.3884340  52.0241332  16.2803763  29.4854247  53.3657983  11.4720550
  30.0361673  53.2375047  10.6997544  28.6465723  53.6652872  11.1215443
  36.8248364  52.1164982  14.9741273  36.8066840  52.9373863  14.4821542
  37.7468284  51.9919057  15.1991414  33.2821419  49.6309111  15.8164782
  33.8149755  48.8697399  15.5864090  32.7535500  49.3382763  16.5588936
  39.6266977  46.9544124   8.4450640  38.9690652  47.6443386   8.5330769
  40.4307376  47.3440556   8.7884626  38.4372436  45.3088497   6.4954582
  38.9504318  45.9418489   6.9976291  39.0873660  44.7089692   6.1297942
  34.9153267  42.7837952   8.7412922  33.9975828  43.0052899   8.5834610
  35.3313411  42.8584263   7.8824630  39.2034232  50.2894498   4.6233724
  38.7496559  49.4485408   4.6798915  38.5728199  50.9255897   4.9608504
  37.6467171  52.1270995   5.5583542  37.9390146  52.6876052   4.8395908
  38.1565792  52.4199556   6.3136702  32.6100797  52.9051346   6.6476996
  32.5676975  53.1312192   5.7185528  33.5263496  52.6714721   6.7962797
  36.0566430  43.3735414  13.5457625  36.4115818  43.6006887  14.4052091
  36.7038562  43.7053790  12.9234880  41.7864167  46.4953850   4.2506954
  41.6482066  46.6855446   3.3228143  41.4300386  47.2573232   4.7075005
  41.8133547  48.5630377   9.2618225  42.2470054  48.4705666  10.1101279
  42.5265128  48.5387877   8.6238241  35.5461442  52.1632471  10.7951326
  35.5998464  52.7323407  11.5629042  34.6776223  52.3334356  10.4305363
  28.4259835  41.8650027  12.2775777  29.0982889  41.6567389  11.6288426
  27.5989622  41.6672113  11.8381010  42.6749097  48.6054077  11.7951111
  42.8684987  49.5099888  12.0410386  42.5749715  48.1461496  12.6289696
  34.3285407  38.4911968  14.2941438  33.6813322  39.1901917  14.2005915
  35.0986423  38.9248112  14.6617686  37.7364205  48.7560820  17.3691991
  37.5849712  48.5271372  16.4522075  37.7268885  49.7131421  17.3823336
  34.5049542  46.3292733  12.3538258  35.4341602  46.4803892  12.1807225
  34.0840572  46.4176753  11.4986904  33.3037873  50.3543397  10.1236795
  33.1648959  49.9862182  10.9962734  32.5152470  50.8691037   9.9520753
  33.8986025  55.4552494   1.4662332  34.0737781  54.9840537   2.2807955
  33.2118813  56.0818260   1.6943593  34.8543089  49.7325000   7.5125633
  34.5192921  49.6925770   8.4083283  34.3547034  49.0669716   7.0396043
  28.8287333  45.1392630  13.0378214  28.6907130  44.4072869  13.6389753
  29.7392256  45.0501530  12.7562402  31.4569633  44.8512589  12.5261894
  32.1669252  44.2105781  12.4848512  31.4138941  45.1025484  13.4488075
  39.4456412  51.7879943  15.4468473  39.3868958  51.1039163  14.7799056
  39.8475930  52.5298933  14.9949099  30.1698567  41.8377807  14.3457534
  29.6335924  41.3868546  14.9979130  29.5815276  41.9723716  13.6027998
  28.4647111  58.6041856   8.2402192  28.7043709  59.2360381   8.9181211
  27.6216307  58.2529896   8.5267551  39.4473819  49.7519526  13.6782453
  38.5600598  49.4145448  13.8008852  40.0172370  49.0202558  13.9151218
  32.9774973  54.4120979  10.6443696  32.9045144  55.2175950  11.1563001
  32.5352366  54.6112945   9.8191718  32.7664752  53.6492749   4.1546518
  31.9832274  54.1914429   4.2484742  33.4657497  54.1666728   4.5540759
  43.9291160  45.1627744   8.4399015  43.9181036  46.0452459   8.0692948
  43.0608539  44.8099295   8.2453552  35.4373656  54.3107813  12.8001855
  36.1501628  54.9455278  12.7277756  34.9463685  54.4071679  11.9841857
  30.4885570  52.0602256  13.6207426  31.1895029  52.6938739  13.7736820
  30.0180685  52.4016988  12.8603065  38.2886856  44.6146864  11.4459976
  37.6358306  44.8622771  10.7912429  38.6667235  43.8011002  11.1122453
  35.2494029  54.6506557   5.5488146  35.4316424  53.8328213   6.0115899
  36.0727015  54.8674249   5.1113036  35.5836195  53.5774742   2.8103195
  36.1123961  53.0667197   2.1973357  35.8464415  53.2617272   3.6748728
  34.3374429  45.3566675  17.9326013  33.6615066  45.2560804  18.6028388
  35.1602062  45.2005889  18.3962010  26.0853288  51.5938611  10.5538528
  26.6706724  50.8482299  10.6866432  25.8878126  51.9042568  11.4375192
  28.9391943  54.6289859   5.5700971  28.2702318  55.1135986   5.0865011
  28.8004813  54.8759079   6.4844349  33.0797211  56.6633602  12.1683629
  33.6315520  56.8265224  12.9332714  33.4203405  57.2538040  11.4963654
  27.5313977  41.0831885  16.4178548  28.1586016  40.7008962  17.0316072
  26.6741896  40.8646087  16.7834240  37.9308086  51.4894860  18.0232283
  38.4747990  52.1024818  17.5287238  37.3494931  52.0474438  18.5399296
  36.2165599  54.6115578   9.1547311  36.0916738  53.8105318   8.6458257
  36.8744690  55.1061771   8.6661281  38.2800507  52.4124598  10.7826861
  37.3330843  52.2929949  10.7105188  38.6283280  51.5247096  10.8653123
  30.6400081  38.3018737  14.6065103  31.1634482  38.5481033  15.3691412
  30.4212414  39.1338772  14.1868241  35.2846940  52.2077314   6.9831214
  35.1371903  51.2794021   7.1638784  36.1100434  52.2297405   6.4988289
  38.8881062  53.0305873   8.0696086  39.8127610  52.8248734   7.9320537
  38.7196366  52.7822274   8.9785428  31.8452626  39.2432432  12.2914774
  31.5049446  38.4440245  12.6935454  31.1391632  39.5434143  11.7191607
  33.7330190  40.4440753  10.6468092  33.4747968  41.3657824  10.6452423
  33.2015230  40.0471188  11.3368556  38.6776379  53.5491540   3.4258178
  38.8513256  52.9837963   2.6732030  39.1705270  54.3492435   3.2437668
  24.4953338  45.5606209  11.4921737  23.9506806  46.3366017  11.6242011
  25.3732688  45.9077014  11.3340858  44.5315770  46.3127963   5.0448477
  44.9746916  45.5635288   4.6467601  43.6542280  46.3038100   4.6622209
  39.6651551  52.8658305   0.5255076  40.3602456  53.4864997   0.7442391
  40.0074701  52.0153656   0.8007454  25.2819360  44.6876106  14.3851893
  24.5401096  44.8358741  14.9716524  24.9612104  44.9484371  13.5218643
  41.5642974  50.3158010   2.0542407  42.0894298  50.6545283   1.3291727
  41.4765327  49.3805026   1.8705541  33.2263023  54.2292084  14.1832283
  33.5350149  53.9841231  15.0554983  34.0238505  54.4338722  13.6951154
  33.2483635  56.3829993   6.4137660  32.8088625  55.8906372   7.1070517
  33.9991752  55.8402961   6.1729735  25.7275974  52.5741534   6.4162288
  26.5533994  52.2745306   6.0360932  25.3770026  51.8049157   6.8652077
  30.6957507  51.9268003   8.4859962  30.0737516  51.2638708   8.1862189
  31.3662374  51.9529134   7.8033609  30.7682035  40.4049791  18.0792468
  30.8170190  41.2811913  17.6970237  31.3104549  39.8627184  17.5064111
  41.2536880  50.9490914  17.3593605  40.4632424  50.9315053  16.8198104
  41.0170235  51.4879208  18.1142641  41.3734755  47.7983380  14.6726333
  41.4232760  47.6333388  15.6141856  41.2648679  46.9310639  14.2824214
  38.6638518  43.7814308  15.9885640  39.5648380  43.6420773  15.6969638
  38.7386492  43.9468763  16.9283817  32.9981323  41.1581163  14.8338826
  32.1284632  41.4514729  14.5621415  33.2340803  41.7421608  15.5546090
  42.8752952  50.2180322  14.9168355  42.5837760  50.5810302  15.7531816
  42.2625083  49.5047330  14.7381687  44.0748634  47.7833202   7.4370925
  44.9095526  48.2223006   7.6008485  44.2107763  47.3071855   6.6179171
  41.1240140  45.3412936  13.3848413  41.5994262  45.5340583  12.5767264
  40.2005706  45.3972122  13.1391796  35.7020357  37.3760780  12.3504247
  36.2202301  38.1121807  12.0250735  35.3475490  37.6824773  13.1851006
  39.8241809  42.2178696  11.6176718  40.7759232  42.3176794  11.6388942
  39.6545260  41.4256965  12.1274803  37.8456189  39.3034280  11.8036119
  37.2506121  39.5839292  11.1082608  37.5605885  39.7928181  12.5752860
  42.3029887  45.4384816  10.7319018  42.2706207  44.5000817  10.9178702
  42.9130511  45.5168853   9.9984843  42.4524376  42.2295860  10.7777301
  41.9363424  41.4454316  10.5907230  43.3364324  41.9014576  10.9423821
  48.1206437  46.5000823   9.8725055  48.8509825  46.2386111  10.4332758
  47.5113382  45.7629545   9.9127123  46.2021734  44.6408686  10.4699506
  45.4754898  44.5064650   9.8615998  45.7869021  44.9485514  11.2756224
  34.0251910  48.3598615  18.2346879  34.9454920  48.5377214  18.4286926
  33.9901494  47.4154661  18.0826578  27.0213983  46.2699650  10.8769660
  27.2399993  47.2016758  10.8957694  27.4339757  45.9107624  11.6624464
  31.8941848  41.8432856  20.2672409  31.7938575  42.7927213  20.1984500
  31.6763390  41.5151095  19.3948479  31.7573118  45.2729994  19.0837471
  31.2740200  46.0730355  19.2901360  31.8434057  45.2837939  18.1304915
  27.6846456  49.1634529  11.1205905  28.6389709  49.1318472  11.0535836
  27.4858979  48.7025153  11.9356131  28.2745838  47.7335645  13.6876702
  29.0938727  48.2279724  13.7111540  28.5482646  46.8167613  13.6594270
  43.8199529  40.8620538   7.8232938  44.4144020  40.6216274   7.1126246
  43.8926113  40.1427668   8.4506474  26.0396685  54.7054149   8.1376102
  25.9051153  53.9454550   7.5714101  25.6228747  55.4295049   7.6704891
  46.1270602  44.1686739   6.5976359  45.5670160  44.2379928   7.3707921
  45.5214105  43.9927723   5.8775855  29.1965811  55.6023466   8.3494545
  29.0798195  56.5468898   8.2473235  28.3758257  55.2997027   8.7380344
  23.5280752  42.0673779  14.3868899  24.1739616  41.5572733  14.8756124
  23.3197903  42.8042461  14.9612325  36.0534144  49.1354627  19.8861040
  36.9225304  49.3095279  19.5247675  35.5740896  49.9549043  19.7636769
  30.2220325  56.2551728  11.5650474  31.1247571  56.2875338  11.8816968
  29.9957695  55.3252179  11.5796809  31.9773927  55.0082714   8.2260552
  31.0269558  55.0084576   8.1124924  32.2806413  54.2615449   7.7096587
  27.8678243  39.2141396  18.4843914  28.7309705  38.8578201  18.6947238
  27.2943654  38.8755291  19.1719318  47.7126620  60.8443253   9.2906315
  48.3505030  60.7250000   8.5869655  47.5947463  61.7924096   9.3494267
  44.5216326  60.7970681   9.2267839  44.1834838  60.6811745   8.3388374
  45.3906095  60.3961846   9.2068845  40.3803142  62.6506157   5.2164730
  39.8168007  62.5596094   4.4481018  40.2655537  61.8306062   5.6967223
  45.0036109  61.9505532  15.1854045  44.9924750  61.5558331  14.3134548
  45.1656749  61.2171605  15.7787816  37.9267574  64.1457349   8.0548951
  38.7188866  63.8048173   7.6395250  38.1664224  64.2552324   8.9751104
  45.9602701  66.3177125   0.5279195  45.3090681  66.9031205   0.1413209
  46.7547064  66.8483320   0.5874233  39.8858328  63.4066262   0.9266329
  40.6589204  62.8595249   0.7879205  40.2383727  64.2710511   1.1380791
  41.7243371  64.7342644  14.1333229  41.4333237  65.6388275  14.0179895
  42.3600355  64.7759172  14.8477298  42.6499577  62.1119493  10.7234588
  43.2463150  61.8875515  10.0091551  42.7074549  61.3704238  11.3260036
  42.2224606  59.5658928  -1.4415221  42.4750127  59.0440449  -2.2031758
  41.2849165  59.4025073  -1.3388537  47.2667889  58.5694706   6.3659523
  48.0530978  58.1514130   6.0149940  47.5306593  59.4740799   6.5341171
  47.4377966  64.0067557   1.0648179  46.8023799  64.0802183   1.7769084
  47.1075372  64.5961156   0.3867259  52.6676316  58.5069940   7.2692501
  53.4001488  57.9369156   7.5030331  51.9115671  58.1191540   7.7099007
  41.9420895  61.4687034   0.7609154  41.8257153  60.7931937   1.4290239
  42.0523154  60.9819408  -0.0558693  44.2852436  60.9297181   4.4655844
  43.9210643  60.4027802   5.1768765  45.1419551  60.5395650   4.2922329
  50.1901736  52.2191514  11.7287110  49.8585061  53.0886925  11.5048325
  49.5947350  51.9027798  12.4081140  43.9257922  55.9587081  -0.5382808
  44.0932325  56.8267317  -0.1712337  43.7355092  56.1214362  -1.4621519
  46.6833256  64.4204060  11.1283022  46.3833979  65.3229098  11.0198830
  46.3384315  64.1536243  11.9804175  40.1345737  60.8717857   7.1619727
  39.2096234  60.7394071   7.3697419  40.3830150  61.6512076   7.6589669
  50.0830399  56.9386600   8.8080460  49.1747277  56.8702008   8.5139221
  50.0317995  57.4158545   9.6362285  43.9047143  58.4144738   0.4463859
  43.7846769  58.8601789   1.2849339  43.2099732  58.7630056  -0.1122603
  37.4954548  60.5151130   7.9963516  37.6246929  60.7685609   8.9102928
  36.8152000  61.1078838   7.6768171  41.6654035  71.1848380   4.0953990
  41.5878065  72.1356205   4.1742471  41.0615679  70.8394253   4.7528916
  44.1571265  58.3576245  16.7515357  43.3804599  58.9170166  16.7418222
  44.7961828  58.8433028  17.2730227  51.9492046  55.1403038  10.5858334
  51.3066426  55.4335571   9.9398128  51.4446974  55.0255959  11.3911530
  49.6032210  58.8866211   1.2744193  50.5150066  59.1193598   1.0991890
  49.0941857  59.4703256   0.7119272  42.4117638  61.1661699  16.3133324
  43.1532322  61.7046743  16.0368148  41.7054623  61.7927988  16.4704876
  47.8872977  63.3090839  14.9105486  48.2956333  62.8673250  14.1660118
  47.1650239  62.7343467  15.1639678  44.2404047  58.2463446  12.2839042
  45.0865242  58.6702860  12.4273691  44.1802685  57.5897070  12.9777606
  48.2101792  63.8692030   8.6657774  47.5810654  64.0337744   7.9633842
  47.8227454  64.2833639   9.4368738  52.0891024  64.8046468   6.0202138
  51.4042062  65.1845369   5.4699171  52.1734873  65.4141794   6.7534086
  47.3903493  55.9067814  13.9420216  47.1464424  56.6609875  13.4054492
  47.6663423  56.2853162  14.7767463  49.3441955  62.4506427  12.6197482
  49.5558851  63.0938187  11.9431863  49.2971704  61.6168743  12.1519412
  46.9468184  55.0624247   9.5234054  46.0852663  55.3605501   9.8150791
  46.9730619  55.2794646   8.5915086  43.7629754  63.6066438   5.9307860
  44.2268099  63.8854141   5.1412482  43.4986552  62.7049883   5.7480950
  40.6553835  63.1537920   8.8687623  41.2255192  63.5825188   8.2305107
  41.2461947  62.8720504   9.5671808  42.6998640  59.7289590   2.7397425
  43.4022683  60.1810634   3.2071351  42.3679268  59.0873409   3.3677318
  41.1479001  58.3201347  17.1148634  40.5177662  59.0017628  17.3484031
  41.0415089  58.2084429  16.1701772  36.4423974  57.9873143   8.0414558
  35.6523028  58.2430672   7.5654669  36.9335221  58.8021481   8.1466599
  50.4587783  65.3278382  10.7919839  51.2805227  64.9258569  10.5102521
  50.4550186  65.2246616  11.7435955  38.3938719  58.3517722   4.9998035
  37.5969882  58.4636417   5.5181531  38.1664311  58.6904374   4.1338925
  44.2244387  64.8762425  12.9480550  44.2888819  65.3382833  13.7838721
  43.5155311  64.2459790  13.0762859  34.7261677  58.2403633  10.4729549
  34.9769715  59.1250643  10.7387125  35.2621225  58.0608235   9.7004641
  58.5493776  61.6717131   7.1404811  57.7957485  61.1024529   6.9848815
  58.6841318  61.6379795   8.0875445  43.9392404  66.5430533   2.8159530
  43.8038079  67.3882069   3.2444378  44.4802217  66.7449811   2.0525464
  40.4259744  52.6222113  19.4773885  40.0326690  52.0688311  20.1521529
  41.2425884  52.9332691  19.8680403  37.3921802  64.0605971   3.3887455
  37.9046322  64.8549221   3.5393020  38.0444515  63.3632261   3.3221056
  39.2016686  67.1771727   5.4710208  39.3783315  68.0989692   5.2831192
  39.9973520  66.8630147   5.9004588  43.3427705  54.0379992  17.0694142
  44.0837418  54.6387145  16.9898604  43.5745628  53.2957630  16.5112184
  38.4869043  59.2236359  15.3472371  38.3722558  58.3221616  15.6479470
  37.6313561  59.4700056  14.9957188  45.5660881  67.1654099  16.9459872
  45.1224735  66.3790478  16.6280776  46.2278094  67.3533250  16.2803763
  40.3248002  68.6949901  11.4720550  40.8755427  68.5666964  10.6997544
  39.4859478  68.9944790  11.1215443  47.6642119  67.4456899  14.9741273
  47.6460594  68.2665780  14.4821542  48.5862039  67.3210975  15.1991414
  44.1215173  64.9601029  15.8164782  44.6543510  64.1989317  15.5864090
  43.5929254  64.6674681  16.5588936  47.2884868  50.0661095  11.3458423
  46.9449137  50.9562737  11.2697534  47.6563831  49.8762753  10.4828008
  35.3570719  62.3894625   4.1647025  36.1945941  62.7991634   3.9480733
  35.5348986  61.4494067   4.1347219  47.2535151  60.0569706  -0.1469142
  46.7381774  60.8274311   0.0919246  46.9812459  59.3834842   0.4763920
  44.8382262  54.9019407   4.9116097  43.9823858  54.5126257   4.7321736
  45.2509213  54.9811368   4.0515882  46.3681408  52.4365750   9.3107657
  45.8646204  52.3995885   8.4975462  46.6612015  53.3458493   9.3704313
  42.6124294  52.5204480   8.3173838  43.4777291  52.3247288   7.9579728
  42.6801803  52.2914832   9.2443195  52.2269425  62.8102061   1.7884032
  51.4498868  62.4713220   1.3439194  52.9060906  62.8154684   1.1138997
  47.0421454  57.9296798   1.6790640  46.7371589  58.2442947   2.5300783
  47.9951896  58.0078218   1.7217973  45.4867886  64.0887021   3.3283594
  44.9589247  63.3539781   3.0156831  44.9855388  64.8661698   3.0823562
  50.4660732  62.2836042   8.4450640  49.8084406  62.9735303   8.5330769
  51.2701131  62.6732474   8.7884626  40.2186613  54.7506688   5.6890205
  40.7930365  54.5281869   4.9563398  40.8057596  54.8195382   6.4418806
  49.2766191  60.6380415   6.4954582  49.7898072  61.2710406   6.9976291
  49.9267414  60.0381610   6.1297942  40.5456200  56.7811149  -0.2913910
  39.7093513  57.1185835   0.0295365  40.4060970  56.6460128  -1.2286773
  42.5209281  51.6247937   4.4165275  41.8673693  51.3096954   3.7921889
  42.4789755  51.0023677   5.1425097  43.6320486  61.9067232  -3.6681433
  42.7247548  61.6756485  -3.4690284  44.1291518  61.1104851  -3.4807452
  46.5388565  70.6164739  -0.7484747  45.8650264  70.9196436  -0.1399789
  46.9254387  71.4193819  -1.0979290  45.7547021  58.1129870   8.7412922
  44.8369583  58.3344817   8.5834610  46.1707165  58.1876181   7.8824630
  46.5382069  59.5121286   3.8715602  47.2853888  60.0242683   3.5622724
  46.8073659  59.1905339   4.7319996  44.8108719  62.0079827   0.8542557
  43.9019939  61.7238859   0.9515026  44.8403803  62.4278905  -0.0054136
  50.0427987  65.6186416   4.6233724  49.5890314  64.7777326   4.6798915
  49.4121953  66.2547814   4.9608504  48.9860906  56.5478402   5.8534392
  48.2483663  56.0355788   6.1844634  49.2387680  56.1078784   5.0417669
  48.4860926  67.4562913   5.5583542  48.7783900  68.0167970   4.8395908
  48.9959547  67.7491474   6.3136702  49.0872534  49.3254654   6.4476161
  49.3931410  48.4652017   6.1602076  49.8125138  49.9172274   6.2475155
  35.3796890  59.7285341   4.8357759  35.1821290  59.1354701   4.1108825
  34.8243554  59.4237551   5.5533698  43.3593613  59.6208447   6.9552352
  43.4142223  58.6682284   6.8794829  42.5484815  59.7767886   7.4393650
  44.5084807  63.5488570  -1.8069365  44.0704237  62.8324429  -2.2663727
  45.2495248  63.7764685  -2.3684273  41.2985973  58.2385507   4.7142731
  40.4853839  58.5379677   5.1207923  41.7944967  57.8441196   5.4317213
  43.4494551  68.2343264   6.6476996  43.4070730  68.4604110   5.7185528
  44.3657250  68.0006638   6.7962797  46.8960185  58.7027331  13.5457625
  47.2509573  58.9298804  14.4052091  47.5432316  59.0345708  12.9234880
  52.6257922  61.8245767   4.2506954  52.4875820  62.0147363   3.3228143
  52.2694141  62.5865150   4.7075005  40.7900048  55.8103862  10.3303966
  41.4299427  55.6692621   9.6326929  39.9577579  55.5238376   9.9542568
  52.6527302  63.8922294   9.2618225  53.0863808  63.7997583  10.1101279
  53.3658882  63.8679795   8.6238241  41.5660352  65.1106293   6.4438958
  42.3600950  64.6156613   6.2421533  40.8552044  64.5824156   6.0806664
  46.3855196  67.4924388  10.7951326  46.4392219  68.0615325  11.5629042
  45.5169978  67.6626273  10.4305363  37.8743115  59.2549375   2.5198711
  36.9440704  59.1933830   2.7368673  37.9700587  58.7325327   1.7235352
  37.7928664  55.7804187   5.1076953  38.0535482  56.6949521   4.9986113
  38.6145837  55.3128630   5.2573566  39.2653590  57.1941945  12.2775777
  39.9376643  56.9859307  11.6288426  38.4383376  56.9964031  11.8381010
  53.5142851  63.9345995  11.7951111  53.7078741  64.8391805  12.0410386
  53.4143469  63.4753414  12.6289696  45.1679162  53.8203885  14.2941438
  44.5207077  54.5193835  14.2005915  45.9380177  54.2540029  14.6617686
  48.5757960  64.0852738  17.3691991  48.4243466  63.8563289  16.4522075
  48.5662639  65.0423339  17.3823336  45.3443296  61.6584650  12.3538258
  46.2735356  61.8095810  12.1807225  44.9234326  61.7468671  11.4986904
  44.1431628  65.6835315  10.1236795  44.0042714  65.3154099  10.9962734
  43.3546224  66.1982954   9.9520753  44.7379780  70.7844411   1.4662332
  44.9131536  70.3132454   2.2807955  44.0512568  71.4110177   1.6943593
  45.6936843  65.0616917   7.5125633  45.3586676  65.0217687   8.4083283
  45.1940789  64.3961633   7.0396043  39.6681087  60.4684548  13.0378214
  39.5300885  59.7364786  13.6389753  40.5786011  60.3793448  12.7562402
  48.6296035  62.4072952  -2.2137307  48.0125205  61.6819780  -2.3104254
  48.1612523  63.1682312  -2.5570233  42.2963388  60.1804507  12.5261894
  43.0063006  59.5397699  12.4848512  42.2532696  60.4317402  13.4488075
  50.2850166  67.1171860  15.4468473  50.2262713  66.4331080  14.7799056
  50.6869685  67.8590850  14.9949099  41.0092322  57.1669725  14.3457534
  40.4729679  56.7160463  14.9979130  40.4209030  57.3015634  13.6027998
  39.3040865  73.9333774   8.2402192  39.5437463  74.5652298   8.9181211
  38.4610062  73.5821814   8.5267551  50.2867574  65.0811444  13.6782453
  49.3994352  64.7437366  13.8008852  50.8566125  64.3494475  13.9151218
  31.9396721  61.4135536   7.0025504  32.6267761  61.0997266   6.4146520
  31.7844849  62.3176901   6.7292756  36.7431443  56.3025732  11.4310528
  36.6589632  55.6951402  10.6960938  35.9214149  56.7934751  11.4320024
  43.8168727  69.7412896  10.6443696  43.7438899  70.5467868  11.1563001
  43.3746120  69.9404862   9.8191718  43.6058507  68.9784666   4.1546518
  42.8226029  69.5206347   4.2484742  44.3051252  69.4958646   4.5540759
  46.9155157  54.7879296   6.7980723  47.4123856  54.0349258   6.4781793
  46.1442138  54.8243613   6.2323932  54.7684914  60.4919661   8.4399015
  54.7574790  61.3744377   8.0692948  53.9002294  60.1391212   8.2453552
  46.2767411  69.6399730  12.8001855  46.9895383  70.2747195  12.7277756
  45.7857439  69.7363596  11.9841857  47.9984937  63.5450983   4.3719146
  47.0641216  63.6652446   4.2023851  48.1761606  62.6423450   4.1079156
  43.4990126  56.9296679   6.5252408  43.1287913  56.3767719   7.2133313
  43.9949218  56.3254812   5.9727408  51.3857489  59.3868302   4.9069181
  51.8517941  60.2196294   4.8329483  51.8364989  58.9213284   5.6114439
  41.3279324  67.3894174  13.6207426  42.0288784  68.0230657  13.7736820
  40.8574439  67.7308906  12.8603065  49.4533720  65.7312124   1.9055333
  49.7293564  65.6168718   2.8149207  48.5838219  65.3329609   1.8667506
  49.3574152  51.7548889   8.9460082  48.4437231  51.9853116   9.1142289
  49.7867253  51.8387334   9.7974114  49.1280610  59.9438781  11.4459976
  48.4752060  60.1914689  10.7912429  49.5060990  59.1302920  11.1122453
  46.0887784  69.9798475   5.5488146  46.2710178  69.1620131   6.0115899
  46.9120770  70.1966167   5.1113036  46.4229949  68.9066660   2.8103195
  46.9517716  68.3959114   2.1973357  46.6858169  68.5909190   3.6748728
  45.1768183  60.6858592  17.9326013  44.5008820  60.5852722  18.6028388
  45.9995817  60.5297806  18.3962010  36.9247042  66.9230529  10.5538528
  37.5100479  66.1774217  10.6866432  36.7271881  67.2334486  11.4375192
  39.7785697  69.9581776   5.5700971  39.1096073  70.4427904   5.0865011
  39.6398567  70.2050997   6.4844349  31.5164697  59.4936129   9.2742971
  31.5548796  58.9599720  10.0680090  31.0104990  58.9671335   8.6553949
  43.9190966  71.9925520  12.1683629  44.4709274  72.1557141  12.9332714
  44.2597159  72.5829958  11.4963654  38.8955459  54.3400670  12.7705514
  38.9596786  55.2015501  12.3582911  38.8322579  53.7274671  12.0377872
  38.3707732  56.4123802  16.4178548  38.9979771  56.0300880  17.0316072
  37.5135651  56.1938004  16.7834240  48.7701840  66.8186777  18.0232283
  49.3141744  67.4316736  17.5287238  48.1888685  67.3766356  18.5399296
  35.1473274  58.2200231   2.3496903  35.4426716  57.3110910   2.2963957
  34.2461310  58.1987971   2.0277905  47.0559353  69.9407495   9.1547311
  46.9310493  69.1397235   8.6458257  47.7138444  70.4353689   8.6661281
  38.6767521  56.2956228   8.3324451  37.9554107  56.9092196   8.1931925
  39.4660777  56.8313993   8.2541097  49.1194262  67.7416516  10.7826861
  48.1724597  67.6221867  10.7105188  49.4677035  66.8539014  10.8653123
  41.4793835  53.6310654  14.6065103  42.0028237  53.8772951  15.3691412
  41.2606168  54.4630689  14.1868241  36.8761116  55.9014329   2.4736228
  36.5473822  55.0211708   2.2911334  37.2300487  55.8461998   3.3612617
  46.1240695  67.5369232   6.9831214  45.9765657  66.6085939   7.1638784
  46.9494188  67.5589322   6.4988289  39.9902939  56.1887299   2.8411706
  40.3299012  56.7173220   2.1190314  40.4375060  56.5267705   3.6170272
  49.7274817  68.3597790   8.0696086  50.6521364  68.1540652   7.9320537
  49.5590120  68.1114192   8.9785428  42.6846380  54.5724350  12.2914774
  42.3443200  53.7732163  12.6935454  41.9785386  54.8726060  11.7191607
  43.3362852  51.6573662  10.7442097  44.1588921  51.1834140  10.6220987
  43.5800915  52.4364146  11.2440783  41.9771086  54.6861920   1.0404998
  42.6979449  55.0643173   0.5368715  41.3536390  55.4050797   1.1439976
  46.1202209  55.3907069   1.9763331  46.3365824  56.2731707   1.6752159
  45.6396276  54.9993283   1.2468973  40.8601431  58.3492783   8.5534075
  40.7146011  58.6633086   9.4458357  40.3826634  58.9677683   8.0004974
  42.7197814  55.3395331   8.6014965  42.7059382  54.4436424   8.2647263
  43.4370242  55.3465994   9.2353251  44.5723944  55.7732671  10.6468092
  44.3141722  56.6949741  10.6452423  44.0408985  55.3763105  11.3368556
  49.5170133  68.8783458   3.4258178  49.6907011  68.3129880   2.6732030
  50.0099024  69.6784353   3.2437668  35.3347093  60.8898127  11.4921737
  34.7900561  61.6657935  11.6242011  36.2126443  61.2368931  11.3340858
  42.1234709  54.2209711   3.8702535  42.2450621  53.2926357   4.0693423
  41.8336752  54.2348397   2.9580850  44.9925900  51.9064621   7.0069255
  45.0147597  51.9703954   6.0521234  45.4093959  51.0669130   7.2009761
  55.3709524  61.6419881   5.0448477  55.8140670  60.8927206   4.6467601
  54.4936034  61.6330017   4.6622209  50.5045305  68.1950222   0.5255076
  51.1996210  68.8156915   0.7442391  50.8468456  67.3445574   0.8007454
  36.1213115  60.0168023  14.3851893  35.3794851  60.1650659  14.9716524
  35.8005859  60.2776289  13.5218643  52.4036729  65.6449928   2.0542407
  52.9288053  65.9837201   1.3291727  52.3159081  64.7096943   1.8705541
  44.0656777  69.5584002  14.1832283  44.3743904  69.3133148  15.0554983
  44.8632259  69.7630640  13.6951154  44.0877389  71.7121911   6.4137660
  43.6482380  71.2198290   7.1070517  44.8385506  71.1694879   6.1729735
  36.5669728  67.9033452   6.4162288  37.3927748  67.6037224   6.0360932
  36.2163780  67.1341074   6.8652077  41.5351262  67.2559920   8.4859962
  40.9131271  66.5930625   8.1862189  42.2056128  67.2821052   7.8033609
  34.7678333  65.8219778   7.3751222  33.9310242  65.3941953   7.1935223
  34.7401979  66.0152222   8.3122013  41.6075789  55.7341708  18.0792468
  41.6563944  56.6103831  17.6970237  42.1498303  55.1919101  17.5064111
  52.0930635  66.2782832  17.3593605  51.3026178  66.2606970  16.8198104
  51.8563989  66.8171125  18.1142641  52.2128510  63.1275298  14.6726333
  52.2626515  62.9625305  15.6141856  52.1042433  62.2602557  14.2824214
  41.0964768  65.8063844   1.9618422  41.2452889  66.4899308   1.3085095
  41.9031212  65.7868934   2.4767878  49.5032272  59.1106226  15.9885640
  50.4042135  58.9712691  15.6969638  49.5780247  59.2760681  16.9283817
  43.8375077  56.4873081  14.8338826  42.9678387  56.7806647  14.5621415
  44.0734558  57.0713526  15.5546090  53.7146707  65.5472239  14.9168355
  53.4231515  65.9102220  15.7531816  53.1018838  64.8339248  14.7381687
  54.9142389  63.1125119   7.4370925  55.7489280  63.5514923   7.6008485
  55.0501518  62.6363772   6.6179171  51.9633895  60.6704854  13.3848413
  52.4388016  60.8632500  12.5767264  51.0399460  60.7264040  13.1391796
  38.8517401  61.8329021   2.9679491  38.6063443  60.9291351   3.1659701
  39.0213316  61.8346172   2.0258969  46.5414111  52.7052698  12.3504247
  47.0596055  53.4413725  12.0250735  46.1869244  53.0116691  13.1851006
  38.1213049  57.5657379   0.4665653  37.4282294  57.6401734  -0.1894311
  37.8764801  56.8017722   0.9887169  46.7926705  49.1252980   7.8705143
  47.0728459  48.4576169   8.4965570  47.5777312  49.3182076   7.3579807
  44.5960174  68.3011974  -0.5669830  44.0234141  68.9202161  -1.0199359
  45.1692968  68.8511336  -0.0329908  50.6635564  57.5470614  11.6176718
  51.6152987  57.6468712  11.6388942  50.4939014  56.7548883  12.1274803
  48.6849943  54.6326197  11.8036119  48.0899875  54.9131210  11.1082608
  48.3999640  55.1220098  12.5752860  47.8157434  68.5849124   0.5638752
  48.7488107  68.5194686   0.7671627  47.7280647  69.4205391   0.1053285
  50.4445450  67.9014995  -2.4757301  50.3659082  67.5674858  -1.5821543
  51.2655117  68.3936762  -2.4765828  53.1423642  60.7676734  10.7319018
  53.1099962  59.8292735  10.9178702  53.7524265  60.8460771   9.9984843
  44.9806972  59.6372787  -3.2253778  45.9266077  59.5078995  -3.1565360
  44.6021217  58.8987449  -2.7484350  53.2918130  57.5587777  10.7777301
  52.7757179  56.7746234  10.5907230  54.1758079  57.2306494  10.9423821
  50.9528857  51.3028793   6.7373114  50.7553678  50.9943881   7.6216446
  51.5628563  52.0290432   6.8671044  58.9600191  61.8292741   9.8725055
  59.6903580  61.5678029  10.4332758  58.3507137  61.0921463   9.9127123
  57.0415489  59.9700603  10.4699506  56.3148652  59.8356568   9.8615998
  56.6262775  60.2777432  11.2756224  44.8645665  63.6890533  18.2346879
  45.7848674  63.8669132  18.4286926  44.8295248  62.7446578  18.0826578
  34.0827830  58.8829127   7.1600154  33.7630614  58.0294435   6.8674528
  33.5361258  59.0977705   7.9158121  37.8607738  61.5991568  10.8769660
  38.0793747  62.5308675  10.8957694  38.2733511  61.2399542  11.6624464
  44.7811955  52.1059653   2.8645349  43.9712684  51.7606738   3.2400595
  45.4696372  51.7967197   3.4532960  46.7102504  51.1837700   4.4869645
  47.2633542  51.6033153   5.1459668  46.9472590  50.2573448   4.5292601
  42.7335603  57.1724773  20.2672409  42.6332330  58.1219130  20.1984500
  42.5157145  56.8443012  19.3948479  33.9516090  62.5032038   9.1293275
  33.2579561  62.0885991   8.6163230  34.6989081  62.5452575   8.5326694
  50.0881311  53.2938225   3.9948310  49.5079980  53.9523029   3.6126362
  49.8217243  52.4715569   3.5835727  48.5384877  52.6943283   6.1969630
  49.0384655  52.8059817   5.3883949  49.1820485  52.3904335   6.8370438
  42.5966873  60.6021912  19.0837471  42.1133955  61.4022272  19.2901360
  42.6827812  60.6129857  18.1304915  35.8652832  62.4350292   7.0059290
  35.8423521  62.5337979   6.0541173  36.1753469  63.2815443   7.3276456
  38.5240210  64.4926447  11.1205905  39.4783464  64.4610389  11.0535836
  38.3252734  64.0317071  11.9356131  39.1139592  63.0627563  13.6876702
  39.9332481  63.5571642  13.7111540  39.3876400  62.1459531  13.6594270
  48.8706189  55.4538315   3.0504658  47.9832044  55.7387966   2.8324853
  49.2860178  55.2932079   2.2031935  52.2220725  55.4784836   6.7658997
  52.9981115  55.9681289   7.0383614  51.4968859  55.9042890   7.2230867
  54.6593283  56.1912455   7.8232938  55.2537774  55.9508191   7.1126246
  54.7319867  55.4719586   8.4506474  36.8790439  70.0346066   8.1376102
  36.7444907  69.2746467   7.5714101  36.4622501  70.7586966   7.6704891
  48.0149402  65.2182990  -2.8547322  48.7185252  65.4232992  -2.2389667
  47.2912051  65.7859752  -2.5898239  48.8447212  60.9692851   3.2654948
  48.7882414  61.4261403   2.4262580  49.3975555  60.2083536   3.0877791
  52.6552018  56.7582583   4.0905067  52.3988953  56.3579219   4.9213275
  52.0304886  57.4726377   3.9655207  56.9664356  59.4978656   6.5976359
  56.4063914  59.5671846   7.3707921  56.3607860  59.3219641   5.8775855
  40.0359565  70.9315383   8.3494545  39.9191949  71.8760816   8.2473235
  39.2152011  70.6288945   8.7380344  49.9236100  65.6565519  -0.8048862
  50.7581704  65.2246718  -0.9871387  49.7620442  65.4847533   0.1228032
  49.5781992  62.1597632   0.5607477  49.5230796  61.9941904  -0.3804079
  48.9528047  62.8673665   0.7169667  34.3674507  57.3965697  14.3868899
  35.0133370  56.8864651  14.8756124  34.1591658  58.1334378  14.9612325
  46.8927899  64.4646544  19.8861040  47.7619059  64.6387197  19.5247675
  46.4134650  65.2840961  19.7636769  42.8878117  51.6605741   0.1392796
  42.8756787  52.6047581   0.2961066  43.7801539  51.4775887  -0.1547743
  41.0614079  71.5843645  11.5650474  41.9641326  71.6167256  11.8816968
  40.8351449  70.6544096  11.5796809  42.8167681  70.3374632   8.2260552
  41.8663312  70.3376493   8.1124924  43.1200167  69.5907366   7.7096587
  46.7030237  48.2548518   4.3938732  45.9362632  47.7007005   4.5395415
  47.1140942  48.3270387   5.2552884  38.7071998  54.5433314  18.4843914
  39.5703459  54.1870119  18.6947238  38.1337408  54.2047209  19.1719318
  58.5520375  76.1735170   9.2906315  59.1898785  76.0541918   8.5869655
  58.4341218  77.1216014   9.3494267  55.3610081  76.1262598   9.2267839
  55.0228592  76.0103663   8.3388374  56.2299849  75.7253763   9.2068845
  51.2196897  77.9798075   5.2164730  50.6561762  77.8888012   4.4481018
  51.1049292  77.1597979   5.6967223  55.8429864  77.2797450  15.1854045
  55.8318505  76.8850248  14.3134548  56.0050503  76.5463523  15.7787816
  48.7661329  79.4749266   8.0548951  49.5582620  79.1340091   7.6395250
  49.0057979  79.5844241   8.9751104  56.7996455  81.6469042   0.5279195
  56.1484435  82.2323123   0.1413209  57.5940818  82.1775237   0.5874233
  50.7252083  78.7358180   0.9266329  51.4982959  78.1887167   0.7879205
  51.0777481  79.6002429   1.1380791  52.5637125  80.0634562  14.1333229
  52.2726991  80.9680193  14.0179895  53.1994109  80.1051089  14.8477298
  53.4893332  77.4411410  10.7234588  54.0856904  77.2167433  10.0091551
  53.5468303  76.6996156  11.3260036  53.0618360  74.8950846  -1.4415221
  53.3143881  74.3732367  -2.2031758  52.1242919  74.7316991  -1.3388537
  58.1061643  73.8986624   6.3659523  58.8924732  73.4806047   6.0149940
  58.3700347  74.8032716   6.5341171  58.2771721  79.3359474   1.0648179
  57.6417553  79.4094101   1.7769084  57.9469127  79.9253073   0.3867259
  63.5070070  73.8361857   7.2692501  64.2395242  73.2661074   7.5030331
  62.7509426  73.4483458   7.7099007  52.7814649  76.7978952   0.7609154
  52.6650907  76.1223855   1.4290239  52.8916909  76.3111326  -0.0558693
  55.1246190  76.2589099   4.4655844  54.7604397  75.7319720   5.1768765
  55.9813306  75.8687568   4.2922329  61.0295491  67.5483431  11.7287110
  60.6978815  68.4178842  11.5048325  60.4341104  67.2319715  12.4081140
  54.7651677  71.2878998  -0.5382808  54.9326079  72.1559235  -0.1712337
  54.5748846  71.4506280  -1.4621519  57.5227010  79.7495977  11.1283022
  57.2227733  80.6521016  11.0198830  57.1778070  79.4828161  11.9804175
  50.9739492  76.2009774   7.1619727  50.0489988  76.0685988   7.3697419
  51.2223905  76.9803993   7.6589669  60.9224154  72.2678518   8.8080460
  60.0141031  72.1993926   8.5139221  60.8711750  72.7450462   9.6362285
  54.7440898  73.7436656   0.4463859  54.6240523  74.1893707   1.2849339
  54.0493486  74.0921974  -0.1122603  48.3348303  75.8443048   7.9963516
  48.4640684  76.0977527   8.9102928  47.6545754  76.4370756   7.6768171
  52.5047790  86.5140298   4.0953990  52.4271820  87.4648123   4.1742471
  51.9009434  86.1686170   4.7528916  54.9965020  73.6868163  16.7515357
  54.2198354  74.2462083  16.7418222  55.6355583  74.1724946  17.2730227
  62.7885800  70.4694956  10.5858334  62.1460181  70.7627489   9.9398128
  62.2840729  70.3547876  11.3911530  60.4425964  74.2158129   1.2744193
  61.3543820  74.4485516   1.0991890  59.9335611  74.7995173   0.7119272
  53.2511392  76.4953616  16.3133324  53.9926076  77.0338660  16.0368148
  52.5448378  77.1219905  16.4704876  58.7266732  78.6382757  14.9105486
  59.1350088  78.1965167  14.1660118  58.0043993  78.0635384  15.1639678
  55.0797802  73.5755364  12.2839042  55.9258997  73.9994777  12.4273691
  55.0196439  72.9188988  12.9777606  59.0495546  79.1983948   8.6657774
  58.4204409  79.3629662   7.9633842  58.6621208  79.6125557   9.4368738
  62.9284778  80.1338385   6.0202138  62.2435816  80.5137287   5.4699171
  63.0128628  80.7433712   6.7534086  58.2297247  71.2359732  13.9420216
  57.9858179  71.9901793  13.4054492  58.5057178  71.6145080  14.7767463
  60.1835710  77.7798344  12.6197482  60.3952605  78.4230104  11.9431863
  60.1365458  76.9460661  12.1519412  57.7861939  70.3916165   9.5234054
  56.9246418  70.6897419   9.8150791  57.8124373  70.6086564   8.5915086
  54.6023508  78.9358356   5.9307860  55.0661854  79.2146059   5.1412482
  54.3380306  78.0341800   5.7480950  51.4947589  78.4829837   8.8687623
  52.0648946  78.9117106   8.2305107  52.0855701  78.2012422   9.5671808
  53.5392394  75.0581508   2.7397425  54.2416438  75.5102552   3.2071351
  53.2073023  74.4165327   3.3677318  51.9872756  73.6493265  17.1148634
  51.3571416  74.3309546  17.3484031  51.8808844  73.5376346  16.1701772
  47.2817728  73.3165061   8.0414558  46.4916782  73.5722589   7.5654669
  47.7728976  74.1313399   8.1466599  61.2981538  80.6570300  10.7919839
  62.1198982  80.2550487  10.5102521  61.2943941  80.5538534  11.7435955
  49.2332474  73.6809640   4.9998035  48.4363637  73.7928334   5.5181531
  49.0058066  74.0196292   4.1338925  55.0638141  80.2054343  12.9480550
  55.1282574  80.6674750  13.7838721  54.3549065  79.5751708  13.0762859
  45.5655431  73.5695551  10.4729549  45.8163470  74.4542561  10.7387125
  46.1014980  73.3900153   9.7004641  69.3887531  77.0009048   7.1404811
  68.6351239  76.4316446   6.9848815  69.5235072  76.9671713   8.0875445
  54.7786159  81.8722451   2.8159530  54.6431834  82.7173986   3.2444378
  55.3195971  82.0741728   2.0525464  51.2653499  67.9514031  19.4773885
  50.8720444  67.3980229  20.1521529  52.0819639  68.2624609  19.8680403
  48.2315556  79.3897889   3.3887455  48.7440077  80.1841139   3.5393020
  48.8838269  78.6924179   3.3221056  50.0410441  82.5063645   5.4710208
  50.2177069  83.4281610   5.2831192  50.8367274  82.1922064   5.9004588
  54.1821460  69.3671910  17.0694142  54.9231173  69.9679063  16.9898604
  54.4139382  68.6249547  16.5112184  49.3262798  74.5528277  15.3472371
  49.2116313  73.6513534  15.6479470  48.4707315  74.7991974  14.9957188
  56.4054635  82.4946017  16.9459872  55.9618489  81.7082396  16.6280776
  57.0671849  82.6825168  16.2803763  51.1641756  84.0241819  11.4720550
  51.7149182  83.8958882  10.6997544  50.3253232  84.3236708  11.1215443
  58.5035873  82.7748817  14.9741273  58.4854349  83.5957698  14.4821542
  59.4255793  82.6502892  15.1991414  54.9608927  80.2892947  15.8164782
  55.4937264  79.5281235  15.5864090  54.4323009  79.9966598  16.5588936
  58.1278622  65.3953013  11.3458423  57.7842892  66.2854654  11.2697534
  58.4957585  65.2054670  10.4828008  46.1964473  77.7186543   4.1647025
  47.0339695  78.1283551   3.9480733  46.3742741  76.7785985   4.1347219
  58.0928905  75.3861624  -0.1469142  57.5775529  76.1566228   0.0919246
  57.8206214  74.7126760   0.4763920  55.6776016  70.2311324   4.9116097
  54.8217613  69.8418175   4.7321736  56.0902968  70.3103285   4.0515882
  57.2075163  67.7657668   9.3107657  56.7039958  67.7287803   8.4975462
  57.5005770  68.6750410   9.3704313  53.4518049  67.8496397   8.3173838
  54.3171045  67.6539206   7.9579728  53.5195558  67.6206749   9.2443195
  63.0663179  78.1393978   1.7884032  62.2892622  77.8005138   1.3439194
  63.7454660  78.1446601   1.1138997  57.8815208  73.2588716   1.6790640
  57.5765344  73.5734865   2.5300783  58.8345650  73.3370136   1.7217973
  56.3261640  79.4178939   3.3283594  55.7983002  78.6831699   3.0156831
  55.8249143  80.1953615   3.0823562  61.3054486  77.6127960   8.4450640
  60.6478161  78.3027221   8.5330769  62.1094885  78.0024391   8.7884626
  51.0580368  70.0798605   5.6890205  51.6324120  69.8573787   4.9563398
  51.6451350  70.1487300   6.4418806  60.1159945  75.9672332   6.4954582
  60.6291827  76.6002324   6.9976291  60.7661169  75.3673528   6.1297942
  51.3849955  72.1103066  -0.2913910  50.5487267  72.4477753   0.0295365
  51.2454725  71.9752046  -1.2286773  53.3603036  66.9539854   4.4165275
  52.7067448  66.6388871   3.7921889  53.3183510  66.3315595   5.1425097
  54.4714240  77.2359149  -3.6681433  53.5641302  77.0048403  -3.4690284
  54.9685272  76.4396769  -3.4807452  56.5940776  73.4421788   8.7412922
  55.6763337  73.6636735   8.5834610  57.0100919  73.5168098   7.8824630
  57.3775824  74.8413203   3.8715602  58.1247643  75.3534601   3.5622724
  57.6467413  74.5197256   4.7319996  55.6502474  77.3371744   0.8542557
  54.7413693  77.0530777   0.9515026  55.6797558  77.7570823  -0.0054136
  60.8821741  80.9478334   4.6233724  60.4284068  80.1069244   4.6798915
  60.2515708  81.5839732   4.9608504  59.8254661  71.8770320   5.8534392
  59.0877418  71.3647706   6.1844634  60.0781434  71.4370701   5.0417669
  59.3254680  82.7854830   5.5583542  59.6177655  83.3459887   4.8395908
  59.8353301  83.0783391   6.3136702  59.9266288  64.6546572   6.4476161
  60.2325165  63.7943935   6.1602076  60.6518893  65.2464192   6.2475155
  46.2190644  75.0577258   4.8357759  46.0215044  74.4646619   4.1108825
  45.6637308  74.7529469   5.5533698  54.1987368  74.9500365   6.9552352
  54.2535978  73.9974201   6.8794829  53.3878570  75.1059804   7.4393650
  55.3478562  78.8780488  -1.8069365  54.9097992  78.1616347  -2.2663727
  56.0889002  79.1056603  -2.3684273  52.1379728  73.5677425   4.7142731
  51.3247593  73.8671595   5.1207923  52.6338722  73.1733113   5.4317213
  54.2888306  83.5635181   6.6476996  54.2464484  83.7896028   5.7185528
  55.2051005  83.3298556   6.7962797  57.7353939  74.0319249  13.5457625
  58.0903327  74.2590722  14.4052091  58.3826071  74.3637626  12.9234880
  63.4651676  77.1537685   4.2506954  63.3269575  77.3439281   3.3228143
  63.1087895  77.9157068   4.7075005  51.6293803  71.1395780  10.3303966
  52.2693182  70.9984539   9.6326929  50.7971333  70.8530293   9.9542568
  63.4921056  79.2214212   9.2618225  63.9257563  79.1289501  10.1101279
  64.2052637  79.1971712   8.6238241  52.4054106  80.4398210   6.4438958
  53.1994705  79.9448531   6.2421533  51.6945799  79.9116074   6.0806664
  57.2248951  82.8216306  10.7951326  57.2785973  83.3907242  11.5629042
  56.3563732  82.9918191  10.4305363  48.7136870  74.5841292   2.5198711
  47.7834458  74.5225748   2.7368673  48.8094342  74.0617245   1.7235352
  48.6322419  71.1096105   5.1076953  48.8929236  72.0241438   4.9986113
  49.4539591  70.6420548   5.2573566  50.1047344  72.5233862  12.2775777
  50.7770398  72.3151224  11.6288426  49.2777131  72.3255948  11.8381010
  64.3536606  79.2637913  11.7951111  64.5472496  80.1683723  12.0410386
  64.2537224  78.8045332  12.6289696  56.0072916  69.1495803  14.2941438
  55.3600831  69.8485753  14.2005915  56.7773932  69.5831947  14.6617686
  59.4151714  79.4144655  17.3691991  59.2637221  79.1855207  16.4522075
  59.4056394  80.3715257  17.3823336  56.1837051  76.9876568  12.3538258
  57.1129111  77.1387728  12.1807225  55.7628081  77.0760589  11.4986904
  54.9825382  81.0127232  10.1236795  54.8436468  80.6446017  10.9962734
  54.1939979  81.5274872   9.9520753  55.5773534  86.1136329   1.4662332
  55.7525290  85.6424372   2.2807955  54.8906322  86.7402095   1.6943593
  56.5330598  80.3908835   7.5125633  56.1980430  80.3509605   8.4083283
  56.0334543  79.7253551   7.0396043  50.5074842  75.7976465  13.0378214
  50.3694639  75.0656704  13.6389753  51.4179765  75.7085365  12.7562402
  59.4689789  77.7364870  -2.2137307  58.8518960  77.0111698  -2.3104254
  59.0006278  78.4974230  -2.5570233  53.1357142  75.5096425  12.5261894
  53.8456761  74.8689617  12.4848512  53.0926450  75.7609319  13.4488075
  61.1243921  82.4463778  15.4468473  61.0656467  81.7622998  14.7799056
  61.5263439  83.1882768  14.9949099  51.8486076  72.4961642  14.3457534
  51.3123433  72.0452381  14.9979130  51.2602785  72.6307551  13.6027998
  50.1434620  89.2625692   8.2402192  50.3831218  89.8944216   8.9181211
  49.3003816  88.9113732   8.5267551  51.2588335  71.9550294  -3.0916003
  50.3817801  71.8339095  -3.4553756  51.7346088  71.1636372  -3.3437114
  61.1261328  80.4103362  13.6782453  60.2388107  80.0729284  13.8008852
  61.6959879  79.6786393  13.9151218  42.7790475  76.7427454   7.0025504
  43.4661515  76.4289184   6.4146520  42.6238604  77.6468818   6.7292756
  47.5825197  71.6317650  11.4310528  47.4983386  71.0243320  10.6960938
  46.7607904  72.1226668  11.4320024  54.6562482  85.0704814  10.6443696
  54.5832653  85.8759786  11.1563001  54.2139875  85.2696780   9.8191718
  54.4452261  84.3076584   4.1546518  53.6619783  84.8498264   4.2484742
  55.1445006  84.8250564   4.5540759  57.7548911  70.1171214   6.7980723
  58.2517611  69.3641176   6.4781793  56.9835893  70.1535530   6.2323932
  65.6078669  75.8211579   8.4399015  65.5968545  76.7036295   8.0692948
  64.7396048  75.4683130   8.2453552  57.1161165  84.9691648  12.8001855
  57.8289137  85.6039113  12.7277756  56.6251194  85.0655514  11.9841857
  58.8378692  78.8742901   4.3719146  57.9034971  78.9944363   4.2023851
  59.0155360  77.9715368   4.1079156  54.3383880  72.2588597   6.5252408
  53.9681668  71.7059637   7.2133313  54.8342972  71.6546730   5.9727408
  62.2251243  74.7160220   4.9069181  62.6911696  75.5488212   4.8329483
  62.6758744  74.2505202   5.6114439  52.1673079  82.7186092  13.6207426
  52.8682538  83.3522575  13.7736820  51.6968194  83.0600823  12.8603065
  60.2927474  81.0604041   1.9055333  60.5687318  80.9460636   2.8149207
  59.4231973  80.6621526   1.8667506  60.1967906  67.0840807   8.9460082
  59.2830986  67.3145034   9.1142289  60.6261008  67.1679251   9.7974114
  59.9674365  75.2730699  11.4459976  59.3145815  75.5206607  10.7912429
  60.3454744  74.4594837  11.1122453  56.9281538  85.3090392   5.5488146
  57.1103933  84.4912048   6.0115899  57.7514524  85.5258085   5.1113036
  57.2623704  84.2358577   2.8103195  57.7911470  83.7251032   2.1973357
  57.5251924  83.9201108   3.6748728  56.0161938  76.0150510  17.9326013
  55.3402575  75.9144639  18.6028388  56.8389571  75.8589724  18.3962010
  47.7640797  82.2522447  10.5538528  48.3494233  81.5066135  10.6866432
  47.5665635  82.5626403  11.4375192  50.6179452  85.2873694   5.5700971
  49.9489827  85.7719822   5.0865011  50.4792322  85.5342915   6.4844349
  42.3558451  74.8228047   9.2742971  42.3942551  74.2891638  10.0680090
  41.8498744  74.2963252   8.6553949  54.7584720  87.3217438  12.1683629
  55.3103029  87.4849059  12.9332714  55.0990914  87.9121875  11.4963654
  49.7349214  69.6692587  12.7705514  49.7990540  70.5307418  12.3582911
  49.6716334  69.0566589  12.0377872  49.2101486  71.7415720  16.4178548
  49.8373525  71.3592797  17.0316072  48.3529405  71.5229922  16.7834240
  59.6095595  82.1478695  18.0232283  60.1535499  82.7608653  17.5287238
  59.0282440  82.7058274  18.5399296  45.9867029  73.5492149   2.3496903
  46.2820470  72.6402827   2.2963957  45.0855065  73.5279889   2.0277905
  57.8953108  85.2699413   9.1547311  57.7704247  84.4689153   8.6458257
  58.5532199  85.7645606   8.6661281  49.5161276  71.6248146   8.3324451
  48.7947862  72.2384113   8.1931925  50.3054532  72.1605910   8.2541097
  59.9588016  83.0708433  10.7826861  59.0118352  82.9513784  10.7105188
  60.3070789  82.1830931  10.8653123  52.3187590  68.9602572  14.6065103
  52.8421991  69.2064869  15.3691412  52.0999923  69.7922607  14.1868241
  47.7154871  71.2306247   2.4736228  47.3867577  70.3503626   2.2911334
  48.0694241  71.1753915   3.3612617  56.9634449  82.8661149   6.9831214
  56.8159412  81.9377857   7.1638784  57.7887943  82.8881240   6.4988289
  50.8296694  71.5179217   2.8411706  51.1692766  72.0465138   2.1190314
  51.2768814  71.8559623   3.6170272  60.5668571  83.6889708   8.0696086
  61.4915119  83.4832570   7.9320537  60.3983875  83.4406109   8.9785428
  53.5240135  69.9016267  12.2914774  53.1836955  69.1024080  12.6935454
  52.8179141  70.2017978  11.7191607  54.1756606  66.9865580  10.7442097
  54.9982676  66.5126058  10.6220987  54.4194670  67.7656063  11.2440783
  52.8164841  70.0153838   1.0404998  53.5373203  70.3935091   0.5368715
  52.1930145  70.7342715   1.1439976  56.9595964  70.7198987   1.9763331
  57.1759578  71.6023625   1.6752159  56.4790031  70.3285200   1.2468973
  51.6995185  73.6784700   8.5534075  51.5539766  73.9925003   9.4458357
  51.2220389  74.2969601   8.0004974  53.5591568  70.6687248   8.6014965
  53.5453137  69.7728342   8.2647263  54.2763996  70.6757912   9.2353251
  55.4117699  71.1024588  10.6468092  55.1535477  72.0241659  10.6452423
  54.8802739  70.7055023  11.3368556  60.3563887  84.2075376   3.4258178
  60.5300765  83.6421798   2.6732030  60.8492779  85.0076270   3.2437668
  46.1740847  76.2190045  11.4921737  45.6294315  76.9949853  11.6242011
  47.0520197  76.5660849  11.3340858  52.9628464  69.5501629   3.8702535
  53.0844375  68.6218275   4.0693423  52.6730506  69.5640315   2.9580850
  55.8319654  67.2356539   7.0069255  55.8541351  67.2995872   6.0521234
  56.2487713  66.3961048   7.2009761  66.2103279  76.9711799   5.0448477
  66.6534425  76.2219124   4.6467601  65.3329789  76.9621935   4.6622209
  61.3439060  83.5242140   0.5255076  62.0389965  84.1448833   0.7442391
  61.6862210  82.6737491   0.8007454  46.9606869  75.3459941  14.3851893
  46.2188605  75.4942576  14.9716524  46.6399613  75.6068207  13.5218643
  63.2430483  80.9741846   2.0542407  63.7681807  81.3129118   1.3291727
  63.1552836  80.0388861   1.8705541  54.9050532  84.8875919  14.1832283
  55.2137658  84.6425066  15.0554983  55.7026014  85.0922558  13.6951154
  54.9271144  87.0413829   6.4137660  54.4876134  86.5490208   7.1070517
  55.6779261  86.4986796   6.1729735  47.4063483  83.2325370   6.4162288
  48.2321503  82.9329142   6.0360932  47.0557535  82.4632992   6.8652077
  52.3745016  82.5851838   8.4859962  51.7525025  81.9222543   8.1862189
  53.0449883  82.6112970   7.8033609  45.6072088  81.1511696   7.3751222
  44.7703996  80.7233870   7.1935223  45.5795733  81.3444139   8.3122013
  52.4469543  71.0633626  18.0792468  52.4957699  71.9395749  17.6970237
  52.9892058  70.5211019  17.5064111  62.9324389  81.6074749  17.3593605
  62.1419933  81.5898888  16.8198104  62.6957744  82.1463043  18.1142641
  63.0522264  78.4567216  14.6726333  63.1020269  78.2917223  15.6141856
  62.9436188  77.5894475  14.2824214  51.9358523  81.1355761   1.9618422
  52.0846643  81.8191226   1.3085095  52.7424966  81.1160851   2.4767878
  60.3426027  74.4398144  15.9885640  61.2435889  74.3004608  15.6969638
  60.4174001  74.6052598  16.9283817  54.6768832  71.8164998  14.8338826
  53.8072141  72.1098564  14.5621415  54.9128312  72.4005443  15.5546090
  64.5540461  80.8764157  14.9168355  64.2625269  81.2394138  15.7531816
  63.9412592  80.1631165  14.7381687  65.7536143  78.4417037   7.4370925
  66.5883035  78.8806841   7.6008485  65.8895272  77.9655690   6.6179171
  62.8027649  75.9996772  13.3848413  63.2781771  76.1924418  12.5767264
  61.8793215  76.0555958  13.1391796  49.6911156  77.1620939   2.9679491
  49.4457198  76.2583269   3.1659701  49.8607070  77.1638089   2.0258969
  57.3807866  68.0344615  12.3504247  57.8989810  68.7705642  12.0250735
  57.0262999  68.3408609  13.1851006  48.9606803  72.8949296   0.4665653
  48.2676048  72.9693651  -0.1894311  48.7158555  72.1309640   0.9887169
  57.6320460  64.4544898   7.8705143  57.9122214  63.7868087   8.4965570
  58.4171067  64.6473993   7.3579807  55.4353928  83.6303892  -0.5669830
  54.8627896  84.2494079  -1.0199359  56.0086722  84.1803253  -0.0329908
  61.5029318  72.8762532  11.6176718  62.4546741  72.9760629  11.6388942
  61.3332769  72.0840800  12.1274803  59.5243698  69.9618115  11.8036119
  58.9293630  70.2423128  11.1082608  59.2393394  70.4512016  12.5752860
  58.6551188  83.9141042   0.5638752  59.5881861  83.8486604   0.7671627
  58.5674401  84.7497309   0.1053285  63.9817396  76.0968651  10.7319018
  63.9493716  75.1584652  10.9178702  64.5918020  76.1752688   9.9984843
  55.8200727  74.9664704  -3.2253778  56.7659832  74.8370913  -3.1565360
  55.4414972  74.2279366  -2.7484350  64.1311885  72.8879695  10.7777301
  63.6150933  72.1038152  10.5907230  65.0151833  72.5598412  10.9423821
  61.7922611  66.6320710   6.7373114  61.5947433  66.3235799   7.6216446
  62.4022317  67.3582349   6.8671044  69.7993946  77.1584658   9.8725055
  70.5297334  76.8969946  10.4332758  69.1900891  76.4213380   9.9127123
  67.8809243  75.2992521  10.4699506  67.1542407  75.1648486   9.8615998
  67.4656530  75.6069350  11.2756224  55.7039419  79.0182451  18.2346879
  56.6242429  79.1961050  18.4286926  55.6689002  78.0738496  18.0826578
  54.0043644  72.8914681  -3.2898893  53.0975099  72.5947794  -3.2136179
  54.2819625  72.5944499  -4.1564606  44.9221584  74.2121044   7.1600154
  44.6024369  73.3586352   6.8674528  44.3755013  74.4269622   7.9158121
  48.7001492  76.9283485  10.8769660  48.9187502  77.8600593  10.8957694
  49.1127266  76.5691460  11.6624464  55.6205710  67.4351571   2.8645349
  54.8106438  67.0898656   3.2400595  56.3090127  67.1259114   3.4532960
  57.5496258  66.5129617   4.4869645  58.1027297  66.9325071   5.1459668
  57.7866344  65.5865365   4.5292601  53.5729357  72.5016691  20.2672409
  53.4726084  73.4511048  20.1984500  53.3550899  72.1734930  19.3948479
  52.7742429  69.7501616  -3.1486913  53.6361593  70.0756514  -2.8891096
  52.9592773  68.9633112  -3.6613848  44.7909844  77.8323956   9.1293275
  44.0973316  77.4177909   8.6163230  45.5382835  77.8744492   8.5326694
  60.9275065  68.6230143   3.9948310  60.3473734  69.2814947   3.6126362
  60.6610998  67.8007487   3.5835727  59.3778632  68.0235200   6.1969630
  59.8778410  68.1351735   5.3883949  60.0214239  67.7196253   6.8370438
  53.4360627  75.9313830  19.0837471  52.9527709  76.7314190  19.2901360
  53.5221566  75.9421775  18.1304915  46.7046587  77.7642210   7.0059290
  46.6817275  77.8629897   6.0541173  47.0147223  78.6107360   7.3276456
  49.3633965  79.8218365  11.1205905  50.3177218  79.7902307  11.0535836
  49.1646488  79.3608988  11.9356131  49.9533347  78.3919481  13.6876702
  50.7726236  78.8863559  13.7111540  50.2270155  77.4751449  13.6594270
  59.7099943  70.7830233   3.0504658  58.8225798  71.0679884   2.8324853
  60.1253932  70.6223996   2.2031935  63.0614479  70.8076754   6.7658997
  63.8374869  71.2973206   7.0383614  62.3362613  71.2334808   7.2230867
  65.4987038  71.5204373   7.8232938  66.0931529  71.2800109   7.1126246
  65.5713622  70.8011504   8.4506474  47.7184194  85.3637984   8.1376102
  47.5838662  84.6038385   7.5714101  47.3016256  86.0878884   7.6704891
  59.6840967  76.2984769   3.2654948  59.6276168  76.7553320   2.4262580
  60.2369309  75.5375453   3.0877791  63.4945773  72.0874501   4.0905067
  63.2382707  71.6871136   4.9213275  62.8698641  72.8018295   3.9655207
  67.8058111  74.8270574   6.5976359  67.2457669  74.8963763   7.3707921
  67.2001614  74.6511559   5.8775855  50.8753320  86.2607301   8.3494545
  50.7585704  87.2052734   8.2473235  50.0545766  85.9580863   8.7380344
  60.7629854  80.9857437  -0.8048862  61.5975458  80.5538635  -0.9871387
  60.6014197  80.8139450   0.1228032  60.4175746  77.4889550   0.5607477
  60.3624550  77.3233822  -0.3804079  59.7921802  78.1965583   0.7169667
  45.2068261  72.7257614  14.3868899  45.8527125  72.2156568  14.8756124
  44.9985412  73.4626296  14.9612325  57.7321653  79.7938462  19.8861040
  58.6012813  79.9679114  19.5247675  57.2528405  80.6132879  19.7636769
  53.7271872  66.9897659   0.1392796  53.7150542  67.9339499   0.2961066
  54.6195294  66.8067805  -0.1547743  51.9007834  86.9135563  11.5650474
  52.8035080  86.9459173  11.8816968  51.6745204  85.9836014  11.5796809
  53.6561436  85.6666549   8.2260552  52.7057067  85.6668411   8.1124924
  53.9593922  84.9199284   7.7096587  57.5423991  63.5840436   4.3938732
  56.7756387  63.0298922   4.5395415  57.9534696  63.6562304   5.2552884
  49.5465752  69.8725232  18.4843914  50.4097214  69.5162036  18.6947238
  48.9731163  69.5339126  19.1719318  69.3914129  91.5027088   9.2906315
  70.0292539  91.3833835   8.5869655  69.2734972  92.4507932   9.3494267
  66.2003835  91.4554516   9.2267839  65.8622347  91.3395581   8.3388374
  67.0693604  91.0545681   9.2068845  66.6823618  92.6089368  15.1854045
  66.6712259  92.2142166  14.3134548  66.8444258  91.8755440  15.7787816
  59.6055083  94.8041184   8.0548951  60.3976375  94.4632009   7.6395250
  59.8451733  94.9136159   8.9751104  63.4030880  95.3926480  14.1333229
  63.1120746  96.2972110  14.0179895  64.0387864  95.4343007  14.8477298
  64.3287086  92.7703328  10.7234588  64.9250659  92.5459350  10.0091551
  64.3862058  92.0288074  11.3260036  71.8689245  82.8775349  11.7287110
  71.5372570  83.7470760  11.5048325  71.2734859  82.5611633  12.4081140
  68.3620765  95.0787895  11.1283022  68.0621488  95.9812934  11.0198830
  68.0171824  94.8120078  11.9804175  61.8133246  91.5301692   7.1619727
  60.8883743  91.3977906   7.3697419  62.0617659  92.3095911   7.6589669
  71.7617908  87.5970435   8.8080460  70.8534786  87.5285844   8.5139221
  71.7105504  88.0742380   9.6362285  59.1742057  91.1734965   7.9963516
  59.3034438  91.4269444   8.9102928  58.4939508  91.7662673   7.6768171
  65.8358774  89.0160081  16.7515357  65.0592108  89.5754001  16.7418222
  66.4749337  89.5016864  17.2730227  73.6279555  85.7986874  10.5858334
  72.9853935  86.0919407   9.9398128  73.1234483  85.6839794  11.3911530
  64.0905147  91.8245534  16.3133324  64.8319831  92.3630578  16.0368148
  63.3842132  92.4511823  16.4704876  69.5660486  93.9674675  14.9105486
  69.9743842  93.5257085  14.1660118  68.8437748  93.3927302  15.1639678
  65.9191556  88.9047281  12.2839042  66.7652751  89.3286695  12.4273691
  65.8590194  88.2480906  12.9777606  69.0691002  86.5651650  13.9420216
  68.8251933  87.3193710  13.4054492  69.3450932  86.9436997  14.7767463
  71.0229464  93.1090262  12.6197482  71.2346360  93.7522022  11.9431863
  70.9759213  92.2752579  12.1519412  68.6255693  85.7208083   9.5234054
  67.7640172  86.0189336   9.8150791  68.6518128  85.9378482   8.5915086
  62.3341344  93.8121755   8.8687623  62.9042701  94.2409023   8.2305107
  62.9249456  93.5304340   9.5671808  62.8266510  88.9785182  17.1148634
  62.1965171  89.6601463  17.3484031  62.7202598  88.8668264  16.1701772
  58.1211483  88.6456978   8.0414558  57.3310537  88.9014507   7.5654669
  58.6122730  89.4605316   8.1466599  60.0726228  89.0101558   4.9998035
  59.2757391  89.1220252   5.5181531  59.8451820  89.3488210   4.1338925
  65.9031896  95.5346261  12.9480550  65.9676328  95.9966668  13.7838721
  65.1942820  94.9043626  13.0762859  56.4049186  88.8987469  10.4729549
  56.6557224  89.7834479  10.7387125  56.9408734  88.7192070   9.7004641
  62.1047253  83.2805948  19.4773885  61.7114199  82.7272147  20.1521529
  62.9213393  83.5916527  19.8680403  65.0215214  84.6963827  17.0694142
  65.7624927  85.2970980  16.9898604  65.2533137  83.9541465  16.5112184
  60.1656552  89.8820195  15.3472371  60.0510067  88.9805452  15.6479470
  59.3101070  90.1283891  14.9957188  67.2448390  97.8237935  16.9459872
  66.8012244  97.0374313  16.6280776  67.9065603  98.0117085  16.2803763
  62.0035511  99.3533736  11.4720550  62.5542936  99.2250800  10.6997544
  61.1646987  99.6528625  11.1215443  69.3429628  98.1040735  14.9741273
  69.3248103  98.9249616  14.4821542  70.2649548  97.9794810  15.1991414
  65.8002682  95.6184864  15.8164782  66.3331019  94.8573152  15.5864090
  65.2716763  95.3258516  16.5588936  68.9672377  80.7244930  11.3458423
  68.6236646  81.6146572  11.2697534  69.3351340  80.5346588  10.4828008
  66.5169771  85.5603242   4.9116097  65.6611367  85.1710093   4.7321736
  66.9296722  85.6395203   4.0515882  68.0468917  83.0949585   9.3107657
  67.5433713  83.0579721   8.4975462  68.3399524  84.0042328   9.3704313
  64.2911803  83.1788315   8.3173838  65.1564800  82.9831124   7.9579728
  64.3589312  82.9498667   9.2443195  61.8974122  85.4090523   5.6890205
  62.4717874  85.1865705   4.9563398  62.4845105  85.4779218   6.4418806
  64.1996790  82.2831772   4.4165275  63.5461202  81.9680789   3.7921889
  64.1577264  81.6607512   5.1425097  67.4334530  88.7713705   8.7412922
  66.5157092  88.9928652   8.5834610  67.8494674  88.8460016   7.8824630
  70.7660043  79.9838489   6.4476161  71.0718919  79.1235853   6.1602076
  71.4912647  80.5756110   6.2475155  57.0584399  90.3869176   4.8357759
  56.8608798  89.7938537   4.1108825  56.5031063  90.0821386   5.5533698
  65.0381122  90.2792282   6.9552352  65.0929732  89.3266119   6.8794829
  64.2272324  90.4351722   7.4393650  62.9773482  88.8969342   4.7142731
  62.1641348  89.1963513   5.1207923  63.4732476  88.5025031   5.4317213
  68.5747694  89.3611167  13.5457625  68.9297082  89.5882640  14.4052091
  69.2219825  89.6929543  12.9234880  62.4687557  86.4687698  10.3303966
  63.1086936  86.3276457   9.6326929  61.6365088  86.1822211   9.9542568
  59.4716173  86.4388023   5.1076953  59.7322991  87.3533356   4.9986113
  60.2933346  85.9712465   5.2573566  60.9441099  87.8525780  12.2775777
  61.6164152  87.6443142  11.6288426  60.1170885  87.6547866  11.8381010
  66.8466671  84.4787721  14.2941438  66.1994586  85.1777670  14.2005915
  67.6167686  84.9123865  14.6617686  70.2545469  94.7436573  17.3691991
  70.1030975  94.5147125  16.4522075  70.2450148  95.7007174  17.3823336
  67.0230805  92.3168486  12.3538258  67.9522865  92.4679645  12.1807225
  66.6021835  92.4052507  11.4986904  65.8219137  96.3419150  10.1236795
  65.6830223  95.9737935  10.9962734  65.0333733  96.8566790   9.9520753
  61.3468596  91.1268383  13.0378214  61.2088394  90.3948622  13.6389753
  62.2573519  91.0377283  12.7562402  63.9750897  90.8388342  12.5261894
  64.6850515  90.1981534  12.4848512  63.9320205  91.0901237  13.4488075
  71.9637675  97.7755696  15.4468473  71.9050222  97.0914916  14.7799056
  72.3657194  98.5174686  14.9949099  62.6879831  87.8253560  14.3457534
  62.1517188  87.3744299  14.9979130  62.0996539  87.9599469  13.6027998
  71.9655083  95.7395279  13.6782453  71.0781861  95.4021201  13.8008852
  72.5353634  95.0078311  13.9151218  53.6184230  92.0719371   7.0025504
  54.3055270  91.7581101   6.4146520  53.4632358  92.9760736   6.7292756
  58.4218952  86.9609568  11.4310528  58.3377141  86.3535237  10.6960938
  57.6001658  87.4518586  11.4320024  68.5942666  85.4463131   6.7980723
  69.0911365  84.6933094   6.4781793  67.8229647  85.4827448   6.2323932
  65.1777635  87.5880514   6.5252408  64.8075422  87.0351555   7.2133313
  65.6736727  86.9838648   5.9727408  63.0066833  98.0478009  13.6207426
  63.7076293  98.6814492  13.7736820  62.5361948  98.3892741  12.8603065
  71.0361661  82.4132725   8.9460082  70.1224740  82.6436952   9.1142289
  71.4654762  82.4971169   9.7974114  70.8068119  90.6022617  11.4459976
  70.1539569  90.8498524  10.7912429  71.1848499  89.7886755  11.1122453
  66.8555692  91.3442428  17.9326013  66.1796329  91.2436557  18.6028388
  67.6783326  91.1881642  18.3962010  58.6034551  97.5814364  10.5538528
  59.1887988  96.8358052  10.6866432  58.4059390  97.8918321  11.4375192
  53.1952206  90.1519965   9.2742971  53.2336305  89.6183555  10.0680090
  52.6892499  89.6255170   8.6553949  60.5742968  84.9984505  12.7705514
  60.6384295  85.8599336  12.3582911  60.5110088  84.3858507  12.0377872
  60.0495241  87.0707638  16.4178548  60.6767280  86.6884715  17.0316072
  59.1923160  86.8521840  16.7834240  70.4489349  97.4770613  18.0232283
  70.9929253  98.0900571  17.5287238  69.8676194  98.0350191  18.5399296
  56.8260783  88.8784067   2.3496903  57.1214225  87.9694745   2.2963957
  55.9248819  88.8571806   2.0277905  60.3555030  86.9540063   8.3324451
  59.6341616  87.5676031   8.1931925  61.1448286  87.4897828   8.2541097
  63.1581344  84.2894490  14.6065103  63.6815746  84.5356786  15.3691412
  62.9393677  85.1214525  14.1868241  58.5548625  86.5598164   2.4736228
  58.2261331  85.6795543   2.2911334  58.9087996  86.5045833   3.3612617
  64.3633889  85.2308185  12.2914774  64.0230709  84.4315998  12.6935454
  63.6572895  85.5309896  11.7191607  65.0150361  82.3157497  10.7442097
  65.8376430  81.8417976  10.6220987  65.2588424  83.0947981  11.2440783
  62.5388940  89.0076618   8.5534075  62.3933520  89.3216921   9.4458357
  62.0614143  89.6261518   8.0004974  64.3985322  85.9979166   8.6014965
  64.3846891  85.1020259   8.2647263  65.1157751  86.0049830   9.2353251
  66.2511453  86.4316506  10.6468092  65.9929231  87.3533577  10.6452423
  65.7196494  86.0346941  11.3368556  57.0134602  91.5481962  11.4921737
  56.4688070  92.3241770  11.6242011  57.8913952  91.8952767  11.3340858
  63.8022218  84.8793546   3.8702535  63.9238130  83.9510192   4.0693423
  63.5124261  84.8932232   2.9580850  66.6713409  82.5648457   7.0069255
  66.6935106  82.6287790   6.0521234  67.0881468  81.7252965   7.2009761
  57.8000624  90.6751859  14.3851893  57.0582360  90.8234494  14.9716524
  57.4793368  90.9360124  13.5218643  65.7444286 100.2167837  14.1832283
  66.0531413  99.9716984  15.0554983  66.5419768 100.4214475  13.6951154
  56.4465842  96.4803614   7.3751222  55.6097751  96.0525788   7.1935223
  56.4189488  96.6736057   8.3122013  63.2863298  86.3925544  18.0792468
  63.3351453  87.2687666  17.6970237  63.8285812  85.8502937  17.5064111
  73.7718144  96.9366667  17.3593605  72.9813687  96.9190806  16.8198104
  73.5351498  97.4754961  18.1142641  73.8916019  93.7859133  14.6726333
  73.9414024  93.6209141  15.6141856  73.7829942  92.9186392  14.2824214
  71.1819781  89.7690061  15.9885640  72.0829644  89.6296526  15.6969638
  71.2567756  89.9344516  16.9283817  65.5162586  87.1456916  14.8338826
  64.6465896  87.4390482  14.5621415  65.7522067  87.7297361  15.5546090
  75.3934216  96.2056075  14.9168355  75.1019024  96.5686055  15.7531816
  74.7806347  95.4923083  14.7381687  73.6421404  91.3288689  13.3848413
  74.1175525  91.5216336  12.5767264  72.7186969  91.3847875  13.1391796
  68.2201620  83.3636533  12.3504247  68.7383564  84.0997560  12.0250735
  67.8656753  83.6700526  13.1851006  68.4714214  79.7836815   7.8705143
  68.7515968  79.1160005   8.4965570  69.2564821  79.9765911   7.3579807
  72.3423073  88.2054449  11.6176718  73.2940496  88.3052547  11.6388942
  72.1726523  87.4132718  12.1274803  70.3637452  85.2910033  11.8036119
  69.7687384  85.5715045  11.1082608  70.0787149  85.7803934  12.5752860
  74.9705639  88.2171613  10.7777301  74.4544688  87.4330069  10.5907230
  75.8545588  87.8890329  10.9423821  72.6316366  81.9612628   6.7373114
  72.4341187  81.6527716   7.6216446  73.2416072  82.6874267   6.8671044
  66.5433174  94.3474368  18.2346879  67.4636183  94.5252967  18.4286926
  66.5082757  93.4030414  18.0826578  55.7615339  89.5412962   7.1600154
  55.4418123  88.6878270   6.8674528  55.2148767  89.7561540   7.9158121
  59.5395246  92.2575403  10.8769660  59.7581256  93.1892511  10.8957694
  59.9521020  91.8983377  11.6624464  66.4599464  82.7643488   2.8645349
  65.6500193  82.4190573   3.2400595  67.1483881  82.4551032   3.4532960
  68.3890013  81.8421535   4.4869645  68.9421051  82.2616988   5.1459668
  68.6260099  80.9157283   4.5292601  64.4123112  87.8308609  20.2672409
  64.3119839  88.7802966  20.1984500  64.1944654  87.5026848  19.3948479
  55.6303599  93.1615873   9.1293275  54.9367070  92.7469826   8.6163230
  56.3776590  93.2036410   8.5326694  70.2172386  83.3527118   6.1969630
  70.7172164  83.4643652   5.3883949  70.8607994  83.0488171   6.8370438
  64.2754382  91.2605748  19.0837471  63.7921464  92.0606108  19.2901360
  64.3615321  91.2713692  18.1304915  57.5440341  93.0934127   7.0059290
  57.5211030  93.1921814   6.0541173  57.8540978  93.9399278   7.3276456
  60.2027719  95.1510282  11.1205905  61.1570973  95.1194225  11.0535836
  60.0040243  94.6900906  11.9356131  60.7927101  93.7211398  13.6876702
  61.6119990  94.2155477  13.7111540  61.0663909  92.8043366  13.6594270
  56.0462016  88.0549532  14.3868899  56.6920879  87.5448486  14.8756124
  55.8379167  88.7918214  14.9612325  68.5715408  95.1230380  19.8861040
  69.4406568  95.2971032  19.5247675  68.0922159  95.9424796  19.7636769
  62.7401588 102.2427481  11.5650474  63.6428835 102.2751091  11.8816968
  62.5138958 101.3127932  11.5796809  68.3817746  78.9132353   4.3938732
  67.6150141  78.3590840   4.5395415  68.7928451  78.9854222   5.2552884
  60.3859507  85.2017149  18.4843914  61.2490968  84.8453954  18.6947238
  59.8124917  84.8631044  19.1719318  72.9441007  98.6097866  19.4773885
  72.5507953  98.0564064  20.1521529  73.7607148  98.9208444  19.8680403
  75.8608968 100.0255745  17.0694142  76.6018682 100.6262898  16.9898604
  76.0926891  99.2833383  16.5112184  70.8888995 102.3999555  16.4178548
  71.5161034 102.0176633  17.0316072  70.0316914 102.1813757  16.7834240
  74.1257052 101.7217461  18.0792468  74.1745208 102.5979584  17.6970237
  74.6679567 101.1794854  17.5064111  75.2516866 103.1600526  20.2672409
  75.1513593 104.1094883  20.1984500  75.0338408 102.8318765  19.3948479
  66.8855770 103.3841450  14.3868899  67.5314634 102.8740404  14.8756124
  66.6772921 104.1210131  14.9612325  71.2253261 100.5309067  18.4843914
  72.0884723 100.1745872  18.6947238  70.6518672 100.1922962  19.1719318
  50.2850168  44.1233983   2.1713780  50.2262714  43.4393203   1.5044363
  50.6869686  44.8652973   1.7194406  48.7701842  43.8248900   4.7477590
  49.3141746  44.4378858   4.2532545  48.1888686  44.3828478   5.2644603
  52.0930636  43.2844954   4.0838911  51.3026180  43.2669093   3.5443411
  51.8563990  43.8233248   4.8387948  53.7146708  42.5534362   1.6413661
  53.4231516  42.9164343   2.4777122  53.1018839  41.8401370   1.4626994
  46.8927900  41.4708667   6.6106347  47.7619060  41.6449319   6.2492981
  46.4134652  42.2903084   6.4882076  58.5520376  53.1797293  -3.9848379
  59.1898786  53.0604040  -4.6885039  58.4341219  54.1278137  -3.9260427
  55.3610082  53.1324721  -4.0486854  55.0228594  53.0165786  -4.9366319
  56.2299850  52.7315886  -4.0685848  55.8429865  54.2859573   1.9099351
  55.8318506  53.8912371   1.0379855  56.0050505  53.5525645   2.5033123
  48.7661330  56.4811389  -5.2205743  49.5582622  56.1402214  -5.6359443
  49.0057980  56.5906364  -4.3003589  52.5637126  57.0696684   0.8578535
  52.2726992  57.9742315   0.7425202  53.1994111  57.1113212   1.5722605
  53.4893333  54.4473533  -2.5520105  54.0856905  54.2229555  -3.2663142
  53.5468305  53.7058278  -1.9494657  63.5070072  50.8423980  -6.0062192
  64.2395243  50.2723197  -5.7724363  62.7509427  50.4545580  -5.5655687
  61.0295492  44.5545554  -1.5467584  60.6978817  45.4240965  -1.7706369
  60.4341105  44.2381838  -0.8673553  57.5227011  56.7558100  -2.1471671
  57.2227735  57.6583139  -2.2555864  57.1778071  56.4890283  -1.2950518
  60.9224155  49.2740640  -4.4674234  60.0141033  49.2056049  -4.7615473
  60.8711751  49.7512585  -3.6392408  52.5047791  63.5202420  -9.1800703
  52.4271821  64.4710245  -9.1012223  51.9009435  63.1748293  -8.5225777
  54.9965021  50.6930286   3.4760664  54.2198355  51.2524206   3.4663528
  55.6355584  51.1787069   3.9975534  62.7885802  47.4757079  -2.6896360
  62.1460182  47.7689612  -3.3356565  62.2840730  47.3609999  -1.8843163
  53.2511393  53.5015739   3.0378631  53.9926078  54.0400783   2.7613454
  52.5448379  54.1282028   3.1950182  58.7266733  55.6444880   1.6350792
  59.1350089  55.2027290   0.8905425  58.0043994  55.0697507   1.8884985
  55.0797803  50.5817486  -0.9915651  55.9258998  51.0056900  -0.8481002
  55.0196441  49.9251111  -0.2977088  59.0495548  56.2046070  -4.6096919
  58.4204410  56.3691784  -5.3120851  58.6621210  56.6187680  -3.8385955
  62.9284779  57.1400508  -7.2552555  62.2435818  57.5199409  -7.8055522
  63.0128629  57.7495835  -6.5220607  58.2297248  48.2421855   0.6665523
  57.9858180  48.9963915   0.1299798  58.5057179  48.6207202   1.5012770
  60.1835711  54.7860467  -0.6557212  60.3952606  55.4292227  -1.3322831
  60.1365459  53.9522784  -1.1235282  51.4947591  55.4891960  -4.4067071
  52.0648948  55.9179228  -5.0449586  52.0855702  55.2074545  -3.7082885
  51.9872757  50.6555387   3.8393941  51.3571418  51.3371668   4.0729337
  51.8808845  50.5438469   2.8947079  61.2981539  57.6632422  -2.4834854
  62.1198983  57.2612610  -2.7652173  61.2943942  57.5600657  -1.5318739
  55.0638142  57.2116466  -0.3274144  55.1282575  57.6736873   0.5084028
  54.3549066  56.5813831  -0.1991834  69.3887532  54.0071171  -6.1349883
  68.6351240  53.4378569  -6.2905878  69.5235073  53.9733835  -5.1879248
  51.2653500  44.9576153   6.2019192  50.8720445  44.4042352   6.8766836
  52.0819640  45.2686732   6.5925709  50.0410442  59.5125768  -7.8044485
  50.2177071  60.4343732  -7.9923501  50.8367276  59.1984187  -7.3750105
  54.1821461  46.3734032   3.7939448  54.9231174  46.9741185   3.7143911
  54.4139384  45.6311670   3.2357491  49.3262799  51.5590399   2.0717678
  49.2116314  50.6575657   2.3724777  48.4707317  51.8054096   1.7202494
  56.4054637  59.5008140   3.6705179  55.9618491  58.7144518   3.3526083
  57.0671850  59.6887290   3.0049069  51.1641758  61.0303941  -1.8034143
  51.7149183  60.9021005  -2.5757149  50.3253234  61.3298830  -2.1539250
  58.5035875  59.7810940   1.6986580  58.4854350  60.6019821   1.2066849
  59.4255795  59.6565015   1.9236721  54.9608929  57.2955069   2.5410088
  55.4937266  56.5343357   2.3109396  54.4323010  57.0028721   3.2834243
  61.3054487  54.6190082  -4.8304053  60.6478162  55.3089344  -4.7423925
  62.1094887  55.0086514  -4.4870067  60.1159946  52.9734455  -6.7800112
  60.6291828  53.6064447  -6.2778402  60.7661170  52.3735650  -7.1456752
  56.5940777  50.4483910  -4.5341771  55.6763339  50.6698857  -4.6920083
  57.0100921  50.5230221  -5.3930064  60.8821742  57.9540456  -8.6520969
  60.4284070  57.1131366  -8.5955779  60.2515709  58.5901855  -8.3146189
  59.3254682  59.7916953  -7.7171151  59.6177656  60.3522010  -8.4358785
  59.8353302  60.0845514  -6.9617992  54.2888307  60.5697304  -6.6277698
  54.2464486  60.7958150  -7.5569166  55.2051006  60.3360679  -6.4791897
  57.7353941  51.0381372   0.2702931  58.0903328  51.2652845   1.1297397
  58.3826072  51.3699748  -0.3519813  63.4651678  54.1599807  -9.0247740
  63.3269576  54.3501403  -9.9526550  63.1087896  54.9219190  -8.5679688
  63.4921057  56.2276335  -4.0136468  63.9257564  56.1351624  -3.1653414
  64.2052638  56.2033835  -4.6516452  57.2248952  59.8278429  -2.4803367
  57.2785974  60.3969365  -1.7125651  56.3563734  59.9980314  -2.8449330
  50.1047346  49.5295985  -0.9978916  50.7770399  49.3213347  -1.6466267
  49.2777132  49.3318071  -1.4373684  64.3536607  56.2700035  -1.4803583
  64.5472497  57.1745846  -1.2344308  64.2537225  55.8107454  -0.6464998
  56.0072918  46.1557926   1.0186745  55.3600833  46.8547875   0.9251221
  56.7773933  46.5894070   1.3862993  59.4151715  56.4206778   4.0937298
  59.2637222  56.1917330   3.1767382  59.4056395  57.3777379   4.1068643
  56.1837052  53.9938691  -0.9216436  57.1129112  54.1449850  -1.0947468
  55.7628082  54.0822711  -1.7767789  54.9825384  58.0189355  -3.1517898
  54.8436469  57.6508139  -2.2791960  54.1939980  58.5336994  -3.3233940
  55.5773536  63.1198452 -11.8092361  55.7525291  62.6486495 -10.9946739
  54.8906324  63.7464218 -11.5811101  56.5330599  57.3970958  -5.7629060
  56.1980431  57.3571728  -4.8671410  56.0334545  56.7315674  -6.2358650
  50.5074843  52.8038588  -0.2376479  50.3694641  52.0718827   0.3635060
  51.4179766  52.7147488  -0.5192291  53.1357143  52.5158547  -0.7492799
  53.8456762  51.8751739  -0.7906181  53.0926452  52.7671442   0.1733381
  61.1243922  59.4525900   2.1713780  61.0656468  58.7685121   1.5044363
  61.5263441  60.1944890   1.7194406  51.8486077  49.5023765   1.0702840
  51.3123434  49.0514503   1.7224436  51.2602786  49.6369674   0.3273304
  50.1434621  66.2687814  -5.0352501  50.3831219  66.9006338  -4.3573483
  49.3003817  65.9175854  -4.7487142  61.1261329  57.4165484   0.4027760
  60.2388108  57.0791406   0.5254158  61.6959880  56.6848516   0.6396525
  54.6562483  62.0766937  -2.6310997  54.5832654  62.8821908  -2.1191693
  54.2139876  62.2758903  -3.4562976  54.4452262  61.3138707  -9.1208176
  53.6619784  61.8560387  -9.0269951  55.1445008  61.8312686  -8.7213935
  65.6078670  52.8273702  -4.8355679  65.5968546  53.7098417  -5.2061746
  64.7396049  52.4745253  -5.0301142  57.1161166  61.9753771  -0.4752839
  57.8289139  62.6101236  -0.5476937  56.6251195  62.0717637  -1.2912837
  52.1673080  59.7248214   0.3452732  52.8682539  60.3584697   0.4982126
  51.6968195  60.0662946  -0.4151628  59.9674366  52.2792822  -1.8294717
  59.3145816  52.5268729  -2.4842265  60.3454746  51.4656960  -2.1632240
  56.9281540  62.3152515  -7.7266547  57.1103934  61.4974171  -7.2638795
  57.7514526  62.5320207  -8.1641657  57.2623705  61.2420700 -10.4651499
  57.7911472  60.7313155 -11.0781337  57.5251925  60.9263230  -9.6005966
  56.0161939  53.0212633   4.6571320  55.3402576  52.9206762   5.3273695
  56.8389573  52.8651846   5.1207317  47.7640798  59.2584569  -2.7216165
  48.3494235  58.5128257  -2.5888261  47.5665636  59.5688526  -1.8379501
  50.6179453  62.2935817  -7.7053723  49.9489828  62.7781944  -8.1889683
  50.4792323  62.5405037  -6.7910344  54.7584722  64.3279560  -1.1071064
  55.3103030  64.4911182  -0.3421979  55.0990915  64.9183998  -1.7791039
  49.2101487  48.7477843   3.1423855  49.8373526  48.3654920   3.7561379
  48.3529406  48.5292044   3.5079547  59.6095596  59.1540818   4.7477590
  60.1535500  59.7670776   4.2532545  59.0282441  59.7120396   5.2644603
  57.8953109  62.2761536  -4.1207382  57.7704248  61.4751276  -4.6296437
  58.5532200  62.7707729  -4.6093412  59.9588017  60.0770556  -2.4927832
  59.0118353  59.9575907  -2.5649505  60.3070790  59.1893054  -2.4101571
  52.3187591  45.9664695   1.3310410  52.8421993  46.2126991   2.0936719
  52.0999924  46.7984730   0.9113547  56.9634451  59.8723272  -6.2923480
  56.8159413  58.9439979  -6.1115910  57.7887944  59.8943363  -6.7766405
  60.5668573  60.6951831  -5.2058607  61.4915120  60.4894692  -5.3434156
  60.3983876  60.4468232  -4.2969266  53.5240136  46.9078390  -0.9839920
  53.1836956  46.1086203  -0.5819240  52.8179142  47.2080101  -1.5563086
  55.4117700  48.1086711  -2.6286601  55.1535478  49.0303782  -2.6302271
  54.8802740  47.7117146  -1.9386137  60.3563889  61.2137498  -9.8496516
  60.5300766  60.6483921 -10.6022663  60.8492780  62.0138393 -10.0317026
  46.1740849  53.2252167  -1.7832957  45.6294317  54.0011975  -1.6512683
  47.0520198  53.5722972  -1.9413835  66.2103280  53.9773921  -8.2306216
  66.6534426  53.2281246  -8.6287093  65.3329790  53.9684058  -8.6132484
  61.3439061  60.5304263 -12.7499617  62.0389966  61.1510955 -12.5312303
  61.6862211  59.6799614 -12.4747239  46.9606870  52.3522064   1.1097200
  46.2188606  52.5004699   1.6961830  46.6399615  52.6130329   0.2463949
  63.2430484  57.9803968 -11.2212287  63.7681808  58.3191241 -11.9462967
  63.1552837  57.0450983 -11.4049152  54.9050533  61.8938042   0.9077590
  55.2137659  61.6487189   1.7800290  55.7026015  62.0984680   0.4196460
  54.9271145  64.0475951  -6.8617033  54.4876135  63.5552330  -6.1684177
  55.6779262  63.5048919  -7.1024958  47.4063484  60.2387492  -6.8592405
  48.2321504  59.9391264  -7.2393762  47.0557536  59.4695115  -6.4102617
  52.3745017  59.5913961  -4.7894732  51.7525027  58.9284666  -5.0892504
  53.0449884  59.6175092  -5.4721084  52.4469545  48.0695749   4.8037774
  52.4957700  48.9457871   4.4215544  52.9892059  47.5273142   4.2309417
  62.9324390  58.6136872   4.0838911  62.1419934  58.5961011   3.5443411
  62.6957745  59.1525165   4.8387948  63.0522265  55.4629338   1.3971640
  63.1020270  55.2979346   2.3387163  62.9436189  54.5956597   1.0069521
  60.3426028  51.4460266   2.7130947  61.2435891  51.3066731   2.4214944
  60.4174002  51.6114721   3.6529124  54.6768833  48.8227121   1.5584133
  53.8072143  49.1160687   1.2866721  54.9128314  49.4067566   2.2791397
  64.5540462  57.8826280   1.6413661  64.2625271  58.2456260   2.4777122
  63.9412594  57.1693288   1.4626994  65.7536145  55.4479159  -5.8383768
  66.5883036  55.8868964  -5.6746208  65.8895273  54.9717813  -6.6575523
  62.8027651  53.0058894   0.1093719  63.2781772  53.1986541  -0.6987429
  61.8793216  53.0618080  -0.1362897  57.3807867  45.0406738  -0.9250447
  57.8989811  45.7767765  -1.2503958  57.0263000  45.3470731  -0.0903688
  61.5029320  49.8824654  -1.6577975  62.4546742  49.9822752  -1.6365751
  61.3332770  49.0902923  -1.1479891  59.5243699  46.9680238  -1.4718574
  58.9293631  47.2485250  -2.1672085  59.2393396  47.4574139  -0.7001833
  63.9817397  53.1030774  -2.5435675  63.9493717  52.1646775  -2.3575992
  64.5918021  53.1814811  -3.2769850  64.1311886  49.8941818  -2.4977392
  63.6150934  49.1100274  -2.6847463  65.0151834  49.5660534  -2.3330873
  69.7993947  54.1646781  -3.4029639  70.5297336  53.9032069  -2.8421935
  69.1900893  53.4275503  -3.3627571  67.8809244  52.3054644  -2.8055187
  67.1542408  52.1710608  -3.4138696  67.4656531  52.6131472  -1.9998469
  55.7039421  56.0244573   4.9592186  56.6242430  56.2023172   5.1532232
  55.6689004  55.0800619   4.8071885  48.7001493  53.9345608  -2.3985033
  48.9187503  54.8662716  -2.3796999  49.1127267  53.5753582  -1.6130229
  53.5729359  49.5078814   6.9917716  53.4726085  50.4573171   6.9229807
  53.3550901  49.1797053   6.1193786  53.4360629  52.9375952   5.8082777
  52.9527710  53.7376313   6.0146666  53.5221568  52.9483897   4.8550221
  49.3633966  56.8280487  -2.1548789  50.3177220  56.7964429  -2.2218857
  49.1646490  56.3671111  -1.3398563  49.9533348  55.3981603   0.4122009
  50.7726237  55.8925682   0.4356846  50.2270156  54.4813571   0.3839576
  65.4987039  48.5266496  -5.4521756  66.0931530  48.2862232  -6.1628447
  65.5713623  47.8073626  -4.8248219  47.7184195  62.3700107  -5.1378591
  47.5838663  61.6100508  -5.7040593  47.3016257  63.0941006  -5.6049802
  67.8058112  51.8332697  -6.6778335  67.2457670  51.9025886  -5.9046772
  67.2001615  51.6573681  -7.3978838  50.8753321  63.2669424  -4.9260148
  50.7585705  64.2114856  -5.0281458  50.0545767  62.9642985  -4.5374349
  45.2068262  49.7319737   1.1114206  45.8527126  49.2218691   1.6001431
  44.9985414  50.4688419   1.6857631  57.7321655  56.8000585   6.6106347
  58.6012814  56.9741237   6.2492981  57.2528406  57.6195001   6.4882076
  51.9007835  63.9197686  -1.7104220  52.8035082  63.9521296  -1.3937725
  51.6745205  62.9898136  -1.6957884  53.6561437  62.6728672  -5.0494141
  52.7057068  62.6730534  -5.1629769  53.9593923  61.9261407  -5.5658107
  49.5465753  46.8787354   5.2089220  50.4097215  46.5224159   5.4192545
  48.9731164  46.5401249   5.8964624  69.3914130  68.5089210  -3.9848379
  70.0292540  68.3895958  -4.6885039  69.2734973  69.4570054  -3.9260427
  66.2003837  68.4616639  -4.0486854  65.8622348  68.3457703  -4.9366319
  67.0693605  68.0607804  -4.0685848  66.6823620  69.6151490   1.9099351
  66.6712260  69.2204289   1.0379855  66.8444259  68.8817563   2.5033123
  59.6055084  71.8103307  -5.2205743  60.3976376  71.4694131  -5.6359443
  59.8451734  71.9198282  -4.3003589  63.4030881  72.3988602   0.8578535
  63.1120747  73.3034233   0.7425202  64.0387865  72.4405130   1.5722605
  64.3287088  69.7765451  -2.5520105  64.9250660  69.5521473  -3.2663142
  64.3862059  69.0350196  -1.9494657  71.8689246  59.8837472  -1.5467584
  71.5372571  60.7532883  -1.7706369  71.2734860  59.5673756  -0.8673553
  68.3620766  72.0850018  -2.1471671  68.0621489  72.9875056  -2.2555864
  68.0171825  71.8182201  -1.2950518  61.8133247  68.5363814  -6.1134967
  60.8883744  68.4040029  -5.9057275  62.0617661  69.3158034  -5.6165024
  71.7617910  64.6032558  -4.4674234  70.8534787  64.5347966  -4.7615473
  71.7105505  65.0804503  -3.6392408  59.1742058  68.1797088  -5.2791177
  59.3034440  68.4331567  -4.3651766  58.4939510  68.7724796  -5.5986522
  65.8358775  66.0222203   3.4760664  65.0592110  66.5816124   3.4663528
  66.4749339  66.5078986   3.9975534  73.6279556  62.8048996  -2.6896360
  72.9853936  63.0981529  -3.3356565  73.1234485  62.6901917  -1.8843163
  64.0905148  68.8307657   3.0378631  64.8319832  69.3692701   2.7613454
  63.3842133  69.4573946   3.1950182  69.5660487  70.9736797   1.6350792
  69.9743843  70.5319208   0.8905425  68.8437749  70.3989425   1.8884985
  65.9191557  65.9109404  -0.9915651  66.7652753  66.3348818  -0.8481002
  65.8590195  65.2543028  -0.2977088  69.0691003  63.5713772   0.6665523
  68.8251935  64.3255833   0.1299798  69.3450933  63.9499120   1.5012770
  71.0229466  70.1152385  -0.6557212  71.2346361  70.7584145  -1.3322831
  70.9759214  69.2814701  -1.1235282  68.6255695  62.7270205  -3.7520640
  67.7640174  63.0251459  -3.4603902  68.6518129  62.9440604  -4.6839607
  62.3341345  70.8183877  -4.4067071  62.9042702  71.2471146  -5.0449586
  62.9249457  70.5366462  -3.7082885  62.8266512  65.9847305   3.8393941
  62.1965172  66.6663586   4.0729337  62.7202599  65.8730387   2.8947079
  58.1211484  65.6519101  -5.2340135  57.3310538  65.9076630  -5.7100025
  58.6122731  66.4667439  -5.1288095  60.0726229  66.0163680  -8.2756658
  59.2757393  66.1282374  -7.7573163  59.8451822  66.3550332  -9.1415768
  65.9031897  72.5408383  -0.3274144  65.9676329  73.0028791   0.5084028
  65.1942821  71.9105748  -0.1991834  56.4049187  65.9049591  -2.8025144
  56.6557225  66.7896601  -2.5367568  56.9408735  65.7254193  -3.5750053
  62.1047254  60.2868071   6.2019192  61.7114200  59.7334269   6.8766836
  62.9213395  60.5978649   6.5925709  65.0215215  61.7025950   3.7939448
  65.7624929  62.3033103   3.7143911  65.2533138  60.9603588   3.2357491
  60.1656553  66.8882317   2.0717678  60.0510068  65.9867574   2.3724777
  59.3101071  67.1346014   1.7202494  67.2448391  74.8300057   3.6705179
  66.8012245  74.0436436   3.3526083  67.9065605  75.0179208   3.0049069
  62.0035512  76.3595859  -1.8034143  62.5542937  76.2312922  -2.5757149
  61.1646988  76.6590748  -2.1539250  69.3429629  75.1102857   1.6986580
  69.3248104  75.9311738   1.2066849  70.2649549  74.9856933   1.9236721
  65.8002683  72.6246987   2.5410088  66.3331020  71.8635275   2.3109396
  65.2716764  72.3320639   3.2834243  68.9672378  57.7307053  -1.9296270
  68.6236648  58.6208694  -2.0057159  69.3351341  57.5408710  -2.7926685
  66.5169772  62.5665365  -8.3638597  65.6611368  62.1772215  -8.5432958
  66.9296724  62.6457326  -9.2238811  68.0468919  60.1011708  -3.9647037
  67.5433714  60.0641843  -4.7779232  68.3399525  61.0104451  -3.9050380
  64.2911804  60.1850438  -4.9580855  65.1564801  59.9893246  -5.3174966
  64.3589313  59.9560789  -4.0311498  61.8974124  62.4152646  -7.5864488
  62.4717875  62.1927827  -8.3191295  62.4845106  62.4841340  -6.8335887
  64.1996791  59.2893895  -8.8589419  63.5461204  58.9742912  -9.4832804
  64.1577265  58.6669635  -8.1329596  67.4334532  65.7775828  -4.5341771
  66.5157093  65.9990775  -4.6920083  67.8494675  65.8522139  -5.3930064
  70.7660044  56.9900612  -6.8278532  71.0718921  56.1297975  -7.1152617
  71.4912649  57.5818232  -7.0279538  57.0584400  67.3931299  -8.4396934
  56.8608800  66.8000659  -9.1645868  56.5031064  67.0883509  -7.7220996
  65.0381124  67.2854405  -6.3202341  65.0929733  66.3328241  -6.3959865
  64.2272326  67.4413844  -5.8361043  62.9773484  65.9031465  -8.5611962
  62.1641349  66.2025635  -8.1546770  63.4732478  65.5087154  -7.8437480
  68.5747695  66.3673289   0.2702931  68.9297083  66.5944762   1.1297397
  69.2219826  66.6991666  -0.3519813  62.4687558  63.4749820  -2.9450727
  63.1086938  63.3338579  -3.6427764  61.6365089  63.1884334  -3.3212125
  59.4716175  63.4450145  -8.1677741  59.7322992  64.3595479  -8.2768580
  60.2933347  62.9774588  -8.0181128  60.9441100  64.8587903  -0.9978916
  61.6164153  64.6505265  -1.6466267  60.1170887  64.6609988  -1.4373684
  66.8466672  61.4849843   1.0186745  66.1994587  62.1839793   0.9251221
  67.6167687  61.9185987   1.3862993  70.2545470  71.7498696   4.0937298
  70.1030976  71.5209247   3.1767382  70.2450149  72.7069297   4.1068643
  67.0230806  69.3230608  -0.9216436  67.9522866  69.4741768  -1.0947468
  66.6021836  69.4114629  -1.7767789  65.8219138  73.3481273  -3.1517898
  65.6830224  72.9800057  -2.2791960  65.0333734  73.8628912  -3.3233940
  61.3468597  68.1330505  -0.2376479  61.2088395  67.4010744   0.3635060
  62.2573521  68.0439406  -0.5192291  63.9750898  67.8450465  -0.7492799
  64.6850516  67.2043657  -0.7906181  63.9320206  68.0963360   0.1733381
  71.9637677  74.7817818   2.1713780  71.9050223  74.0977038   1.5044363
  72.3657195  75.5236808   1.7194406  62.6879832  64.8315683   1.0702840
  62.1517189  64.3806421   1.7224436  62.0996540  64.9661592   0.3273304
  71.9655084  72.7457402   0.4027760  71.0781863  72.4083324   0.5254158
  72.5353635  72.0140433   0.6396525  53.6184231  69.0781494  -6.2729189
  54.3055271  68.7643224  -6.8608174  53.4632360  69.9822858  -6.5461938
  58.4218953  63.9671690  -1.8444165  58.3377142  63.3597360  -2.5793755
  57.6001660  64.4580709  -1.8434669  68.5942667  62.4525254  -6.4773970
  69.0911367  61.6995216  -6.7972900  67.8229649  62.4889571  -7.0430761
  65.1777636  64.5942637  -6.7502286  64.8075423  64.0413677  -6.0621380
  65.6736728  63.9900770  -7.3027286  63.0066834  75.0540132   0.3452732
  63.7076294  75.6876615   0.4982126  62.5361949  75.3954863  -0.4151628
  71.0361662  59.4194847  -4.3294611  70.1224742  59.6499074  -4.1612405
  71.4654763  59.5033291  -3.4780579  70.8068120  67.6084739  -1.8294717
  70.1539571  67.8560647  -2.4842265  71.1848500  66.7948878  -2.1632240
  66.8555693  68.3504550   4.6571320  66.1796330  68.2498680   5.3273695
  67.6783327  68.1943764   5.1207317  58.6034552  74.5876487  -2.7216165
  59.1887989  73.8420175  -2.5888261  58.4059391  74.8980444  -1.8379501
  53.1952207  67.1582087  -4.0011722  53.2336307  66.6245678  -3.2074604
  52.6892500  66.6317293  -4.6200745  60.5742969  62.0046628  -0.5049180
  60.6384296  62.8661459  -0.9171782  60.5110090  61.3920629  -1.2376821
  60.0495242  64.0769760   3.1423855  60.6767281  63.6946838   3.7561379
  59.1923161  63.8583962   3.5079547  70.4489351  74.4832735   4.7477590
  70.9929255  75.0962694   4.2532545  69.8676195  75.0412314   5.2644603
  56.8260785  65.8846189 -10.9257791  57.1214226  64.9756868 -10.9790737
  55.9248820  65.8633929 -11.2476788  60.3555032  63.9602186  -4.9430242
  59.6341617  64.5738154  -5.0822769  61.1448287  64.4959951  -5.0213596
  63.1581345  61.2956612   1.3310410  63.6815747  61.5418909   2.0936719
  62.9393679  62.1276647   0.9113547  58.5548626  63.5660287 -10.8018465
  58.2261332  62.6857666 -10.9843359  58.9087997  63.5107956  -9.9142076
  64.3633890  62.2370308  -0.9839920  64.0230711  61.4378121  -0.5819240
  63.6572897  62.5372018  -1.5563086  65.0150362  59.3219620  -2.5312597
  65.8376431  58.8480098  -2.6533706  65.2588426  60.1010104  -2.0313910
  62.5388941  66.0138741  -4.7220618  62.3933522  66.3279044  -3.8296337
  62.0614145  66.6323641  -5.2749719  64.3985324  63.0041289  -4.6739728
  64.3846893  62.1082382  -5.0107431  65.1157752  63.0111952  -4.0401442
  66.2511454  63.4378629  -2.6286601  65.9929232  64.3595699  -2.6302271
  65.7196495  63.0409063  -1.9386137  57.0134603  68.5544085  -1.7832957
  56.4688071  69.3303893  -1.6512683  57.8913953  68.9014889  -1.9413835
  63.8022220  61.8855669  -9.4052158  63.9238131  60.9572315  -9.2061271
  63.5124262  61.8994355 -10.3173843  66.6713410  59.5710579  -6.2685438
  66.6935107  59.6349912  -7.2233459  67.0881469  58.7315088  -6.0744932
  57.8000625  67.6813981   1.1097200  57.0582361  67.8296617   1.6961830
  57.4793369  67.9422247   0.2463949  65.7444288  77.2229959   0.9077590
  66.0531414  76.9779106   1.7800290  66.5419770  77.4276598   0.4196460
  56.4465844  73.4865736  -5.9003472  55.6097752  73.0587911  -6.0819470
  56.4189489  73.6798180  -4.9632681  63.2863299  63.3987666   4.8037774
  63.3351455  64.2749789   4.4215544  63.8285813  62.8565059   4.2309417
  73.7718145  73.9428789   4.0838911  72.9813689  73.9252928   3.5443411
  73.5351499  74.4817083   4.8387948  73.8916020  70.7921256   1.3971640
  73.9414025  70.6271263   2.3387163  73.7829943  69.9248515   1.0069521
  71.1819782  66.7752184   2.7130947  72.0829645  66.6358649   2.4214944
  71.2567757  66.9406639   3.6529124  65.5162588  64.1519039   1.5584133
  64.6465897  64.4452605   1.2866721  65.7522068  64.7359484   2.2791397
  75.3934217  73.2118197   1.6413661  75.1019025  73.5748178   2.4777122
  74.7806348  72.4985206   1.4626994  73.6421405  68.3350812   0.1093719
  74.1175527  68.5278458  -0.6987429  72.7186970  68.3909998  -0.1362897
  68.2201622  60.3698656  -0.9250447  68.7383565  61.1059682  -1.2503958
  67.8656754  60.6762649  -0.0903688  68.4714216  56.7898938  -5.4049550
  68.7515969  56.1222127  -4.7789124  69.2564823  56.9828034  -5.9174886
  72.3423074  65.2116572  -1.6577975  73.2940497  65.3114670  -1.6365751
  72.1726524  64.4194841  -1.1479891  70.3637453  62.2972155  -1.4718574
  69.7687386  62.5777168  -2.1672085  70.0787150  62.7866056  -0.7001833
  74.9705640  65.2233735  -2.4977392  74.4544689  64.4392192  -2.6847463
  75.8545589  64.8952452  -2.3330873  72.6316367  58.9674751  -6.5381579
  72.4341188  58.6589839  -5.6538248  73.2416073  59.6936390  -6.4083650
  66.5433175  71.3536491   4.9592186  67.4636185  71.5315090   5.1532232
  66.5082758  70.4092536   4.8071885  55.7615340  66.5475085  -6.1154540
  55.4418125  65.6940393  -6.4080166  55.2148768  66.7623663  -5.3596572
  59.5395248  69.2637526  -2.3985033  59.7581258  70.1954633  -2.3796999
  59.9521022  68.9045500  -1.6130229  66.4599466  59.7705611 -10.4109345
  65.6500194  59.4252696 -10.0354099  67.1483882  59.4613155  -9.8221733
  68.3890014  58.8483658  -8.7885048  68.9421052  59.2679111  -8.1295025
  68.6260100  57.9219406  -8.7462092  64.4123113  64.8370731   6.9917716
  64.3119840  65.7865088   6.9229807  64.1944655  64.5088970   6.1193786
  55.6303600  70.1677996  -4.1461418  54.9367072  69.7531949  -4.6591464
  56.3776591  70.2098533  -4.7427999  70.2172387  60.3589241  -7.0785064
  70.7172166  60.4705775  -7.8870745  70.8607995  60.0550293  -6.4384255
  64.2754383  68.2667870   5.8082777  63.7921465  69.0668230   6.0146666
  64.3615322  68.2775815   4.8550221  57.5440343  70.0996250  -6.2695403
  57.5211031  70.1983937  -7.2213520  57.8540979  70.9461401  -5.9478237
  60.2027721  72.1572405  -2.1548789  61.1570974  72.1256347  -2.2218857
  60.0040244  71.6963029  -1.3398563  60.7927103  70.7273521   0.4122009
  61.6119992  71.2217600   0.4356846  61.0663910  69.8105489   0.3839576
  56.0462017  65.0611655   1.1114206  56.6920881  64.5510609   1.6001431
  55.8379168  65.7980336   1.6857631  68.5715409  72.1292502   6.6106347
  69.4406569  72.3033155   6.2492981  68.0922161  72.9486919   6.4882076
  62.7401589  79.2489603  -1.7104220  63.6428836  79.2813213  -1.3937725
  62.5138959  78.3190054  -1.6957884  68.3817747  55.9194476  -8.8815961
  67.6150143  55.3652963  -8.7359279  68.7928452  55.9916345  -8.0201809
  60.3859508  62.2079272   5.2089220  61.2490970  61.8516077   5.4192545
  59.8124919  61.8693167   5.8964624  72.9441009  75.6159988   6.2019192
  72.5507954  75.0626187   6.8766836  73.7607149  75.9270567   6.5925709
  75.8608970  77.0317868   3.7939448  76.6018683  77.6325021   3.7143911
  76.0926893  76.2895505   3.2357491  70.8888996  79.4061678   3.1423855
  71.5161035  79.0238755   3.7561379  70.0316915  79.1875880   3.5079547
  74.1257054  78.7279584   4.8037774  74.1745209  79.6041707   4.4215544
  74.6679568  78.1856977   4.2309417  75.2516868  80.1662649   6.9917716
  75.1513594  81.1157006   6.9229807  75.0338410  79.8380888   6.1193786
  66.8855771  80.3903572   1.1114206  67.5314635  79.8802526   1.6001431
  66.6772923  81.1272254   1.6857631  71.2253262  77.5371189   5.2089220
  72.0884724  77.1807994   5.4192545  70.6518673  77.1985084   5.8964624
  71.9637678  51.7879941 -11.1040913  71.9050224  51.1039161 -11.7710330
  72.3657196  52.5298931 -11.5560287  70.4489352  51.4894858  -8.5277103
  70.9929256  52.1024816  -9.0222148  69.8676197  52.0474436  -8.0110090
  73.7718146  50.9490912  -9.1915782  72.9813690  50.9315051  -9.7311283
  73.5351501  51.4879206  -8.4366745  75.3934218  50.2180320 -11.6341032
  75.1019026  50.5810300 -10.7977571  74.7806349  49.5047328 -11.8127700
  68.5715410  49.1354625  -6.6648347  69.4406570  49.3095277  -7.0261712
  68.0922162  49.9549042  -6.7872617  72.9441010  52.6222111  -7.0735502
  72.5507956  52.0688310  -6.3987857  73.7607150  52.9332690  -6.6828984
  75.8608971  54.0379990  -9.4815245  76.6018684  54.6387143  -9.5610783
  76.0926894  53.2957628 -10.0397203  70.8888998  56.4123800 -10.1330839
  71.5161037  56.0300878  -9.5193314  70.0316917  56.1938002  -9.7675146
  74.1257055  55.7341706  -8.4716919  74.1745210  56.6103829  -8.8539149
  74.6679569  55.1919100  -9.0445276  75.2516869  57.1724772  -6.2836978
  75.1513596  58.1219129  -6.3524886  75.0338411  56.8443010  -7.1560907
  66.8855773  57.3965695 -12.1640487  67.5314636  56.8864649 -11.6753262
  66.6772924  58.1334377 -11.5897062  71.2253264  54.5433312  -8.0665473
  72.0884725  54.1870117  -7.8562149  70.6518674  54.2047207  -7.3790069
   4.3525000  99.9946928  46.9668888   3.5988709  99.4254326  46.8112892
   4.4872541  99.9609592  47.9139522   0.7173613 101.4354916  47.2635002
   1.5520504 101.8744720  47.4272562   0.8532741 100.9593569  46.4443248
   4.7631415 100.1522538  49.6989132   5.4934804  99.8907826  50.2596835
   4.1538361  99.4151259  49.7391200   2.8446712  98.2930400  50.2963583
   2.1179876  98.1586365  49.6880075   2.4293999  98.6007229  51.1020301
   0.4624507  94.5142252  47.6497015   1.0568998  94.2737988  46.9390323
   0.5351091  93.7949383  48.2770551   2.7695580  97.8208453  46.4240436
   2.2095138  97.8901642  47.1971998   2.1639083  97.6449438  45.7039932
   3.9309846 103.7182809  51.1722500   3.5874116 104.6084451  51.0961611
   4.2988809 103.5284467  50.3092085   5.7297512 102.9776369  46.2740238
   6.0356389 102.1173732  45.9866153   6.4550117 103.5693989  46.0739232
   3.4351684 102.7774695  47.6969220   3.7153437 102.1097884  48.3229647
   4.2202291 102.9703790  47.1843884   7.5953835 104.9550507  46.5637191
   7.3978656 104.6465596  47.4480523   8.2053541 105.6812146  46.6935121
   3.3455215 101.9070233  44.2202809   2.5787611 101.3528719  44.3659492
   3.7565920 101.9792101  45.0816961   4.3525001  77.0009050  33.6914194
   3.5988710  76.4316448  33.5358199   4.4872543  76.9671715  34.6384829
   0.7173614  78.4417039  33.9880309   1.5520505  78.8806843  34.1517869
   0.8532743  77.9655692  33.1688554   4.7631416  77.1584660  36.4234438
   5.4934805  76.8969948  36.9842142   4.1538362  76.4213382  36.4636506
   2.8446714  75.2992523  37.0208890   2.1179877  75.1648488  36.4125381
   2.4294000  75.6069351  37.8265608   0.4624508  71.5204375  34.3742321
   1.0568999  71.2800111  33.6635630   0.5351092  70.8011505  35.0015858
   2.7695581  74.8270576  33.1485742   2.2095139  74.8963765  33.9217305
   2.1639085  74.6511560  32.4285239   4.3551600  91.5027090  35.8415698
   4.9930010  91.3833837  35.1379038   4.2372443  92.4507934  35.9003650
   1.1641306  91.4554518  35.7777223   0.8259818  91.3395582  34.8897758
   2.0331074  91.0545683  35.7578229   1.6461089  92.6089369  41.7363428
   1.6349730  92.2142168  40.8643932   1.8081728  91.8755442  42.3297200
   3.9092868  89.2278544  32.9168906   4.6955957  88.8097967  32.5659323
   4.1731573  90.1324636  33.0850555   9.3101295  89.1653777  33.8201885
  10.0426467  88.5952994  34.0539714   8.5540651  88.7775377  34.2608390
   0.9277415  91.5881018  31.0165227   0.5635622  91.0611639  31.7278149
   1.7844531  91.1979487  30.8431713   6.8326716  82.8775351  38.2796493
   6.5010040  83.7470762  38.0557708   6.2372329  82.5611635  38.9590524
   3.3258235  95.0787897  37.6792406   3.0258958  95.9812936  37.5708213
   2.9809295  94.8120080  38.5313559   6.7255379  87.5970437  35.3589843
   5.8172256  87.5285845  35.0648604   6.6742975  88.0742382  36.1871669
   8.5917025  85.7986875  37.1367717   7.9491406  86.0919409  36.4907512
   8.0871954  85.6839796  37.9420914   6.2457189  89.5450049  27.8253577
   7.1575045  89.7777435  27.6501274   5.7366836  90.1287093  27.2628655
   4.5297957  93.9674676  41.4614869   4.9381313  93.5257087  40.7169502
   3.8075218  93.3927304  41.7149062   0.8829027  88.9047283  38.8348426
   1.7290222  89.3286697  38.9783075   0.8227664  88.2480907  39.5286989
   4.8526771  94.5275867  35.2167158   4.2235634  94.6921581  34.5143226
   4.4652433  94.9417477  35.9878122   8.7316003  95.4630305  32.5711522
   8.0467041  95.8429206  32.0208555   8.8159853  96.0725632  33.3043470
   4.0328472  86.5651652  40.4929600   3.7889404  87.3193712  39.9563875
   4.3088403  86.9436999  41.3276847   5.9866935  93.1090264  39.1706865
   6.1983830  93.7522024  38.4941246   5.9396683  92.2752580  38.7028795
   3.5893164  85.7208085  36.0743437   2.7277643  86.0189338  36.3660175
   3.6155598  85.9378483  35.1424470   7.1012763  95.9862219  37.3429223
   7.9230207  95.5842407  37.0611904   7.0975166  95.8830453  38.2945338
  15.1918756  92.3300968  33.6914194  14.4382464  91.7608366  33.5358199
  15.3266297  92.2963632  34.6384829   2.2085860  97.8237937  43.4969256
   1.7649714  97.0374315  43.1790160   2.8703074  98.0117087  42.8313146
   4.3067098  98.1040737  41.5250657   4.2885574  98.9249618  41.0330926
   5.2287018  97.9794812  41.7500798   3.9309847  80.7244932  37.8967807
   3.5874117  81.6146574  37.8206918   4.2988810  80.5346590  37.0337392
   1.4807241  85.5603244  31.4625480   0.6248838  85.1710094  31.2831119
   1.8934193  85.6395205  30.6025266   3.0106388  83.0949587  35.8617040
   2.5071183  83.0579722  35.0484845   3.3036995  84.0042330  35.9213697
   8.8694404  93.4685898  28.3393416   8.0923847  93.1297057  27.8948578
   9.5485885  93.4738521  27.6648381   3.6846433  88.5880635  28.2300023
   3.3796569  88.9026784  29.0810166   4.6376876  88.6662055  28.2727356
   7.1085711  92.9419879  34.9960024   6.4509386  93.6319140  35.0840152
   7.9126110  93.3316311  35.3394010   5.9191170  91.2964252  33.0463965
   6.4323052  91.9294244  33.5485675   6.5692394  90.6965447  32.6807325
   2.3972001  88.7713707  35.2922306   1.4794562  88.9928654  35.1343994
   2.8132145  88.8460018  34.4334013   3.1807049  90.1705123  30.4224986
   3.9278868  90.6826520  30.1132108   3.4498638  89.8489176  31.2829380
   6.6852966  96.2770253  31.1743108   6.2315293  95.4361163  31.2308298
   6.0546933  96.9131652  31.5117888   5.6285886  87.2062239  32.4043775
   4.8908643  86.6939625  32.7354018   5.8812659  86.7662621  31.5927052
   5.1285905  98.1146750  32.1092926   5.4208880  98.6751807  31.3905292
   5.6384526  98.4075311  32.8646085   5.7297513  79.9838491  32.9985545
   6.0356390  79.1235855  32.7111460   6.4550118  80.5756111  32.7984539
   3.5385164  89.3611168  40.0967008   3.8934552  89.5882642  40.9561474
   4.1857296  89.6929545  39.4744264   9.2682901  92.4829604  30.8016337
   9.1300800  92.6731200  29.8737527   8.9119120  93.2448987  31.2584389
   9.2952281  94.5506131  35.8127609   9.7288788  94.4581420  36.6610663
  10.0083862  94.5263632  35.1747625   3.0280176  98.1508225  37.3460710
   3.0817198  98.7199162  38.1138426   2.1594957  98.3210111  36.9814747
  10.1567831  94.5929832  38.3460494  10.3503721  95.4975643  38.5919769
  10.0568449  94.1337251  39.1799079   1.8104141  84.4787723  40.8450822
   1.1632056  85.1777672  40.7515298   2.5805157  84.9123867  41.2127070
   5.2182939  94.7436575  43.9201375   5.0668446  94.5147126  43.0031459
   5.2087619  95.7007176  43.9332720   1.9868276  92.3168488  38.9047641
   2.9160336  92.4679647  38.7316609   1.5659306  92.4052508  38.0496288
   2.3361823  95.7200755  34.0635017   2.0011655  95.6801525  34.9592667
   1.8365768  95.0545471  33.5905427   6.9275146  97.7755697  41.9977857
   6.8687692  97.0914917  41.3308440   7.3294664  98.5174687  41.5458483
   6.9292553  95.7395281  40.2291837   6.0419332  95.4021203  40.3518235
   7.4991104  95.0078312  40.4660602   3.5580136  85.4463133  33.3490107
   4.0548836  84.6933095  33.0291177   2.7867118  85.4827450  32.7833316
  11.4109894  91.1503499  34.9908398  11.3999770  92.0328214  34.6202331
  10.5427273  90.7975049  34.7962935   2.9192390 100.2983568  39.3511238
   3.6320362 100.9331032  39.2787140   2.4282419 100.3947434  38.5351240
   4.6409917  94.2034820  30.9228530   3.7066196  94.3236283  30.7533234
   4.8186585  93.3007287  30.6588540   8.0282468  90.0452140  31.4578564
   8.4942921  90.8780131  31.3838867   8.4789969  89.5797121  32.1623823
   6.0958699  96.3895961  28.4564716   6.3718543  96.2752555  29.3658590
   5.2263198  95.9913446  28.4176889   5.9999131  82.4132727  35.4969466
   5.0862211  82.6436953  35.6651673   6.4292233  82.4971171  36.3483498
   5.7705590  90.6022619  37.9969360   5.1177040  90.8498526  37.3421812
   6.1485969  89.7886757  37.6631837   1.8193163  91.3442430  44.4835397
   1.1433800  91.2436559  45.1537772   2.6420797  91.1881643  44.9471394
   0.5615946 102.6509357  38.7193013   1.1134254 102.8140979  39.4842098
   0.9022139 103.2413795  38.0473038   5.4126820  97.4770615  44.5741667
   5.9566724  98.0900573  44.0796622   4.8313665  98.0350193  45.0908680
   3.6984333 100.5991333  35.7056695   3.5735472  99.7981072  35.1967640
   4.3563424 101.0937526  35.2170665   5.7619241  98.4000353  37.3336245
   4.8149577  98.2805704  37.2614572   6.1102014  97.5122851  37.4162506
   2.7665674  98.1953069  33.5340597   2.6190637  97.2669776  33.7148167
   3.5919168  98.2173160  33.0497672   6.3699796  99.0181628  34.6205470
   7.2946344  98.8124489  34.4829921   6.2015100  98.7698029  35.5294811
   2.7627189  86.0490907  28.5272714   2.9790803  86.9315544  28.2261543
   2.2821256  85.6577120  27.7978356   1.2148924  86.4316508  37.1977476
   0.9566702  87.3533579  37.1961806   0.6833964  86.0346942  37.8877940
   6.1595113  99.5367295  29.9767561   6.3331990  98.9713718  29.2241414
   6.6524004 100.3368190  29.7947051   1.6350879  82.5648458  33.5578639
   1.6572576  82.6287792  32.6030618   2.0518938  81.7252967  33.7519145
  12.0134504  92.3003718  31.5957861  12.4565650  91.5511043  31.1976984
  11.1361014  92.2913854  31.2131593   9.0461708  96.3033765  28.6051790
   9.5713032  96.6421038  27.8801110   8.9584061  95.3680780  28.4214925
   0.7081757 100.2167839  40.7341667   1.0168883  99.9716985  41.6064367
   1.5057239 100.4214477  40.2460537   8.7355614  96.9366669  43.9102988
   7.9451158  96.9190807  43.3707488   8.4988969  97.4754962  44.6652025
   8.8553489  93.7859135  41.2235717   8.9051494  93.6209142  42.1651240
   8.7467413  92.9186394  40.8333598   6.1457252  89.7690063  42.5395024
   7.0467114  89.6296528  42.2479021   6.2205226  89.9344518  43.4793201
  10.3571686  96.2056077  41.4677738  10.0656494  96.5686057  42.3041199
   9.7443817  95.4923085  41.2891071  11.5567368  93.7708956  33.9880309
  12.3914260  94.2098760  34.1517869  11.6926497  93.2947610  33.1688554
   8.6058874  91.3288691  39.9357796   9.0812996  91.5216337  39.1276648
   7.6824440  91.3847877  39.6901180   3.1839091  83.3636535  38.9013630
   3.7021035  84.0997562  38.5760119   2.8294224  83.6700528  39.7360389
   3.4351685  79.7836817  34.4214527   3.7153439  79.1160006  35.0474953
   4.2202292  79.9765913  33.9089191   7.3060543  88.2054451  38.1686102
   8.2577966  88.3052549  38.1898326   7.1363994  87.4132720  38.6784186
   5.3274923  85.2910034  38.3545503   4.7324855  85.5715047  37.6591992
   5.0424619  85.7803935  39.1262244   9.7848621  91.4260571  37.2828402
   9.7524941  90.4876572  37.4688086  10.3949245  91.5044608  36.5494227
   9.9343110  88.2171614  37.3286685   9.4182158  87.4330071  37.1416614
  10.8183058  87.8890331  37.4933204   7.5953836  81.9612630  33.2882498
   7.3978658  81.6527718  34.1725830   8.2053542  82.6874269  33.4180427
  15.6025171  92.4876578  36.4234438  16.3328559  92.2261866  36.9842142
  14.9932116  91.7505300  36.4636506  13.6840468  90.6284440  37.0208890
  12.9573632  90.4940405  36.4125381  13.2687755  90.9361269  37.8265608
   1.5070644  94.3474370  44.7856263   2.4273654  94.5252969  44.9796309
   1.4720228  93.4030415  44.6335962   1.4236935  82.7643490  29.4154732
   0.6137663  82.4190575  29.7909978   2.1121352  82.4551034  30.0042344
   3.3527483  81.8421537  31.0379029   3.9058522  82.2616990  31.6969052
   3.5897569  80.9157285  31.0801985   6.7306290  83.9522062  30.5457693
   6.1504959  84.6106866  30.1635746   6.4642223  83.1299407  30.1345111
   5.1809857  83.3527120  32.7479013   5.6809635  83.4643654  31.9393332
   5.8245465  83.0488173  33.3879822   5.5131168  86.1122152  29.6014041
   4.6257023  86.3971803  29.3834236   5.9285157  85.9515916  28.7541318
   8.8645704  86.1368673  33.3168381   9.6406094  86.6265126  33.5892997
   8.1393839  86.5626728  33.7740250  11.3018263  86.8496293  34.3742321
  11.8962754  86.6092029  33.6635630  11.3744847  86.1303423  35.0015858
   5.4872192  91.6276688  29.8164332   5.4307393  92.0845240  28.9771964
   6.0400534  90.8667373  29.6387174   9.2976998  87.4166420  30.6414451
   9.0413932  87.0163056  31.4722659   8.6729866  88.1310214  30.5164590
  13.6089336  90.1562493  33.1485742  13.0488894  90.2255683  33.9217305
  13.0032839  89.9803478  32.4285239   6.2206971  92.8181470  27.1116861
   6.1655775  92.6525741  26.1705305   5.5953027  93.5257502  27.2679050
   3.5352878  95.1230381  46.4370424   4.4044038  95.2971034  46.0757058
   3.0559630  95.9424798  46.3146153   3.3455216  78.9132355  30.9448116
   2.5787612  78.3590842  31.0904798   3.7565921  78.9854224  31.8062268
  15.1945354 106.8319007  35.8415698  15.8323764 106.7125755  35.1379038
  15.0766197 107.7799851  35.9003650  12.0035060 106.7846435  35.7777223
  11.6653572 106.6687500  34.8897758  12.8724829 106.3837601  35.7578229
  12.4854843 107.9381287  41.7363428  12.4743484 107.5434085  40.8643932
  12.6475483 107.2047360  42.3297200  14.7486623 104.5570461  32.9168906
  15.5349712 104.1389884  32.5659323  15.0125327 105.4616553  33.0850555
  20.1495050 104.4945694  33.8201885  20.8820222 103.9244911  34.0539714
  19.3934406 104.1067295  34.2608390  11.7671170 106.9172936  31.0165227
  11.4029377 106.3903557  31.7278149  12.6238285 106.5271405  30.8431713
  17.6720470  98.2067268  38.2796493  17.3403795  99.0762679  38.0557708
  17.0766084  97.8903553  38.9590524  17.5649133 102.9262355  35.3589843
  16.6566011 102.8577763  35.0648604  17.5136729 103.4034300  36.1871669
  11.6389999 104.3452000  43.3024741  10.8623333 104.9045920  43.2927605
  12.2780562 104.8308783  43.8239611  19.4310780 101.1278793  37.1367717
  18.7885160 101.4211326  36.4907512  18.9265708 101.0131713  37.9420914
  17.0850944 104.8741966  27.8253577  17.9968800 105.1069353  27.6501274
  16.5760591 105.4579010  27.2628655  11.7222781 104.2339201  38.8348426
  12.5683976 104.6578614  38.9783075  11.6621419 103.5772825  39.5286989
  14.8722227 101.8943569  40.4929600  14.6283158 102.6485630  39.9563875
  15.1482157 102.2728917  41.3276847  16.8260689 108.4382182  39.1706865
  17.0377585 109.0813941  38.4941246  16.7790438 107.6044498  38.7028795
  14.4286918 101.0500002  36.0743437  13.5671397 101.3481256  36.3660175
  14.4549353 101.2670401  35.1424470   8.6297735 104.3077102  43.6658018
   7.9996396 104.9893383  43.8993414   8.5233823 104.1960183  42.7211156
  26.0312510 107.6592885  33.6914194  25.2776219 107.0900284  33.5358199
  26.1660052 107.6255550  34.6384829   7.9078478  98.6097868  46.0283269
   7.5145424  98.0564066  46.7030913   8.7244618  98.9208446  46.4189786
  10.8246439 100.0255747  43.6203525  11.5656152 100.6262900  43.5407988
  11.0564362  99.2833385  43.0621568  14.7703602  96.0536850  37.8967807
  14.4267871  96.9438491  37.8206918  15.1382565  95.8638507  37.0337392
  12.3200996 100.8895162  31.4625480  11.4642592 100.5002012  31.2831119
  12.7327947 100.9687122  30.6025266  13.8500142  98.4241505  35.8617040
  13.3464938  98.3871640  35.0484845  14.1430749  99.3334248  35.9213697
  10.0943028  98.5080235  34.8683222  10.9596025  98.3123043  34.5089111
  10.1620537  98.2790586  35.7952579  19.7088159 108.7977815  28.3393416
  18.9317602 108.4588975  27.8948578  20.3879640 108.8030439  27.6648381
  14.5240188 103.9172553  28.2300023  14.2190323 104.2318702  29.0810166
  15.4770630 103.9953973  28.2727356  17.9479466 108.2711797  34.9960024
  17.2903140 108.9611058  35.0840152  18.7519865 108.6608229  35.3394010
   7.7005347 100.7382442  32.2399589   8.2749099 100.5157624  31.5072782
   8.2876330 100.8071137  32.9928190  16.7584925 106.6256169  33.0463965
  17.2716806 107.2586161  33.5485675  17.4086148 106.0257365  32.6807325
  10.0028015  97.6123691  30.9674658   9.3492427  97.2972709  30.3431273
   9.9608489  96.9899432  31.6934481  13.2365755 104.1005625  35.2922306
  12.3188317 104.3220572  35.1343994  13.6525899 104.1751935  34.4334013
  14.0200803 105.4997041  30.4224986  14.7672622 106.0118438  30.1132108
  14.2892393 105.1781093  31.2829380  16.4679640 102.5354157  32.4043775
  15.7302397 102.0231543  32.7354018  16.7206414 102.0954538  31.5927052
  16.5691268  95.3130409  32.9985545  16.8750144  94.4527772  32.7111460
  17.2943872  95.9048029  32.7984539  10.8412347 105.6084202  33.5061736
  10.8960957 104.6558038  33.4304212  10.0303549 105.7643641  33.9903034
   8.7804707 104.2261262  31.2652115   7.9672573 104.5255432  31.6717307
   9.2763701 103.8316950  31.9826597  14.3778919 104.6903086  40.0967008
  14.7328307 104.9174559  40.9561474  15.0251050 105.0221463  39.4744264
  20.1076656 107.8121522  30.8016337  19.9694555 108.0023118  29.8737527
  19.7512875 108.5740905  31.2584389   8.2718782 101.7979617  36.8813350
   8.9118161 101.6568376  36.1836313   7.4396313 101.5114131  36.5051952
  20.1346036 109.8798049  35.8127609  20.5682542 109.7873338  36.6610663
  20.8477616 109.8555550  35.1747625   5.2747398 101.7679942  31.6586336
   5.5354216 102.6825275  31.5495497   6.0964571 101.3004385  31.8082949
   6.7472324 103.1817699  38.8285161   7.4195377 102.9735061  38.1797810
   5.9202110 102.9839785  38.3890393  20.9961585 109.9221750  38.3460494
  21.1897475 110.8267560  38.5919769  20.8962203 109.4629169  39.1799079
  12.6497896  99.8079640  40.8450822  12.0025811 100.5069590  40.7515298
  13.4198911 100.2415784  41.2127070  12.8262030 107.6460405  38.9047641
  13.7554090 107.7971565  38.7316609  12.4053060 107.7344426  38.0496288
   9.7782122 106.1680262  39.0771278  10.4881740 105.5273454  39.0357896
   9.7351430 106.4193157  39.9997458   8.4911056 103.1545480  40.8966917
   7.9548413 102.7036218  41.5488513   7.9027764 103.2891388  40.1537381
   4.2250177 102.2901487  37.9819912   4.1408366 101.6827157  37.2470322
   3.4032883 102.7810506  37.9829408  14.3973891 100.7755051  33.3490107
  14.8942590 100.0225013  33.0291177  13.6260872 100.8119367  32.7833316
  22.2503648 106.4795416  34.9908398  22.2393524 107.3620132  34.6202331
  21.3821028 106.1266967  34.7962935  10.9808860 102.9172434  33.0761791
  10.6106647 102.3643474  33.7642697  11.4767952 102.3130567  32.5236791
  18.8676223 105.3744057  31.4578564  19.3336675 106.2072049  31.3838867
  19.3183723 104.9089039  32.1623823  16.8392886  97.7424644  35.4969466
  15.9255965  97.9728871  35.6651673  17.2685987  97.8263088  36.3483498
  16.6099344 105.9314536  37.9969360  15.9570794 106.1790444  37.3421812
  16.9879724 105.1178674  37.6631837  12.6586917 106.6734347  44.4835397
  11.9827554 106.5728477  45.1537772  13.4814551 106.5173561  44.9471394
   6.3774193 100.3276425  39.3214897   6.4415520 101.1891255  38.9092295
   6.3141313  99.7150426  38.5887256   5.8526466 102.3999557  42.9687932
   6.4798505 102.0176634  43.5825456   4.9954385 102.1813759  43.3343624
   6.1586256 102.2831983  34.8833835   5.4372841 102.8967950  34.7441308
   6.9479511 102.8189748  34.8050481   8.9612569  99.6186409  41.1574487
   9.4846971  99.8648706  41.9200796   8.7424902 100.4506444  40.7377624
  10.1665114 100.5600104  38.8424157   9.8261934  99.7607917  39.2444837
   9.4604120 100.8601815  38.2700991  10.8181586  97.6449417  37.2951480
  11.6407655  97.1709895  37.1730371  11.0619649  98.4239901  37.7950167
  13.6020943 101.3782824  28.5272714  13.8184558 102.2607462  28.2261543
  13.1215010 100.9869038  27.7978356   8.3420165 104.3368537  35.1043459
   8.1964745 104.6508841  35.9967740   7.8645368 104.9553438  34.5514358
  10.2016548 101.3271085  35.1524349  10.1878116 100.4312179  34.8156646
  10.9188976 101.3341749  35.7862635  12.0542678 101.7608426  37.1977476
  11.7960456 102.6825496  37.1961806  11.5227719 101.3638860  37.8877940
   9.6053443 100.2085466  30.4211919   9.7269355  99.2802112  30.6202806
   9.3155486 100.2224152  29.5090234  12.4744634  97.8940376  33.5578639
  12.4966331  97.9579709  32.6030618  12.8912693  97.0544885  33.7519145
  22.8528258 107.6295636  31.5957861  23.2959404 106.8802961  31.1976984
  21.9754768 107.6205772  31.2131593   9.0894523 101.7217463  44.6301851
   9.1382678 102.5979586  44.2479621   9.6317037 101.1794856  44.0573495
  19.6947244 109.1151053  41.2235717  19.7445249 108.9501060  42.1651240
  19.5861167 108.2478312  40.8333598  16.9851006 105.0981981  42.5395024
  17.8860869 104.9588446  42.2479021  17.0598981 105.2636436  43.4793201
  11.3193811 102.4748835  41.3848210  10.4497121 102.7682402  41.1130798
  11.5553292 103.0589280  42.1055474  22.3961123 109.1000874  33.9880309
  23.2308014 109.5390678  34.1517869  22.5320252 108.6239527  33.1688554
  19.4452629 106.6580609  39.9357796  19.9206750 106.8508255  39.1276648
  18.5218194 106.7139795  39.6901180  14.0232845  98.6928452  38.9013630
  14.5414789  99.4289479  38.5760119  13.6687978  98.9992446  39.7360389
  14.2745439  95.1128735  34.4214527  14.5547193  94.4451924  35.0474953
  15.0596046  95.3057831  33.9089191  18.1454298 103.5346369  38.1686102
  19.0971721 103.6344467  38.1898326  17.9757748 102.7424637  38.6784186
  16.1668677 100.6201952  38.3545503  15.5718609 100.9006965  37.6591992
  15.8818374 101.1095853  39.1262244  20.6242376 106.7552489  37.2828402
  20.5918696 105.8168489  37.4688086  21.2342999 106.8336525  36.5494227
  20.7736864 103.5463532  37.3286685  20.2575913 102.7621989  37.1416614
  21.6576813 103.2182249  37.4933204  18.4347591  97.2904548  33.2882498
  18.2372412  96.9819636  34.1725830  19.0447297  98.0166187  33.4180427
  26.4418925 107.8168495  36.4234438  27.1722314 107.5553784  36.9842142
  25.8325871 107.0797217  36.4636506  24.5234223 105.9576358  37.0208890
  23.7967386 105.8232323  36.4125381  24.1081509 106.2653187  37.8265608
  12.2630689  98.0935408  29.4154732  11.4531418  97.7482493  29.7909978
  12.9515106  97.7842951  30.0042344  14.1921238  97.1713455  31.0379029
  14.7452276  97.5908908  31.6969052  14.4291324  96.2449203  31.0801985
  10.2154337 103.1600528  46.8181793  10.1151064 104.1094885  46.7493884
   9.9975879 102.8318767  45.9457863  17.5700045  99.2813980  30.5457693
  16.9898714  99.9398784  30.1635746  17.3035977  98.4591324  30.1345111
  16.0203611  98.6819037  32.7479013  16.5203389  98.7935572  31.9393332
  16.6639219  98.3780090  33.3879822  16.3524923 101.4414070  29.6014041
  15.4650778 101.7263721  29.3834236  16.7678912 101.2807833  28.7541318
  19.7039459 101.4660591  33.3168381  20.4799849 101.9557043  33.5892997
  18.9787593 101.8918645  33.7740250  22.1412017 102.1788210  34.3742321
  22.7356508 101.9383946  33.6635630  22.2138601 101.4595341  35.0015858
  16.3265946 106.9568606  29.8164332  16.2701148 107.4137157  28.9771964
  16.8794289 106.1959291  29.6387174  20.1370752 102.7458338  30.6414451
  19.8807687 102.3454974  31.4722659  19.5123620 103.4602132  30.5164590
  24.4483090 105.4854411  33.1485742  23.8882648 105.5547600  33.9217305
  23.8426594 105.3095396  32.4285239  17.0600726 108.1473387  27.1116861
  17.0049530 107.9817659  26.1705305  16.4346781 108.8549420  27.2679050
   1.8493241 103.3841452  40.9378283   2.4952104 102.8740406  41.4265508
   1.6410392 104.1210133  41.5121708  10.3696851  97.6481496  26.6902179
  10.3575521  98.5923336  26.8470450  11.2620273  97.4651642  26.3961640
  14.1848971  94.2424273  30.9448116  13.4181366  93.6882760  31.0904798
  14.5959676  94.3146142  31.8062268   6.1890732 100.5309069  45.0353297
   7.0522193 100.1745874  45.2456622   5.6156142 100.1922963  45.7228701
  25.6097356 111.3828767  37.8967807  25.2661626 112.2730409  37.8206918
  25.9776319 111.1930425  37.0337392  27.4085022 110.6422327  32.9985545
  27.7143899 109.7819690  32.7111460  28.1337627 111.2339947  32.7984539
  25.1139194 110.4420653  34.4214527  25.3940948 109.7743842  35.0474953
  25.8989801 110.6349748  33.9089191  29.2741345 112.6196465  33.2882498
  29.0766167 112.3111553  34.1725830  29.8841051 113.3458104  33.4180427
  25.0242725 109.5716191  30.9448116  24.2575121 109.0174677  31.0904798
  25.4353430 109.6438059  31.8062268   4.3525003  54.0071173  20.4159501
   3.5988711  53.4378571  20.2603505   4.4872544  53.9733837  21.3630135
   0.7173615  55.4479161  20.7125615   1.5520507  55.8868965  20.8763176
   0.8532744  54.9717814  19.8933861   4.7631418  54.1646783  23.1479745
   5.4934806  53.9032071  23.7087448   4.1538363  53.4275505  23.1881813
   2.8446715  52.3054645  23.7454196   2.1179878  52.1710610  23.1370688
   2.4294002  52.6131474  24.5510914   0.4624510  48.5266497  21.0987628
   1.0569001  48.2862233  20.3880936   0.5351093  47.8073628  21.7261164
   2.7695583  51.8332698  19.8731049   2.2095140  51.9025888  20.6462611
   2.1639086  51.6573683  19.1530545   4.3551601  68.5089212  22.5661005
   4.9930011  68.3895960  21.8624345   4.2372444  69.4570056  22.6248957
   1.1641307  68.4616640  22.5022530   0.8259819  68.3457705  21.6143064
   2.0331075  68.0607805  22.4823536   1.6461090  69.6151492  28.4608735
   1.6349731  69.2204290  27.5889239   1.8081730  68.8817565  29.0542507
   3.9092869  66.2340666  19.6414213   4.6955959  65.8160089  19.2904630
   4.1731574  67.1386758  19.8095861   9.3101297  66.1715899  20.5447191
  10.0426469  65.6015116  20.7785021   8.5540652  65.7837500  20.9853697
   0.9277416  68.5943141  17.7410534   0.5635624  68.0673762  18.4523455
   1.7844532  68.2041610  17.5677019   6.8326717  59.8837473  25.0041800
   6.5010042  60.7532884  24.7803015   6.2372330  59.5673757  25.6835830
   3.3258236  72.0850019  24.4037713   3.0258960  72.9875058  24.2953520
   2.9809296  71.8182203  25.2558866   6.7255380  64.6032560  22.0835150
   5.8172258  64.5347968  21.7893911   6.6742976  65.0804505  22.9116976
   8.5917027  62.8048998  23.8613024   7.9491407  63.0981531  23.2152819
   8.0871955  62.6901918  24.6666221   6.2457190  66.5512171  14.5498883
   7.1575046  66.7839558  14.3746581   5.7366837  67.1349215  13.9873962
   4.5297958  70.9736799  28.1860176   4.9381314  70.5319210  27.4414808
   3.8075219  70.3989427  28.4394369   0.8829028  65.9109406  25.5593733
   1.7290223  66.3348819  25.7028382   0.8227666  65.2543030  26.2532296
   4.8526773  71.5337990  21.9412465   4.2235635  71.6983704  21.2388533
   4.4652435  71.9479599  22.7123429   8.7316005  72.4692427  19.2956828
   8.0467043  72.8491329  18.7453862   8.8159854  73.0787754  20.0288776
   4.0328473  63.5713774  27.2174906   3.7889405  64.3255835  26.6809182
   4.3088404  63.9499122  28.0522153   5.9866936  70.1152387  25.8952172
   6.1983831  70.7584146  25.2186553   5.9396684  69.2814703  25.4274102
   3.5893165  62.7270207  22.7988744   2.7277644  63.0251461  23.0905482
   3.6155600  62.9440606  21.8669777   7.1012764  72.9924342  24.0674529
   7.9230208  72.5904529  23.7857211   7.0975167  72.8892576  25.0190645
  15.1918757  69.3363090  20.4159501  14.4382466  68.7670488  20.2603505
  15.3266298  69.3025755  21.3630135   2.2085862  74.8300059  30.2214562
   1.7649716  74.0436438  29.9035467   2.8703075  75.0179210  29.5558453
   4.3067100  75.1102859  28.2495964   4.2885575  75.9311740  27.7576233
   5.2287020  74.9856934  28.4746105   3.9309849  57.7307055  24.6213114
   3.5874118  58.6208696  24.5452224   4.2988811  57.5408712  23.7582699
   1.4807242  62.5665366  18.1870787   0.6248839  62.1772217  18.0076426
   1.8934194  62.6457327  17.3270573   3.0106389  60.1011710  22.5862347
   2.5071185  60.0641845  21.7730152   3.3036996  61.0104452  22.6459004
   8.8694406  70.4748020  15.0638722   8.0923848  70.1359180  14.6193884
   9.5485887  70.4800644  14.3893687   3.6846435  65.5942758  14.9545330
   3.3796570  65.9088907  15.8055473   4.6376877  65.6724178  14.9972663
   7.1085712  69.9482002  21.7205330   6.4509387  70.6381263  21.8085459
   7.9126112  70.3378434  22.0639317   5.9191171  68.3026374  19.7709272
   6.4323053  68.9356366  20.2730982   6.5692395  67.7027570  19.4052632
   2.3972002  65.7775830  22.0167612   1.4794564  65.9990777  21.8589301
   2.8132146  65.8522140  21.1579320   3.1807050  67.1767246  17.1470293
   3.9278869  67.6888643  16.8377415   3.4498639  66.8551298  18.0074686
   6.6852968  73.2832376  17.8988415   6.2315295  72.4423286  17.9553605
   6.0546934  73.9193774  18.2363195   5.6285887  64.2124362  19.1289082
   4.8908644  63.7001748  19.4599325   5.8812661  63.7724743  18.3172359
   5.1285907  75.1208872  18.8338233   5.4208881  75.6813930  18.1150598
   5.6384527  75.4137433  19.5891392   5.7297514  56.9900614  19.7230851
   6.0356391  56.1297977  19.4356766   6.4550119  57.5818234  19.5229845
   3.5385166  66.3673291  26.8212315   3.8934553  66.5944764  27.6806781
   4.1857297  66.6991668  26.1989570   9.2682903  69.4891727  17.5261644
   9.1300801  69.6793323  16.5982833   8.9119121  70.2511110  17.9829695
   9.2952282  71.5568254  22.5372916   9.7288789  71.4643543  23.3855970
  10.0083863  71.5325754  21.8992932   3.0280177  75.1570348  24.0706016
   3.0817199  75.7261284  24.8383732   2.1594959  75.3272233  23.7060053
  10.1567832  71.5991955  25.0705801  10.3503722  72.5037765  25.3165076
  10.0568450  71.1399374  25.9044386   1.8104143  61.4849845  27.5696128
   1.1632058  62.1839795  27.4760605   2.5805158  61.9185989  27.9372377
   5.2182941  71.7498697  30.6446682   5.0668447  71.5209249  29.7276765
   5.2087620  72.7069299  30.6578027   1.9868277  69.3230610  25.6292948
   2.9160337  69.4741770  25.4561915   1.5659307  69.4114631  24.7741595
   2.3361824  72.7262877  20.7880324   2.0011656  72.6863647  21.6837973
   1.8365770  72.0607593  20.3150734   6.9275147  74.7817820  28.7223164
   6.8687693  74.0977040  28.0553747   7.3294666  75.5236810  28.2703790
   6.9292554  72.7457404  26.9537143   6.0419333  72.4083326  27.0763542
   7.4991106  72.0140435  27.1905909   3.5580138  62.4525256  20.0735413
   4.0548837  61.6995218  19.7536484   2.7867119  62.4889572  19.5078623
  11.4109895  68.1565621  21.7153705  11.3999771  69.0390337  21.3447638
  10.5427274  67.8037172  21.5208242   2.9192391  77.3045690  26.0756545
   3.6320364  77.9393155  26.0032447   2.4282420  77.4009556  25.2596547
   4.6409918  71.2096943  17.6473837   3.7066197  71.3298405  17.4778541
   4.8186587  70.3069410  17.3833847   8.0282470  67.0514262  18.1823871
   8.4942922  67.8842254  18.1084174   8.4789970  66.5859244  18.8869129
   6.0958701  73.3958083  15.1810023   6.3718545  73.2814678  16.0903897
   5.2263199  72.9975568  15.1422196   5.9999132  59.4194849  22.2214772
   5.0862212  59.6499076  22.3896979   6.4292234  59.5033293  23.0728805
   5.7705591  67.6084741  24.7214666   5.1177041  67.8560649  24.0667119
   6.1485971  66.7948879  24.3877144   1.8193164  68.3504552  31.2080703
   1.1433801  68.2498682  31.8783079   2.6420798  68.1943766  31.6716701
   0.5615947  79.6571480  25.4438319   1.1134255  79.8203101  26.2087405
   0.9022140  80.2475917  24.7718344   5.4126821  74.4832737  31.2986974
   5.9566725  75.0962695  30.8041929   4.8313666  75.0412316  31.8153987
   3.6984334  77.6053455  22.4302001   3.5735473  76.8043195  21.9212947
   4.3563425  78.0999649  21.9415971   5.7619242  75.4062475  24.0581552
   4.8149578  75.2867826  23.9859878   6.1102016  74.5184973  24.1407813
   2.7665676  75.2015191  20.2585904   2.6190638  74.2731899  20.4393474
   3.5919169  75.2235282  19.7742979   6.3699798  76.0243750  21.3450777
   7.2946345  75.8186612  21.2075228   6.2015101  75.7760151  22.2540118
   2.7627190  63.0553029  15.2518021   2.9790804  63.9377667  14.9506849
   2.2821257  62.6639243  14.5223663   1.2148925  63.4378631  23.9222783
   0.9566703  64.3595701  23.9207113   0.6833965  63.0409065  24.6123247
   6.1595114  76.5429418  16.7012868   6.3331991  75.9775840  15.9486720
   6.6524005  77.3430313  16.5192358   1.6350881  59.5710581  20.2823945
   1.6572577  59.6349914  19.3275925   2.0518940  58.7315090  20.4764451
  12.0134505  69.3065841  18.3203168  12.4565651  68.5573166  17.9222291
  11.1361015  69.2975977  17.9376900   9.0461709  73.3095888  15.3297097
   9.5713033  73.6483160  14.6046417   8.9584062  72.3742903  15.1460232
   0.7081758  77.2229961  27.4586974   1.0168885  76.9779108  28.3309673
   1.5057240  77.4276600  26.9705844   8.7355615  73.9428791  30.6348295
   7.9451159  73.9252930  30.0952794   8.4988970  74.4817085  31.3897332
   8.8553490  70.7921258  27.9481024   8.9051495  70.6271265  28.8896546
   8.7467414  69.9248517  27.5578904   6.1457253  66.7752186  29.2640330
   7.0467116  66.6358650  28.9724328   6.2205227  66.9406640  30.2038508
  10.3571687  73.2118199  28.1923045  10.0656496  73.5748180  29.0286506
   9.7443819  72.4985207  28.0136377  11.5567370  70.7771079  20.7125615
  12.3914261  71.2160883  20.8763176  11.6926498  70.3009732  19.8933861
   8.6058876  68.3350814  26.6603103   9.0812997  68.5278460  25.8521954
   7.6824441  68.3910000  26.4146487   3.1839092  60.3698657  25.6258937
   3.7021036  61.1059684  25.3005426   2.8294225  60.6762651  26.4605696
   3.4351686  56.7898940  21.1459834   3.7153440  56.1222129  21.7720260
   4.2202293  56.9828035  20.6334497   7.3060545  65.2116574  24.8931409
   8.2577967  65.3114672  24.9143633   7.1363995  64.4194842  25.4029493
   5.3274924  62.2972157  25.0790810   4.7324856  62.5777170  24.3837298
   5.0424621  62.7866058  25.8507551   9.7848622  68.4322694  24.0073708
   9.7524942  67.4938694  24.1933392  10.3949246  68.5106730  23.2739533
   9.9343111  65.2233737  24.0531992   9.4182159  64.4392194  23.8661920
  10.8183059  64.8952454  24.2178511   7.5953838  58.9674753  20.0127804
   7.3978659  58.6589841  20.8971136   8.2053543  59.6936391  20.1425734
  15.6025172  69.4938700  23.1479745  16.3328561  69.2323989  23.7087448
  14.9932118  68.7567422  23.1881813  13.6840469  67.6346563  23.7454196
  12.9573633  67.5002528  23.1370688  13.2687756  67.9423392  24.5510914
   1.5070646  71.3536493  31.5101569   2.4273655  71.5315092  31.7041616
   1.4720229  70.4092538  31.3581269   1.4236936  59.7705613  16.1400039
   0.6137664  59.4252698  16.5155285   2.1121353  59.4613156  16.7287650
   3.3527484  58.8483659  17.7624336   3.9058523  59.2679113  18.4214359
   3.5897571  57.9219408  17.8047292   6.7306291  60.9584185  17.2703000
   6.1504961  61.6168989  16.8881052   6.4642224  60.1361529  16.8590417
   5.1809858  60.3589242  19.4724320   5.6809636  60.4705777  18.6638639
   5.8245466  60.0550295  20.1125129   5.5131169  63.1184275  16.3259348
   4.6257025  63.4033926  16.1079543   5.9285159  62.9578038  15.4786625
   8.8645706  63.1430796  20.0413687   9.6406096  63.6327248  20.3138304
   8.1393840  63.5688850  20.4985557  11.3018264  63.8558415  21.0987628
  11.8962755  63.6154151  20.3880936  11.3744848  63.1365546  21.7261164
   5.4872193  68.6338811  16.5409638   5.4307395  69.0907362  15.7017271
   6.0400536  67.8729495  16.3632481   9.2976999  64.4228543  17.3659758
   9.0413933  64.0225178  18.1967965   8.6729867  65.1372337  17.2409897
  13.6089337  67.1624616  19.8731049  13.0488895  67.2317805  20.6462611
  13.0032840  66.9865601  19.1530545   6.2206973  69.8243592  13.8362167
   6.1655776  69.6587864  12.8950612   5.5953028  70.5319625  13.9924357
   3.5352880  72.1292504  33.1615730   4.4044039  72.3033156  32.8002365
   3.0559631  72.9486921  33.0391460   3.3455217  55.9194478  17.6693423
   2.5787613  55.3652964  17.8150105   3.7565922  55.9916347  18.5307574
  15.1945355  83.8381130  22.5661005  15.8323765  83.7187877  21.8624345
  15.0766198  84.7861974  22.6248957  12.0035062  83.7908558  22.5022530
  11.6653573  83.6749623  21.6143064  12.8724830  83.3899723  22.4823536
  12.4854845  84.9443410  28.4608735  12.4743485  84.5496208  27.5889239
  12.6475484  84.2109482  29.0542507   9.2062106  87.7280522  27.4087919
   8.9151972  88.6326152  27.2934585   9.8419090  87.7697049  28.1231989
  10.1318313  85.1057370  23.9989279  10.7281885  84.8813392  23.2846242
  10.1893284  84.3642116  24.6014727  14.7486624  81.5632584  19.6414213
  15.5349713  81.1452007  19.2904630  15.0125328  82.4678676  19.8095861
  20.1495051  81.5007817  20.5447191  20.8820223  80.9307034  20.7785021
  19.3934407  81.1129417  20.9853697  11.7671171  83.9235058  17.7410534
  11.4029378  83.3965679  18.4523455  12.6238287  83.5333528  17.5677019
  17.6720471  75.2129391  25.0041800  17.3403796  76.0824802  24.7803015
  17.0766085  74.8965675  25.6835830  14.1651991  87.4141937  24.4037713
  13.8652714  88.3166976  24.2953520  13.8203050  87.1474120  25.2558866
   7.6164472  83.8655734  20.4374417   6.6914969  83.7331948  20.6452109
   7.8648886  84.6449953  20.9344360  17.5649135  79.9324477  22.0835150
  16.6566012  79.8639886  21.7893911  17.5136731  80.4096422  22.9116976
  11.6390001  81.3514123  30.0270047  10.8623335  81.9108043  30.0172912
  12.2780564  81.8370906  30.5484917  19.4310781  78.1340916  23.8613024
  18.7885161  78.4273449  23.2152819  18.9265710  78.0193836  24.6666221
  17.0850945  81.8804089  14.5498883  17.9968801  82.1131476  14.3746581
  16.5760592  82.4641133  13.9873962   9.8936373  84.1599576  29.5888014
  10.6351057  84.6984620  29.3122838   9.1873358  84.7865865  29.7459566
  15.3691712  86.3028717  28.1860176  15.7775068  85.8611127  27.4414808
  14.6468974  85.7281344  28.4394369  11.7222783  81.2401323  25.5593733
  12.5683978  81.6640737  25.7028382  11.6621420  80.5834948  26.2532296
  15.6920527  86.8629907  21.9412465  15.0629390  87.0275621  21.2388533
  15.3046189  87.2771517  22.7123429  19.5709759  87.7984345  19.2956828
  18.8860797  88.1783247  18.7453862  19.6553608  88.4079672  20.0288776
  14.8722228  78.9005692  27.2174906  14.6283160  79.6547752  26.6809182
  15.1482158  79.2791039  28.0522153  16.8260691  85.4444304  25.8952172
  17.0377586  86.0876064  25.2186553  16.7790439  84.6106621  25.4274102
  14.4286920  78.0562125  22.7988744  13.5671399  78.3543378  23.0905482
  14.4549354  78.2732524  21.8669777  11.2448489  86.6004315  19.2062550
  11.7086835  86.8792018  18.4167172  10.9805287  85.6987760  19.0235640
   8.1372570  86.1475797  22.1442313   8.7073927  86.5763065  21.5059798
   8.7280682  85.8658382  22.8426499   8.6297737  81.3139224  30.3903324
   7.9996397  81.9955505  30.6238721   8.5233824  81.2022306  29.4456463
  17.9406519  88.3216260  24.0674529  18.7623962  87.9196447  23.7857211
  17.9368921  88.2184494  25.0190645  11.7063122  87.8700303  26.2235240
  11.7707555  88.3320710  27.0593412  10.9974046  87.2397668  26.3517550
   2.2080412  81.2341511  23.7484239   2.4588450  82.1188521  24.0141815
   2.7439960  81.0546112  22.9759331  26.0312512  84.6655008  20.4159501
  25.2776220  84.0962406  20.2603505  26.1660053  84.6317673  21.3630135
   7.9078479  75.6159990  32.7528575   7.5145425  75.0626189  33.4276220
   8.7244620  75.9270569  33.1435093  10.8246440  77.0317869  30.3448832
  11.5656154  77.6325022  30.2653294  11.0564363  76.2895507  29.7866874
   5.9687778  82.2174237  28.6227062   5.8541293  81.3159494  28.9234161
   5.1132296  82.4637933  28.2711878  13.0479616  90.1591977  30.2214562
  12.6043470  89.3728355  29.9035467  13.7096830  90.3471127  29.5558453
   7.8066737  91.6887778  24.7475241   8.3574162  91.5604842  23.9752235
   6.9678213  91.9882668  24.3970134  15.1460854  90.4394777  28.2495964
  15.1279329  91.2603658  27.7576233  16.0680774  90.3148852  28.4746105
  11.6033908  87.9538906  29.0919472  12.1362245  87.1927194  28.8618780
  11.0747989  87.6612558  29.8343626  14.7703603  73.0598972  24.6213114
  14.4267873  73.9500614  24.5452224  15.1382566  72.8700630  23.7582699
  12.3200997  77.8957284  18.1870787  11.4642593  77.5064135  18.0076426
  12.7327949  77.9749245  17.3270573  13.8500144  75.4303627  22.5862347
  13.3464939  75.3933763  21.7730152  14.1430750  76.3396370  22.6459004
  10.0943029  75.5142357  21.5928529  10.9596026  75.3185166  21.2334418
  10.1620538  75.2852709  22.5197885  19.7088160  85.8039938  15.0638722
  18.9317603  85.4651098  14.6193884  20.3879641  85.8092561  14.3893687
  14.5240189  80.9234675  14.9545330  14.2190325  81.2380825  15.8055473
  15.4770631  81.0016095  14.9972663  17.9479467  85.2773919  21.7205330
  17.2903141  85.9673181  21.8085459  18.7519866  85.6670351  22.0639317
   7.7005349  77.7444565  18.9644895   8.2749100  77.5219747  18.2318088
   8.2876331  77.8133260  19.7173497  16.7584926  83.6318292  19.7709272
  17.2716808  84.2648284  20.2730982  17.4086150  83.0319487  19.4052632
  10.0028016  74.6185814  17.6919965   9.3492429  74.3034831  17.0676580
   9.9608490  73.9961554  18.4179788  13.2365757  81.1067748  22.0167612
  12.3188318  81.3282695  21.8589301  13.6525900  81.1814058  21.1579320
  14.0200804  82.5059163  17.1470293  14.7672623  83.0180560  16.8377415
  14.2892394  82.1843216  18.0074686  17.5246722  88.6124293  17.8988415
  17.0709049  87.7715203  17.9553605  16.8940689  89.2485692  18.2363195
  16.4679642  79.5416279  19.1289082  15.7302398  79.0293666  19.4599325
  16.7206415  79.1016661  18.3172359  15.9679661  90.4500790  18.8338233
  16.2602636  91.0105847  18.1150598  16.4778282  90.7429351  19.5891392
  16.5691269  72.3192531  19.7230851  16.8750146  71.4589895  19.4356766
  17.2943874  72.9110152  19.5229845  10.8412349  82.6146325  20.2307042
  10.8960958  81.6620161  20.1549519  10.0303551  82.7705764  20.7148341
   8.7804709  81.2323384  17.9897421   7.9672574  81.5317555  18.3962613
   9.2763703  80.8379073  18.7071903  14.3778920  81.6965209  26.8212315
  14.7328308  81.9236682  27.6806781  15.0251051  82.0283586  26.1989570
  20.1076657  84.8183645  17.5261644  19.9694556  85.0085241  16.5982833
  19.7512876  85.5803027  17.9829695   8.2718783  78.8041740  23.6058656
   8.9118163  78.6630499  22.9081619   7.4396314  78.5176253  23.2297258
  20.1346037  86.8860172  22.5372916  20.5682543  86.7935461  23.3855970
  20.8477617  86.8617672  21.8992932  13.8673932  90.4862266  24.0706016
  13.9210954  91.0553202  24.8383732  12.9988713  90.6564151  23.7060053
   5.2747400  78.7742065  18.3831643   5.5354217  79.6887398  18.2740803
   6.0964572  78.3066507  18.5328256   6.7472325  80.1879822  25.5530468
   7.4195378  79.9797184  24.9043116   5.9202112  79.9901908  25.1135700
  20.9961586  86.9283872  25.0705801  21.1897476  87.8329683  25.3165076
  20.8962204  86.4691291  25.9044386  12.6497897  76.8141763  27.5696128
  12.0025812  77.5131713  27.4760605  13.4198912  77.2477907  27.9372377
  16.0576695  87.0790615  30.6446682  15.9062201  86.8501167  29.7276765
  16.0481374  88.0361216  30.6578027  12.8262031  84.6522528  25.6292948
  13.7554091  84.8033687  25.4561915  12.4053061  84.7406549  24.7741595
  11.6250363  88.6773192  23.3991486  11.4861449  88.3091977  24.2717424
  10.8364959  89.1920832  23.2275444  13.1755578  88.0554795  20.7880324
  12.8405411  88.0155565  21.6837973  12.6759524  87.3899511  20.3150734
   7.1499822  83.4622425  26.3132905   7.0119620  82.7302664  26.9144444
   8.0604746  83.3731325  26.0317092   9.7782123  83.1742384  25.8016584
  10.4881742  82.5335576  25.7603203   9.7351431  83.4255279  26.7242765
  17.7668902  90.1109738  28.7223164  17.7081448  89.4268958  28.0553747
  18.1688420  90.8528728  28.2703790   8.4911057  80.1607602  27.6212224
   7.9548414  79.7098341  28.2733820   7.9027765  80.2953511  26.8782688
  17.7686309  88.0749322  26.9537143  16.8813088  87.7375243  27.0763542
  18.3384860  87.3432353  27.1905909   4.2250178  79.2963610  24.7065218
   4.1408367  78.6889279  23.9715628   3.4032885  79.7872628  24.7074715
  11.2987462  92.7350774  23.9198386  11.2257634  93.5405745  24.4317691
  10.8564855  92.9342740  23.0946408  14.3973892  77.7817173  20.0735413
  14.8942592  77.0287136  19.7536484  13.6260874  77.8181490  19.5078623
  22.2503649  83.4857539  21.7153705  22.2393526  84.3682254  21.3447638
  21.3821029  83.1329090  21.5208242  13.7586146  92.6337608  26.0756545
  14.4714118  93.2685073  26.0032447  13.2676174  92.7301474  25.2596547
  15.4803673  86.5388861  17.6473837  14.5459951  86.6590323  17.4778541
  15.6580341  85.6361327  17.3833847  10.9808861  79.9234556  19.8007098
  10.6106648  79.3705597  20.4888004  11.4767953  79.3192690  19.2482098
  18.8676224  82.3806180  18.1823871  19.3336676  83.2134171  18.1084174
  19.3183725  81.9151161  18.8869129   8.8098059  90.3832051  26.8962116
   9.5107519  91.0168534  27.0491510   8.3393174  90.7246783  26.1357755
  16.9352455  88.7250001  15.1810023  17.2112299  88.6106596  16.0903897
  16.0656954  88.3267486  15.1422196  16.8392887  74.7486767  22.2214772
  15.9255967  74.9790994  22.3896979  17.2685988  74.8325211  23.0728805
  16.6099345  82.9376659  24.7214666  15.9570796  83.1852566  24.0667119
  16.9879725  82.1240797  24.3877144  12.6586918  83.6796470  31.2080703
  11.9827555  83.5790599  31.8783079  13.4814552  83.5235684  31.6716701
  11.4009701  94.9863397  25.4438319  11.9528009  95.1495019  26.2087405
  11.7415895  95.5767835  24.7718344   6.3774194  77.3338547  26.0460204
   6.4415521  78.1953378  25.6337602   6.3141315  76.7212549  25.3132563
   5.8526467  79.4061680  29.6933238   6.4798506  79.0238757  30.3070763
   4.9954386  79.1875882  30.0588931  16.2520576  89.8124655  31.2986974
  16.7960480  90.4254613  30.8041929  15.6707420  90.3704233  31.8153987
  14.5378089  92.9345373  22.4302001  14.4129228  92.1335113  21.9212947
  15.1957180  93.4291566  21.9415971   6.1586257  79.2894105  21.6079142
   5.4372843  79.9030073  21.4686615   6.9479513  79.8251870  21.5295788
  16.6012997  90.7354393  24.0581552  15.6543332  90.6159744  23.9859878
  16.9495770  89.8476891  24.1407813   8.9612570  76.6248532  27.8819793
   9.4846972  76.8710828  28.6446103   8.7424904  77.4568567  27.4622931
  13.6059430  90.5307109  20.2585904  13.4584393  89.6023817  20.4393474
  14.4312924  90.5527200  19.7742979  17.2093552  91.3535668  21.3450777
  18.1340100  91.1478529  21.2075228  17.0408855  91.1052069  22.2540118
  10.1665115  77.5662227  25.5669464   9.8261936  76.7670040  25.9690144
   9.4604122  77.8663938  24.9946297  10.8181587  74.6511539  24.0196787
  11.6407656  74.1772018  23.8975677  11.0619651  75.4302023  24.5195473
  13.6020945  78.3844947  15.2518021  13.8184559  79.2669585  14.9506849
  13.1215012  77.9931160  14.5223663   8.3420166  81.3430660  21.8288766
   8.1964747  81.6570963  22.7213047   7.8645370  81.9615560  21.2759664
  10.2016549  78.3333208  21.8769655  10.1878118  77.4374301  21.5401953
  10.9188977  78.3403872  22.5107941  12.0542680  78.7670548  23.9222783
  11.7960457  79.6887619  23.9207113  11.5227720  78.3700983  24.6123247
  16.9988868  91.8721335  16.7012868  17.1725746  91.3067758  15.9486720
  17.4917759  92.6722230  16.5192358   2.8165828  83.8836004  24.7676427
   2.2719296  84.6595812  24.8996701   3.6945178  84.2306809  24.6095548
   9.6053445  77.2147588  17.1457225   9.7269356  76.2864234  17.3448113
   9.3155487  77.2286274  16.2335541  12.4744635  74.9002499  20.2823945
  12.4966332  74.9641832  19.3275925  12.8912694  74.0607007  20.4764451
  22.8528259  84.6357758  18.3203168  23.2959405  83.8865083  17.9222291
  21.9754770  84.6267895  17.9376900   3.6031850  83.0105901  27.6606584
   2.8613586  83.1588536  28.2471214   3.2824594  83.2714166  26.7973333
  19.8855464  88.6387805  15.3297097  20.4106788  88.9775078  14.6046417
  19.7977816  87.7034821  15.1460232  11.5475513  92.5521879  27.4586974
  11.8562639  92.3071026  28.3309673  12.3450995  92.7568517  26.9705844
   9.0894524  78.7279586  31.3547158   9.1382680  79.6041708  30.9724928
   9.6317038  78.1856979  30.7818801  19.5749370  89.2720709  30.6348295
  18.7844914  89.2544848  30.0952794  19.3382725  89.8109003  31.3897332
  19.6947245  86.1213175  27.9481024  19.7445250  85.9563183  28.8896546
  19.5861168  85.2540434  27.5578904  16.9851007  82.1044103  29.2640330
  17.8860870  81.9650568  28.9724328  17.0598982  82.2698558  30.2038508
  11.3193813  79.4810958  28.1093517  10.4497122  79.7744524  27.8376105
  11.5553293  80.0651403  28.8300780  21.1965442  88.5410117  28.1923045
  20.9050250  88.9040097  29.0286506  20.5837573  87.8277125  28.0136377
  22.3961124  86.1062997  20.7125615  23.2308016  86.5452801  20.8763176
  22.5320253  85.6301650  19.8933861  19.4452630  83.6642731  26.6603103
  19.9206752  83.8570378  25.8521954  18.5218195  83.7201917  26.4146487
  14.0232847  75.6990575  25.6258937  14.5414790  76.4351602  25.3005426
  13.6687979  76.0054568  26.4605696  14.2745441  72.1190858  21.1459834
  14.5547194  71.4514047  21.7720260  15.0596048  72.3119953  20.6334497
  18.1454299  80.5408492  24.8931409  19.0971722  80.6406589  24.9143633
  17.9757749  79.7486760  25.4029493  16.1668679  77.6264075  25.0790810
  15.5718611  77.9069087  24.3837298  15.8818375  78.1157976  25.8507551
  20.6242377  83.7614611  24.0073708  20.5918697  82.8230612  24.1933392
  21.2343000  83.8398648  23.2739533  20.7736865  80.5525655  24.0531992
  20.2575914  79.7684111  23.8661920  21.6576814  80.2244371  24.2178511
  18.4347592  74.2966670  20.0127804  18.2372413  73.9881758  20.8971136
  19.0447298  75.0228309  20.1425734  26.4418927  84.8230618  23.1479745
  27.1722315  84.5615906  23.7087448  25.8325872  84.0859340  23.1881813
  24.5234224  82.9638481  23.7454196  23.7967387  82.8294446  23.1370688
  24.1081511  83.2715309  24.5510914  12.3464400  86.6828410  31.5101569
  13.2667410  86.8607009  31.7041616  12.3113983  85.7384456  31.3581269
   5.3426473  84.5929445  24.1524351   5.5612483  85.5246553  24.1712384
   5.7552247  84.2337419  24.9379154  12.2630691  75.0997530  16.1400039
  11.4531419  74.7544615  16.5155285  12.9515108  74.7905074  16.7287650
  14.1921239  74.1775577  17.7624336  14.7452277  74.5971031  18.4214359
  14.4291325  73.2511325  17.8047292  10.2154338  80.1662651  33.5427099
  10.1151065  81.1157008  33.4739191   9.9975880  79.8380890  32.6703170
  17.5700046  76.2876102  17.2703000  16.9898715  76.9460906  16.8881052
  17.3035979  75.4653447  16.8590417  16.0203612  75.6881160  19.4724320
  16.5203391  75.7997694  18.6638639  16.6639220  75.3842213  20.1125129
  10.0785608  83.5959790  32.3592161   9.5952690  84.3960150  32.5656050
  10.1646547  83.6067734  31.4059605   6.0058946  87.4864324  24.3960595
   6.9602199  87.4548267  24.3290526   5.8071469  87.0254948  25.2110821
   6.5958328  86.0565440  26.9631393   7.4151217  86.5509519  26.9866230
   6.8695135  85.1397408  26.9348960  16.3524924  78.4476193  16.3259348
  15.4650779  78.7325843  16.1079543  16.7678913  78.2869956  15.4786625
  19.7039460  78.4722714  20.0413687  20.4799850  78.9619166  20.3138304
  18.9787594  78.8980768  20.4985557  22.1412019  79.1850333  21.0987628
  22.7356510  78.9446069  20.3880936  22.2138602  78.4657463  21.7261164
  16.3265948  83.9630729  16.5409638  16.2701149  84.4199280  15.7017271
  16.8794290  83.2021413  16.3632481  20.1370754  79.7520460  17.3659758
  19.8807688  79.3517096  18.1967965  19.5123622  80.4664254  17.2409897
  24.4483091  82.4916534  19.8731049  23.8882649  82.5609723  20.6462611
  23.8426595  82.3157518  19.1530545  17.0600727  85.1535510  13.8362167
  17.0049531  84.9879781  12.8950612  16.4346782  85.8611543  13.9924357
   1.8493242  80.3903574  27.6623590   2.4952106  79.8802528  28.1510815
   1.6410393  81.1272256  28.2367015  14.3746634  87.4584422  33.1615730
  15.2437794  87.6325074  32.8002365  13.8953386  88.2778839  33.0391460
  10.3696852  74.6543619  13.4147486  10.3575522  75.5985459  13.5715757
  11.2620274  74.4713764  13.1206947   8.5432814  94.5781523  24.8405164
   9.4460061  94.6105133  25.1571659   8.3170184  93.6481974  24.8551500
  14.1848972  71.2486395  17.6693423  13.4181368  70.6944882  17.8150105
  14.5959677  71.3208264  18.5307574   6.1890733  77.5371191  31.7598604
   7.0522195  77.1807996  31.9701928   5.6156144  77.1985086  32.4474008
  26.0339110  99.1673048  22.5661005  26.6717520  99.0479795  21.8624345
  25.9159953 100.1153892  22.6248957  22.8428816  99.1200476  22.5022530
  22.5047328  99.0041540  21.6143064  23.7118584  98.7191641  22.4823536
  23.3248599 100.2735327  28.4608735  23.3137240  99.8788126  27.5889239
  23.4869239  99.5401400  29.0542507  20.0455860 103.0572439  27.4087919
  19.7545726 103.9618070  27.2934585  20.6812845 103.0988967  28.1231989
  20.9712067 100.4349288  23.9989279  21.5675639 100.2105310  23.2846242
  21.0287039  99.6934033  24.6014727  25.5880378  96.8924501  19.6414213
  26.3743468  96.4743925  19.2904630  25.8519083  97.7970594  19.8095861
  30.9888806  96.8299735  20.5447191  31.7213977  96.2598951  20.7785021
  30.2328161  96.4421335  20.9853697  22.6064925  99.2526976  17.7410534
  22.2423133  98.7257597  18.4523455  23.4632041  98.8625445  17.5677019
  28.5114226  90.5421309  25.0041800  28.1797551  91.4116720  24.7803015
  27.9159839  90.2257593  25.6835830  25.0045745 102.7433855  24.4037713
  24.7046469 103.6458894  24.2953520  24.6596805 102.4766038  25.2558866
  18.4558227  99.1947652  20.4374417  17.5308723  99.0623866  20.6452109
  18.7042640  99.9741871  20.9344360  28.4042889  95.2616395  22.0835150
  27.4959767  95.1931803  21.7893911  28.3530485  95.7388340  22.9116976
  22.4783755  96.6806041  30.0270047  21.7017089  97.2399961  30.0172912
  23.1174318  97.1662824  30.5484917  30.2704536  93.4632833  23.8613024
  29.6278916  93.7565367  23.2152819  29.7659464  93.3485754  24.6666221
  27.9244699  97.2096007  14.5498883  28.8362555  97.4423393  14.3746581
  27.4154346  97.7933051  13.9873962  20.7330127  99.4891494  29.5888014
  21.4744812 100.0276538  29.3122838  20.0267113 100.1157783  29.7459566
  26.2085467 101.6320634  28.1860176  26.6168823 101.1903045  27.4414808
  25.4862728 101.0573262  28.4394369  22.5616537  96.5693241  25.5593733
  23.4077732  96.9932655  25.7028382  22.5015175  95.9126865  26.2532296
  26.5314282 102.1921825  21.9412465  25.9023144 102.3567539  21.2388533
  26.1439944 102.6063435  22.7123429  30.4103513 103.1276263  19.2956828
  29.7254552 103.5075164  18.7453862  30.4947363 103.7371589  20.0288776
  25.7115982  94.2297609  27.2174906  25.4676914  94.9839670  26.6809182
  25.9875913  94.6082957  28.0522153  27.6654445 100.7736222  25.8952172
  27.8771340 101.4167982  25.2186553  27.6184193  99.9398538  25.4274102
  25.2680674  93.3854043  22.7988744  24.4065153  93.6835296  23.0905482
  25.2943109  93.6024441  21.8669777  22.0842243 101.9296233  19.2062550
  22.5480589 102.2083936  18.4167172  21.8199042 101.0279678  19.0235640
  18.9766325 101.4767715  22.1442313  19.5467682 101.9054983  21.5059798
  19.5674436 101.1950299  22.8426499  19.4691491  96.6431142  30.3903324
  18.8390152  97.3247423  30.6238721  19.3627579  96.5314224  29.4456463
  28.7800273 103.6508177  24.0674529  29.6017717 103.2488365  23.7857211
  28.7762676 103.5476411  25.0190645  22.5456876 103.1992221  26.2235240
  22.6101309 103.6612628  27.0593412  21.8367800 102.5689585  26.3517550
  13.0474166  96.5633429  23.7484239  13.2982205  97.4480438  24.0141815
  13.5833715  96.3838030  22.9759331  36.8706266  99.9946926  20.4159501
  36.1169974  99.4254324  20.2603505  37.0053807  99.9609590  21.3630135
  18.7472234  90.9451908  32.7528575  18.3539179  90.3918106  33.4276220
  19.5638374  91.2562486  33.1435093  21.6640195  92.3609787  30.3448832
  22.4049908  92.9616940  30.2653294  21.8958118  91.6187425  29.7866874
  16.8081533  97.5466154  28.6227062  16.6935048  96.6451412  28.9234161
  15.9526051  97.7929851  28.2711878  23.8873371 105.4883895  30.2214562
  23.4437225 104.7020273  29.9035467  24.5490584 105.6763045  29.5558453
  18.6460492 107.0179696  24.7475241  19.1967917 106.8896760  23.9752235
  17.8071968 107.3174585  24.3970134  25.9854609 105.7686695  28.2495964
  25.9673084 106.5895576  27.7576233  26.9074529 105.6440770  28.4746105
  22.4427663 103.2830824  29.0919472  22.9756000 102.5219112  28.8618780
  21.9141744 102.9904476  29.8343626  25.6097358  88.3890890  24.6213114
  25.2661627  89.2792532  24.5452224  25.9776320  88.1992548  23.7582699
  23.1594751  93.2249202  18.1870787  22.3036348  92.8356052  18.0076426
  23.5721703  93.3041163  17.3270573  24.6893898  90.7595545  22.5862347
  24.1858694  90.7225680  21.7730152  24.9824505  91.6688288  22.6459004
  20.9336784  90.8434275  21.5928529  21.7989781  90.6477084  21.2334418
  21.0014293  90.6144627  22.5197885  30.5481915 101.1331856  15.0638722
  29.7711357 100.7943015  14.6193884  31.2273396 101.1384479  14.3893687
  25.3633944  96.2526593  14.9545330  25.0584079  96.5672742  15.8055473
  26.3164386  96.3308013  14.9972663  28.7873221 100.6065837  21.7205330
  28.1296896 101.2965098  21.8085459  29.5913621 100.9962269  22.0639317
  18.5399103  93.0736483  18.9644895  19.1142855  92.8511664  18.2318088
  19.1270086  93.1425177  19.7173497  27.5978680  98.9610210  19.7709272
  28.1110562  99.5940201  20.2730982  28.2479904  98.3611405  19.4052632
  20.8421771  89.9477732  17.6919965  20.1886183  89.6326749  17.0676580
  20.8002245  89.3253472  18.4179788  24.0759511  96.4359665  22.0167612
  23.1582073  96.6574612  21.8589301  24.4919655  96.5105976  21.1579320
  24.8594559  97.8351081  17.1470293  25.6066378  98.3472478  16.8377415
  25.1286148  97.5135134  18.0074686  28.3640476 103.9416211  17.8988415
  27.9102804 103.1007121  17.9553605  27.7334443 104.5777609  18.2363195
  27.3073396  94.8708197  19.1289082  26.5696153  94.3585583  19.4599325
  27.5600170  94.4308579  18.3172359  26.8073416 105.7792708  18.8338233
  27.0996390 106.3397765  18.1150598  27.3172036 106.0721269  19.5891392
  27.4085023  87.6484449  19.7230851  27.7143900  86.7881813  19.4356766
  28.1337628  88.2402069  19.5229845  21.6806103  97.9438242  20.2307042
  21.7354713  96.9912079  20.1549519  20.8697305  98.0997681  20.7148341
  19.6198463  96.5615302  17.9897421  18.8066329  96.8609472  18.3962613
  20.1157457  96.1670991  18.7071903  25.2172675  97.0257126  26.8212315
  25.5722062  97.2528600  27.6806781  25.8644806  97.3575503  26.1989570
  30.9470412 100.1475562  17.5261644  30.8088310 100.3377158  16.5982833
  30.5906630 100.9094945  17.9829695  19.1112538  94.1333657  23.6058656
  19.7511917  93.9922417  22.9081619  18.2790068  93.8468171  23.2297258
  30.9739791 102.2152089  22.5372916  31.4076298 102.1227378  23.3855970
  31.6871372 102.1909590  21.8992932  24.7067686 105.8154183  24.0706016
  24.7604708 106.3845120  24.8383732  23.8382468 105.9856068  23.7060053
  16.1141154  94.1033982  18.3831643  16.3747972  95.0179316  18.2740803
  16.9358327  93.6358425  18.5328256  17.5866080  95.5171740  25.5530468
  18.2589133  95.3089102  24.9043116  16.7595866  95.3193826  25.1135700
  31.8355341 102.2575790  25.0705801  32.0291231 103.1621600  25.3165076
  31.7355959 101.7983209  25.9044386  23.4891652  92.1433681  27.5696128
  22.8419567  92.8423630  27.4760605  24.2592667  92.5769824  27.9372377
  26.8970450 102.4082533  30.6446682  26.7455956 102.1793084  29.7276765
  26.8875129 103.3653134  30.6578027  23.6655786  99.9814445  25.6292948
  24.5947846 100.1325605  25.4561915  23.2446816 100.0698466  24.7741595
  22.4644118 104.0065110  23.3991486  22.3255203 103.6383894  24.2717424
  21.6758714 104.5212749  23.2275444  24.0149333 103.3846713  20.7880324
  23.6799165 103.3447483  21.6837973  23.5153279 102.7191428  20.3150734
  17.9893577  98.7914343  26.3132905  17.8513375  98.0594581  26.9144444
  18.8998500  98.7023243  26.0317092  20.6175877  98.5034302  25.8016584
  21.3275496  97.8627494  25.7603203  20.5745186  98.7547197  26.7242765
  28.6062656 105.4401655  28.7223164  28.5475202 104.7560875  28.0553747
  29.0082175 106.1820645  28.2703790  19.3304811  95.4899520  27.6212224
  18.7942168  95.0390258  28.2733820  18.7421520  95.6245429  26.8782688
  28.6080063 103.4041239  26.9537143  27.7206842 103.0667161  27.0763542
  29.1778614 102.6724270  27.1905909  15.0643933  94.6255528  24.7065218
  14.9802121  94.0181197  23.9715628  14.2426639  95.1164546  24.7074715
  22.1381217 108.0642692  23.9198386  22.0651388 108.8697663  24.4317691
  21.6958610 108.2634657  23.0946408  25.2367647  93.1109091  20.0735413
  25.7336346  92.3579053  19.7536484  24.4654628  93.1473408  19.5078623
  33.0897404  98.8149457  21.7153705  33.0787280  99.6974172  21.3447638
  32.2214783  98.4621007  21.5208242  24.5979900 107.9629526  26.0756545
  25.3107873 108.5976990  26.0032447  24.1069929 108.0593392  25.2596547
  26.3197427 101.8680778  17.6473837  25.3853706 101.9882241  17.4778541
  26.4974096 100.9653245  17.3833847  21.8202615  95.2526474  19.8007098
  21.4500403  94.6997514  20.4888004  22.3161708  94.6484608  19.2482098
  29.7069979  97.7098098  18.1823871  30.1730431  98.5426089  18.1084174
  30.1577479  97.2443079  18.8869129  19.6491814 105.7123969  26.8962116
  20.3501273 106.3460452  27.0491510  19.1786929 106.0538701  26.1357755
  27.7746210 104.0541919  15.1810023  28.0506054 103.9398513  16.0903897
  26.9050708 103.6559404  15.1422196  27.6786641  90.0778685  22.2214772
  26.7649721  90.3082911  22.3896979  28.1079743  90.1617129  23.0728805
  27.4493100  98.2668576  24.7214666  26.7964550  98.5144484  24.0667119
  27.8273480  97.4532715  24.3877144  23.4980673  99.0088388  31.2080703
  22.8221310  98.9082517  31.8783079  24.3208307  98.8527601  31.6716701
  22.2403456 110.3155315  25.4438319  22.7921764 110.4786937  26.2087405
  22.5809649 110.9059753  24.7718344  17.2167949  92.6630465  26.0460204
  17.2809275  93.5245296  25.6337602  17.1535069  92.0504466  25.3132563
  16.6920221  94.7353597  29.6933238  17.3192260  94.3530675  30.3070763
  15.8348140  94.5167799  30.0588931  27.0914330 105.1416573  31.2986974
  27.6354234 105.7546531  30.8041929  26.5101175 105.6996151  31.8153987
  25.3771843 108.2637291  22.4302001  25.2522982 107.4627030  21.9212947
  26.0350934 108.7583484  21.9415971  16.9980011  94.6186023  21.6079142
  16.2766597  95.2321991  21.4686615  17.7873267  95.1543788  21.5295788
  27.4406751 106.0646311  24.0581552  26.4937087 105.9451662  23.9859878
  27.7889525 105.1768809  24.1407813  19.8006325  91.9540450  27.8819793
  20.3240727  92.2002746  28.6446103  19.5818658  92.7860484  27.4622931
  24.4453185 105.8599027  20.2585904  24.2978147 104.9315734  20.4393474
  25.2706678 105.8819118  19.7742979  28.0487307 106.6827586  21.3450777
  28.9733854 106.4770447  21.2075228  27.8802610 106.4343987  22.2540118
  21.0058870  92.8954145  25.5669464  20.6655690  92.0961958  25.9690144
  20.2997876  93.1955855  24.9946297  21.6575342  89.9803457  24.0196787
  22.4801411  89.5063935  23.8975677  21.9013405  90.7593941  24.5195473
  24.4414699  93.7136864  15.2518021  24.6578313  94.5961502  14.9506849
  23.9608766  93.3223078  14.5223663  19.1813920  96.6722578  21.8288766
  19.0358501  96.9862881  22.7213047  18.7039124  97.2907478  21.2759664
  21.0410303  93.6625126  21.8769655  21.0271872  92.7666219  21.5401953
  21.7582731  93.6695789  22.5107941  22.8936434  94.0962466  23.9222783
  22.6354212  95.0179537  23.9207113  22.3621474  93.6992900  24.6123247
  27.8382623 107.2013253  16.7012868  28.0119500 106.6359675  15.9486720
  28.3311514 108.0014148  16.5192358  13.6559583  99.2127922  24.7676427
  13.1113051  99.9887730  24.8996701  14.5338932  99.5598727  24.6095548
  20.4447199  92.5439506  17.1457225  20.5663110  91.6156152  17.3448113
  20.1549242  92.5578192  16.2335541  23.3138390  90.2294416  20.2823945
  23.3360086  90.2933749  19.3275925  23.7306449  89.3898925  20.4764451
  33.6922014  99.9649676  18.3203168  34.1353160  99.2157001  17.9222291
  32.8148524  99.9559812  17.9376900  14.4425604  98.3397818  27.6606584
  13.7007340  98.4880454  28.2471214  14.1218349  98.6006084  26.7973333
  30.7249218 103.9679723  15.3297097  31.2500542 104.3066996  14.6046417
  30.6371571 103.0326738  15.1460232  22.3869267 107.8813797  27.4586974
  22.6956394 107.6362943  28.3309673  23.1844749 108.0860435  26.9705844
  19.9288279  94.0571503  31.3547158  19.9776434  94.9333626  30.9724928
  20.4710793  93.5148896  30.7818801  30.4143124 104.6012627  30.6348295
  29.6238668 104.5836765  30.0952794  30.1776479 105.1400920  31.3897332
  30.5340999 101.4505093  27.9481024  30.5839004 101.2855100  28.8896546
  30.4254923 100.5832352  27.5578904  27.8244762  97.4336021  29.2640330
  28.7254625  97.2942486  28.9724328  27.8992736  97.5990476  30.2038508
  22.1587567  94.8102876  28.1093517  21.2890877  95.1036442  27.8376105
  22.3947048  95.3943321  28.8300780  32.0359196 103.8702034  28.1923045
  31.7444005 104.2332015  29.0286506  31.4231328 103.1569043  28.0136377
  33.2354879 101.4354914  20.7125615  34.0701770 101.8744718  20.8763176
  33.3714007 100.9593567  19.8933861  30.2846385  98.9934649  26.6603103
  30.7600506  99.1862295  25.8521954  29.3611950  99.0493835  26.4146487
  24.8626601  91.0282493  25.6258937  25.3808545  91.7643520  25.3005426
  24.5081734  91.3346486  26.4605696  25.1139195  87.4482775  21.1459834
  25.3940949  86.7805964  21.7720260  25.8989802  87.6411871  20.6334497
  28.9848054  95.8700409  24.8931409  29.9365476  95.9698507  24.9143633
  28.8151504  95.0778678  25.4029493  27.0062433  92.9555992  25.0790810
  26.4112365  93.2361005  24.3837298  26.7212130  93.4449893  25.8507551
  31.4636131  99.0906529  24.0073708  31.4312451  98.1522530  24.1933392
  32.0736755  99.1690566  23.2739533  31.6130620  95.8817572  24.0531992
  31.0969668  95.0976029  23.8661920  32.4970568  95.5536289  24.2178511
  29.2741347  89.6258588  20.0127804  29.0766168  89.3173676  20.8971136
  29.8841052  90.3520227  20.1425734  37.2812681 100.1522536  23.1479745
  38.0116070  99.8907824  23.7087448  36.6719627  99.4151258  23.1881813
  35.3627978  98.2930398  23.7454196  34.6361142  98.1586363  23.1370688
  34.9475265  98.6007227  24.5510914  23.1858155 102.0120328  31.5101569
  24.1061164 102.1898927  31.7041616  23.1507738 101.0676373  31.3581269
  16.1820227  99.9221363  24.1524351  16.4006237 100.8538470  24.1712384
  16.5946001  99.5629337  24.9379154  23.1024445  90.4289448  16.1400039
  22.2925173  90.0836533  16.5155285  23.7908862  90.1196992  16.7287650
  25.0314993  89.5067495  17.7624336  25.5846032  89.9262948  18.4214359
  25.2685080  88.5803243  17.8047292  21.0548093  95.4954568  33.5427099
  20.9544819  96.4448925  33.4739191  20.8369635  95.1672807  32.6703170
  28.4093800  91.6168020  17.2703000  27.8292469  92.2752824  16.8881052
  28.1429733  90.7945365  16.8590417  26.8597367  91.0173078  19.4724320
  27.3597145  91.1289612  18.6638639  27.5032975  90.7134130  20.1125129
  20.9179363  98.9251707  32.3592161  20.4346444  99.7252067  32.5656050
  21.0040302  98.9359652  31.4059605  16.8452700 102.8156242  24.3960595
  17.7995954 102.7840184  24.3290526  16.6465224 102.3546866  25.2110821
  17.4352082 101.3857358  26.9631393  18.2544971 101.8801437  26.9866230
  17.7088890 100.4689326  26.9348960  27.1918678  93.7768110  16.3259348
  26.3044533  94.0617761  16.1079543  27.6072668  93.6161874  15.4786625
  30.5433215  93.8014631  20.0413687  31.3193605  94.2911084  20.3138304
  29.8181349  94.2272685  20.4985557  32.9805773  94.5142251  21.0987628
  33.5750264  94.2737986  20.3880936  33.0532357  93.7949381  21.7261164
  27.1659702  99.2922646  16.5409638  27.1094904  99.7491198  15.7017271
  27.7188045  98.5313331  16.3632481  30.9764508  95.0812378  17.3659758
  30.7201442  94.6809014  18.1967965  30.3517376  95.7956172  17.2409897
  35.2876846  97.8208451  19.8731049  34.7276404  97.8901641  20.6462611
  34.6820349  97.6449436  19.1530545  27.8994482 100.4827427  13.8362167
  27.8443285 100.3171699  12.8950612  27.2740537 101.1903460  13.9924357
  12.6886997  95.7195492  27.6623590  13.3345860  95.2094446  28.1510815
  12.4804148  96.4564174  28.2367015  25.2140389 102.7876339  33.1615730
  26.0831548 102.9616992  32.8002365  24.7347140 103.6070756  33.0391460
  21.2090607  89.9835536  13.4147486  21.1969277  90.9277376  13.5715757
  22.1014029  89.8005682  13.1206947  19.3826569 109.9073440  24.8405164
  20.2853816 109.9397051  25.1571659  19.1563939 108.9773891  24.8551500
  25.0242726  86.5778313  17.6693423  24.2575122  86.0236800  17.8150105
  25.4353431  86.6500182  18.5307574  17.0284488  92.8663109  31.7598604
  17.8915949  92.5099914  31.9701928  16.4549898  92.5277004  32.4474008
  36.8732864 114.4964965  22.5661005  37.5111274 114.3771713  21.8624345
  36.7553707 115.4445809  22.6248957  33.6822571 114.4492393  22.5022530
  33.3441082 114.3333458  21.6143064  34.5512339 114.0483558  22.4823536
  34.1642354 115.6027245  28.4608735  34.1530994 115.2080043  27.5889239
  34.3262993 114.8693318  29.0542507  36.4274133 112.2216419  19.6414213
  37.2137222 111.8035842  19.2904630  36.6912837 113.1262511  19.8095861
  41.8282560 112.1591652  20.5447191  42.5607732 111.5890869  20.7785021
  41.0721916 111.7713253  20.9853697  33.4458680 114.5818894  17.7410534
  33.0816887 114.0549515  18.4523455  34.3025796 114.1917363  17.5677019
  39.3507980 105.8713226  25.0041800  39.0191305 106.7408637  24.7803015
  38.7553594 105.5549510  25.6835830  39.2436644 110.5908313  22.0835150
  38.3353521 110.5223721  21.7893911  39.1924240 111.0680258  22.9116976
  33.3177509 112.0097958  30.0270047  32.5410844 112.5691878  30.0172912
  33.9568073 112.4954741  30.5484917  41.1098290 108.7924751  23.8613024
  40.4672670 109.0857284  23.2152819  40.6053219 108.6777671  24.6666221
  38.7638454 112.5387924  14.5498883  39.6756310 112.7715311  14.3746581
  38.2548101 113.1224968  13.9873962  33.4010291 111.8985159  25.5593733
  34.2471487 112.3224572  25.7028382  33.3408929 111.2418783  26.2532296
  36.5509737 109.5589527  27.2174906  36.3070669 110.3131588  26.6809182
  36.8269667 109.9374875  28.0522153  38.5048200 116.1028140  25.8952172
  38.7165095 116.7459899  25.2186553  38.4577948 115.2690456  25.4274102
  36.1074429 108.7145960  22.7988744  35.2458908 109.0127214  23.0905482
  36.1336863 108.9316359  21.8669777  30.3085246 111.9723060  30.3903324
  29.6783906 112.6539341  30.6238721  30.2021333 111.8606141  29.4456463
  47.7100021 115.3238843  20.4159501  46.9563729 114.7546242  20.2603505
  47.8447562 115.2901508  21.3630135  29.5865988 106.2743826  32.7528575
  29.1932934 105.7210024  33.4276220  30.4032129 106.5854404  33.1435093
  32.5033949 107.6901705  30.3448832  33.2443663 108.2908858  30.2653294
  32.7351872 106.9479342  29.7866874  36.4491112 103.7182808  24.6213114
  36.1055382 104.6084449  24.5452224  36.8170075 103.5284465  23.7582699
  33.9988506 108.5541120  18.1870787  33.1430102 108.1647970  18.0076426
  34.4115458 108.6333080  17.3270573  35.5287653 106.0887463  22.5862347
  35.0252448 106.0517598  21.7730152  35.8218259 106.9980205  22.6459004
  31.7730538 106.1726193  21.5928529  32.6383535 105.9769001  21.2334418
  31.8408047 105.9436544  22.5197885  41.3875669 116.4623773  15.0638722
  40.6105112 116.1234933  14.6193884  42.0667150 116.4676397  14.3893687
  36.2027698 111.5818511  14.9545330  35.8977834 111.8964660  15.8055473
  37.1558140 111.6599931  14.9972663  39.6266976 115.9357755  21.7205330
  38.9690650 116.6257016  21.8085459  40.4307375 116.3254187  22.0639317
  29.3792858 108.4028400  18.9644895  29.9536609 108.1803582  18.2318088
  29.9663840 108.4717095  19.7173497  38.4372435 114.2902127  19.7709272
  38.9504317 114.9232119  20.2730982  39.0873659 113.6903323  19.4052632
  31.6815525 105.2769649  17.6919965  31.0279938 104.9618667  17.0676580
  31.6395999 104.6545390  18.4179788  34.9153266 111.7651583  22.0167612
  33.9975827 111.9866530  21.8589301  35.3313409 111.8397893  21.1579320
  35.6988313 113.1642999  17.1470293  36.4460132 113.6764396  16.8377415
  35.9679903 112.8427051  18.0074686  38.1467151 110.2000115  19.1289082
  37.4089907 109.6877501  19.4599325  38.3993924 109.7600496  18.3172359
  38.2478778 102.9776367  19.7230851  38.5537655 102.1173730  19.4356766
  38.9731383 103.5693987  19.5229845  32.5199858 113.2730160  20.2307042
  32.5748467 112.3203996  20.1549519  31.7091060 113.4289599  20.7148341
  30.4592218 111.8907220  17.9897421  29.6460083 112.1901390  18.3962613
  30.9551212 111.4962908  18.7071903  36.0566429 112.3549044  26.8212315
  36.4115817 112.5820517  27.6806781  36.7038560 112.6867421  26.1989570
  41.7864166 115.4767480  17.5261644  41.6482065 115.6669076  16.5982833
  41.4300385 116.2386863  17.9829695  29.9506292 109.4625575  23.6058656
  30.5905672 109.3214334  22.9081619  29.1183823 109.1760089  23.2297258
  41.8133546 117.5444007  22.5372916  42.2470052 117.4519296  23.3855970
  42.5265126 117.5201507  21.8992932  26.9534909 109.4325900  18.3831643
  27.2141726 110.3471233  18.2740803  27.7752081 108.9650343  18.5328256
  28.4259834 110.8463657  25.5530468  29.0982887 110.6381019  24.9043116
  27.5989621 110.6485743  25.1135700  42.6749095 117.5867708  25.0705801
  42.8684985 118.4913518  25.3165076  42.5749713 117.1275127  25.9044386
  34.3285406 107.4725598  27.5696128  33.6813321 108.1715548  27.4760605
  35.0986421 107.9061742  27.9372377  34.5049540 115.3106363  25.6292948
  35.4341600 115.4617523  25.4561915  34.0840570 115.3990384  24.7741595
  31.4569632 113.8326220  25.8016584  32.1669250 113.1919412  25.7603203
  31.4138940 114.0839114  26.7242765  30.1698566 110.8191437  27.6212224
  29.6335923 110.3682176  28.2733820  29.5815274 110.9537346  26.8782688
  25.9037687 109.9547445  24.7065218  25.8195876 109.3473115  23.9715628
  25.0820394 110.4456463  24.7074715  36.0761401 108.4401009  20.0735413
  36.5730101 107.6870971  19.7536484  35.3048383 108.4765325  19.5078623
  43.9291158 114.1441374  21.7153705  43.9181035 115.0266090  21.3447638
  43.0608538 113.7912925  21.5208242  32.6596370 110.5818392  19.8007098
  32.2894157 110.0289432  20.4888004  33.1555462 109.9776525  19.2482098
  40.5463733 113.0390015  18.1823871  41.0124185 113.8718007  18.1084174
  40.9971234 112.5734997  18.8869129  38.5180396 105.4070602  22.2214772
  37.6043476 105.6374829  22.3896979  38.9473497 105.4909046  23.0728805
  38.2886854 113.5960494  24.7214666  37.6358305 113.8436402  24.0667119
  38.6667234 112.7824632  24.3877144  34.3374427 114.3380305  31.2080703
  33.6615064 114.2374435  31.8783079  35.1602061 114.1819519  31.6716701
  28.0561703 107.9922382  26.0460204  28.1203030 108.8537213  25.6337602
  27.9928824 107.3796384  25.3132563  27.5313976 110.0645515  29.6933238
  28.1586015 109.6822592  30.3070763  26.6741895 109.8459717  30.0588931
  27.8373766 109.9477941  21.6079142  27.1160351 110.5613908  21.4686615
  28.6267022 110.4835706  21.5295788  30.6400079 107.2832367  27.8819793
  31.1634481 107.5294664  28.6446103  30.4212413 108.1152402  27.4622931
  31.8452624 108.2246062  25.5669464  31.5049445 107.4253875  25.9690144
  31.1391631 108.5247773  24.9946297  32.4969096 105.3095375  24.0196787
  33.3195165 104.8355853  23.8975677  32.7407160 106.0885858  24.5195473
  35.2808454 109.0428782  15.2518021  35.4972068 109.9253420  14.9506849
  34.8002521 108.6514996  14.5223663  30.0207675 112.0014495  21.8288766
  29.8752256 112.3154798  22.7213047  29.5432879 112.6199396  21.2759664
  31.8804058 108.9917043  21.8769655  31.8665627 108.0958137  21.5401953
  32.5976486 108.9987707  22.5107941  33.7330188 109.4254384  23.9222783
  33.4747966 110.3471454  23.9207113  33.2015229 109.0284818  24.6123247
  31.2840954 107.8731424  17.1457225  31.4056865 106.9448070  17.3448113
  30.9942996 107.8870110  16.2335541  34.1532144 105.5586334  20.2823945
  34.1753841 105.6225667  19.3275925  34.5700203 104.7190843  20.4764451
  44.5315768 115.2941594  18.3203168  44.9746914 114.5448919  17.9222291
  43.6542279 115.2851730  17.9376900  30.7682033 109.3863421  31.3547158
  30.8170189 110.2625544  30.9724928  31.3104547 108.8440814  30.7818801
  41.3734754 116.7797011  27.9481024  41.4232759 116.6147018  28.8896546
  41.2648677 115.9124270  27.5578904  38.6638516 112.7627939  29.2640330
  39.5648379 112.6234404  28.9724328  38.7386491 112.9282394  30.2038508
  32.9981322 110.1394793  28.1093517  32.1284631 110.4328359  27.8376105
  33.2340802 110.7235238  28.8300780  44.0748633 116.7646832  20.7125615
  44.9095524 117.2036636  20.8763176  44.2107762 116.2885485  19.8933861
  41.1240139 114.3226567  26.6603103  41.5994261 114.5154213  25.8521954
  40.2005704 114.3785753  26.4146487  35.7020356 106.3574410  25.6258937
  36.2202299 107.0935437  25.3005426  35.3475488 106.6638404  26.4605696
  35.9532950 102.7774693  21.1459834  36.2334703 102.1097882  21.7720260
  36.7383557 102.9703788  20.6334497  39.8241808 111.1992327  24.8931409
  40.7759231 111.2990425  24.9143633  39.6545258 110.4070595  25.4029493
  37.8456188 108.2847910  25.0790810  37.2506120 108.5652923  24.3837298
  37.5605884 108.7741811  25.8507551  42.3029886 114.4198447  24.0073708
  42.2706206 113.4814447  24.1933392  42.9130509 114.4982483  23.2739533
  42.4524374 111.2109490  24.0531992  41.9363423 110.4267947  23.8661920
  43.3364323 110.8828207  24.2178511  40.1135101 104.9550506  20.0127804
  39.9159922 104.6465594  20.8971136  40.7234807 105.6812144  20.1425734
  48.1206436 115.4814453  23.1479745  48.8509824 115.2199742  23.7087448
  47.5113381 114.7443175  23.1881813  46.2021733 113.6222316  23.7454196
  45.4754896 113.4878281  23.1370688  45.7869020 113.9299145  24.5510914
  33.9418200 105.7581366  16.1400039  33.1318928 105.4128451  16.5155285
  34.6302616 105.4488909  16.7287650  35.8708748 104.8359412  17.7624336
  36.4239786 105.2554866  18.4214359  36.1078834 103.9095161  17.8047292
  31.8941847 110.8246486  33.5427099  31.7938574 111.7740843  33.4739191
  31.6763389 110.4964725  32.6703170  39.2487555 106.9459938  17.2703000
  38.6686224 107.6044742  16.8881052  38.9823488 106.1237282  16.8590417
  37.6991121 106.3464995  19.4724320  38.1990900 106.4581530  18.6638639
  38.3426729 106.0426048  20.1125129  38.0312433 109.1060028  16.3259348
  37.1438288 109.3909679  16.1079543  38.4466422 108.9453791  15.4786625
  41.3826969 109.1306549  20.0413687  42.1587359 109.6203001  20.3138304
  40.6575103 109.5564603  20.4985557  43.8199528 109.8434168  21.0987628
  44.4144019 109.6029904  20.3880936  43.8926111 109.1241299  21.7261164
  38.0053457 114.6214564  16.5409638  37.9488658 115.0783115  15.7017271
  38.5581799 113.8605249  16.3632481  41.8158263 110.4104296  17.3659758
  41.5595197 110.0100931  18.1967965  41.1911131 111.1248090  17.2409897
  46.1270600 113.1500369  19.8731049  45.5670158 113.2193558  20.6462611
  45.5214104 112.9741354  19.1530545  38.7388236 115.8119345  13.8362167
  38.6837040 115.6463617  12.8950612  38.1134291 116.5195378  13.9924357
  23.5280751 111.0487410  27.6623590  24.1739615 110.5386364  28.1510815
  23.3197902 111.7856091  28.2367015  32.0484361 105.3127454  13.4147486
  32.0363031 106.2569294  13.5715757  32.9407783 105.1297600  13.1206947
  35.8636481 101.9070231  17.6693423  35.0968877 101.3528718  17.8150105
  36.2747186 101.9792100  18.5307574  27.8678242 108.1955027  31.7598604
  28.7309704 107.8391831  31.9701928  27.2943653 107.8568921  32.4474008
  47.2884867 119.0474725  24.6213114  46.9449136 119.9376367  24.5452224
  47.6563829 118.8576383  23.7582699  49.0872532 118.3068284  19.7230851
  49.3931409 117.4465648  19.4356766  49.8125137 118.8985905  19.5229845
  46.7926704 118.1066611  21.1459834  47.0728458 117.4389800  21.7720260
  47.5777311 118.2995706  20.6334497  50.9528856 120.2842423  20.0127804
  50.7553677 119.9757511  20.8971136  51.5628561 121.0104062  20.1425734
  46.7030235 117.2362148  17.6693423  45.9362631 116.6820635  17.8150105
  47.1140940 117.3084017  18.5307574   6.9275148  51.7879943  15.4468470
   6.8687695  51.1039163  14.7799053   7.3294667  52.5298933  14.9949096
   5.4126822  51.4894860  18.0232280   5.9566726  52.1024818  17.5287235
   4.8313667  52.0474438  18.5399293   8.7355617  50.9490914  17.3593602
   7.9451160  50.9315053  16.8198101   8.4988971  51.4879208  18.1142638
  10.3571689  50.2180322  14.9168352  10.0656497  50.5810302  15.7531813
   9.7443820  49.5047330  14.7381684   3.5352881  49.1354627  19.8861037
   4.4044041  49.3095279  19.5247672   3.0559632  49.9549043  19.7636766
  15.1945357  60.8443253   9.2906311  15.8323767  60.7250000   8.5869652
  15.0766200  61.7924096   9.3494264  12.0035063  60.7970681   9.2267836
  11.6653575  60.6811745   8.3388371  12.8724831  60.3961846   9.2068842
  12.4854846  61.9505532  15.1854042  12.4743487  61.5558331  14.3134545
  12.6475485  61.2171605  15.7787813   9.2062107  64.7342644  14.1333226
   8.9151973  65.6388275  14.0179892   9.8419091  64.7759172  14.8477295
  10.1318314  62.1119493  10.7234585  10.7281886  61.8875515  10.0091548
  10.1893286  61.3704238  11.3260033  20.1495052  58.5069940   7.2692498
  20.8820224  57.9369156   7.5030328  19.3934408  58.1191540   7.7099004
  17.6720473  52.2191514  11.7287107  17.3403797  53.0886925  11.5048322
  17.0766086  51.9027798  12.4081137  14.1651992  64.4204060  11.1283019
  13.8652715  65.3229098  11.0198827  13.8203052  64.1536243  11.9804172
  17.5649136  56.9386600   8.8080457  16.6566013  56.8702008   8.5139218
  17.5136732  57.4158545   9.6362282  11.6390002  58.3576245  16.7515354
  10.8623336  58.9170166  16.7418219  12.2780565  58.8433028  17.2730224
  19.4310782  55.1403038  10.5858331  18.7885163  55.4335571   9.9398125
  18.9265711  55.0255959  11.3911527   9.8936374  61.1661699  16.3133321
  10.6351058  61.7046743  16.0368145   9.1873360  61.7927988  16.4704873
  15.3691714  63.3090839  14.9105482  15.7775070  62.8673250  14.1660115
  14.6468975  62.7343467  15.1639675  11.7222784  58.2463446  12.2839039
  12.5683979  58.6702860  12.4273688  11.6621421  57.5897070  12.9777602
  15.6920528  63.8692030   8.6657771  15.0629391  64.0337744   7.9633839
  15.3046190  64.2833639   9.4368735  19.5709760  64.8046468   6.0202135
  18.8860798  65.1845369   5.4699168  19.6553610  65.4141794   6.7534083
  14.8722229  55.9067814  13.9420213  14.6283161  56.6609875  13.4054489
  15.1482160  56.2853162  14.7767460  16.8260692  62.4506427  12.6197479
  17.0377587  63.0938187  11.9431860  16.7790440  61.6168743  12.1519409
   8.1372571  63.1537920   8.8687620   8.7073928  63.5825188   8.2305104
   8.7280683  62.8720504   9.5671805   8.6297738  58.3201347  17.1148631
   7.9996398  59.0017628  17.3484028   8.5233826  58.2084429  16.1701769
  17.9406520  65.3278382  10.7919836  18.7623964  64.9258569  10.5102518
  17.9368923  65.2246616  11.7435952  11.7063123  64.8762425  12.9480546
  11.7707556  65.3382833  13.7838718  10.9974047  64.2459790  13.0762856
  26.0312513  61.6717131   7.1404807  25.2776221  61.1024529   6.9848812
  26.1660054  61.6379795   8.0875442   7.9078481  52.6222113  19.4773882
   7.5145426  52.0688311  20.1521526   8.7244621  52.9332691  19.8680400
  10.8246442  54.0379992  17.0694139  11.5656155  54.6387145  16.9898601
  11.0564364  53.2957630  16.5112181   5.9687780  59.2236359  15.3472368
   5.8541295  58.3221616  15.6479467   5.1132297  59.4700056  14.9957185
  13.0479617  67.1654099  16.9459869  12.6043471  66.3790478  16.6280773
  13.7096831  67.3533250  16.2803760   7.8066738  68.6949901  11.4720547
   8.3574164  68.5666964  10.6997541   6.9678214  68.9944790  11.1215440
  15.1460855  67.4456899  14.9741270  15.1279331  68.2665780  14.4821539
  16.0680775  67.3210975  15.1991411  11.6033910  64.9601029  15.8164778
  12.1362246  64.1989317  15.5864086  11.0747991  64.6674681  16.5588933
  17.9479468  62.2836042   8.4450637  17.2903143  62.9735303   8.5330765
  18.7519867  62.6732474   8.7884623  16.7584927  60.6380415   6.4954579
  17.2716809  61.2710406   6.9976288  17.4086151  60.0381610   6.1297939
  13.2365758  58.1129870   8.7412919  12.3188319  58.3344817   8.5834607
  13.6525902  58.1876181   7.8824626  17.5246723  65.6186416   4.6233721
  17.0709050  64.7777326   4.6798912  16.8940690  66.2547814   4.9608501
  15.9679663  67.4562913   5.5583539  16.2602637  68.0167970   4.8395905
  16.4778283  67.7491474   6.3136698  14.3778921  58.7027331  13.5457622
  14.7328309  58.9298804  14.4052088  15.0251053  59.0345708  12.9234877
  20.1076658  61.8245767   4.2506951  19.9694557  62.0147363   3.3228140
  19.7512877  62.5865150   4.7075002  20.1346038  63.8922294   9.2618222
  20.5682545  63.7997583  10.1101276  20.8477619  63.8679795   8.6238238
  13.8673933  67.4924388  10.7951323  13.9210955  68.0615325  11.5629039
  12.9988714  67.6626273  10.4305360   6.7472326  57.1941945  12.2775774
   7.4195380  56.9859307  11.6288423   5.9202113  56.9964031  11.8381006
  20.9961588  63.9345995  11.7951108  21.1897478  64.8391805  12.0410383
  20.8962206  63.4753414  12.6289693  12.6497898  53.8203885  14.2941435
  12.0025813  54.5193835  14.2005911  13.4198914  54.2540029  14.6617683
  16.0576696  64.0852738  17.3691988  15.9062203  63.8563289  16.4522072
  16.0481376  65.0423339  17.3823333  12.8262033  61.6584650  12.3538255
  13.7554093  61.8095810  12.1807222  12.4053063  61.7468671  11.4986901
  11.6250364  65.6835315  10.1236792  11.4861450  65.3154099  10.9962730
  10.8364961  66.1982954   9.9520750  13.1755580  65.0616917   7.5125630
  12.8405412  65.0217687   8.4083280  12.6759525  64.3961633   7.0396040
   7.1499824  60.4684548  13.0378211   7.0119622  59.7364786  13.6389750
   8.0604747  60.3793448  12.7562399   9.7782124  60.1804507  12.5261891
  10.4881743  59.5397699  12.4848509   9.7351432  60.4317402  13.4488072
  17.7668903  67.1171860  15.4468470  17.7081449  66.4331080  14.7799053
  18.1688421  67.8590850  14.9949096   8.4911058  57.1669725  14.3457530
   7.9548415  56.7160463  14.9979127   7.9027767  57.3015634  13.6027995
  17.7686310  65.0811444  13.6782450  16.8813089  64.7437366  13.8008849
  18.3384861  64.3494475  13.9151215  11.2987464  69.7412896  10.6443693
  11.2257635  70.5467868  11.1562998  10.8564857  69.9404862   9.8191714
  22.2503651  60.4919661   8.4399011  22.2393527  61.3744377   8.0692945
  21.3821030  60.1391212   8.2453549  13.7586147  69.6399730  12.8001852
  14.4714119  70.2747195  12.7277753  13.2676176  69.7363596  11.9841854
   8.8098061  67.3894174  13.6207423   9.5107520  68.0230657  13.7736817
   8.3393176  67.7308906  12.8603062  16.6099347  59.9438781  11.4459973
  15.9570797  60.1914689  10.7912426  16.9879727  59.1302920  11.1122450
  12.6586920  60.6858592  17.9326010  11.9827557  60.5852722  18.6028385
  13.4814554  60.5297806  18.3962007  11.4009703  71.9925520  12.1683626
  11.9528011  72.1557141  12.9332711  11.7415896  72.5829958  11.4963651
   5.8526468  56.4123802  16.4178545   6.4798507  56.0300880  17.0316069
   4.9954387  56.1938004  16.7834237  16.2520577  66.8186777  18.0232280
  16.7960481  67.4316736  17.5287235  15.6707422  67.3766356  18.5399293
  14.5378090  69.9407495   9.1547308  14.4129229  69.1397235   8.6458254
  15.1957181  70.4353689   8.6661278  16.6012998  67.7416516  10.7826858
  15.6543334  67.6221867  10.7105185  16.9495771  66.8539014  10.8653120
   8.9612572  53.6310654  14.6065100   9.4846973  53.8772951  15.3691409
   8.7424905  54.4630689  14.1868237  13.6059431  67.5369232   6.9831210
  13.4584394  66.6085939   7.1638780  14.4312925  67.5589322   6.4988286
  17.2093553  68.3597790   8.0696083  18.1340101  68.1540652   7.9320534
  17.0408857  68.1114192   8.9785425  10.1665117  54.5724350  12.2914771
   9.8261937  53.7732163  12.6935451   9.4604123  54.8726060  11.7191604
  12.0542681  55.7732671  10.6468089  11.7960459  56.6949741  10.6452420
  11.5227721  55.3763105  11.3368553  16.9988870  68.8783458   3.4258175
  17.1725747  68.3129880   2.6732027  17.4917761  69.6784353   3.2437665
   2.8165829  60.8898127  11.4921733   2.2719297  61.6657935  11.6242008
   3.6945179  61.2368931  11.3340855  22.8528261  61.6419881   5.0448474
  23.2959407  60.8927206   4.6467598  21.9754771  61.6330017   4.6622206
   3.6031851  60.0168023  14.3851890   2.8613587  60.1650659  14.9716521
   3.2824595  60.2776289  13.5218640  19.8855465  65.6449928   2.0542404
  20.4106789  65.9837201   1.3291724  19.7977818  64.7096943   1.8705538
  11.5475514  69.5584002  14.1832280  11.8562640  69.3133148  15.0554980
  12.3450996  69.7630640  13.6951151   9.0894526  55.7341708  18.0792465
   9.1382681  56.6103831  17.6970234   9.6317040  55.1919101  17.5064108
  19.5749371  66.2782832  17.3593602  18.7844915  66.2606970  16.8198101
  19.3382726  66.8171125  18.1142638  19.6947246  63.1275298  14.6726330
  19.7445251  62.9625305  15.6141853  19.5861170  62.2602557  14.2824211
  16.9851009  59.1106226  15.9885637  17.8860871  58.9712691  15.6969635
  17.0598983  59.2760681  16.9283814  11.3193814  56.4873081  14.8338823
  10.4497123  56.7806647  14.5621412  11.5553294  57.0713526  15.5546087
  21.1965443  65.5472239  14.9168352  20.9050251  65.9102220  15.7531813
  20.5837574  64.8339248  14.7381684  22.3961125  63.1125119   7.4370922
  23.2308017  63.5514923   7.6008482  22.5320254  62.6363772   6.6179168
  19.4452631  60.6704854  13.3848410  19.9206753  60.8632500  12.5767261
  18.5218197  60.7264040  13.1391793  14.0232848  52.7052698  12.3504244
  14.5414792  53.4413725  12.0250732  13.6687981  53.0116691  13.1851003
  18.1454300  57.5470614  11.6176715  19.0971723  57.6468712  11.6388939
  17.9757751  56.7548883  12.1274800  16.1668680  54.6326197  11.8036116
  15.5718612  54.9131210  11.1082605  15.8818376  55.1220098  12.5752857
  20.6242378  60.7676734  10.7319015  20.5918698  59.8292735  10.9178699
  21.2343002  60.8460771   9.9984840  20.7736867  57.5587777  10.7777298
  20.2575915  56.7746234  10.5907227  21.6576815  57.2306494  10.9423818
  26.4418928  61.8292741   9.8725052  27.1722316  61.5678029  10.4332755
  25.8325873  61.0921463   9.9127120  24.5234225  59.9700603  10.4699503
  23.7967389  59.8356568   9.8615995  24.1081512  60.2777432  11.2756221
  12.3464401  63.6890533  18.2346876  13.2667411  63.8669132  18.4286923
  12.3113985  62.7446578  18.0826575   5.3426474  61.5991568  10.8769657
   5.5612484  62.5308675  10.8957691   5.7552248  61.2399542  11.6624461
  10.2154339  57.1724773  20.2672406  10.1151066  58.1219130  20.1984497
   9.9975881  56.8443012  19.3948476  10.0785609  60.6021912  19.0837468
   9.5952691  61.4022272  19.2901357  10.1646548  60.6129857  18.1304912
   6.0058947  64.4926447  11.1205902   6.9602200  64.4610389  11.0535833
   5.8071470  64.0317071  11.9356127   6.5958329  63.0627563  13.6876699
   7.4151218  63.5571642  13.7111536   6.8695137  62.1459531  13.6594267
  22.1412020  56.1912455   7.8232935  22.7356511  55.9508191   7.1126243
  22.2138604  55.4719586   8.4506471  24.4483093  59.4978656   6.5976356
  23.8882651  59.5671846   7.3707918  23.8426596  59.3219641   5.8775852
   1.8493243  57.3965697  14.3868896   2.4952107  56.8864651  14.8756121
   1.6410394  58.1334378  14.9612321  14.3746635  64.4646544  19.8861037
  15.2437795  64.6387197  19.5247672  13.8953387  65.2840961  19.7636766
   8.5432816  71.5843645  11.5650470   9.4460062  71.6167256  11.8816965
   8.3170186  70.6544096  11.5796806   6.1890734  54.5433314  18.4843910
   7.0522196  54.1870119  18.6947235   5.6156145  54.2047209  19.1719315
  26.0339111  76.1735170   9.2906311  26.6717521  76.0541918   8.5869652
  25.9159954  77.1216014   9.3494264  22.8428817  76.1262598   9.2267836
  22.5047329  76.0103663   8.3388371  23.7118586  75.7253763   9.2068842
  23.3248600  77.2797450  15.1854042  23.3137241  76.8850248  14.3134545
  23.4869240  76.5463523  15.7787813  20.0455862  80.0634562  14.1333226
  19.7545728  80.9680193  14.0179892  20.6812846  80.1051089  14.8477295
  20.9712068  77.4411410  10.7234585  21.5675641  77.2167433  10.0091548
  21.0287040  76.6996156  11.3260033  25.5880380  73.8986624   6.3659520
  26.3743469  73.4806047   6.0149937  25.8519084  74.8032716   6.5341168
  30.9888807  73.8361857   7.2692498  31.7213979  73.2661074   7.5030328
  30.2328163  73.4483458   7.7099004  22.6064927  76.2589099   4.4655840
  22.2423134  75.7319720   5.1768762  23.4632042  75.8687568   4.2922326
  28.5114227  67.5483431  11.7287107  28.1797552  68.4178842  11.5048322
  27.9159841  67.2319715  12.4081137  25.0045747  79.7495977  11.1283019
  24.7046470  80.6521016  11.0198827  24.6596806  79.4828161  11.9804172
  18.4558228  76.2009774   7.1619724  17.5308725  76.0685988   7.3697416
  18.7042641  76.9803993   7.6589666  28.4042890  72.2678518   8.8080457
  27.4959768  72.1993926   8.5139218  28.3530486  72.7450462   9.6362282
  22.4783756  73.6868163  16.7515354  21.7017090  74.2462083  16.7418219
  23.1174319  74.1724946  17.2730224  30.2704537  70.4694956  10.5858331
  29.6278917  70.7627489   9.9398125  29.7659465  70.3547876  11.3911527
  27.9244701  74.2158129   1.2744190  28.8362557  74.4485516   1.0991887
  27.4154348  74.7995173   0.7119268  20.7330129  76.4953616  16.3133321
  21.4744813  77.0338660  16.0368145  20.0267114  77.1219905  16.4704873
  26.2085468  78.6382757  14.9105482  26.6168824  78.1965167  14.1660115
  25.4862730  78.0635384  15.1639675  22.5616538  73.5755364  12.2839039
  23.4077733  73.9994777  12.4273688  22.5015176  72.9188988  12.9777602
  26.5314283  79.1983948   8.6657771  25.9023145  79.3629662   7.9633839
  26.1439945  79.6125557   9.4368735  30.4103515  80.1338385   6.0202135
  29.7254553  80.5137287   5.4699168  30.4947364  80.7433712   6.7534083
  25.7115984  71.2359732  13.9420213  25.4676915  71.9901793  13.4054489
  25.9875914  71.6145080  14.7767460  27.6654446  77.7798344  12.6197479
  27.8771342  78.4230104  11.9431860  27.6184195  76.9460661  12.1519409
  25.2680675  70.3916165   9.5234051  24.4065154  70.6897419   9.8150788
  25.2943110  70.6086564   8.5915083  22.0842245  78.9358356   5.9307856
  22.5480590  79.2146059   5.1412479  21.8199043  78.0341800   5.7480947
  18.9766326  78.4829837   8.8687620  19.5467683  78.9117106   8.2305104
  19.5674438  78.2012422   9.5671805  19.4691492  73.6493265  17.1148631
  18.8390153  74.3309546  17.3484028  19.3627580  73.5376346  16.1701769
  28.7800274  80.6570300  10.7919836  29.6017718  80.2550487  10.5102518
  28.7762677  80.5538534  11.7435952  22.5456878  80.2054343  12.9480546
  22.6101310  80.6674750  13.7838718  21.8367802  79.5751708  13.0762856
  13.0474168  73.5695551  10.4729546  13.2982206  74.4542561  10.7387122
  13.5833716  73.3900153   9.7004638  36.8706267  77.0009048   7.1404807
  36.1169976  76.4316446   6.9848812  37.0053809  76.9671713   8.0875442
  18.7472235  67.9514031  19.4773882  18.3539181  67.3980229  20.1521526
  19.5638375  68.2624609  19.8680400  21.6640196  69.3671910  17.0694139
  22.4049909  69.9679063  16.9898601  21.8958119  68.6249547  16.5112181
  16.8081534  74.5528277  15.3472368  16.6935049  73.6513534  15.6479467
  15.9526052  74.7991974  14.9957185  23.8873372  82.4946017  16.9459869
  23.4437226  81.7082396  16.6280773  24.5490585  82.6825168  16.2803760
  18.6460493  84.0241819  11.4720547  19.1967918  83.8958882  10.6997541
  17.8071969  84.3236708  11.1215440  25.9854610  82.7748817  14.9741270
  25.9673085  83.5957698  14.4821539  26.9074530  82.6502892  15.1991411
  22.4427664  80.2892947  15.8164778  22.9756001  79.5281235  15.5864086
  21.9141745  79.9966598  16.5588933  25.6097359  65.3953013  11.3458420
  25.2661628  66.2854654  11.2697531  25.9776322  65.2054670  10.4828005
  23.1594753  70.2311324   4.9116094  22.3036349  69.8418175   4.7321732
  23.5721704  70.3103285   4.0515879  24.6893899  67.7657668   9.3107653
  24.1858695  67.7287803   8.4975459  24.9824506  68.6750410   9.3704310
  20.9336785  67.8496397   8.3173835  21.7989782  67.6539206   7.9579725
  21.0014294  67.6206749   9.2443192  30.5481916  78.1393978   1.7884029
  29.7711359  77.8005138   1.3439191  31.2273397  78.1446601   1.1138994
  25.3633945  73.2588716   1.6790637  25.0584080  73.5734865   2.5300780
  26.3164387  73.3370136   1.7217970  28.7873223  77.6127960   8.4450637
  28.1296897  78.3027221   8.5330765  29.5913622  78.0024391   8.7884623
  18.5399104  70.0798605   5.6890202  19.1142856  69.8573787   4.9563395
  19.1270087  70.1487300   6.4418803  27.5978682  75.9672332   6.4954579
  28.1110563  76.6002324   6.9976288  28.2479905  75.3673528   6.1297939
  20.8421772  66.9539854   4.4165271  20.1886184  66.6388871   3.7921886
  20.8002246  66.3315595   5.1425094  24.0759512  73.4421788   8.7412919
  23.1582074  73.6636735   8.5834607  24.4919656  73.5168098   7.8824626
  24.8594560  74.8413203   3.8715599  25.6066379  75.3534601   3.5622721
  25.1286150  74.5197256   4.7319993  28.3640478  80.9478334   4.6233721
  27.9102805  80.1069244   4.6798912  27.7334444  81.5839732   4.9608501
  27.3073397  71.8770320   5.8534389  26.5696154  71.3647706   6.1844631
  27.5600171  71.4370701   5.0417666  26.8073417  82.7854830   5.5583539
  27.0996391  83.3459887   4.8395905  27.3172038  83.0783391   6.3136698
  27.4085025  64.6546572   6.4476158  27.7143901  63.7943935   6.1602073
  28.1337629  65.2464192   6.2475152  21.6806104  74.9500365   6.9552349
  21.7354714  73.9974201   6.8794826  20.8697306  75.1059804   7.4393647
  19.6198464  73.5677425   4.7142728  18.8066330  73.8671595   5.1207920
  20.1157458  73.1733113   5.4317210  25.2172676  74.0319249  13.5457622
  25.5722064  74.2590722  14.4052088  25.8644807  74.3637626  12.9234877
  30.9470413  77.1537685   4.2506951  30.8088312  77.3439281   3.3228140
  30.5906632  77.9157068   4.7075002  19.1112539  71.1395780  10.3303963
  19.7511918  70.9984539   9.6326926  18.2790070  70.8530293   9.9542565
  30.9739793  79.2214212   9.2618222  31.4076299  79.1289501  10.1101276
  31.6871373  79.1971712   8.6238238  24.7067687  82.8216306  10.7951323
  24.7604710  83.3907242  11.5629039  23.8382469  82.9918191  10.4305360
  16.1141155  71.1096105   5.1076950  16.3747973  72.0241438   4.9986110
  16.9358328  70.6420548   5.2573562  17.5866081  72.5233862  12.2775774
  18.2589134  72.3151224  11.6288423  16.7595867  72.3255948  11.8381006
  31.8355342  79.2637913  11.7951108  32.0291232  80.1683723  12.0410383
  31.7355960  78.8045332  12.6289693  23.4891653  69.1495803  14.2941435
  22.8419568  69.8485753  14.2005911  24.2592668  69.5831947  14.6617683
  26.8970451  79.4144655  17.3691988  26.7455957  79.1855207  16.4522072
  26.8875130  80.3715257  17.3823333  23.6655787  76.9876568  12.3538255
  24.5947847  77.1387728  12.1807222  23.2446817  77.0760589  11.4986901
  22.4644119  81.0127232  10.1236792  22.3255205  80.6446017  10.9962730
  21.6758715  81.5274872   9.9520750  24.0149334  80.3908835   7.5125630
  23.6799167  80.3509605   8.4083280  23.5153280  79.7253551   7.0396040
  17.9893578  75.7976465  13.0378211  17.8513376  75.0656704  13.6389750
  18.8998502  75.7085365  12.7562399  20.6175879  75.5096425  12.5261891
  21.3275497  74.8689617  12.4848509  20.5745187  75.7609319  13.4488072
  28.6062657  82.4463778  15.4468470  28.5475204  81.7622998  14.7799053
  29.0082176  83.1882768  14.9949096  19.3304813  72.4961642  14.3457530
  18.7942170  72.0452381  14.9979127  18.7421521  72.6307551  13.6027995
  28.6080065  80.4103362  13.6782450  27.7206843  80.0729284  13.8008849
  29.1778616  79.6786393  13.9151215  15.0643934  71.6317650  11.4310525
  14.9802123  71.0243320  10.6960935  14.2426640  72.1226668  11.4320021
  22.1381218  85.0704814  10.6443693  22.0651390  85.8759786  11.1562998
  21.6958611  85.2696780   9.8191714  25.2367648  70.1171214   6.7980720
  25.7336347  69.3641176   6.4781790  24.4654629  70.1535530   6.2323929
  33.0897405  75.8211579   8.4399011  33.0787281  76.7036295   8.0692945
  32.2214785  75.4683130   8.2453549  24.5979902  84.9691648  12.8001852
  25.3107874  85.6039113  12.7277753  24.1069930  85.0655514  11.9841854
  26.3197429  78.8742901   4.3719143  25.3853707  78.9944363   4.2023848
  26.4974097  77.9715368   4.1079153  21.8202617  72.2588597   6.5252405
  21.4500404  71.7059637   7.2133310  22.3161709  71.6546730   5.9727405
  29.7069980  74.7160220   4.9069178  30.1730432  75.5488212   4.8329480
  30.1577480  74.2505202   5.6114436  19.6491815  82.7186092  13.6207423
  20.3501275  83.3522575  13.7736817  19.1786930  83.0600823  12.8603062
  27.7746211  81.0604041   1.9055330  28.0506055  80.9460636   2.8149204
  26.9050710  80.6621526   1.8667503  27.6786643  67.0840807   8.9460079
  26.7649722  67.3145034   9.1142286  28.1079744  67.1679251   9.7974111
  27.4493101  75.2730699  11.4459973  26.7964551  75.5206607  10.7912426
  27.8273481  74.4594837  11.1122450  23.4980674  76.0150510  17.9326010
  22.8221311  75.9144639  18.6028385  24.3208308  75.8589724  18.3962007
  22.2403457  87.3217438  12.1683626  22.7921765  87.4849059  12.9332711
  22.5809650  87.9121875  11.4963651  17.2167950  69.6692587  12.7705511
  17.2809277  70.5307418  12.3582908  17.1535070  69.0566589  12.0377869
  16.6920223  71.7415720  16.4178545  17.3192262  71.3592797  17.0316069
  15.8348142  71.5229922  16.7834237  27.0914331  82.1478695  18.0232280
  27.6354235  82.7608653  17.5287235  26.5101176  82.7058274  18.5399293
  25.3771844  85.2699413   9.1547308  25.2522984  84.4689153   8.6458254
  26.0350935  85.7645606   8.6661278  16.9980013  71.6248146   8.3324448
  16.2766598  72.2384113   8.1931922  17.7873268  72.1605910   8.2541094
  27.4406753  83.0708433  10.7826858  26.4937088  82.9513784  10.7105185
  27.7889526  82.1830931  10.8653120  19.8006326  68.9602572  14.6065100
  20.3240728  69.2064869  15.3691409  19.5818659  69.7922607  14.1868237
  24.4453186  82.8661149   6.9831210  24.2978148  81.9377857   7.1638780
  25.2706679  82.8881240   6.4988286  28.0487308  83.6889708   8.0696083
  28.9733855  83.4832570   7.9320534  27.8802611  83.4406109   8.9785425
  21.0058871  69.9016267  12.2914771  20.6655691  69.1024080  12.6935451
  20.2997877  70.2017978  11.7191604  21.6575343  66.9865580  10.7442094
  22.4801412  66.5126058  10.6220984  21.9013406  67.7656063  11.2440780
  24.4414700  70.7198987   1.9763328  24.6578315  71.6023625   1.6752156
  23.9608767  70.3285200   1.2468970  19.1813922  73.6784700   8.5534072
  19.0358502  73.9925003   9.4458354  18.7039125  74.2969601   8.0004971
  21.0410305  70.6687248   8.6014962  21.0271873  69.7728342   8.2647260
  21.7582733  70.6757912   9.2353248  22.8936435  71.1024588  10.6468089
  22.6354213  72.0241659  10.6452420  22.3621476  70.7055023  11.3368553
  27.8382624  84.2075376   3.4258175  28.0119502  83.6421798   2.6732027
  28.3311515  85.0076270   3.2437665  13.6559584  76.2190045  11.4921733
  13.1113052  76.9949853  11.6242008  14.5338934  76.5660849  11.3340855
  20.4447200  69.5501629   3.8702532  20.5663112  68.6218275   4.0693419
  20.1549243  69.5640315   2.9580847  23.3138391  67.2356539   7.0069252
  23.3360088  67.2995872   6.0521231  23.7306450  66.3961048   7.2009758
  33.6922015  76.9711799   5.0448474  34.1353161  76.2219124   4.6467598
  32.8148525  76.9621935   4.6622206  14.4425606  75.3459941  14.3851890
  13.7007342  75.4942576  14.9716521  14.1218350  75.6068207  13.5218640
  30.7249220  80.9741846   2.0542404  31.2500544  81.3129118   1.3291724
  30.6371572  80.0388861   1.8705538  22.3869268  84.8875919  14.1832280
  22.6956395  84.6425066  15.0554980  23.1844750  85.0922558  13.6951151
  19.9288280  71.0633626  18.0792465  19.9776435  71.9395749  17.6970234
  20.4710794  70.5211019  17.5064108  30.4143126  81.6074749  17.3593602
  29.6238669  81.5898888  16.8198101  30.1776480  82.1463043  18.1142638
  30.5341001  78.4567216  14.6726330  30.5839006  78.2917223  15.6141853
  30.4254924  77.5894475  14.2824211  27.8244763  74.4398144  15.9885637
  28.7254626  74.3004608  15.6969635  27.8992738  74.6052598  16.9283814
  22.1587568  71.8164998  14.8338823  21.2890878  72.1098564  14.5621412
  22.3947049  72.4005443  15.5546087  32.0359198  80.8764157  14.9168352
  31.7444006  81.2394138  15.7531813  31.4231329  80.1631165  14.7381684
  33.2354880  78.4417037   7.4370922  34.0701771  78.8806841   7.6008482
  33.3714009  77.9655690   6.6179168  30.2846386  75.9996772  13.3848410
  30.7600507  76.1924418  12.5767261  29.3611951  76.0555958  13.1391793
  24.8626602  68.0344615  12.3504244  25.3808546  68.7705642  12.0250732
  24.5081735  68.3408609  13.1851003  25.1139196  64.4544898   7.8705140
  25.3940950  63.7868087   8.4965567  25.8989803  64.6473993   7.3579804
  28.9848055  72.8762532  11.6176715  29.9365478  72.9760629  11.6388939
  28.8151505  72.0840800  12.1274800  27.0062434  69.9618115  11.8036116
  26.4112366  70.2423128  11.1082605  26.7212131  70.4512016  12.5752857
  31.4636133  76.0968651  10.7319015  31.4312453  75.1584652  10.9178699
  32.0736756  76.1752688   9.9984840  31.6130621  72.8879695  10.7777298
  31.0969670  72.1038152  10.5907227  32.4970570  72.5598412  10.9423818
  29.2741348  66.6320710   6.7373111  29.0766169  66.3235799   7.6216443
  29.8841054  67.3582349   6.8671041  37.2812682  77.1584658   9.8725052
  38.0116071  76.8969946  10.4332755  36.6719628  76.4213380   9.9127120
  35.3627980  75.2992521  10.4699503  34.6361143  75.1648486   9.8615995
  34.9475266  75.6069350  11.2756221  23.1858156  79.0182451  18.2346876
  24.1061165  79.1961050  18.4286923  23.1507739  78.0738496  18.0826575
  16.1820229  76.9283485  10.8769657  16.4006238  77.8600593  10.8957691
  16.5946002  76.5691460  11.6624461  23.1024446  67.4351571   2.8645346
  22.2925175  67.0898656   3.2400592  23.7908863  67.1259114   3.4532957
  25.0314995  66.5129617   4.4869642  25.5846033  66.9325071   5.1459665
  25.2685081  65.5865365   4.5292598  21.0548094  72.5016691  20.2672406
  20.9544821  73.4511048  20.1984497  20.8369636  72.1734930  19.3948476
  28.4093802  68.6230143   3.9948306  27.8292471  69.2814947   3.6126359
  28.1429734  67.8007487   3.5835724  26.8597368  68.0235200   6.1969627
  27.3597146  68.1351735   5.3883946  27.5032976  67.7196253   6.8370435
  20.9179364  75.9313830  19.0837468  20.4346446  76.7314190  19.2901357
  21.0040303  75.9421775  18.1304912  16.8452701  79.8218365  11.1205902
  17.7995955  79.7902307  11.0535833  16.6465225  79.3608988  11.9356127
  17.4352084  78.3919481  13.6876699  18.2544973  78.8863559  13.7111536
  17.7088891  77.4751449  13.6594267  27.1918680  70.7830233   3.0504655
  26.3044535  71.0679884   2.8324849  27.6072669  70.6223996   2.2031932
  30.5433216  70.8076754   6.7658994  31.3193606  71.2973206   7.0383611
  29.8181350  71.2334808   7.2230863  32.9805774  71.5204373   7.8232935
  33.5750265  71.2800109   7.1126243  33.0532358  70.8011504   8.4506471
  27.1659703  76.2984769   3.2654945  27.1094905  76.7553320   2.4262577
  27.7188046  75.5375453   3.0877788  30.9764509  72.0874501   4.0905064
  30.7201444  71.6871136   4.9213272  30.3517377  72.8018295   3.9655204
  35.2876847  74.8270574   6.5976356  34.7276405  74.8963763   7.3707918
  34.6820351  74.6511559   5.8775852  27.8994483  77.4889550   0.5607474
  27.8443287  77.3233822  -0.3804082  27.2740538  78.1965583   0.7169664
  12.6886998  72.7257614  14.3868896  13.3345861  72.2156568  14.8756121
  12.4804149  73.4626296  14.9612321  25.2140390  79.7938462  19.8861037
  26.0831550  79.9679114  19.5247672  24.7347141  80.6132879  19.7636766
  21.2090608  66.9897659   0.1392792  21.1969278  67.9339499   0.2961063
  22.1014030  66.8067805  -0.1547746  19.3826570  86.9135563  11.5650470
  20.2853817  86.9459173  11.8816965  19.1563940  85.9836014  11.5796806
  25.0242728  63.5840436   4.3938729  24.2575124  63.0298922   4.5395412
  25.4353433  63.6562304   5.2552881  17.0284489  69.8725232  18.4843910
  17.8915950  69.5162036  18.6947235  16.4549899  69.5339126  19.1719315
  36.8732866  91.5027088   9.2906311  37.5111276  91.3833835   8.5869652
  36.7553709  92.4507932   9.3494264  33.6822572  91.4554516   9.2267836
  33.3441083  91.3395581   8.3388371  34.5512340  91.0545681   9.2068842
  34.1642355  92.6089368  15.1854042  34.1530996  92.2142166  14.3134545
  34.3262994  91.8755440  15.7787813  30.8849616  95.3926480  14.1333226
  30.5939482  96.2972110  14.0179892  31.5206600  95.4343007  14.8477295
  31.8105823  92.7703328  10.7234585  32.4069395  92.5459350  10.0091548
  31.8680794  92.0288074  11.3260033  36.4274134  89.2278542   6.3659520
  37.2137223  88.8097965   6.0149937  36.6912839  90.1324634   6.5341168
  41.8282561  89.1653775   7.2692498  42.5607733  88.5952992   7.5030328
  41.0721917  88.7775375   7.7099004  33.4458681  91.5881016   4.4655840
  33.0816888  91.0611637   5.1768762  34.3025797  91.1979485   4.2922326
  39.3507982  82.8775349  11.7287107  39.0191306  83.7470760  11.5048322
  38.7553595  82.5611633  12.4081137  35.8439501  95.0787895  11.1283019
  35.5440224  95.9812934  11.0198827  35.4990561  94.8120078  11.9804172
  29.2951983  91.5301692   7.1619724  28.3702479  91.3977906   7.3697416
  29.5436396  92.3095911   7.6589666  39.2436645  87.5970435   8.8080457
  38.3353522  87.5285844   8.5139218  39.1924241  88.0742380   9.6362282
  33.3177511  89.0160081  16.7515354  32.5410845  89.5754001  16.7418219
  33.9568074  89.5016864  17.2730224  41.1098291  85.7986874  10.5858331
  40.4672672  86.0919407   9.9398125  40.6053220  85.6839794  11.3911527
  38.7638455  89.5450047   1.2744190  39.6756311  89.7777434   1.0991887
  38.2548102  90.1287091   0.7119268  31.5723883  91.8245534  16.3133321
  32.3138567  92.3630578  16.0368145  30.8660869  92.4511823  16.4704873
  37.0479223  93.9674675  14.9105482  37.4562579  93.5257085  14.1660115
  36.3256484  93.3927302  15.1639675  33.4010293  88.9047281  12.2839039
  34.2471488  89.3286695  12.4273688  33.3408930  88.2480906  12.9777602
  37.3708037  94.5275865   8.6657771  36.7416900  94.6921579   7.9633839
  36.9833699  94.9417475   9.4368735  41.2497269  95.4630303   6.0202135
  40.5648307  95.8429204   5.4699168  41.3341119  96.0725630   6.7534083
  36.5509738  86.5651650  13.9420213  36.3070670  87.3193710  13.4054489
  36.8269669  86.9436997  14.7767460  38.5048201  93.1090262  12.6197479
  38.7165096  93.7522022  11.9431860  38.4577949  92.2752579  12.1519409
  36.1074430  85.7208083   9.5234051  35.2458909  86.0189336   9.8150788
  36.1336864  85.9378482   8.5915083  32.9235999  94.2650273   5.9307856
  33.3874345  94.5437976   5.1412479  32.6592797  93.3633718   5.7480947
  29.8160080  93.8121755   8.8687620  30.3861437  94.2409023   8.2305104
  30.4068192  93.5304340   9.5671805  30.3085247  88.9785182  17.1148631
  29.6783907  89.6601463  17.3484028  30.2021335  88.8668264  16.1701769
  39.6194029  95.9862218  10.7919836  40.4411473  95.5842405  10.5102518
  39.6156432  95.8830452  11.7435952  33.3850632  95.5346261  12.9480546
  33.4495065  95.9966668  13.7838718  32.6761556  94.9043626  13.0762856
  23.8867922  88.8987469  10.4729546  24.1375961  89.7834479  10.7387122
  24.4227471  88.7192070   9.7004638  47.7100022  92.3300966   7.1404807
  46.9563730  91.7608364   6.9848812  47.8447563  92.2963631   8.0875442
  29.5865990  83.2805948  19.4773882  29.1932935  82.7272147  20.1521526
  30.4032130  83.5916527  19.8680400  32.5033951  84.6963827  17.0694139
  33.2443664  85.2970980  16.9898601  32.7351873  83.9541465  16.5112181
  27.6475289  89.8820195  15.3472368  27.5328804  88.9805452  15.6479467
  26.7919806  90.1283891  14.9957185  34.7267126  97.8237935  16.9459869
  34.2830980  97.0374313  16.6280773  35.3884340  98.0117085  16.2803760
  29.4854247  99.3533736  11.4720547  30.0361673  99.2250800  10.6997541
  28.6465723  99.6528625  11.1215440  36.8248364  98.1040735  14.9741270
  36.8066840  98.9249616  14.4821539  37.7468284  97.9794810  15.1991411
  33.2821419  95.6184864  15.8164778  33.8149755  94.8573152  15.5864086
  32.7535500  95.3258516  16.5588933  36.4491113  80.7244930  11.3458420
  36.1055383  81.6146572  11.2697531  36.8170076  80.5346588  10.4828005
  33.9988507  85.5603242   4.9116094  33.1430104  85.1710093   4.7321732
  34.4115459  85.6395203   4.0515879  35.5287654  83.0949585   9.3107653
  35.0252449  83.0579721   8.4975459  35.8218261  84.0042328   9.3704310
  31.7730540  83.1788315   8.3173835  32.6383537  82.9831124   7.9579725
  31.8408049  82.9498667   9.2443192  41.3875670  93.4685896   1.7884029
  40.6105113  93.1297055   1.3439191  42.0667151  93.4738519   1.1138994
  36.2027699  88.5880633   1.6790637  35.8977835  88.9026783   2.5300780
  37.1558141  88.6662053   1.7217970  39.6266977  92.9419877   8.4450637
  38.9690652  93.6319139   8.5330765  40.4307376  93.3316309   8.7884623
  29.3792859  85.4090523   5.6890202  29.9536611  85.1865705   4.9563395
  29.9663841  85.4779218   6.4418803  38.4372436  91.2964250   6.4954579
  38.9504318  91.9294242   6.9976288  39.0873660  90.6965445   6.1297939
  31.6815527  82.2831772   4.4165271  31.0279939  81.9680789   3.7921886
  31.6396001  81.6607512   5.1425094  34.9153267  88.7713705   8.7412919
  33.9975828  88.9928652   8.5834607  35.3313411  88.8460016   7.8824626
  35.6988315  90.1705121   3.8715599  36.4460134  90.6826518   3.5622721
  35.9679904  89.8489174   4.7319993  39.2034232  96.2770251   4.6233721
  38.7496559  95.4361161   4.6798912  38.5728199  96.9131650   4.9608501
  38.1467152  87.2062237   5.8534389  37.4089909  86.6939624   6.1844631
  38.3993925  86.7662619   5.0417666  37.6467171  98.1146748   5.5583539
  37.9390146  98.6751805   4.8395905  38.1565792  98.4075309   6.3136698
  38.2478779  79.9838489   6.4476158  38.5537656  79.1235853   6.1602073
  38.9731384  80.5756110   6.2475152  32.5199859  90.2792282   6.9552349
  32.5748469  89.3266119   6.8794826  31.7091061  90.4351722   7.4393647
  30.4592219  88.8969342   4.7142728  29.6460084  89.1963513   5.1207920
  30.9551213  88.5025031   5.4317210  36.0566430  89.3611167  13.5457622
  36.4115818  89.5882640  14.4052088  36.7038562  89.6929543  12.9234877
  41.7864167  92.4829603   4.2506951  41.6482066  92.6731199   3.3228140
  41.4300386  93.2448985   4.7075002  29.9506294  86.4687698  10.3303963
  30.5905673  86.3276457   9.6326926  29.1183824  86.1822211   9.9542565
  41.8133547  94.5506130   9.2618222  42.2470054  94.4581419  10.1101276
  42.5265128  94.5263630   8.6238238  35.5461442  98.1508224  10.7951323
  35.5998464  98.7199160  11.5629039  34.6776223  98.3210109  10.4305360
  26.9534910  86.4388023   5.1076950  27.2141727  87.3533356   4.9986110
  27.7752082  85.9712465   5.2573562  28.4259835  87.8525780  12.2775774
  29.0982889  87.6443142  11.6288423  27.5989622  87.6547866  11.8381006
  42.6749097  94.5929830  11.7951108  42.8684987  95.4975641  12.0410383
  42.5749715  94.1337249  12.6289693  34.3285407  84.4787721  14.2941435
  33.6813322  85.1777670  14.2005911  35.0986423  84.9123865  14.6617683
  37.7364205  94.7436573  17.3691988  37.5849712  94.5147125  16.4522072
  37.7268885  95.7007174  17.3823333  34.5049542  92.3168486  12.3538255
  35.4341602  92.4679645  12.1807222  34.0840572  92.4052507  11.4986901
  33.3037873  96.3419150  10.1236792  33.1648959  95.9737935  10.9962730
  32.5152470  96.8566790   9.9520750  34.8543089  95.7200753   7.5125630
  34.5192921  95.6801523   8.4083280  34.3547034  95.0545469   7.0396040
  28.8287333  91.1268383  13.0378211  28.6907130  90.3948622  13.6389750
  29.7392256  91.0377283  12.7562399  31.4569633  90.8388342  12.5261891
  32.1669252  90.1981534  12.4848509  31.4138941  91.0901237  13.4488072
  39.4456412  97.7755696  15.4468470  39.3868958  97.0914916  14.7799053
  39.8475930  98.5174686  14.9949096  30.1698567  87.8253560  14.3457530
  29.6335924  87.3744299  14.9979127  29.5815276  87.9599469  13.6027995
  39.4473819  95.7395279  13.6782450  38.5600598  95.4021201  13.8008849
  40.0172370  95.0078311  13.9151215  25.9037688  86.9609568  11.4310525
  25.8195877  86.3535237  10.6960935  25.0820395  87.4518586  11.4320021
  32.9774973 100.3996732  10.6443693  32.9045144 101.2051703  11.1562998
  32.5352366 100.5988698   9.8191714  36.0761402  85.4463131   6.7980720
  36.5730102  84.6933094   6.4781790  35.3048384  85.4827448   6.2323929
  43.9291160  91.1503497   8.4399011  43.9181036  92.0328212   8.0692945
  43.0608539  90.7975048   8.2453549  35.4373656 100.2983566  12.8001852
  36.1501628 100.9331031  12.7277753  34.9463685 100.3947432  11.9841854
  37.1591183  94.2034819   4.3719143  36.2247462  94.3236281   4.2023848
  37.3367851  93.3007285   4.1079153  32.6596371  87.5880514   6.5252405
  32.2894159  87.0351555   7.2133310  33.1555464  86.9838648   5.9727405
  40.5463734  90.0452138   4.9069178  41.0124187  90.8780129   4.8329480
  40.9971235  89.5797119   5.6114436  30.4885570  98.0478009  13.6207423
  31.1895029  98.6814492  13.7736817  30.0180685  98.3892741  12.8603062
  38.6139965  96.3895959   1.9055330  38.8899809  96.2752554   2.8149204
  37.7444464  95.9913444   1.8667503  38.5180397  82.4132725   8.9460079
  37.6043477  82.6436952   9.1142286  38.9473499  82.4971169   9.7974111
  38.2886856  90.6022617  11.4459973  37.6358306  90.8498524  10.7912426
  38.6667235  89.7886755  11.1122450  34.3374429  91.3442428  17.9326010
  33.6615066  91.2436557  18.6028385  35.1602062  91.1881642  18.3962007
  33.0797211 102.6509355  12.1683626  33.6315520 102.8140977  12.9332711
  33.4203405 103.2413793  11.4963651  28.0561705  84.9984505  12.7705511
  28.1203031  85.8599336  12.3582908  27.9928825  84.3858507  12.0377869
  27.5313977  87.0707638  16.4178545  28.1586016  86.6884715  17.0316069
  26.6741896  86.8521840  16.7834237  37.9308086  97.4770613  18.0232280
  38.4747990  98.0900571  17.5287235  37.3494931  98.0350191  18.5399293
  36.2165599 100.5991331   9.1547308  36.0916738  99.7981071   8.6458254
  36.8744690 101.0937524   8.6661278  27.8373767  86.9540063   8.3324448
  27.1160353  87.5676031   8.1931922  28.6267023  87.4897828   8.2541094
  38.2800507  98.4000351  10.7826858  37.3330843  98.2805702  10.7105185
  38.6283280  97.5122849  10.8653120  30.6400081  84.2894490  14.6065100
  31.1634482  84.5356786  15.3691409  30.4212414  85.1214525  14.1868237
  35.2846940  98.1953067   6.9831210  35.1371903  97.2669775   7.1638780
  36.1100434  98.2173158   6.4988286  38.8881062  99.0181626   8.0696083
  39.8127610  98.8124487   7.9320534  38.7196366  98.7698027   8.9785425
  31.8452626  85.2308185  12.2914771  31.5049446  84.4315998  12.6935451
  31.1391632  85.5309896  11.7191604  32.4969097  82.3157497  10.7442094
  33.3195167  81.8417976  10.6220984  32.7407161  83.0947981  11.2440780
  35.2808455  86.0490905   1.9763328  35.4972069  86.9315543   1.6752156
  34.8002522  85.6577118   1.2468970  30.0207676  89.0076618   8.5534072
  29.8752257  89.3216921   9.4458354  29.5432880  89.6261518   8.0004971
  31.8804059  85.9979166   8.6014962  31.8665628  85.1020259   8.2647260
  32.5976487  86.0049830   9.2353248  33.7330190  86.4316506  10.6468089
  33.4747968  87.3533577  10.6452420  33.2015230  86.0346941  11.3368553
  38.6776379  99.5367293   3.4258175  38.8513256  98.9713716   2.6732027
  39.1705270 100.3368188   3.2437665  24.4953338  91.5481962  11.4921733
  23.9506806  92.3241770  11.6242008  25.3732688  91.8952767  11.3340855
  31.2840955  84.8793546   3.8702532  31.4056866  83.9510192   4.0693419
  30.9942997  84.8932232   2.9580847  34.1532145  82.5648457   7.0069252
  34.1753842  82.6287790   6.0521231  34.5700204  81.7252965   7.2009758
  44.5315770  92.3003716   5.0448474  44.9746916  91.5511041   4.6467598
  43.6542280  92.2913853   4.6622206  25.2819360  90.6751859  14.3851890
  24.5401096  90.8234494  14.9716521  24.9612104  90.9360124  13.5218640
  41.5642974  96.3033763   2.0542404  42.0894298  96.6421036   1.3291724
  41.4765327  95.3680779   1.8705538  33.2263023 100.2167837  14.1832280
  33.5350149  99.9716984  15.0554980  34.0238505 100.4214475  13.6951151
  30.7682035  86.3925544  18.0792465  30.8170190  87.2687666  17.6970234
  31.3104549  85.8502937  17.5064108  41.2536880  96.9366667  17.3593602
  40.4632424  96.9190806  16.8198101  41.0170235  97.4754961  18.1142638
  41.3734755  93.7859133  14.6726330  41.4232760  93.6209141  15.6141853
  41.2648679  92.9186392  14.2824211  38.6638518  89.7690061  15.9885637
  39.5648380  89.6296526  15.6969635  38.7386492  89.9344516  16.9283814
  32.9981323  87.1456916  14.8338823  32.1284632  87.4390482  14.5621412
  33.2340803  87.7297361  15.5546087  42.8752952  96.2056075  14.9168352
  42.5837760  96.5686055  15.7531813  42.2625083  95.4923083  14.7381684
  44.0748634  93.7708955   7.4370922  44.9095526  94.2098759   7.6008482
  44.2107763  93.2947608   6.6179168  41.1240140  91.3288689  13.3848410
  41.5994262  91.5216336  12.5767261  40.2005706  91.3847875  13.1391793
  35.7020357  83.3636533  12.3504244  36.2202301  84.0997560  12.0250732
  35.3475490  83.6700526  13.1851003  35.9532951  79.7836815   7.8705140
  36.2334705  79.1160005   8.4965567  36.7383558  79.9765911   7.3579804
  39.8241809  88.2054449  11.6176715  40.7759232  88.3052547  11.6388939
  39.6545260  87.4132718  12.1274800  37.8456189  85.2910033  11.8036116
  37.2506121  85.5715045  11.1082605  37.5605885  85.7803934  12.5752857
  42.3029887  91.4260569  10.7319015  42.2706207  90.4876570  10.9178699
  42.9130511  91.5044606   9.9984840  42.4524376  88.2171613  10.7777298
  41.9363424  87.4330069  10.5907227  43.3364324  87.8890329  10.9423818
  40.1135102  81.9612628   6.7373111  39.9159924  81.6527716   7.6216443
  40.7234808  82.6874267   6.8671041  48.1206437  92.4876576   9.8725052
  48.8509825  92.2261864  10.4332755  47.5113382  91.7505298   9.9127120
  46.2021734  90.6284439  10.4699503  45.4754898  90.4940404   9.8615995
  45.7869021  90.9361267  11.2756221  34.0251910  94.3474368  18.2346876
  34.9454920  94.5252967  18.4286923  33.9901494  93.4030414  18.0826575
  27.0213983  92.2575403  10.8769657  27.2399993  93.1892511  10.8957691
  27.4339757  91.8983377  11.6624461  33.9418201  82.7643488   2.8645346
  33.1318929  82.4190573   3.2400592  34.6302618  82.4551032   3.4532957
  35.8708749  81.8421535   4.4869642  36.4239788  82.2616988   5.1459665
  36.1078835  80.9157283   4.5292598  31.8941848  87.8308609  20.2672406
  31.7938575  88.7802966  20.1984497  31.6763390  87.5026848  19.3948476
  39.2487556  83.9522060   3.9948306  38.6686225  84.6106864   3.6126359
  38.9823489  83.1299405   3.5835724  37.6991123  83.3527118   6.1969627
  38.1990901  83.4643652   5.3883946  38.3426730  83.0488171   6.8370435
  31.7573118  91.2605748  19.0837468  31.2740200  92.0606108  19.2901357
  31.8434057  91.2713692  18.1304912  27.6846456  95.1510282  11.1205902
  28.6389709  95.1194225  11.0535833  27.4858979  94.6900906  11.9356127
  28.2745838  93.7211398  13.6876699  29.0938727  94.2155477  13.7111536
  28.5482646  92.8043366  13.6594267  38.0312434  86.1122151   3.0504655
  37.1438289  86.3971801   2.8324849  38.4466423  85.9515914   2.2031932
  41.3826970  86.1368672   6.7658994  42.1587360  86.6265124   7.0383611
  40.6575105  86.5626726   7.2230863  43.8199529  86.8496291   7.8232935
  44.4144020  86.6092027   7.1126243  43.8926113  86.1303421   8.4506471
  38.0053458  91.6276687   3.2654945  37.9488659  92.0845238   2.4262577
  38.5581800  90.8667371   3.0877788  41.8158264  87.4166418   4.0905064
  41.5595198  87.0163054   4.9213272  41.1911132  88.1310212   3.9655204
  46.1270602  90.1562492   6.5976356  45.5670160  90.2255681   7.3707918
  45.5214105  89.9803476   5.8775852  38.7388237  92.8181468   0.5607474
  38.6837041  92.6525739  -0.3804082  38.1134293  93.5257501   0.7169664
  23.5280752  88.0549532  14.3868896  24.1739616  87.5448486  14.8756121
  23.3197903  88.7918214  14.9612321  36.0534144  95.1230380  19.8861037
  36.9225304  95.2971032  19.5247672  35.5740896  95.9424796  19.7636766
  32.0484363  82.3189577   0.1392792  32.0363033  83.2631417   0.2961063
  32.9407785  82.1359722  -0.1547746  30.2220325 102.2427481  11.5650470
  31.1247571 102.2751091  11.8816965  29.9957695 101.3127932  11.5796806
  35.8636482  78.9132353   4.3938729  35.0968878  78.3590840   4.5395412
  36.2747187  78.9854222   5.2552881  27.8678243  85.2017149  18.4843910
  28.7309705  84.8453954  18.6947235  27.2943654  84.8631044  19.1719315
  47.7126620 106.8319006   9.2906311  48.3505030 106.7125753   8.5869652
  47.5947463 107.7799850   9.3494264  44.5216326 106.7846434   9.2267836
  44.1834838 106.6687498   8.3388371  45.3906095 106.3837599   9.2068842
  45.0036109 107.9381285  15.1854042  44.9924750 107.5434084  14.3134545
  45.1656749 107.2047358  15.7787813  41.7243371 110.7218397  14.1333226
  41.4333237 111.6264028  14.0179892  42.3600355 110.7634925  14.8477295
  42.6499577 108.0995246  10.7234585  43.2463150 107.8751268  10.0091548
  42.7074549 107.3579991  11.3260033  50.1901736  98.2067267  11.7287107
  49.8585061  99.0762678  11.5048322  49.5947350  97.8903551  12.4081137
  46.6833256 110.4079813  11.1283019  46.3833979 111.3104852  11.0198827
  46.3384315 110.1411996  11.9804172  40.1345737 106.8593610   7.1619724
  39.2096234 106.7269824   7.3697416  40.3830150 107.6387829   7.6589666
  50.0830399 102.9262353   8.8080457  49.1747277 102.8577761   8.5139218
  50.0317995 103.4034298   9.6362282  44.1571265 104.3451998  16.7515354
  43.3804599 104.9045919  16.7418219  44.7961828 104.8308781  17.2730224
  51.9492046 101.1278791  10.5858331  51.3066426 101.4211324   9.9398125
  51.4446974 101.0131712  11.3911527  42.4117638 107.1537452  16.3133321
  43.1532322 107.6922496  16.0368145  41.7054623 107.7803741  16.4704873
  47.8872977 109.2966592  14.9105482  48.2956333 108.8549003  14.1660115
  47.1650239 108.7219220  15.1639675  44.2404047 104.2339199  12.2839039
  45.0865242 104.6578613  12.4273688  44.1802685 103.5772823  12.9777602
  47.3903493 101.8943567  13.9420213  47.1464424 102.6485628  13.4054489
  47.6663423 102.2728915  14.7767460  49.3441955 108.4382180  12.6197479
  49.5558851 109.0813940  11.9431860  49.2971704 107.6044496  12.1519409
  46.9468184 101.0500000   9.5234051  46.0852663 101.3481254   9.8150788
  46.9730619 101.2670399   8.5915083  40.6553835 109.1413673   8.8687620
  41.2255192 109.5700941   8.2305104  41.2461947 108.8596257   9.5671805
  41.1479001 104.3077100  17.1148631  40.5177662 104.9893381  17.3484028
  41.0415089 104.1960182  16.1701769  44.2244387 110.8638179  12.9480546
  44.2888819 111.3258586  13.7838718  43.5155311 110.2335543  13.0762856
  34.7261677 104.2279387  10.4729546  34.9769715 105.1126396  10.7387122
  35.2621225 104.0483988   9.7004638  40.4259744  98.6097866  19.4773882
  40.0326690  98.0564064  20.1521526  41.2425884  98.9208444  19.8680400
  43.3427705 100.0255745  17.0694139  44.0837418 100.6262898  16.9898601
  43.5745628  99.2833383  16.5112181  38.4869043 105.2112112  15.3472368
  38.3722558 104.3097369  15.6479467  37.6313561 105.4575809  14.9957185
  45.5660881 113.1529853  16.9459869  45.1224735 112.3666231  16.6280773
  46.2278094 113.3409003  16.2803760  40.3248002 114.6825654  11.4720547
  40.8755427 114.5542717  10.6997541  39.4859478 114.9820543  11.1215440
  47.6642119 113.4332652  14.9741270  47.6460594 114.2541533  14.4821539
  48.5862039 113.3086728  15.1991411  44.1215173 110.9476782  15.8164778
  44.6543510 110.1865070  15.5864086  43.5929254 110.6550434  16.5588933
  47.2884868  96.0536848  11.3458420  46.9449137  96.9438490  11.2697531
  47.6563831  95.8638506  10.4828005  44.8382262 100.8895160   4.9116094
  43.9823858 100.5002010   4.7321732  45.2509213 100.9687121   4.0515879
  46.3681408  98.4241503   9.3107653  45.8646204  98.3871638   8.4975459
  46.6612015  99.3334246   9.3704310  42.6124294  98.5080233   8.3173835
  43.4777291  98.3123041   7.9579725  42.6801803  98.2790585   9.2443192
  40.2186613 100.7382441   5.6890202  40.7930365 100.5157622   4.9563395
  40.8057596 100.8071135   6.4418803  42.5209281  97.6123690   4.4165271
  41.8673693  97.2972707   3.7921886  42.4789755  96.9899430   5.1425094
  45.7547021 104.1005623   8.7412919  44.8369583 104.3220570   8.5834607
  46.1707165 104.1751934   7.8824626  49.0872534  95.3130407   6.4476158
  49.3931410  94.4527771   6.1602073  49.8125138  95.9048027   6.2475152
  43.3593613 105.6084200   6.9552349  43.4142223 104.6558037   6.8794826
  42.5484815 105.7643639   7.4393647  41.2985973 104.2261260   4.7142728
  40.4853839 104.5255430   5.1207920  41.7944967 103.8316949   5.4317210
  46.8960185 104.6903084  13.5457622  47.2509573 104.9174558  14.4052088
  47.5432316 105.0221461  12.9234877  40.7900048 101.7979615  10.3303963
  41.4299427 101.6568375   9.6326926  39.9577579 101.5114129   9.9542565
  37.7928664 101.7679940   5.1076950  38.0535482 102.6825274   4.9986110
  38.6145837 101.3004383   5.2573562  39.2653590 103.1817698  12.2775774
  39.9376643 102.9735060  11.6288423  38.4383376 102.9839784  11.8381006
  45.1679162  99.8079638  14.2941435  44.5207077 100.5069588  14.2005911
  45.9380177 100.2415782  14.6617683  48.5757960 110.0728491  17.3691988
  48.4243466 109.8439042  16.4522072  48.5662639 111.0299092  17.3823333
  45.3443296 107.6460403  12.3538255  46.2735356 107.7971563  12.1807222
  44.9234326 107.7344424  11.4986901  44.1431628 111.6711068  10.1236792
  44.0042714 111.3029852  10.9962730  43.3546224 112.1858707   9.9520750
  39.6681087 106.4560301  13.0378211  39.5300885 105.7240539  13.6389750
  40.5786011 106.3669201  12.7562399  42.2963388 106.1680260  12.5261891
  43.0063006 105.5273452  12.4848509  42.2532696 106.4193155  13.4488072
  50.2850166 113.1047613  15.4468470  50.2262713 112.4206833  14.7799053
  50.6869685 113.8466603  14.9949096  41.0092322 103.1545478  14.3457530
  40.4729679 102.7036216  14.9979127  40.4209030 103.2891387  13.6027995
  50.2867574 111.0687197  13.6782450  49.3994352 110.7313119  13.8008849
  50.8566125 110.3370228  13.9151215  36.7431443 102.2901485  11.4310525
  36.6589632 101.6827155  10.6960935  35.9214149 102.7810504  11.4320021
  46.9155157 100.7755049   6.7980720  47.4123856 100.0225011   6.4781790
  46.1442138 100.8119366   6.2323929  43.4990126 102.9172432   6.5252405
  43.1287913 102.3643472   7.2133310  43.9949218 102.3130565   5.9727405
  41.3279324 113.3769927  13.6207423  42.0288784 114.0106410  13.7736817
  40.8574439 113.7184659  12.8603062  49.3574152  97.7424642   8.9460079
  48.4437231  97.9728869   9.1142286  49.7867253  97.8263087   9.7974111
  49.1280610 105.9314534  11.4459973  48.4752060 106.1790442  10.7912426
  49.5060990 105.1178673  11.1122450  45.1768183 106.6734345  17.9326010
  44.5008820 106.5728475  18.6028385  45.9995817 106.5173559  18.3962007
  38.8955459 100.3276423  12.7705511  38.9596786 101.1891254  12.3582908
  38.8322579  99.7150424  12.0377869  38.3707732 102.3999555  16.4178545
  38.9979771 102.0176633  17.0316069  37.5135651 102.1813757  16.7834237
  48.7701840 112.8062530  18.0232280  49.3141744 113.4192489  17.5287235
  48.1888685 113.3642109  18.5399293  38.6767521 102.2831981   8.3324448
  37.9554107 102.8967949   8.1931922  39.4660777 102.8189746   8.2541094
  41.4793835  99.6186407  14.6065100  42.0028237  99.8648704  15.3691409
  41.2606168 100.4506442  14.1868237  42.6846380 100.5600103  12.2914771
  42.3443200  99.7607916  12.6935451  41.9785386 100.8601813  11.7191604
  43.3362852  97.6449415  10.7442094  44.1588921  97.1709893  10.6220984
  43.5800915  98.4239899  11.2440780  40.8601431 104.3368536   8.5534072
  40.7146011 104.6508839   9.4458354  40.3826634 104.9553436   8.0004971
  42.7197814 101.3271084   8.6014962  42.7059382 100.4312177   8.2647260
  43.4370242 101.3341747   9.2353248  44.5723944 101.7608424  10.6468089
  44.3141722 102.6825494  10.6452420  44.0408985 101.3638858  11.3368553
  35.3347093 106.8773880  11.4921733  34.7900561 107.6533688  11.6242008
  36.2126443 107.2244685  11.3340855  42.1234709 100.2085464   3.8702532
  42.2450621  99.2802110   4.0693419  41.8336752 100.2224150   2.9580847
  44.9925900  97.8940374   7.0069252  45.0147597  97.9579707   6.0521231
  45.4093959  97.0544883   7.2009758  36.1213115 106.0043776  14.3851890
  35.3794851 106.1526412  14.9716521  35.8005859 106.2652042  13.5218640
  44.0656777 115.5459755  14.1832280  44.3743904 115.3008901  15.0554980
  44.8632259 115.7506393  13.6951151  41.6075789 101.7217461  18.0792465
  41.6563944 102.5979584  17.6970234  42.1498303 101.1794854  17.5064108
  52.0930635 112.2658585  17.3593602  51.3026178 112.2482723  16.8198101
  51.8563989 112.8046878  18.1142638  52.2128510 109.1151051  14.6726330
  52.2626515 108.9501058  15.6141853  52.1042433 108.2478310  14.2824211
  49.5032272 105.0981979  15.9885637  50.4042135 104.9588444  15.6969635
  49.5780247 105.2636434  16.9283814  43.8375077 102.4748834  14.8338823
  42.9678387 102.7682400  14.5621412  44.0734558 103.0589279  15.5546087
  53.7146707 111.5347992  14.9168352  53.4231515 111.8977973  15.7531813
  53.1018838 110.8215001  14.7381684  51.9633895 106.6580607  13.3848410
  52.4388016 106.8508253  12.5767261  51.0399460 106.7139793  13.1391793
  46.5414111  98.6928451  12.3504244  47.0596055  99.4289478  12.0250732
  46.1869244  98.9992444  13.1851003  46.7926705  95.1128733   7.8705140
  47.0728459  94.4451922   8.4965567  47.5777312  95.3057829   7.3579804
  50.6635564 103.5346367  11.6176715  51.6152987 103.6344465  11.6388939
  50.4939014 102.7424636  12.1274800  48.6849943 100.6201950  11.8036116
  48.0899875 100.9006963  11.1082605  48.3999640 101.1095851  12.5752857
  53.2918130 103.5463530  10.7777298  52.7757179 102.7621987  10.5907227
  54.1758079 103.2182247  10.9423818  50.9528857  97.2904546   6.7373111
  50.7553678  96.9819634   7.6216443  51.5628563  98.0166185   6.8671041
  44.8645665 109.6766286  18.2346876  45.7848674 109.8544885  18.4286923
  44.8295248 108.7322331  18.0826575  37.8607738 107.5867321  10.8769657
  38.0793747 108.5184428  10.8957691  38.2733511 107.2275295  11.6624461
  44.7811955  98.0935406   2.8645346  43.9712684  97.7482491   3.2400592
  45.4696372  97.7842950   3.4532957  46.7102504  97.1713453   4.4869642
  47.2633542  97.5908906   5.1459665  46.9472590  96.2449201   4.5292598
  42.7335603 103.1600526  20.2672406  42.6332330 104.1094883  20.1984497
  42.5157145 102.8318765  19.3948476  48.5384877  98.6819036   6.1969627
  49.0384655  98.7935570   5.3883946  49.1820485  98.3780088   6.8370435
  42.5966873 106.5897665  19.0837468  42.1133955 107.3898025  19.2901357
  42.6827812 106.6005610  18.1304912  38.5240210 110.4802200  11.1205902
  39.4783464 110.4486142  11.0535833  38.3252734 110.0192824  11.9356127
  39.1139592 109.0503316  13.6876699  39.9332481 109.5447395  13.7111536
  39.3876400 108.1335284  13.6594267  34.3674507 103.3841450  14.3868896
  35.0133370 102.8740404  14.8756121  34.1591658 104.1210131  14.9612321
  46.8927899 110.4522297  19.8861037  47.7619059 110.6262950  19.5247672
  46.4134650 111.2716714  19.7636766  41.0614079 117.5719398  11.5650470
  41.9641326 117.6043009  11.8816965  40.8351449 116.6419849  11.5796806
  46.7030237  94.2424271   4.3938729  45.9362632  93.6882758   4.5395412
  47.1140942  94.3146140   5.2552881  38.7071998 100.5309067  18.4843910
  39.5703459 100.1745872  18.6947235  38.1337408 100.1922962  19.1719315
  51.2653499 113.9389784  19.4773882  50.8720444 113.3855982  20.1521526
  52.0819639 114.2500362  19.8680400  54.1821460 115.3547663  17.0694139
  54.9231173 115.9554816  16.9898601  54.4139382 114.6125300  16.5112181
  49.2101486 117.7291473  16.4178545  49.8373525 117.3468550  17.0316069
  48.3529405 117.5105675  16.7834237  52.4469543 117.0509379  18.0792465
  52.4957699 117.9271502  17.6970234  52.9892058 116.5086772  17.5064108
  53.5729357 118.4892444  20.2672406  53.4726084 119.4386801  20.1984497
  53.3550899 118.1610683  19.3948476  45.2068261 118.7133367  14.3868896
  45.8527125 118.2032321  14.8756121  44.9985412 119.4502049  14.9612321
  49.5465752 115.8600985  18.4843910  50.4097214 115.5037789  18.6947235
  48.9731163 115.5214879  19.1719315  28.6062659  59.4525900   2.1713777
  28.5475205  58.7685121   1.5044360  29.0082177  60.1944890   1.7194403
  27.0914333  59.1540818   4.7477587  27.6354237  59.7670776   4.2532542
  26.5101177  59.7120396   5.2644600  30.4143127  58.6136872   4.0838908
  29.6238671  58.5961011   3.5443408  30.1776482  59.1525165   4.8387945
  32.0359199  57.8826280   1.6413658  31.7444007  58.2456260   2.4777119
  31.4231330  57.1693288   1.4626990  25.2140391  56.8000585   6.6106343
  26.0831551  56.9741237   6.2492978  24.7347143  57.6195001   6.4882073
  36.8732867  68.5089210  -3.9848382  37.5111277  68.3895958  -4.6885042
  36.7553710  69.4570054  -3.9260430  33.6822573  68.4616639  -4.0486857
  33.3441085  68.3457703  -4.9366322  34.5512341  68.0607804  -4.0685851
  34.1642356  69.6151490   1.9099348  34.1530997  69.2204289   1.0379852
  34.3262996  68.8817563   2.5033120  30.8849617  72.3988602   0.8578532
  30.5939483  73.3034233   0.7425199  31.5206602  72.4405130   1.5722602
  31.8105824  69.7765451  -2.5520108  32.4069396  69.5521473  -3.2663145
  31.8680796  69.0350196  -1.9494660  41.8282563  66.1715898  -6.0062195
  42.5607735  65.6015114  -5.7724366  41.0721918  65.7837498  -5.5655690
  39.3507983  59.8837472  -1.5467587  39.0191308  60.7532883  -1.7706372
  38.7553596  59.5673756  -0.8673556  35.8439502  72.0850018  -2.1471674
  35.5440226  72.9875056  -2.2555867  35.4990562  71.8182201  -1.2950521
  39.2436646  64.6032558  -4.4674237  38.3353524  64.5347966  -4.7615476
  39.1924242  65.0804503  -3.6392411  33.3177512  66.0222203   3.4760661
  32.5410846  66.5816124   3.4663525  33.9568075  66.5078986   3.9975531
  41.1098293  62.8048996  -2.6896363  40.4672673  63.0981529  -3.3356568
  40.6053221  62.6901917  -1.8843166  31.5723884  68.8307657   3.0378628
  32.3138569  69.3692701   2.7613451  30.8660870  69.4573946   3.1950179
  37.0479224  70.9736797   1.6350789  37.4562580  70.5319208   0.8905421
  36.3256485  70.3989425   1.8884982  33.4010294  65.9109404  -0.9915654
  34.2471489  66.3348818  -0.8481005  33.3408932  65.2543028  -0.2977091
  37.3708039  71.5337988  -4.6096922  36.7416901  71.6983702  -5.3120854
  36.9833701  71.9479597  -3.8385958  41.2497271  72.4692426  -7.2552558
  40.5648309  72.8491327  -7.8055525  41.3341120  73.0787752  -6.5220611
  36.5509739  63.5713772   0.6665520  36.3070671  64.3255833   0.1299795
  36.8269670  63.9499120   1.5012767  38.5048202  70.1152385  -0.6557215
  38.7165097  70.7584145  -1.3322834  38.4577950  69.2814701  -1.1235285
  29.8160082  70.8183877  -4.4067074  30.3861439  71.2471146  -5.0449589
  30.4068193  70.5366462  -3.7082888  30.3085248  65.9847305   3.8393938
  29.6783909  66.6663586   4.0729334  30.2021336  65.8730387   2.8947076
  39.6194030  72.9924340  -2.4834857  40.4411474  72.5904527  -2.7652176
  39.6156433  72.8892574  -1.5318742  33.3850633  72.5408383  -0.3274147
  33.4495066  73.0028791   0.5084025  32.6761557  71.9105748  -0.1991837
  47.7100023  69.3363089  -6.1349886  46.9563731  68.7670487  -6.2905882
  47.8447564  69.3025753  -5.1879251  29.5865991  60.2868071   6.2019189
  29.1932936  59.7334269   6.8766833  30.4032131  60.5978649   6.5925706
  32.5033952  61.7025950   3.7939445  33.2443665  62.3033103   3.7143908
  32.7351875  60.9603588   3.2357488  27.6475290  66.8882317   2.0717675
  27.5328805  65.9867574   2.3724774  26.7919808  67.1346014   1.7202491
  34.7267128  74.8300057   3.6705176  34.2830982  74.0436436   3.3526080
  35.3884341  75.0179208   3.0049066  29.4854249  76.3595859  -1.8034146
  30.0361674  76.2312922  -2.5757152  28.6465725  76.6590748  -2.1539253
  36.8248366  75.1102857   1.6986577  36.8066841  75.9311738   1.2066846
  37.7468286  74.9856933   1.9236718  33.2821420  72.6246987   2.5410085
  33.8149757  71.8635275   2.3109393  32.7535501  72.3320639   3.2834240
  39.6266978  69.9482000  -4.8304057  38.9690653  70.6381261  -4.7423928
  40.4307378  70.3378432  -4.4870070  38.4372437  68.3026373  -6.7800115
  38.9504319  68.9356364  -6.2778405  39.0873661  67.7027568  -7.1456755
  34.9153268  65.7775828  -4.5341774  33.9975830  65.9990775  -4.6920086
  35.3313412  65.8522139  -5.3930067  39.2034233  73.2832374  -8.6520972
  38.7496561  72.4423284  -8.5955782  38.5728200  73.9193772  -8.3146192
  37.6467173  75.1208871  -7.7171154  37.9390147  75.6813928  -8.4358788
  38.1565793  75.4137432  -6.9617995  36.0566432  66.3673289   0.2702928
  36.4115819  66.5944762   1.1297394  36.7038563  66.6991666  -0.3519816
  41.7864169  69.4891725  -9.0247743  41.6482067  69.6793321  -9.9526553
  41.4300387  70.2511108  -8.5679691  41.8133548  71.5568252  -4.0136471
  42.2470055  71.4643541  -3.1653417  42.5265129  71.5325753  -4.6516455
  35.5461443  75.1570346  -2.4803370  35.5998465  75.7261283  -1.7125655
  34.6776225  75.3272231  -2.8449333  28.4259837  64.8587903  -0.9978919
  29.0982890  64.6505265  -1.6466270  27.5989623  64.6609988  -1.4373687
  42.6749098  71.5991953  -1.4803586  42.8684988  72.5037763  -1.2344311
  42.5749716  71.1399372  -0.6465001  34.3285409  61.4849843   1.0186742
  33.6813324  62.1839793   0.9251218  35.0986424  61.9185987   1.3862990
  37.7364207  71.7498696   4.0937295  37.5849713  71.5209247   3.1767379
  37.7268886  72.7069297   4.1068640  34.5049543  69.3230608  -0.9216439
  35.4341603  69.4741768  -1.0947471  34.0840573  69.4114629  -1.7767792
  33.3037875  73.3481273  -3.1517901  33.1648960  72.9800057  -2.2791963
  32.5152471  73.8628912  -3.3233943  34.8543090  72.7262875  -5.7629063
  34.5192922  72.6863645  -4.8671413  34.3547036  72.0607591  -6.2358653
  28.8287334  68.1330505  -0.2376482  28.6907132  67.4010744   0.3635057
  29.7392257  68.0439406  -0.5192294  31.4569634  67.8450465  -0.7492802
  32.1669253  67.2043657  -0.7906184  31.4138943  68.0963360   0.1733378
  39.4456413  74.7817818   2.1713777  39.3868959  74.0977038   1.5044360
  39.8475932  75.5236808   1.7194403  30.1698568  64.8315683   1.0702837
  29.6335925  64.3806421   1.7224433  29.5815277  64.9661592   0.3273301
  39.4473820  72.7457402   0.4027756  38.5600599  72.4083324   0.5254155
  40.0172371  72.0140433   0.6396522  32.9774974  77.4058854  -2.6311000
  32.9045145  78.2113826  -2.1191696  32.5352367  77.6050820  -3.4562979
  43.9291161  68.1565619  -4.8355682  43.9181037  69.0390335  -5.2061749
  43.0608540  67.8037170  -5.0301145  35.4373657  77.3045688  -0.4752842
  36.1501630  77.9393153  -0.5476940  34.9463686  77.4009554  -1.2912840
  30.4885571  75.0540132   0.3452729  31.1895030  75.6876615   0.4982123
  30.0180686  75.3954863  -0.4151632  38.2886857  67.6084739  -1.8294720
  37.6358307  67.8560647  -2.4842268  38.6667237  66.7948878  -2.1632243
  34.3374430  68.3504550   4.6571317  33.6615067  68.2498680   5.3273692
  35.1602064  68.1943764   5.1207314  33.0797213  79.6571478  -1.1071067
  33.6315521  79.8203099  -0.3421982  33.4203406  80.2475916  -1.7791043
  27.5313978  64.0769760   3.1423852  28.1586017  63.6946838   3.7561376
  26.6741897  63.8583962   3.5079544  37.9308087  74.4832735   4.7477587
  38.4747991  75.0962694   4.2532542  37.3494932  75.0412314   5.2644600
  36.2165600  77.6053453  -4.1207385  36.0916739  76.8043193  -4.6296440
  36.8744691  78.0999647  -4.6093415  38.2800508  75.4062473  -2.4927835
  37.3330844  75.2867825  -2.5649508  38.6283282  74.5184972  -2.4101574
  30.6400082  61.2956612   1.3310407  31.1634484  61.5418909   2.0936716
  30.4212415  62.1276647   0.9113544  35.2846942  75.2015190  -6.2923483
  35.1371904  74.2731897  -6.1115913  36.1100435  75.2235280  -6.7766408
  38.8881064  76.0243748  -5.2058610  39.8127611  75.8186610  -5.3434159
  38.7196367  75.7760150  -4.2969269  31.8452627  62.2370308  -0.9839923
  31.5049447  61.4378121  -0.5819243  31.1391633  62.5372018  -1.5563090
  33.7330191  63.4378629  -2.6286604  33.4747969  64.3595699  -2.6302274
  33.2015231  63.0409063  -1.9386140  38.6776380  76.5429416  -9.8496519
  38.8513257  75.9775838 -10.6022666  39.1705271  77.3430311 -10.0317029
  24.4953340  68.5544085  -1.7832960  23.9506808  69.3303893  -1.6512686
  25.3732689  68.9014889  -1.9413838  44.5315771  69.3065839  -8.2306219
  44.9746917  68.5573164  -8.6287096  43.6542281  69.2975975  -8.6132487
  25.2819361  67.6813981   1.1097197  24.5401097  67.8296617   1.6961827
  24.9612106  67.9422247   0.2463946  41.5642975  73.3095886 -11.2212290
  42.0894299  73.6483159 -11.9462970  41.4765328  72.3742901 -11.4049155
  33.2263024  77.2229959   0.9077587  33.5350151  76.9779106   1.7800287
  34.0238506  77.4276598   0.4196457  30.7682036  63.3987666   4.8037771
  30.8170191  64.2749789   4.4215541  31.3104550  62.8565059   4.2309414
  41.2536881  73.9428789   4.0838908  40.4632425  73.9252928   3.5443408
  41.0170236  74.4817083   4.8387945  41.3734756  70.7921256   1.3971637
  41.4232761  70.6271263   2.3387160  41.2648680  69.9248515   1.0069518
  38.6638519  66.7752184   2.7130944  39.5648382  66.6358649   2.4214941
  38.7386493  66.9406639   3.6529121  32.9981324  64.1519039   1.5584130
  32.1284634  64.4452605   1.2866718  33.2340805  64.7359484   2.2791393
  42.8752953  73.2118197   1.6413658  42.5837762  73.5748178   2.4777119
  42.2625085  72.4985206   1.4626990  44.0748636  70.7771077  -5.8383771
  44.9095527  71.2160881  -5.6746211  44.2107764  70.3009730  -6.6575526
  41.1240142  68.3350812   0.1093716  41.5994263  68.5278458  -0.6987432
  40.2005707  68.3909998  -0.1362900  35.7020358  60.3698656  -0.9250450
  36.2202302  61.1059682  -1.2503961  35.3475491  60.6762649  -0.0903691
  39.8241811  65.2116572  -1.6577978  40.7759233  65.3114670  -1.6365754
  39.6545261  64.4194841  -1.1479894  37.8456190  62.2972155  -1.4718577
  37.2506122  62.5777168  -2.1672089  37.5605887  62.7866056  -0.7001836
  42.3029888  68.4322692  -2.5435678  42.2706208  67.4938692  -2.3575995
  42.9130512  68.5106728  -3.2769854  42.4524377  65.2233735  -2.4977395
  41.9363425  64.4392192  -2.6847466  43.3364325  64.8952452  -2.3330876
  48.1206438  69.4938699  -3.4029642  48.8509827  69.2323987  -2.8421938
  47.5113384  68.7567421  -3.3627574  46.2021735  67.6346561  -2.8055190
  45.4754899  67.5002526  -3.4138699  45.7869022  67.9423390  -1.9998472
  34.0251912  71.3536491   4.9592183  34.9454921  71.5315090   5.1532229
  33.9901495  70.4092536   4.8071882  27.0213984  69.2637526  -2.3985036
  27.2399994  70.1954633  -2.3797002  27.4339758  68.9045500  -1.6130232
  31.8941850  64.8370731   6.9917713  31.7938576  65.7865088   6.9229804
  31.6763392  64.5088970   6.1193783  31.7573120  68.2667870   5.8082774
  31.2740201  69.0668230   6.0146663  31.8434059  68.2775815   4.8550218
  27.6846457  72.1572405  -2.1548792  28.6389711  72.1256347  -2.2218860
  27.4858981  71.6963029  -1.3398566  28.2745839  70.7273521   0.4122006
  29.0938728  71.2217600   0.4356843  28.5482647  69.8105489   0.3839573
  43.8199530  63.8558413  -5.4521759  44.4144021  63.6154149  -6.1628451
  43.8926114  63.1365544  -4.8248223  46.1270603  67.1624614  -6.6778338
  45.5670161  67.2317804  -5.9046776  45.5214106  66.9865599  -7.3978841
  23.5280754  65.0611655   1.1114203  24.1739617  64.5510609   1.6001428
  23.3197905  65.7980336   1.6857628  36.0534146  72.1292502   6.6106343
  36.9225305  72.3033155   6.2492978  35.5740897  72.9486919   6.4882073
  30.2220326  79.2489603  -1.7104223  31.1247573  79.2813213  -1.3937728
  29.9957696  78.3190054  -1.6957887  27.8678245  62.2079272   5.2089217
  28.7309706  61.8516077   5.4192542  27.2943655  61.8693167   5.8964621
  47.7126621  83.8381128  -3.9848382  48.3505031  83.7187876  -4.6885042
  47.5947464  84.7861972  -3.9260430  44.5216328  83.7908556  -4.0486857
  44.1834839  83.6749621  -4.9366322  45.3906096  83.3899721  -4.0685851
  45.0036111  84.9443408   1.9099348  44.9924751  84.5496206   1.0379852
  45.1656750  84.2109481   2.5033120  41.7243372  87.7280520   0.8578532
  41.4333238  88.6326151   0.7425199  42.3600356  87.7697047   1.5722602
  42.6499579  85.1057368  -2.5520108  43.2463151  84.8813391  -3.2663145
  42.7074550  84.3642114  -1.9494660  50.1901737  75.2129389  -1.5467587
  49.8585062  76.0824800  -1.7706372  49.5947351  74.8965673  -0.8673556
  46.6833257  87.4141935  -2.1471674  46.3833980  88.3166974  -2.2555867
  46.3384316  87.1474119  -1.2950521  40.1345738  83.8655732  -6.1134970
  39.2096235  83.7331946  -5.9057278  40.3830152  84.6449951  -5.6165027
  50.0830401  79.9324476  -4.4674237  49.1747278  79.8639884  -4.7615476
  50.0317997  80.4096420  -3.6392411  44.1571266  81.3514121   3.4760661
  43.3804601  81.9108041   3.4663525  44.7961830  81.8370904   3.9975531
  51.9492047  78.1340914  -2.6896363  51.3066427  78.4273447  -3.3356568
  51.4446976  78.0193834  -1.8843166  42.4117639  84.1599574   3.0378628
  43.1532323  84.6984618   2.7613451  41.7054624  84.7865863   3.1950179
  47.8872978  86.3028715   1.6350789  48.2956334  85.8611125   0.8905421
  47.1650240  85.7281342   1.8884982  44.2404048  81.2401322  -0.9915654
  45.0865244  81.6640735  -0.8481005  44.1802686  80.5834946  -0.2977091
  47.3903494  78.9005690   0.6665520  47.1464426  79.6547751   0.1299795
  47.6663424  79.2791038   1.5012767  49.3441957  85.4444302  -0.6557215
  49.5558852  86.0876062  -1.3322834  49.2971705  84.6106619  -1.1235285
  46.9468186  78.0562123  -3.7520643  46.0852665  78.3543377  -3.4603905
  46.9730620  78.2732522  -4.6839610  40.6553836  86.1475795  -4.4067074
  41.2255193  86.5763064  -5.0449589  41.2461948  85.8658380  -3.7082888
  41.1479003  81.3139223   3.8393938  40.5177663  81.9955503   4.0729334
  41.0415090  81.2022304   2.8947076  44.2244388  87.8700301  -0.3274147
  44.2888821  88.3320708   0.5084025  43.5155312  87.2397666  -0.1991837
  34.7261678  81.2341509  -2.8025147  34.9769716  82.1188519  -2.5367571
  35.2621226  81.0546111  -3.5750056  40.4259745  75.6159988   6.2019189
  40.0326691  75.0626187   6.8766833  41.2425886  75.9270567   6.5925706
  43.3427706  77.0317868   3.7939445  44.0837420  77.6325021   3.7143908
  43.5745629  76.2895505   3.2357488  38.4869044  82.2174235   2.0717675
  38.3722559  81.3159492   2.3724774  37.6313562  82.4637932   1.7202491
  45.5660882  90.1591975   3.6705176  45.1224736  89.3728354   3.3526080
  46.2278096  90.3471126   3.0049066  40.3248003  91.6887777  -1.8034146
  40.8755428  91.5604840  -2.5757152  39.4859479  91.9882666  -2.1539253
  47.6642120  90.4394775   1.6986577  47.6460595  91.2603656   1.2066846
  48.5862040  90.3148850   1.9236718  44.1215174  87.9538905   2.5410085
  44.6543511  87.1927193   2.3109393  43.5929255  87.6612556   3.2834240
  47.2884869  73.0598970  -1.9296273  46.9449139  73.9500612  -2.0057163
  47.6563832  72.8700628  -2.7926688  44.8382263  77.8957282  -8.3638600
  43.9823859  77.5064133  -8.5432961  45.2509215  77.9749243  -9.2238814
  46.3681410  75.4303626  -3.9647040  45.8646205  75.3933761  -4.7779235
  46.6612016  76.3396368  -3.9050383  42.6124295  75.5142355  -4.9580858
  43.4777292  75.3185164  -5.3174969  42.6801804  75.2852707  -4.0311501
  40.2186615  77.7444563  -7.5864491  40.7930366  77.5219745  -8.3191298
  40.8057597  77.8133258  -6.8335890  42.5209282  74.6185812  -8.8589422
  41.8673695  74.3034829  -9.4832807  42.4789756  73.9961553  -8.1329599
  45.7547023  81.1067746  -4.5341774  44.8369584  81.3282693  -4.6920086
  46.1707166  81.1814056  -5.3930067  49.0872535  72.3192530  -6.8278535
  49.3931412  71.4589893  -7.1152620  49.8125140  72.9110150  -7.0279542
  43.3593615  82.6146323  -6.3202344  43.4142224  81.6620159  -6.3959868
  42.5484817  82.7705762  -5.8361046  41.2985975  81.2323382  -8.5611966
  40.4853840  81.5317553  -8.1546773  41.7944969  80.8379071  -7.8437483
  46.8960186  81.6965207   0.2702928  47.2509574  81.9236680   1.1297394
  47.5432317  82.0283584  -0.3519816  40.7900049  78.8041738  -2.9450731
  41.4299429  78.6630497  -3.6427767  39.9577580  78.5176251  -3.3212129
  37.7928666  78.7742063  -8.1677744  38.0535483  79.6887396  -8.2768583
  38.6145838  78.3066506  -8.0181131  39.2653591  80.1879820  -0.9978919
  39.9376644  79.9797182  -1.6466270  38.4383378  79.9901906  -1.4373687
  45.1679163  76.8141761   1.0186742  44.5207078  77.5131711   0.9251218
  45.9380178  77.2477905   1.3862990  48.5757961  87.0790613   4.0937295
  48.4243467  86.8501165   3.1767379  48.5662640  88.0361215   4.1068640
  45.3443297  84.6522526  -0.9216439  46.2735357  84.8033686  -1.0947471
  44.9234327  84.7406547  -1.7767792  44.1431629  88.6773190  -3.1517901
  44.0042715  88.3091975  -2.2791963  43.3546225  89.1920830  -3.3233943
  39.6681088  83.4622423  -0.2376482  39.5300886  82.7302662   0.3635057
  40.5786012  83.3731323  -0.5192294  42.2963389  83.1742382  -0.7492802
  43.0063007  82.5335575  -0.7906184  42.2532697  83.4255277   0.1733378
  50.2850168  90.1109736   2.1713777  50.2262714  89.4268956   1.5044360
  50.6869686  90.8528726   1.7194403  41.0092323  80.1607600   1.0702837
  40.4729680  79.7098339   1.7224433  40.4209031  80.2953509   0.3273301
  50.2867575  88.0749320   0.4027756  49.3994354  87.7375242   0.5254155
  50.8566126  87.3432351   0.6396522  36.7431444  79.2963608  -1.8444168
  36.6589633  78.6889278  -2.5793759  35.9214151  79.7872626  -1.8434672
  46.9155158  77.7817172  -6.4773973  47.4123858  77.0287134  -6.7972903
  46.1442140  77.8181488  -7.0430764  43.4990127  79.9234555  -6.7502289
  43.1287914  79.3705595  -6.0621383  43.9949219  79.3192688  -7.3027289
  41.3279325  90.3832050   0.3452729  42.0288785  91.0168533   0.4982123
  40.8574440  90.7246781  -0.4151632  49.3574153  74.7486765  -4.3294615
  48.4437233  74.9790992  -4.1612408  49.7867254  74.8325209  -3.4780582
  49.1280611  82.9376657  -1.8294720  48.4752062  83.1852564  -2.4842268
  49.5060991  82.1240795  -2.1632243  45.1768184  83.6796468   4.6571317
  44.5008821  83.5790597   5.3273692  45.9995818  83.5235682   5.1207314
  38.8955460  77.3338545  -0.5049183  38.9596787  78.1953376  -0.9171785
  38.8322581  76.7212547  -1.2376824  38.3707733  79.4061678   3.1423852
  38.9979772  79.0238755   3.7561376  37.5135652  79.1875880   3.5079544
  48.7701842  89.8124653   4.7477587  49.3141746  90.4254611   4.2532542
  48.1888686  90.3704231   5.2644600  38.6767523  79.2894104  -4.9430245
  37.9554108  79.9030071  -5.0822772  39.4660779  79.8251868  -5.0213599
  41.4793836  76.6248530   1.3310407  42.0028238  76.8710827   2.0936716
  41.2606170  77.4568565   0.9113544  42.6846381  77.5662225  -0.9839923
  42.3443202  76.7670038  -0.5819243  41.9785388  77.8663936  -1.5563090
  43.3362853  74.6511538  -2.5312600  44.1588922  74.1772016  -2.6533709
  43.5800917  75.4302021  -2.0313913  40.8601432  81.3430658  -4.7220621
  40.7146013  81.6570961  -3.8296340  40.3826636  81.9615559  -5.2749722
  42.7197815  78.3333206  -4.6739732  42.7059384  77.4374300  -5.0107434
  43.4370243  78.3403870  -4.0401445  44.5723945  78.7670546  -2.6286604
  44.3141723  79.6887617  -2.6302274  44.0408986  78.3700981  -1.9386140
  35.3347094  83.8836003  -1.7832960  34.7900562  84.6595811  -1.6512686
  36.2126444  84.2306807  -1.9413838  42.1234711  77.2147587  -9.4052161
  42.2450622  76.2864233  -9.2061274  41.8336753  77.2286272 -10.3173846
  44.9925901  74.9002497  -6.2685442  45.0147598  74.9641830  -7.2233462
  45.4093960  74.0607006  -6.0744935  36.1213116  83.0105899   1.1097197
  35.3794852  83.1588534   1.6961827  35.8005860  83.2714165   0.2463946
  44.0656779  92.5521877   0.9077587  44.3743905  92.3071024   1.7800287
  44.8632261  92.7568516   0.4196457  41.6075790  78.7279584   4.8037771
  41.6563946  79.6041707   4.4215541  42.1498304  78.1856977   4.2309414
  52.0930636  89.2720707   4.0838908  51.3026180  89.2544846   3.5443408
  51.8563990  89.8109001   4.8387945  52.2128511  86.1213174   1.3971637
  52.2626516  85.9563181   2.3387160  52.1042434  85.2540433   1.0069518
  49.5032273  82.1044102   2.7130944  50.4042136  81.9650566   2.4214941
  49.5780248  82.2698556   3.6529121  43.8375079  79.4810956   1.5584130
  42.9678388  79.7744522   1.2866718  44.0734559  80.0651401   2.2791393
  53.7146708  88.5410115   1.6413658  53.4231516  88.9040096   2.4777119
  53.1018839  87.8277123   1.4626990  51.9633896  83.6642730   0.1093716
  52.4388018  83.8570376  -0.6987432  51.0399461  83.7201915  -0.1362900
  46.5414113  75.6990573  -0.9250450  47.0596056  76.4351600  -1.2503961
  46.1869245  76.0054567  -0.0903691  46.7926707  72.1190856  -5.4049553
  47.0728460  71.4514045  -4.7789127  47.5777314  72.3119951  -5.9174889
  50.6635565  80.5408490  -1.6577978  51.6152988  80.6406587  -1.6365754
  50.4939015  79.7486758  -1.1479894  48.6849945  77.6264073  -1.4718577
  48.0899877  77.9069086  -2.1672089  48.3999641  78.1157974  -0.7001836
  53.2918131  80.5525653  -2.4977395  52.7757180  79.7684109  -2.6847466
  54.1758080  80.2244369  -2.3330876  50.9528858  74.2966668  -6.5381583
  50.7553679  73.9881757  -5.6538251  51.5628564  75.0228307  -6.4083653
  44.8645666  86.6828409   4.9592183  45.7848676  86.8607008   5.1532229
  44.8295249  85.7384454   4.8071882  37.8607739  84.5929443  -2.3985036
  38.0793749  85.5246551  -2.3797002  38.2733513  84.2337418  -1.6130232
  44.7811957  75.0997529 -10.4109348  43.9712685  74.7544613 -10.0354102
  45.4696373  74.7905072  -9.8221736  46.7102505  74.1775575  -8.7885051
  47.2633543  74.5971029  -8.1295028  46.9472591  73.2511323  -8.7462095
  42.7335604  80.1662649   6.9917713  42.6332331  81.1157006   6.9229804
  42.5157146  79.8380888   6.1193783  48.5384878  75.6881158  -7.0785067
  49.0384657  75.7997693  -7.8870748  49.1820486  75.3842211  -6.4384258
  42.5966874  83.5959788   5.8082774  42.1133956  84.3960148   6.0146663
  42.6827813  83.6067733   4.8550218  38.5240212  87.4864322  -2.1548792
  39.4783465  87.4548265  -2.2218860  38.3252735  87.0254946  -1.3398566
  39.1139594  86.0565439   0.4122006  39.9332483  86.5509517   0.4356843
  39.3876401  85.1397407   0.3839573  34.3674508  80.3903572   1.1114203
  35.0133372  79.8802526   1.6001428  34.1591659  81.1272254   1.6857628
  46.8927900  87.4584420   6.6106343  47.7619060  87.6325072   6.2492978
  46.4134652  88.2778837   6.4882073  41.0614080  94.5781521  -1.7104223
  41.9641327  94.6105131  -1.3937728  40.8351450  93.6481972  -1.6957887
  46.7030238  71.2486394  -8.8815964  45.9362634  70.6944880  -8.7359282
  47.1140943  71.3208262  -8.0201813  38.7071999  77.5371189   5.2089217
  39.5703461  77.1807994   5.4192542  38.1337410  77.1985084   5.8964621
  51.2653500  90.9451906   6.2019189  50.8720445  90.3918105   6.8766833
  52.0819640  91.2562485   6.5925706  54.1821461  92.3609785   3.7939445
  54.9231174  92.9616938   3.7143908  54.4139384  91.6187423   3.2357488
  49.2101487  94.7353596   3.1423852  49.8373526  94.3530673   3.7561376
  48.3529406  94.5167798   3.5079544  52.4469545  94.0571502   4.8037771
  52.4957700  94.9333624   4.4215541  52.9892059  93.5148895   4.2309414
  53.5729359  95.4954567   6.9917713  53.4726085  96.4448924   6.9229804
  53.3550901  95.1672806   6.1193783  45.2068262  95.7195490   1.1114203
  45.8527126  95.2094444   1.6001428  44.9985414  96.4564172   1.6857628
  49.5465753  92.8663107   5.2089217  50.4097215  92.5099912   5.4192542
  48.9731164  92.5277002   5.8964621  50.2850169  67.1171858 -11.1040917
  50.2262715  66.4331079 -11.7710334  50.6869687  67.8590848 -11.5560291
  48.7701843  66.8186776  -8.5277106  49.3141747  67.4316734  -9.0222152
  48.1888688  67.3766354  -8.0110093  52.0930637  66.2782830  -9.1915785
  51.3026181  66.2606969  -9.7311286  51.8563992  66.8171123  -8.4366748
  53.7146709  65.5472238 -11.6341035  53.4231517  65.9102218 -10.7977574
  53.1018840  64.8339246 -11.8127703  46.8927901  64.4646542  -6.6648350
  47.7619061  64.6387195  -7.0261715  46.4134653  65.2840959  -6.7872621
  51.2653501  67.9514029  -7.0735505  50.8720447  67.3980227  -6.3987860
  52.0819641  68.2624607  -6.6828987  54.1821462  69.3671908  -9.4815248
  54.9231175  69.9679061  -9.5610786  54.4139385  68.6249546 -10.0397206
  49.2101489  71.7415718 -10.1330842  49.8373528  71.3592795  -9.5193317
  48.3529408  71.5229920  -9.7675149  52.4469546  71.0633624  -8.4716922
  52.4957701  71.9395747  -8.8539153  52.9892060  70.5211017  -9.0445279
  53.5729360  72.5016689  -6.2836981  53.4726087  73.4511046  -6.3524890
  53.3550902  72.1734928  -7.1560911  45.2068264  72.7257613 -12.1640490
  45.8527127  72.2156567 -11.6753265  44.9985415  73.4626294 -11.5897065
  49.5465755  69.8725230  -8.0665476  50.4097216  69.5162035  -7.8562152
  48.9731165  69.5339125  -7.3790072
 122.0044129 122.0044129 122.0044129 109.4712190 109.4712190 109.4712190
